<LesHouchesEvents version="3.0">
<header>
<!--
#*********************************************************************
#                                                                    *
#                        MadGraph5_aMC@NLO                           *
#                                                                    *
#                           Going Beyond                             *
#                                                                    *
#                   http://madgraph.hep.uiuc.edu                     *
#                   http://madgraph.phys.ucl.ac.be                   *
#                   http://amcatnlo.cern.ch                          *
#                                                                    *
#                     The MadGraph5_aMC@NLO team                     *
#                                                                    *
#....................................................................*
#                                                                    *
# This file contains all the information necessary to reproduce      *
# the events generated:                                              *
#                                                                    *
# 1. software version                                                *
# 2. proc_card          : code generation info including model       *
# 3. param_card         : model primary parameters in the LH format  *
# 4. run_card           : running parameters (collider and cuts)     *
# 5. pythia_card        : present only if pythia has been run        *
# 6. pgs_card           : present only if pgs has been run           *
# 7. delphes_cards      : present only if delphes has been run       *
#                                                                    *
#                                                                    *
#*********************************************************************
-->
<MGVersion>
#5.2.2.3
</MGVersion>
<MG5ProcCard>
#************************************************************
#*                     MadGraph5_aMC@NLO                    *
#*                                                          *
#*                *                       *                 *
#*                  *        * *        *                   *
#*                    * * * * 5 * * * *                     *
#*                  *        * *        *                   *
#*                *                       *                 *
#*                                                          *
#*                                                          *
#*         VERSION 2.2.3                 2015-02-10         *
#*                                                          *
#*    The MadGraph5_aMC@NLO Development Team - Find us at   *
#*    https://server06.fynu.ucl.ac.be/projects/madgraph     *
#*                                                          *
#************************************************************
#*                                                          *
#*               Command File for MadGraph5_aMC@NLO         *
#*                                                          *
#*     run as ./bin/mg5_aMC  filename                       *
#*                                                          *
#************************************************************
set group_subprocesses Auto
set ignore_six_quark_processes False
set loop_optimized_output True
set gauge unitary
set complex_mass_scheme False
import model sm
define p = g u c d s u~ c~ d~ s~
define j = g u c d s u~ c~ d~ s~
define l+ = e+ mu+
define l- = e- mu-
define vl = ve vm vt
define vl~ = ve~ vm~ vt~
import model Zprime_UFO
generate p p > zph, zph > j j
add process p p > zph, zph > b b~
output Dijet_signal
</MG5ProcCard>
<MGProcCard>
#*********************************************************************
#                        MadGraph/MadEvent                           *
#                   http://madgraph.hep.uiuc.edu                     *
#                                                                    *
#                          proc_card.dat                             *
#*********************************************************************
#                                                                    *
#            This Files is generated by MADGRAPH 5                   *
#                                                                    *
# WARNING: This Files is generated for MADEVENT (compatibility issue)*
#          This files is NOT a valid MG4 proc_card.dat               *
#          Running this in MG4 will NEVER reproduce the result of MG5*
#                                                                    *
#*********************************************************************
#*********************************************************************
# Process(es) requested : mg2 input                                  *
#*********************************************************************
# Begin PROCESS # This is TAG. Do not modify this line
p p > zph , zph > j j           #Process
# Be carefull the coupling are here in MG5 convention
          
end_coup           # End the couplings input

done               # this tells MG there are no more procs
# End PROCESS  # This is TAG. Do not modify this line
#*********************************************************************
# Model information                                                  *
#*********************************************************************
# Begin MODEL  # This is TAG. Do not modify this line
Zprime_UFO
# End   MODEL  # This is TAG. Do not modify this line
#*********************************************************************
# Start multiparticle definitions                                    *
#*********************************************************************
# Begin MULTIPARTICLES # This is TAG. Do not modify this line

# End  MULTIPARTICLES # This is TAG. Do not modify this line
</MGProcCard>
<MGRunCard>
#*********************************************************************
#                       MadGraph5_aMC@NLO                            *
#                                                                    *
#                     run_card.dat MadEvent                          *
#                                                                    *
#  This file is used to set the parameters of the run.               *
#                                                                    *
#  Some notation/conventions:                                        *
#                                                                    *
#   Lines starting with a '# ' are info or comments                  *
#                                                                    *
#   mind the format:   value    = variable     ! comment             *
#*********************************************************************
#
#*******************                                                 
# Running parameters
#*******************                                                 
#                                                                    
#*********************************************************************
# Tag name for the run (one word)                                    *
#*********************************************************************
  tag_1     = run_tag ! name of the run 
#*********************************************************************
# Run to generate the grid pack                                      *
#*********************************************************************
  .false.     = gridpack  !True = setting up the grid pack
#*********************************************************************
# Number of events and rnd seed                                      *
# Warning: Do not generate more than 1M events in a single run       *
# If you want to run Pythia, avoid more than 50k events in a run.    *
#*********************************************************************
  2000 = nevents ! Number of unweighted events requested 
 2703 = iseed   ! rnd seed (0=assigned automatically=default))
#*********************************************************************
# Collider type and energy                                           *
# lpp: 0=No PDF, 1=proton, -1=antiproton, 2=photon from proton,      *
#                                         3=photon from electron     *
#*********************************************************************
        1     = lpp1    ! beam 1 type 
        1     = lpp2    ! beam 2 type
     4000     = ebeam1  ! beam 1 total energy in GeV
     4000     = ebeam2  ! beam 2 total energy in GeV
#*********************************************************************
# Beam polarization from -100 (left-handed) to 100 (right-handed)    *
#*********************************************************************
        0     = polbeam1 ! beam polarization for beam 1
        0     = polbeam2 ! beam polarization for beam 2
#*********************************************************************
# PDF CHOICE: this automatically fixes also alpha_s and its evol.    *
#*********************************************************************
 'nn23lo1'    = pdlabel     ! PDF set                                     
 230000    = lhaid     ! if pdlabel=lhapdf, this is the lhapdf number
#*********************************************************************
# Renormalization and factorization scales                           *
#*********************************************************************
 F        = fixed_ren_scale  ! if .true. use fixed ren scale
 F        = fixed_fac_scale  ! if .true. use fixed fac scale
 91.1880  = scale            ! fixed ren scale
 91.1880  = dsqrt_q2fact1    ! fixed fact scale for pdf1
 91.1880  = dsqrt_q2fact2    ! fixed fact scale for pdf2
 1        = scalefact        ! scale factor for event-by-event scales
#*********************************************************************
# Matching - Warning! ickkw > 1 is still beta
#*********************************************************************
 0        = ickkw            ! 0 no matching, 1 MLM, 2 CKKW matching
 1        = highestmult      ! for ickkw=2, highest mult group
 1        = ktscheme         ! for ickkw=1, 1 Durham kT, 2 Pythia pTE
 1        = alpsfact         ! scale factor for QCD emission vx
 F        = chcluster        ! cluster only according to channel diag
 T        = pdfwgt           ! for ickkw=1, perform pdf reweighting
 5        = asrwgtflavor     ! highest quark flavor for a_s reweight
 T        = clusinfo         ! include clustering tag in output
 3.0      = lhe_version       ! Change the way clustering information pass to shower.        
#*********************************************************************
#**********************************************************
#
#**********************************************************
# Automatic ptj and mjj cuts if xqcut > 0
# (turn off for VBF and single top processes)
#**********************************************************
   T  = auto_ptj_mjj  ! Automatic setting of ptj and mjj
#**********************************************************
#                                                                    
#**********************************
# BW cutoff (M+/-bwcutoff*Gamma)
#**********************************
  15  = bwcutoff      ! (M+/-bwcutoff*Gamma)
#**********************************************************
# Apply pt/E/eta/dr/mij cuts on decay products or not
# (note that etmiss/ptll/ptheavy/ht/sorted cuts always apply)
#**********************************************************
   T  = cut_decays    ! Cut decay products 
#*************************************************************
# Number of helicities to sum per event (0 = all helicities)
# 0 gives more stable result, but longer run time (needed for
# long decay chains e.g.).
# Use >=2 if most helicities contribute, e.g. pure QCD.
#*************************************************************
   0  = nhel          ! Number of helicities used per event
#*******************                                                 
# Standard Cuts
#*******************                                                 
#                                                                    
#*********************************************************************
# Minimum and maximum pt's (for max, -1 means no cut)                *
#*********************************************************************
 20  = ptj       ! minimum pt for the jets 
  0  = ptb       ! minimum pt for the b 
 10  = pta       ! minimum pt for the photons 
 10  = ptl       ! minimum pt for the charged leptons 
  0  = misset    ! minimum missing Et (sum of neutrino's momenta)
  0  = ptheavy   ! minimum pt for one heavy final state
 1.0 = ptonium   ! minimum pt for the quarkonium states
 -1  = ptjmax    ! maximum pt for the jets
 -1  = ptbmax    ! maximum pt for the b
 -1  = ptamax    ! maximum pt for the photons
 -1  = ptlmax    ! maximum pt for the charged leptons
 -1  = missetmax ! maximum missing Et (sum of neutrino's momenta)
#*********************************************************************
# Minimum and maximum E's (in the center of mass frame)              *
#*********************************************************************
  0  = ej     ! minimum E for the jets 
  0  = eb     ! minimum E for the b 
  0  = ea     ! minimum E for the photons 
  0  = el     ! minimum E for the charged leptons 
 -1   = ejmax ! maximum E for the jets
 -1   = ebmax ! maximum E for the b
 -1   = eamax ! maximum E for the photons
 -1   = elmax ! maximum E for the charged leptons
#*********************************************************************
# Maximum and minimum absolute rapidity (for max, -1 means no cut)   *
#*********************************************************************
   5  = etaj    ! max rap for the jets 
  -1  = etab    ! max rap for the b
 2.5  = etaa    ! max rap for the photons 
 2.5  = etal    ! max rap for the charged leptons 
 0.6  = etaonium ! max rap for the quarkonium states
   0  = etajmin ! min rap for the jets
   0  = etabmin ! min rap for the b
   0  = etaamin ! min rap for the photons
   0  = etalmin ! main rap for the charged leptons
#*********************************************************************
# Minimum and maximum DeltaR distance                                *
#*********************************************************************
 0.4 = drjj    ! min distance between jets 
 0   = drbb    ! min distance between b's 
 0.4 = drll    ! min distance between leptons 
 0.4 = draa    ! min distance between gammas 
 0   = drbj    ! min distance between b and jet 
 0.4 = draj    ! min distance between gamma and jet 
 0.4 = drjl    ! min distance between jet and lepton 
 0   = drab    ! min distance between gamma and b 
 0   = drbl    ! min distance between b and lepton 
 0.4 = dral    ! min distance between gamma and lepton 
 -1  = drjjmax ! max distance between jets
 -1  = drbbmax ! max distance between b's
 -1  = drllmax ! max distance between leptons
 -1  = draamax ! max distance between gammas
 -1  = drbjmax ! max distance between b and jet
 -1  = drajmax ! max distance between gamma and jet
 -1  = drjlmax ! max distance between jet and lepton
 -1  = drabmax ! max distance between gamma and b
 -1  = drblmax ! max distance between b and lepton
 -1  = dralmax ! maxdistance between gamma and lepton
#*********************************************************************
# Minimum and maximum invariant mass for pairs                       *
# WARNING: for four lepton final state mmll cut require to have      *
#          different lepton masses for each flavor!                  *           
#*********************************************************************
 0   = mmjj    ! min invariant mass of a jet pair 
 0   = mmbb    ! min invariant mass of a b pair 
 0   = mmaa    ! min invariant mass of gamma gamma pair
 0   = mmll    ! min invariant mass of l+l- (same flavour) lepton pair
 -1  = mmjjmax ! max invariant mass of a jet pair
 -1  = mmbbmax ! max invariant mass of a b pair
 -1  = mmaamax ! max invariant mass of gamma gamma pair
 -1  = mmllmax ! max invariant mass of l+l- (same flavour) lepton pair
#*********************************************************************
# Minimum and maximum invariant mass for all letpons                 *
#*********************************************************************
 0   = mmnl    ! min invariant mass for all letpons (l+- and vl) 
 -1  = mmnlmax ! max invariant mass for all letpons (l+- and vl) 
#*********************************************************************
# Minimum and maximum pt for 4-momenta sum of leptons                *
#*********************************************************************
 0   = ptllmin  ! Minimum pt for 4-momenta sum of leptons(l and vl)
 -1  = ptllmax  ! Maximum pt for 4-momenta sum of leptons(l and vl)
#*********************************************************************
# Inclusive cuts                                                     *
#*********************************************************************
 0  = xptj ! minimum pt for at least one jet  
 0  = xptb ! minimum pt for at least one b 
 0  = xpta ! minimum pt for at least one photon 
 0  = xptl ! minimum pt for at least one charged lepton 
#*********************************************************************
# Control the pt's of the jets sorted by pt                          *
#*********************************************************************
 0   = ptj1min ! minimum pt for the leading jet in pt
 0   = ptj2min ! minimum pt for the second jet in pt
 0   = ptj3min ! minimum pt for the third jet in pt
 0   = ptj4min ! minimum pt for the fourth jet in pt
 -1  = ptj1max ! maximum pt for the leading jet in pt 
 -1  = ptj2max ! maximum pt for the second jet in pt
 -1  = ptj3max ! maximum pt for the third jet in pt
 -1  = ptj4max ! maximum pt for the fourth jet in pt
 0   = cutuse  ! reject event if fails any (0) / all (1) jet pt cuts
#*********************************************************************
# Control the pt's of leptons sorted by pt                           *
#*********************************************************************
 0   = ptl1min ! minimum pt for the leading lepton in pt
 0   = ptl2min ! minimum pt for the second lepton in pt
 0   = ptl3min ! minimum pt for the third lepton in pt
 0   = ptl4min ! minimum pt for the fourth lepton in pt
 -1  = ptl1max ! maximum pt for the leading lepton in pt 
 -1  = ptl2max ! maximum pt for the second lepton in pt
 -1  = ptl3max ! maximum pt for the third lepton in pt
 -1  = ptl4max ! maximum pt for the fourth lepton in pt
#*********************************************************************
# Control the Ht(k)=Sum of k leading jets                            *
#*********************************************************************
 0   = htjmin ! minimum jet HT=Sum(jet pt)
 -1  = htjmax ! maximum jet HT=Sum(jet pt)
 0   = ihtmin  !inclusive Ht for all partons (including b)
 -1  = ihtmax  !inclusive Ht for all partons (including b)
 0   = ht2min ! minimum Ht for the two leading jets
 0   = ht3min ! minimum Ht for the three leading jets
 0   = ht4min ! minimum Ht for the four leading jets
 -1  = ht2max ! maximum Ht for the two leading jets
 -1  = ht3max ! maximum Ht for the three leading jets
 -1  = ht4max ! maximum Ht for the four leading jets
#***********************************************************************
# Photon-isolation cuts, according to hep-ph/9801442                   *
# When ptgmin=0, all the other parameters are ignored                  *
# When ptgmin>0, pta and draj are not going to be used                 *
#***********************************************************************
   0 = ptgmin ! Min photon transverse momentum
 0.4 = R0gamma ! Radius of isolation code
 1.0 = xn ! n parameter of eq.(3.4) in hep-ph/9801442
 1.0 = epsgamma ! epsilon_gamma parameter of eq.(3.4) in hep-ph/9801442
 .true. = isoEM ! isolate photons from EM energy (photons and leptons)
#*********************************************************************
# WBF cuts                                                           *
#*********************************************************************
 0   = xetamin ! minimum rapidity for two jets in the WBF case  
 0   = deltaeta ! minimum rapidity for two jets in the WBF case 
#*********************************************************************
# KT DURHAM CUT                                                      *
#*********************************************************************
 -1    =  ktdurham        
 0.4  =  dparameter 
#*********************************************************************
# maximal pdg code for quark to be considered as a light jet         *
# (otherwise b cuts are applied)                                     *
#*********************************************************************
 4 = maxjetflavor    ! Maximum jet pdg code
#*********************************************************************
# Jet measure cuts                                                   *
#*********************************************************************
 0   = xqcut   ! minimum kt jet measure between partons
#*********************************************************************
#
#*********************************************************************
# Store info for systematics studies                                 *
# WARNING: If use_syst is T, matched Pythia output is                *
#          meaningful ONLY if plotted taking matchscale              *
#          reweighting into account!                                 *
#*********************************************************************
   F  = use_syst      ! Enable systematics studies
#
#**************************************
# Parameter of the systematics study
#  will be used by SysCalc (if installed)
#**************************************                                  
#
0.5 1 2 = sys_scalefact  # factorization/renormalization scale factor
0.5 1 2 = sys_alpsfact  # \alpha_s emission scale factors
30 50 = sys_matchscale # variation of merging scale
# PDF sets and number of members (0 or none for all members).
CT10nlo.LHgrid = sys_pdf # matching scales
# MSTW2008nlo68cl.LHgrid 1  = sys_pdf
</MGRunCard>
<slha>
######################################################################
## PARAM_CARD AUTOMATICALY GENERATED BY MG5 FOLLOWING UFO MODEL   ####
######################################################################
##                                                                  ##
##  Width set on Auto will be computed following the information    ##
##        present in the decay.py files of the model.               ##
##        See  arXiv:1402.1178 for more details.                    ##
##                                                                  ##
######################################################################

###################################
## INFORMATION FOR CKMBLOCK
###################################
Block ckmblock 
    1 2.277360e-01 # cabi 

###################################
## INFORMATION FOR FRBLOCK
###################################
Block frblock 
    1 1.400000e+00 # gz 

###################################
## INFORMATION FOR MASS
###################################
Block mass 
    1 5.040000e-03 # MD 
    2 2.550000e-03 # MU 
    3 1.010000e-01 # MS 
    4 1.270000e+00 # MC 
    5 4.700000e+00 # MB 
    6 1.720000e+02 # MT 
   11 5.110000e-04 # Me 
   13 1.056600e-01 # MM 
   15 1.777000e+00 # MTA 
   23 9.118760e+01 # MZ 
   25 1.200000e+02 # MH 
  10030 3.400000e+03 # MZph 
  10031 3.000000e+02 # MZpl 
## Dependent parameters, given by model restrictions.
## Those values should be edited following the 
## analytical expression. MG5 ignores those values 
## but they are important for interfacing the output of MG5
## to external program such as Pythia.
  12 0.000000 # ve : 0.0 
  14 0.000000 # vm : 0.0 
  16 0.000000 # vt : 0.0 
  21 0.000000 # g : 0.0 
  22 0.000000 # a : 0.0 
  24 79.824360 # w+ : cmath.sqrt(MZ__exp__2/2. + cmath.sqrt(MZ__exp__4/4. - (aEW*cmath.pi*MZ__exp__2)/(Gf*sqrt__2))) 

###################################
## INFORMATION FOR SMINPUTS
###################################
Block sminputs 
    1 1.279000e+02 # aEWM1 
    2 1.166370e-05 # Gf 
    3 1.184000e-01 # aS 

###################################
## INFORMATION FOR YUKAWA
###################################
Block yukawa 
    1 5.040000e-03 # ymdo 
    2 2.550000e-03 # ymup 
    3 1.010000e-01 # yms 
    4 1.270000e+00 # ymc 
    5 4.700000e+00 # ymb 
    6 1.720000e+02 # ymt 
   11 5.110000e-04 # yme 
   13 1.056600e-01 # ymm 
   15 1.777000e+00 # ymtau 

###################################
## INFORMATION FOR DECAY
###################################
DECAY   6 1.508336e+00 # WT 
DECAY  23 2.495200e+00 # WZ 
DECAY  24 2.085000e+00 # WW 
DECAY  25 5.753088e-03 # WH 
## Dependent parameters, given by model restrictions.
## Those values should be edited following the 
## analytical expression. MG5 ignores those values 
## but they are important for interfacing the output of MG5
## to external program such as Pythia.
DECAY  1 0.000000 # d : 0.0 
DECAY  2 0.000000 # u : 0.0 
DECAY  3 0.000000 # s : 0.0 
DECAY  4 0.000000 # c : 0.0 
DECAY  5 0.000000 # b : 0.0 
DECAY  11 0.000000 # e- : 0.0 
DECAY  12 0.000000 # ve : 0.0 
DECAY  13 0.000000 # mu- : 0.0 
DECAY  14 0.000000 # vm : 0.0 
DECAY  15 0.000000 # ta- : 0.0 
DECAY  16 0.000000 # vt : 0.0 
DECAY  21 0.000000 # g : 0.0 
DECAY  22 0.000000 # a : 0.0 
DECAY  10030 0.308725 # zph : (gz__exp__2*MZph*(5 + cmath.sqrt(1 - (4*MT__exp__2)/MZph__exp__2)))/(144.*cmath.pi) 
DECAY  10031 0.132629 # zpl : (5*gz__exp__2*MZpl)/(144.*cmath.pi) 
#===========================================================
# QUANTUM NUMBERS OF NEW STATE(S) (NON SM PDG CODE)
#===========================================================

Block QNUMBERS 10030  # zph 
        1 0  # 3 times electric charge
        2 3  # number of spin states (2S+1)
        3 1  # colour rep (1: singlet, 3: triplet, 8: octet)
        4 0  # Particle/Antiparticle distinction (0=own anti)
Block QNUMBERS 10031  # zpl 
        1 0  # 3 times electric charge
        2 3  # number of spin states (2S+1)
        3 1  # colour rep (1: singlet, 3: triplet, 8: octet)
        4 0  # Particle/Antiparticle distinction (0=own anti)
</slha>
## END BANNER##
<MGGenerationInfo>
#  Number of Events        :         3873
#  Integrated weight (pb)  :  0.72564E-03
#  Max wgt                 :  0.29067E-06
#  Average wgt             :  0.18736E-06
</MGGenerationInfo>
</header>
<init>
     2212     2212  0.40000000000E+04  0.40000000000E+04 0 0  247000  247000 2   1
  0.72601510921E-03  0.23182977917E-05  0.29067010000E-06   0
</init>
<event>
 5   0  0.2767014E-06  0.3306320E+04  0.7818609E-02  0.8161289E-01
       -2   -1    0    0    0  501  0.00000000000E+00  0.00000000000E+00  0.16502245196E+04  0.16502245196E+04  0.25500000920E-02 0.  1.
        2   -1    0    0  501    0  0.00000000000E+00  0.00000000000E+00 -0.16561003876E+04  0.16561003876E+04  0.25500000920E-02 0. -1.
    10030    2    1    2    0    0  0.00000000000E+00  0.00000000000E+00 -0.58758680008E+01  0.33063249072E+04  0.33063196861E+04 0.  0.
        1    1    3    3  502    0 -0.77990004762E+03 -0.81226558020E+03 -0.12132778186E+04  0.16553134211E+04  0.50400001928E-02 0. -1.
       -1    1    3    3    0  502  0.77990004762E+03  0.81226558020E+03  0.12074019506E+04  0.16510114861E+04  0.50400001928E-02 0.  1.
</event>
<event>
 5   0  0.2767014E-06  0.2978564E+04  0.7818609E-02  0.8249879E-01
        2   -1    0    0  501    0  0.00000000000E+00  0.00000000000E+00  0.26090648453E+04  0.26090648453E+04  0.25500000920E-02 0.  1.
       -2   -1    0    0    0  501  0.00000000000E+00  0.00000000000E+00 -0.85009811338E+03  0.85009811338E+03  0.25500000920E-02 0. -1.
    10030    2    1    2    0    0  0.00000000000E+00  0.00000000000E+00  0.17589667320E+04  0.34591629587E+04  0.29785641525E+04 0.  0.
        1    1    3    3  502    0 -0.11100882328E+04 -0.89827205151E+03  0.13705206492E+04  0.19792714349E+04  0.50400001928E-02 0.  1.
       -1    1    3    3    0  502  0.11100882328E+04  0.89827205151E+03  0.38844608280E+03  0.14798915239E+04  0.50400001928E-02 0. -1.
</event>
<event>
 5   0  0.2848685E-06  0.3266728E+04  0.7818609E-02  0.8171413E-01
        2   -1    0    0  501    0  0.00000000000E+00  0.00000000000E+00  0.22733427425E+04  0.22733427425E+04  0.25500000920E-02 0.  1.
       -2   -1    0    0    0  501  0.00000000000E+00  0.00000000000E+00 -0.11735483494E+04  0.11735483494E+04  0.25500000920E-02 0. -1.
    10030    2    1    2    0    0  0.00000000000E+00  0.00000000000E+00  0.10997943931E+04  0.34468910919E+04  0.32667277958E+04 0.  0.
        3    1    3    3  502    0  0.85728740608E+03  0.17738744862E+03 -0.90509045692E+03  0.12592048082E+04  0.10100000352E+00 0. -1.
       -3    1    3    3    0  502 -0.85728740608E+03 -0.17738744862E+03  0.20048848501E+04  0.21876862837E+04  0.10100000352E+00 0.  1.
</event>
<event>
 5   0  0.2767014E-06  0.3411009E+04  0.7818609E-02  0.8135210E-01
        2   -1    0    0  501    0  0.00000000000E+00  0.00000000000E+00  0.17923436045E+04  0.17923436045E+04  0.25500000920E-02 0.  1.
       -2   -1    0    0    0  501  0.00000000000E+00  0.00000000000E+00 -0.16228725950E+04  0.16228725950E+04  0.25500000920E-02 0. -1.
    10030    2    1    2    0    0  0.00000000000E+00  0.00000000000E+00  0.16947100950E+03  0.34152161995E+04  0.34110088341E+04 0.  0.
        1    1    3    3  502    0  0.13236283470E+04  0.46301009462E+03 -0.88722189029E+03  0.16593773023E+04  0.50400001928E-02 0. -1.
       -1    1    3    3    0  502 -0.13236283470E+04 -0.46301009462E+03  0.10566928998E+04  0.17558388973E+04  0.50400001928E-02 0.  1.
</event>
<event>
 5   0  0.2848685E-06  0.3304024E+04  0.7818609E-02  0.8161872E-01
       -2   -1    0    0    0  501  0.00000000000E+00  0.00000000000E+00  0.11115160019E+04  0.11115160019E+04  0.25500000920E-02 0. -1.
        2   -1    0    0  501    0  0.00000000000E+00  0.00000000000E+00 -0.24553340608E+04  0.24553340608E+04  0.25500000920E-02 0.  1.
    10030    2    1    2    0    0  0.00000000000E+00  0.00000000000E+00 -0.13438180589E+04  0.35668500626E+04  0.33040236673E+04 0.  0.
        3    1    3    3  502    0 -0.54755021180E+03  0.10263559977E+04  0.59439829683E+03  0.13063411553E+04  0.10100000352E+00 0. -1.
       -3    1    3    3    0  502  0.54755021180E+03 -0.10263559977E+04 -0.19382163557E+04  0.22605089074E+04  0.10100000352E+00 0.  1.
</event>
<event>
 5   0  0.1010855E-06  0.3425608E+04  0.7818609E-02  0.8131650E-01
       -1   -1    0    0    0  501  0.00000000000E+00  0.00000000000E+00  0.11769089217E+04  0.11769089217E+04  0.50400001928E-02 0.  1.
        1   -1    0    0  501    0  0.00000000000E+00  0.00000000000E+00 -0.24927146718E+04  0.24927146718E+04  0.50400001928E-02 0. -1.
    10030    2    1    2    0    0  0.00000000000E+00  0.00000000000E+00 -0.13158057501E+04  0.36696235935E+04  0.34256083469E+04 0.  0.
        1    1    3    3  502    0  0.48048308534E+03 -0.46449328956E+03 -0.23472881315E+04  0.24405695204E+04  0.50400001928E-02 0. -1.
       -1    1    3    3    0  502 -0.48048308534E+03  0.46449328956E+03  0.10314823815E+04  0.12290540731E+04  0.50400001928E-02 0.  1.
</event>
<event>
 5   0  0.9232963E-07  0.3298452E+04  0.7818609E-02  0.8163289E-01
       -1   -1    0    0    0  501  0.00000000000E+00  0.00000000000E+00  0.13603076809E+04  0.13603076809E+04  0.50400001928E-02 0.  1.
        1   -1    0    0  501    0  0.00000000000E+00  0.00000000000E+00 -0.19995081695E+04  0.19995081695E+04  0.50400001928E-02 0. -1.
    10030    2    1    2    0    0  0.00000000000E+00  0.00000000000E+00 -0.63920048866E+03  0.33598158504E+04  0.32984519527E+04 0.  0.
        3    1    3    3  502    0 -0.13231627764E+04  0.91876212535E+03 -0.67982144817E+03  0.17484395292E+04  0.10100000352E+00 0. -1.
       -3    1    3    3    0  502  0.13231627764E+04 -0.91876212535E+03  0.40620959506E+02  0.16113763212E+04  0.10100000352E+00 0.  1.
</event>
<event>
 5   0  0.2767014E-06  0.3309956E+04  0.7818609E-02  0.8160367E-01
       -2   -1    0    0    0  501  0.00000000000E+00  0.00000000000E+00  0.18498534792E+04  0.18498534792E+04  0.25500000920E-02 0.  1.
        2   -1    0    0  501    0  0.00000000000E+00  0.00000000000E+00 -0.14806320744E+04  0.14806320745E+04  0.25500000920E-02 0. -1.
    10030    2    1    2    0    0  0.00000000000E+00  0.00000000000E+00  0.36922140474E+03  0.33304855536E+04  0.33099561292E+04 0.  0.
        1    1    3    3  502    0 -0.88544568214E+03 -0.12621359056E+04 -0.42074464550E+03  0.15981323966E+04  0.50400001928E-02 0. -1.
       -1    1    3    3    0  502  0.88544568214E+03  0.12621359056E+04  0.78996605023E+03  0.17323531571E+04  0.50400001928E-02 0.  1.
</event>
<event>
 5   0  0.1010551E-06  0.3415805E+04  0.7818609E-02  0.8134038E-01
       -1   -1    0    0    0  501  0.00000000000E+00  0.00000000000E+00  0.13856795687E+04  0.13856795687E+04  0.50400001928E-02 0. -1.
        1   -1    0    0  501    0  0.00000000000E+00  0.00000000000E+00 -0.21050547821E+04  0.21050547821E+04  0.50400001928E-02 0.  1.
    10030    2    1    2    0    0  0.00000000000E+00  0.00000000000E+00 -0.71937521343E+03  0.34907343509E+04  0.34158052653E+04 0.  0.
        2    1    3    3  502    0 -0.63953863403E+03 -0.13358813582E+04 -0.12288396551E+04  0.19244831944E+04  0.25500000920E-02 0.  1.
       -2    1    3    3    0  502  0.63953863403E+03  0.13358813582E+04  0.50946444164E+03  0.15662511564E+04  0.25500000920E-02 0. -1.
</event>
<event>
 5   0  0.2767014E-06  0.3422480E+04  0.7818609E-02  0.8132411E-01
       -2   -1    0    0    0  501  0.00000000000E+00  0.00000000000E+00  0.14252758738E+04  0.14252758738E+04  0.25500000920E-02 0.  1.
        2   -1    0    0  501    0  0.00000000000E+00  0.00000000000E+00 -0.20545794883E+04  0.20545794883E+04  0.25500000920E-02 0. -1.
    10030    2    1    2    0    0  0.00000000000E+00  0.00000000000E+00 -0.62930361449E+03  0.34798553620E+04  0.34224801389E+04 0.  0.
        1    1    3    3  502    0  0.51712006068E+03  0.61470665678E+03  0.12216601420E+04  0.14620981272E+04  0.50400001928E-02 0.  1.
       -1    1    3    3    0  502 -0.51712006068E+03 -0.61470665678E+03 -0.18509637565E+04  0.20177572348E+04  0.50400001928E-02 0. -1.
</event>
<event>
 5   0  0.1010551E-06  0.3423372E+04  0.7818609E-02  0.8132194E-01
       -1   -1    0    0    0  501  0.00000000000E+00  0.00000000000E+00  0.14633752918E+04  0.14633752918E+04  0.50400001928E-02 0. -1.
        1   -1    0    0  501    0  0.00000000000E+00  0.00000000000E+00 -0.20021311311E+04  0.20021311311E+04  0.50400001928E-02 0.  1.
    10030    2    1    2    0    0  0.00000000000E+00  0.00000000000E+00 -0.53875583931E+03  0.34655064229E+04  0.34233721552E+04 0.  0.
        2    1    3    3  502    0  0.12554548586E+04  0.10997180779E+04  0.11519577850E+03  0.16729664732E+04  0.25500000920E-02 0. -1.
       -2    1    3    3    0  502 -0.12554548586E+04 -0.10997180779E+04 -0.65395161782E+03  0.17925399497E+04  0.25500000920E-02 0.  1.
</event>
<event>
 5   0  0.2906701E-06  0.3384974E+04  0.7818609E-02  0.8141604E-01
        2   -1    0    0  501    0  0.00000000000E+00  0.00000000000E+00  0.13120718594E+04  0.13120718595E+04  0.25500000920E-02 0.  1.
       -2   -1    0    0    0  501  0.00000000000E+00  0.00000000000E+00 -0.21831974880E+04  0.21831974880E+04  0.25500000920E-02 0. -1.
    10030    2    1    2    0    0  0.00000000000E+00  0.00000000000E+00 -0.87112562859E+03  0.34952693475E+04  0.33849738479E+04 0.  0.
        5    1    3    3  502    0 -0.10545352845E+04  0.82425528254E+03  0.63407069162E+03  0.14810500224E+04  0.46999998093E+01 0.  1.
       -5    1    3    3    0  502  0.10545352845E+04 -0.82425528254E+03 -0.15051963202E+04  0.20142193250E+04  0.46999998093E+01 0. -1.
</event>
<event>
 5   0  0.1003191E-06  0.2882804E+04  0.7818609E-02  0.8278012E-01
       -1   -1    0    0    0  501  0.00000000000E+00  0.00000000000E+00  0.96825178316E+03  0.96825178318E+03  0.50400001928E-02 0. -1.
        1   -1    0    0  501    0  0.00000000000E+00  0.00000000000E+00 -0.21457634172E+04  0.21457634172E+04  0.50400001928E-02 0.  1.
    10030    2    1    2    0    0  0.00000000000E+00  0.00000000000E+00 -0.11775116341E+04  0.31140152004E+04  0.28828036735E+04 0.  0.
        5    1    3    3  502    0 -0.10284638504E+04 -0.61057138588E+03  0.28017514544E+03  0.12284362055E+04  0.46999998093E+01 0. -1.
       -5    1    3    3    0  502  0.10284638504E+04  0.61057138588E+03 -0.14576867795E+04  0.18855789949E+04  0.46999998093E+01 0.  1.
</event>
<event>
 5   0  0.1010855E-06  0.3284054E+04  0.7818609E-02  0.8166965E-01
       -1   -1    0    0    0  501  0.00000000000E+00  0.00000000000E+00  0.22707619504E+04  0.22707619504E+04  0.50400001928E-02 0.  1.
        1   -1    0    0  501    0  0.00000000000E+00  0.00000000000E+00 -0.11873782105E+04  0.11873782105E+04  0.50400001928E-02 0. -1.
    10030    2    1    2    0    0  0.00000000000E+00  0.00000000000E+00  0.10833837399E+04  0.34581401609E+04  0.32840543607E+04 0.  0.
        1    1    3    3  502    0  0.12801201322E+04  0.71908976439E+03  0.13158189723E+04  0.19715925567E+04  0.50400001928E-02 0.  1.
       -1    1    3    3    0  502 -0.12801201322E+04 -0.71908976439E+03 -0.23243523236E+03  0.14865476041E+04  0.50400001928E-02 0. -1.
</event>
<event>
 5   0  0.9232963E-07  0.3489797E+04  0.7818609E-02  0.8116212E-01
        1   -1    0    0  501    0  0.00000000000E+00  0.00000000000E+00  0.15804308468E+04  0.15804308468E+04  0.50400001928E-02 0. -1.
       -1   -1    0    0    0  501  0.00000000000E+00  0.00000000000E+00 -0.19264818080E+04  0.19264818080E+04  0.50400001928E-02 0.  1.
    10030    2    1    2    0    0  0.00000000000E+00  0.00000000000E+00 -0.34605096111E+03  0.35069126548E+04  0.34897972865E+04 0.  0.
        3    1    3    3  502    0  0.38863253838E+03 -0.64622879956E+03  0.14082305856E+04  0.15974230197E+04  0.10100000352E+00 0. -1.
       -3    1    3    3    0  502 -0.38863253838E+03  0.64622879956E+03 -0.17542815467E+04  0.19094896351E+04  0.10100000352E+00 0.  1.
</event>
<event>
 5   0  0.9232963E-07  0.3481503E+04  0.7818609E-02  0.8118188E-01
       -1   -1    0    0    0  501  0.00000000000E+00  0.00000000000E+00  0.18580711116E+04  0.18580711116E+04  0.50400001928E-02 0. -1.
        1   -1    0    0  501    0  0.00000000000E+00  0.00000000000E+00 -0.16308390949E+04  0.16308390949E+04  0.50400001928E-02 0.  1.
    10030    2    1    2    0    0  0.00000000000E+00  0.00000000000E+00  0.22723201669E+03  0.34889102064E+04  0.34815025548E+04 0.  0.
        3    1    3    3  502    0 -0.12341282655E+04  0.26817698625E+03  0.13141731806E+04  0.18226471492E+04  0.10100000352E+00 0. -1.
       -3    1    3    3    0  502  0.12341282655E+04 -0.26817698625E+03 -0.10869411640E+04  0.16662630572E+04  0.10100000352E+00 0.  1.
</event>
<event>
 5   0  0.2767014E-06  0.3416658E+04  0.7818609E-02  0.8133830E-01
        2   -1    0    0  501    0  0.00000000000E+00  0.00000000000E+00  0.17801011010E+04  0.17801011010E+04  0.25500000920E-02 0. -1.
       -2   -1    0    0    0  501  0.00000000000E+00  0.00000000000E+00 -0.16394505953E+04  0.16394505953E+04  0.25500000920E-02 0.  1.
    10030    2    1    2    0    0  0.00000000000E+00  0.00000000000E+00  0.14065050571E+03  0.34195516962E+04  0.34166579048E+04 0.  0.
        1    1    3    3  502    0  0.63218627906E+03 -0.11450775508E+04  0.11701307140E+04  0.17550122440E+04  0.50400001928E-02 0. -1.
       -1    1    3    3    0  502 -0.63218627906E+03  0.11450775508E+04 -0.10294802082E+04  0.16645394522E+04  0.50400001928E-02 0.  1.
</event>
<event>
 5   0  0.9714317E-07  0.3363858E+04  0.7818609E-02  0.8146834E-01
       -1   -1    0    0    0  501  0.00000000000E+00  0.00000000000E+00  0.17004023377E+04  0.17004023377E+04  0.50400001928E-02 0. -1.
        1   -1    0    0  501    0  0.00000000000E+00  0.00000000000E+00 -0.16636565541E+04  0.16636565542E+04  0.50400001928E-02 0.  1.
    10030    2    1    2    0    0  0.00000000000E+00  0.00000000000E+00  0.36745783588E+02  0.33640588919E+04  0.33638581979E+04 0.  0.
        4    1    3    3  502    0  0.68834615786E+03 -0.27440535869E+03  0.15283520920E+04  0.16985230243E+04  0.12699999809E+01 0. -1.
       -4    1    3    3    0  502 -0.68834615786E+03  0.27440535869E+03 -0.14916063085E+04  0.16655358676E+04  0.12699999809E+01 0.  1.
</event>
<event>
 5   0  0.1010855E-06  0.3218885E+04  0.7818609E-02  0.8183847E-01
        1   -1    0    0  501    0  0.00000000000E+00  0.00000000000E+00  0.16166493917E+04  0.16166493917E+04  0.50400001928E-02 0.  1.
       -1   -1    0    0    0  501  0.00000000000E+00  0.00000000000E+00 -0.16022676710E+04  0.16022676710E+04  0.50400001928E-02 0. -1.
    10030    2    1    2    0    0  0.00000000000E+00  0.00000000000E+00  0.14381720755E+02  0.32189170627E+04  0.32188849347E+04 0.  0.
        1    1    3    3  502    0 -0.83163257199E+03  0.91683278954E+03 -0.10214641251E+04  0.16048626289E+04  0.50400001928E-02 0. -1.
       -1    1    3    3    0  502  0.83163257199E+03 -0.91683278954E+03  0.10358458459E+04  0.16140544338E+04  0.50400001928E-02 0.  1.
</event>
<event>
 5   0  0.2664083E-06  0.3467486E+04  0.7818609E-02  0.8121539E-01
        2   -1    0    0  501    0  0.00000000000E+00  0.00000000000E+00  0.28206635169E+04  0.28206635169E+04  0.25500000920E-02 0. -1.
       -2   -1    0    0    0  501  0.00000000000E+00  0.00000000000E+00 -0.10656584802E+04  0.10656584802E+04  0.25500000920E-02 0.  1.
    10030    2    1    2    0    0  0.00000000000E+00  0.00000000000E+00  0.17550050368E+04  0.38863219971E+04  0.34674855423E+04 0.  0.
        2    1    3    3  502    0  0.33679512499E+03 -0.12765743245E+04  0.21369784329E+04  0.25119215324E+04  0.25500000920E-02 0. -1.
       -2    1    3    3    0  502 -0.33679512499E+03  0.12765743245E+04 -0.38197339615E+03  0.13744004647E+04  0.25500000920E-02 0.  1.
</event>
<event>
 5   0  0.9232963E-07  0.3368576E+04  0.7818609E-02  0.8145662E-01
       -1   -1    0    0    0  501  0.00000000000E+00  0.00000000000E+00  0.31609933735E+04  0.31609933735E+04  0.50400001928E-02 0.  1.
        1   -1    0    0  501    0  0.00000000000E+00  0.00000000000E+00 -0.89744746713E+03  0.89744746715E+03  0.50400001928E-02 0. -1.
    10030    2    1    2    0    0  0.00000000000E+00  0.00000000000E+00  0.22635459064E+04  0.40584408406E+04  0.33685756614E+04 0.  0.
        3    1    3    3  502    0  0.22731073616E+03 -0.14722332228E+04  0.18488995445E+03  0.15011079703E+04  0.10100000352E+00 0. -1.
       -3    1    3    3    0  502 -0.22731073616E+03  0.14722332228E+04  0.20786559519E+04  0.25573328703E+04  0.10100000352E+00 0.  1.
</event>
<event>
 5   0  0.2848685E-06  0.3071239E+04  0.7818609E-02  0.8223676E-01
       -2   -1    0    0    0  501  0.00000000000E+00  0.00000000000E+00  0.10662385428E+04  0.10662385428E+04  0.25500000920E-02 0. -1.
        2   -1    0    0  501    0  0.00000000000E+00  0.00000000000E+00 -0.22116320214E+04  0.22116320214E+04  0.25500000920E-02 0.  1.
    10030    2    1    2    0    0  0.00000000000E+00  0.00000000000E+00 -0.11453934786E+04  0.32778705642E+04  0.30712390358E+04 0.  0.
        3    1    3    3  502    0 -0.36865083351E+03 -0.13854290036E+04  0.14608028157E+02  0.14337120930E+04  0.10100000352E+00 0. -1.
       -3    1    3    3    0  502  0.36865083351E+03  0.13854290036E+04 -0.11600015068E+04  0.18441584712E+04  0.10100000352E+00 0.  1.
</event>
<event>
 5   0  0.1010855E-06  0.3730266E+04  0.7818609E-02  0.8061287E-01
        1   -1    0    0  501    0  0.00000000000E+00  0.00000000000E+00  0.19907816187E+04  0.19907816187E+04  0.50400001928E-02 0. -1.
       -1   -1    0    0    0  501  0.00000000000E+00  0.00000000000E+00 -0.17474146567E+04  0.17474146567E+04  0.50400001928E-02 0.  1.
    10030    2    1    2    0    0  0.00000000000E+00  0.00000000000E+00  0.24336696193E+03  0.37381962754E+04  0.37302659309E+04 0.  0.
        1    1    3    3  502    0 -0.13255267940E+04  0.22642513588E+03 -0.11735158856E+04  0.17847770610E+04  0.50400001928E-02 0.  1.
       -1    1    3    3    0  502  0.13255267940E+04 -0.22642513588E+03  0.14168828475E+04  0.19534192144E+04  0.50400001928E-02 0. -1.
</event>
<event>
 5   0  0.2664083E-06  0.3485711E+04  0.7818609E-02  0.8117185E-01
        2   -1    0    0  501    0  0.00000000000E+00  0.00000000000E+00  0.22893483425E+04  0.22893483425E+04  0.25500000920E-02 0. -1.
       -2   -1    0    0    0  501  0.00000000000E+00  0.00000000000E+00 -0.13268166220E+04  0.13268166220E+04  0.25500000920E-02 0.  1.
    10030    2    1    2    0    0  0.00000000000E+00  0.00000000000E+00  0.96253172057E+03  0.36161649645E+04  0.34857110806E+04 0.  0.
        2    1    3    3  502    0  0.17106413270E+04 -0.21988992200E+03  0.74145103016E+03  0.18773371987E+04  0.25500000920E-02 0. -1.
       -2    1    3    3    0  502 -0.17106413270E+04  0.21988992200E+03  0.22108069041E+03  0.17388277658E+04  0.25500000920E-02 0.  1.
</event>
<event>
 5   0  0.1010551E-06  0.3446432E+04  0.7818609E-02  0.8126603E-01
        1   -1    0    0  501    0  0.00000000000E+00  0.00000000000E+00  0.18472846962E+04  0.18472846962E+04  0.50400001928E-02 0.  1.
       -1   -1    0    0    0  501  0.00000000000E+00  0.00000000000E+00 -0.16074804459E+04  0.16074804459E+04  0.50400001928E-02 0. -1.
    10030    2    1    2    0    0  0.00000000000E+00  0.00000000000E+00  0.23980425033E+03  0.34547651421E+04  0.34464323740E+04 0.  0.
        2    1    3    3  502    0 -0.11004041985E+04 -0.59220807477E+03 -0.10695054403E+04  0.16448226928E+04  0.25500000920E-02 0. -1.
       -2    1    3    3    0  502  0.11004041985E+04  0.59220807477E+03  0.13093096906E+04  0.18099424493E+04  0.25500000920E-02 0.  1.
</event>
<event>
 5   0  0.2848685E-06  0.3119105E+04  0.7818609E-02  0.8210514E-01
        2   -1    0    0  501    0  0.00000000000E+00  0.00000000000E+00  0.19061725953E+04  0.19061725953E+04  0.25500000920E-02 0. -1.
       -2   -1    0    0    0  501  0.00000000000E+00  0.00000000000E+00 -0.12759621833E+04  0.12759621833E+04  0.25500000920E-02 0.  1.
    10030    2    1    2    0    0  0.00000000000E+00  0.00000000000E+00  0.63021041206E+03  0.31821347786E+04  0.31191050937E+04 0.  0.
        3    1    3    3  502    0  0.14523665043E+04 -0.50130651592E+03  0.58795581965E+03  0.16451044775E+04  0.10100000352E+00 0.  1.
       -3    1    3    3    0  502 -0.14523665043E+04  0.50130651592E+03  0.42254592413E+02  0.15370303011E+04  0.10100000352E+00 0. -1.
</event>
<event>
 5   0  0.2906701E-06  0.3395403E+04  0.7818609E-02  0.8139036E-01
        2   -1    0    0  501    0  0.00000000000E+00  0.00000000000E+00  0.19847752676E+04  0.19847752676E+04  0.25500000920E-02 0.  1.
       -2   -1    0    0    0  501  0.00000000000E+00  0.00000000000E+00 -0.14521494246E+04  0.14521494246E+04  0.25500000920E-02 0. -1.
    10030    2    1    2    0    0  0.00000000000E+00  0.00000000000E+00  0.53262584307E+03  0.34369246922E+04  0.33954029291E+04 0.  0.
        5    1    3    3  502    0  0.30314535128E+03 -0.20011139137E+03 -0.14123477994E+04  0.14583175475E+04  0.46999998093E+01 0. -1.
       -5    1    3    3    0  502 -0.30314535128E+03  0.20011139137E+03  0.19449736425E+04  0.19786071447E+04  0.46999998093E+01 0.  1.
</event>
<event>
 5   0  0.1010551E-06  0.3394256E+04  0.7818609E-02  0.8139318E-01
        1   -1    0    0  501    0  0.00000000000E+00  0.00000000000E+00  0.23492054874E+04  0.23492054874E+04  0.50400001928E-02 0.  1.
       -1   -1    0    0    0  501  0.00000000000E+00  0.00000000000E+00 -0.12260499886E+04  0.12260499886E+04  0.50400001928E-02 0. -1.
    10030    2    1    2    0    0  0.00000000000E+00  0.00000000000E+00  0.11231554988E+04  0.35752554760E+04  0.33942559485E+04 0.  0.
        2    1    3    3  502    0  0.13034962395E+03 -0.95210680960E+03  0.20350080767E+04  0.22505013383E+04  0.25500000920E-02 0.  1.
       -2    1    3    3    0  502 -0.13034962395E+03  0.95210680960E+03 -0.91185257796E+03  0.13247541377E+04  0.25500000920E-02 0. -1.
</event>
<event>
 5   0  0.2848685E-06  0.2837960E+04  0.7818609E-02  0.8291579E-01
       -2   -1    0    0    0  501  0.00000000000E+00  0.00000000000E+00  0.14918977274E+04  0.14918977274E+04  0.25500000920E-02 0. -1.
        2   -1    0    0  501    0  0.00000000000E+00  0.00000000000E+00 -0.13496261747E+04  0.13496261747E+04  0.25500000920E-02 0.  1.
    10030    2    1    2    0    0  0.00000000000E+00  0.00000000000E+00  0.14227155267E+03  0.28415239021E+04  0.28379599877E+04 0.  0.
        3    1    3    3  502    0  0.97200997209E+03  0.33372666732E+01  0.11062084787E+04  0.14725867484E+04  0.10100000352E+00 0. -1.
       -3    1    3    3    0  502 -0.97200997209E+03 -0.33372666732E+01 -0.96393692599E+03  0.13689371537E+04  0.10100000352E+00 0.  1.
</event>
<event>
 5   0  0.2767014E-06  0.3360367E+04  0.7818609E-02  0.8147703E-01
        2   -1    0    0  501    0  0.00000000000E+00  0.00000000000E+00  0.21725194605E+04  0.21725194605E+04  0.25500000920E-02 0.  1.
       -2   -1    0    0    0  501  0.00000000000E+00  0.00000000000E+00 -0.12994202413E+04  0.12994202413E+04  0.25500000920E-02 0. -1.
    10030    2    1    2    0    0  0.00000000000E+00  0.00000000000E+00  0.87309921912E+03  0.34719397018E+04  0.33603665048E+04 0.  0.
        1    1    3    3  502    0 -0.84986096008E+02 -0.12449580839E+03  0.21655191232E+04  0.21707590644E+04  0.50400001928E-02 0.  1.
       -1    1    3    3    0  502  0.84986096008E+02  0.12449580839E+03 -0.12924199040E+04  0.13011806374E+04  0.50400001928E-02 0. -1.
</event>
<event>
 5   0  0.1003191E-06  0.3181614E+04  0.7818609E-02  0.8193690E-01
        1   -1    0    0  501    0  0.00000000000E+00  0.00000000000E+00  0.10574364265E+04  0.10574364265E+04  0.50400001928E-02 0. -1.
       -1   -1    0    0    0  501  0.00000000000E+00  0.00000000000E+00 -0.23932099430E+04  0.23932099430E+04  0.50400001928E-02 0.  1.
    10030    2    1    2    0    0  0.00000000000E+00  0.00000000000E+00 -0.13357735165E+04  0.34506463696E+04  0.31816142884E+04 0.  0.
        5    1    3    3  502    0 -0.61277340374E+03  0.61034516617E+03  0.78016429534E+03  0.11647707431E+04  0.46999998093E+01 0. -1.
       -5    1    3    3    0  502  0.61277340374E+03 -0.61034516617E+03 -0.21159378118E+04  0.22858756265E+04  0.46999998093E+01 0.  1.
</event>
<event>
 5   0  0.2848685E-06  0.2877525E+04  0.7818609E-02  0.8279596E-01
        2   -1    0    0  501    0  0.00000000000E+00  0.00000000000E+00  0.99612602403E+03  0.99612602403E+03  0.25500000920E-02 0. -1.
       -2   -1    0    0    0  501  0.00000000000E+00  0.00000000000E+00 -0.20780887126E+04  0.20780887126E+04  0.25500000920E-02 0.  1.
    10030    2    1    2    0    0  0.00000000000E+00  0.00000000000E+00 -0.10819626885E+04  0.30742147366E+04  0.28775254973E+04 0.  0.
        3    1    3    3  502    0 -0.43408540934E+02  0.66590966407E+03  0.82078955621E+03  0.10578352839E+04  0.10100000352E+00 0. -1.
       -3    1    3    3    0  502  0.43408540934E+02 -0.66590966407E+03 -0.19027522448E+04  0.20163794527E+04  0.10100000352E+00 0.  1.
</event>
<event>
 5   0  0.9714317E-07  0.3426453E+04  0.7818609E-02  0.8131444E-01
       -1   -1    0    0    0  501  0.00000000000E+00  0.00000000000E+00  0.15689797028E+04  0.15689797029E+04  0.50400001928E-02 0. -1.
        1   -1    0    0  501    0  0.00000000000E+00  0.00000000000E+00 -0.18707351972E+04  0.18707351972E+04  0.50400001928E-02 0.  1.
    10030    2    1    2    0    0  0.00000000000E+00  0.00000000000E+00 -0.30175549432E+03  0.34397149000E+04  0.34264532997E+04 0.  0.
        4    1    3    3  502    0  0.72879908634E+03  0.10881487815E+04 -0.12596561075E+04  0.18171271285E+04  0.12699999809E+01 0.  1.
       -4    1    3    3    0  502 -0.72879908634E+03 -0.10881487815E+04  0.95790061320E+03  0.16225877716E+04  0.12699999809E+01 0. -1.
</event>
<event>
 5   0  0.1010855E-06  0.3382911E+04  0.7818609E-02  0.8142113E-01
       -1   -1    0    0    0  501  0.00000000000E+00  0.00000000000E+00  0.12003894627E+04  0.12003894627E+04  0.50400001928E-02 0. -1.
        1   -1    0    0  501    0  0.00000000000E+00  0.00000000000E+00 -0.23834108313E+04  0.23834108313E+04  0.50400001928E-02 0.  1.
    10030    2    1    2    0    0  0.00000000000E+00  0.00000000000E+00 -0.11830213686E+04  0.35838002940E+04  0.33829107273E+04 0.  0.
        1    1    3    3  502    0  0.13401649967E+04 -0.96900932040E+03 -0.21546684580E+03  0.16677671429E+04  0.50400001928E-02 0. -1.
       -1    1    3    3    0  502 -0.13401649967E+04  0.96900932040E+03 -0.96755452282E+03  0.19160331511E+04  0.50400001928E-02 0.  1.
</event>
<event>
 5   0  0.9232963E-07  0.3338667E+04  0.7818609E-02  0.8153126E-01
        1   -1    0    0  501    0  0.00000000000E+00  0.00000000000E+00  0.14411508101E+04  0.14411508101E+04  0.50400001928E-02 0. -1.
       -1   -1    0    0    0  501  0.00000000000E+00  0.00000000000E+00 -0.19336453366E+04  0.19336453367E+04  0.50400001928E-02 0.  1.
    10030    2    1    2    0    0  0.00000000000E+00  0.00000000000E+00 -0.49249452658E+03  0.33747961467E+04  0.33386671253E+04 0.  0.
        3    1    3    3  502    0 -0.94479442603E+03 -0.11629364826E+03 -0.16324051098E+04  0.18896844109E+04  0.10100000352E+00 0.  1.
       -3    1    3    3    0  502  0.94479442603E+03  0.11629364826E+03  0.11399105832E+04  0.14851117359E+04  0.10100000352E+00 0. -1.
</event>
<event>
 5   0  0.2856440E-06  0.3449578E+04  0.7818609E-02  0.8125844E-01
        2   -1    0    0  501    0  0.00000000000E+00  0.00000000000E+00  0.20858078046E+04  0.20858078046E+04  0.25500000920E-02 0. -1.
       -2   -1    0    0    0  501  0.00000000000E+00  0.00000000000E+00 -0.14262567491E+04  0.14262567491E+04  0.25500000920E-02 0.  1.
    10030    2    1    2    0    0  0.00000000000E+00  0.00000000000E+00  0.65955105550E+03  0.35120645537E+04  0.34495782111E+04 0.  0.
        4    1    3    3  502    0  0.73227094923E+03  0.12784518081E+04  0.12428123010E+04  0.19274967697E+04  0.12699999809E+01 0. -1.
       -4    1    3    3    0  502 -0.73227094923E+03 -0.12784518081E+04 -0.58326124550E+03  0.15845677840E+04  0.12699999809E+01 0.  1.
</event>
<event>
 5   0  0.2856440E-06  0.3365587E+04  0.7818609E-02  0.8146404E-01
       -2   -1    0    0    0  501  0.00000000000E+00  0.00000000000E+00  0.15946654320E+04  0.15946654320E+04  0.25500000920E-02 0. -1.
        2   -1    0    0  501    0  0.00000000000E+00  0.00000000000E+00 -0.17757922764E+04  0.17757922764E+04  0.25500000920E-02 0.  1.
    10030    2    1    2    0    0  0.00000000000E+00  0.00000000000E+00 -0.18112684438E+03  0.33704577084E+04  0.33655873529E+04 0.  0.
        4    1    3    3  502    0  0.48309716709E+03 -0.97234555722E+03 -0.13780965846E+04  0.17544202931E+04  0.12699999809E+01 0.  1.
       -4    1    3    3    0  502 -0.48309716709E+03  0.97234555722E+03  0.11969697402E+04  0.16160374152E+04  0.12699999809E+01 0. -1.
</event>
<event>
 5   0  0.1010551E-06  0.3321423E+04  0.7818609E-02  0.8157466E-01
        1   -1    0    0  501    0  0.00000000000E+00  0.00000000000E+00  0.12310649580E+04  0.12310649580E+04  0.50400001928E-02 0. -1.
       -1   -1    0    0    0  501  0.00000000000E+00  0.00000000000E+00 -0.22403065445E+04  0.22403065445E+04  0.50400001928E-02 0.  1.
    10030    2    1    2    0    0  0.00000000000E+00  0.00000000000E+00 -0.10092415865E+04  0.34713715025E+04  0.33214231180E+04 0.  0.
        2    1    3    3  502    0 -0.88362842691E+03 -0.27753883565E+03 -0.19453064059E+04  0.21545403257E+04  0.25500000920E-02 0.  1.
       -2    1    3    3    0  502  0.88362842691E+03  0.27753883565E+03  0.93606481940E+03  0.13168311768E+04  0.25500000920E-02 0. -1.
</event>
<event>
 5   0  0.1003191E-06  0.3376371E+04  0.7818609E-02  0.8143730E-01
       -1   -1    0    0    0  501  0.00000000000E+00  0.00000000000E+00  0.16792776654E+04  0.16792776654E+04  0.50400001928E-02 0. -1.
        1   -1    0    0  501    0  0.00000000000E+00  0.00000000000E+00 -0.16971401762E+04  0.16971401762E+04  0.50400001928E-02 0.  1.
    10030    2    1    2    0    0  0.00000000000E+00  0.00000000000E+00 -0.17862510823E+02  0.33764178416E+04  0.33763705916E+04 0.  0.
        5    1    3    3  502    0 -0.65794404223E+03  0.50582233983E+03 -0.14790541721E+04  0.16959864198E+04  0.46999998093E+01 0.  1.
       -5    1    3    3    0  502  0.65794404223E+03 -0.50582233983E+03  0.14611916613E+04  0.16804314218E+04  0.46999998093E+01 0. -1.
</event>
<event>
 5   0  0.1003191E-06  0.2663121E+04  0.7818609E-02  0.8347071E-01
       -1   -1    0    0    0  501  0.00000000000E+00  0.00000000000E+00  0.94278330739E+03  0.94278330740E+03  0.50400001928E-02 0.  1.
        1   -1    0    0  501    0  0.00000000000E+00  0.00000000000E+00 -0.18806578648E+04  0.18806578648E+04  0.50400001928E-02 0. -1.
    10030    2    1    2    0    0  0.00000000000E+00  0.00000000000E+00 -0.93787455737E+03  0.28234411722E+04  0.26631206070E+04 0.  0.
        5    1    3    3  502    0 -0.63113601282E+03 -0.21903018634E+03 -0.16901130483E+04  0.18173637763E+04  0.46999998093E+01 0. -1.
       -5    1    3    3    0  502  0.63113601282E+03  0.21903018634E+03  0.75223849097E+03  0.10060773959E+04  0.46999998093E+01 0.  1.
</event>
<event>
 5   0  0.2664083E-06  0.3159835E+04  0.7818609E-02  0.8199506E-01
        2   -1    0    0  501    0  0.00000000000E+00  0.00000000000E+00  0.15535815425E+04  0.15535815425E+04  0.25500000920E-02 0.  1.
       -2   -1    0    0    0  501  0.00000000000E+00  0.00000000000E+00 -0.16066999848E+04  0.16066999848E+04  0.25500000920E-02 0. -1.
    10030    2    1    2    0    0  0.00000000000E+00  0.00000000000E+00 -0.53118442320E+02  0.31602815274E+04  0.31598350848E+04 0.  0.
        2    1    3    3  502    0 -0.33372456737E+03 -0.13558420235E+03  0.15119637726E+04  0.15542810597E+04  0.25500000920E-02 0.  1.
       -2    1    3    3    0  502  0.33372456737E+03  0.13558420235E+03 -0.15650822149E+04  0.16060004677E+04  0.25500000920E-02 0. -1.
</event>
<event>
 5   0  0.2848685E-06  0.3387912E+04  0.7818609E-02  0.8140879E-01
        2   -1    0    0  501    0  0.00000000000E+00  0.00000000000E+00  0.25540020803E+04  0.25540020803E+04  0.25500000920E-02 0. -1.
       -2   -1    0    0    0  501  0.00000000000E+00  0.00000000000E+00 -0.11235259627E+04  0.11235259627E+04  0.25500000920E-02 0.  1.
    10030    2    1    2    0    0  0.00000000000E+00  0.00000000000E+00  0.14304761175E+04  0.36775280430E+04  0.33879124228E+04 0.  0.
        3    1    3    3  502    0  0.36569333612E+03 -0.98438491633E+03  0.21580523265E+04  0.23999864861E+04  0.10100000352E+00 0. -1.
       -3    1    3    3    0  502 -0.36569333612E+03  0.98438491633E+03 -0.72757620894E+03  0.12775415569E+04  0.10100000352E+00 0.  1.
</event>
<event>
 5   0  0.2767014E-06  0.3448708E+04  0.7818609E-02  0.8126054E-01
       -2   -1    0    0    0  501  0.00000000000E+00  0.00000000000E+00  0.13168192889E+04  0.13168192889E+04  0.25500000920E-02 0.  1.
        2   -1    0    0  501    0  0.00000000000E+00  0.00000000000E+00 -0.22580137684E+04  0.22580137684E+04  0.25500000920E-02 0. -1.
    10030    2    1    2    0    0  0.00000000000E+00  0.00000000000E+00 -0.94119447949E+03  0.35748330573E+04  0.34487076332E+04 0.  0.
        1    1    3    3  502    0  0.44041819756E+03 -0.36218928744E+02 -0.21983220967E+04  0.22422979375E+04  0.50400001928E-02 0. -1.
       -1    1    3    3    0  502 -0.44041819756E+03  0.36218928744E+02  0.12571276172E+04  0.13325351198E+04  0.50400001928E-02 0.  1.
</event>
<event>
 5   0  0.2664083E-06  0.3361152E+04  0.7818609E-02  0.8147507E-01
        2   -1    0    0  501    0  0.00000000000E+00  0.00000000000E+00  0.29459349509E+04  0.29459349509E+04  0.25500000920E-02 0.  1.
       -2   -1    0    0    0  501  0.00000000000E+00  0.00000000000E+00 -0.95872328780E+03  0.95872328781E+03  0.25500000920E-02 0. -1.
    10030    2    1    2    0    0  0.00000000000E+00  0.00000000000E+00  0.19872116631E+04  0.39046582387E+04  0.33611524463E+04 0.  0.
        2    1    3    3  502    0 -0.43035401356E+03 -0.92739924605E+03 -0.55589002846E+03  0.11637386572E+04  0.25500000920E-02 0. -1.
       -2    1    3    3    0  502  0.43035401356E+03  0.92739924605E+03  0.25431016916E+04  0.27409195815E+04  0.25500000920E-02 0.  1.
</event>
<event>
 5   0  0.2848685E-06  0.3643765E+04  0.7818609E-02  0.8080540E-01
       -2   -1    0    0    0  501  0.00000000000E+00  0.00000000000E+00  0.17053575873E+04  0.17053575873E+04  0.25500000920E-02 0.  1.
        2   -1    0    0  501    0  0.00000000000E+00  0.00000000000E+00 -0.19463692954E+04  0.19463692954E+04  0.25500000920E-02 0. -1.
    10030    2    1    2    0    0  0.00000000000E+00  0.00000000000E+00 -0.24101170806E+03  0.36517268827E+04  0.36437648912E+04 0.  0.
        3    1    3    3  502    0  0.15418133730E+04  0.71089550546E+03  0.54176695022E+03  0.17821538473E+04  0.10100000352E+00 0.  1.
       -3    1    3    3    0  502 -0.15418133730E+04 -0.71089550546E+03 -0.78277865828E+03  0.18695730354E+04  0.10100000352E+00 0. -1.
</event>
<event>
 5   0  0.1003191E-06  0.3336986E+04  0.7818609E-02  0.8153548E-01
        1   -1    0    0  501    0  0.00000000000E+00  0.00000000000E+00  0.20369471718E+04  0.20369471718E+04  0.50400001928E-02 0.  1.
       -1   -1    0    0    0  501  0.00000000000E+00  0.00000000000E+00 -0.13666867190E+04  0.13666867190E+04  0.50400001928E-02 0. -1.
    10030    2    1    2    0    0  0.00000000000E+00  0.00000000000E+00  0.67026045278E+03  0.34036338908E+04  0.33369858537E+04 0.  0.
        5    1    3    3  502    0 -0.19498563147E+03 -0.90549887452E+03 -0.10803546119E+04  0.14230726565E+04  0.46999998093E+01 0. -1.
       -5    1    3    3    0  502  0.19498563147E+03  0.90549887452E+03  0.17506150647E+04  0.19805612343E+04  0.46999998093E+01 0.  1.
</event>
<event>
 5   0  0.2906701E-06  0.3375321E+04  0.7818609E-02  0.8143990E-01
        2   -1    0    0  501    0  0.00000000000E+00  0.00000000000E+00  0.18113028515E+04  0.18113028515E+04  0.25500000920E-02 0.  1.
       -2   -1    0    0    0  501  0.00000000000E+00  0.00000000000E+00 -0.15724579779E+04  0.15724579779E+04  0.25500000920E-02 0. -1.
    10030    2    1    2    0    0  0.00000000000E+00  0.00000000000E+00  0.23884487366E+03  0.33837608294E+04  0.33753207962E+04 0.  0.
        5    1    3    3  502    0  0.11200795197E+04  0.10509916224E+04 -0.58162152597E+03  0.16423967883E+04  0.46999998093E+01 0. -1.
       -5    1    3    3    0  502 -0.11200795197E+04 -0.10509916224E+04  0.82046639963E+03  0.17413640411E+04  0.46999998093E+01 0.  1.
</event>
<event>
 5   0  0.1003191E-06  0.3439362E+04  0.7818609E-02  0.8128313E-01
        1   -1    0    0  501    0  0.00000000000E+00  0.00000000000E+00  0.14139025242E+04  0.14139025242E+04  0.50400001928E-02 0.  1.
       -1   -1    0    0    0  501  0.00000000000E+00  0.00000000000E+00 -0.20915889195E+04  0.20915889195E+04  0.50400001928E-02 0. -1.
    10030    2    1    2    0    0  0.00000000000E+00  0.00000000000E+00 -0.67768639532E+03  0.35054914438E+04  0.34393620647E+04 0.  0.
        5    1    3    3  502    0 -0.84946692990E+03  0.13028003157E+04 -0.10867074039E+04  0.18973238520E+04  0.46999998093E+01 0. -1.
       -5    1    3    3    0  502  0.84946692990E+03 -0.13028003157E+04  0.40902100861E+03  0.16081675918E+04  0.46999998093E+01 0.  1.
</event>
<event>
 5   0  0.9232963E-07  0.3182291E+04  0.7818609E-02  0.8193510E-01
        1   -1    0    0  501    0  0.00000000000E+00  0.00000000000E+00  0.19561200683E+04  0.19561200683E+04  0.50400001928E-02 0.  1.
       -1   -1    0    0    0  501  0.00000000000E+00  0.00000000000E+00 -0.12942684804E+04  0.12942684804E+04  0.50400001928E-02 0. -1.
    10030    2    1    2    0    0  0.00000000000E+00  0.00000000000E+00  0.66185158787E+03  0.32503885487E+04  0.31822913432E+04 0.  0.
        3    1    3    3  502    0 -0.13383910442E+04  0.25799257555E+03 -0.50755103680E+03  0.14544616947E+04  0.10100000352E+00 0. -1.
       -3    1    3    3    0  502  0.13383910442E+04 -0.25799257555E+03  0.11694026247E+04  0.17959268540E+04  0.10100000352E+00 0.  1.
</event>
<event>
 5   0  0.2848685E-06  0.3200773E+04  0.7818609E-02  0.8188613E-01
       -2   -1    0    0    0  501  0.00000000000E+00  0.00000000000E+00  0.10981089907E+04  0.10981089907E+04  0.25500000920E-02 0. -1.
        2   -1    0    0  501    0  0.00000000000E+00  0.00000000000E+00 -0.23324070367E+04  0.23324070367E+04  0.25500000920E-02 0.  1.
    10030    2    1    2    0    0  0.00000000000E+00  0.00000000000E+00 -0.12342980460E+04  0.34305160275E+04  0.32007731173E+04 0.  0.
        3    1    3    3  502    0  0.96329078961E+03  0.35497583455E+03 -0.19329931045E+04  0.21886980926E+04  0.10100000352E+00 0.  1.
       -3    1    3    3    0  502 -0.96329078961E+03 -0.35497583455E+03  0.69869505846E+03  0.12418179349E+04  0.10100000352E+00 0. -1.
</event>
<event>
 5   0  0.1010855E-06  0.3492482E+04  0.7818609E-02  0.8115574E-01
       -1   -1    0    0    0  501  0.00000000000E+00  0.00000000000E+00  0.16579495357E+04  0.16579495357E+04  0.50400001928E-02 0. -1.
        1   -1    0    0  501    0  0.00000000000E+00  0.00000000000E+00 -0.18392340930E+04  0.18392340930E+04  0.50400001928E-02 0.  1.
    10030    2    1    2    0    0  0.00000000000E+00  0.00000000000E+00 -0.18128455735E+03  0.34971836287E+04  0.34924818170E+04 0.  0.
        1    1    3    3  502    0 -0.13357204268E+04 -0.68610472133E+03  0.80188734896E+03  0.17023254882E+04  0.50400001928E-02 0. -1.
       -1    1    3    3    0  502  0.13357204268E+04  0.68610472133E+03 -0.98317190630E+03  0.17948581405E+04  0.50400001928E-02 0.  1.
</event>
<event>
 5   0  0.9232963E-07  0.3305904E+04  0.7818609E-02  0.8161395E-01
        1   -1    0    0  501    0  0.00000000000E+00  0.00000000000E+00  0.18552909004E+04  0.18552909004E+04  0.50400001928E-02 0. -1.
       -1   -1    0    0    0  501  0.00000000000E+00  0.00000000000E+00 -0.14726799993E+04  0.14726799993E+04  0.50400001928E-02 0.  1.
    10030    2    1    2    0    0  0.00000000000E+00  0.00000000000E+00  0.38261090111E+03  0.33279708997E+04  0.33059036900E+04 0.  0.
        3    1    3    3  502    0  0.15510998139E+04  0.82375714333E+02  0.76036936189E+03  0.17294097166E+04  0.10100000352E+00 0. -1.
       -3    1    3    3    0  502 -0.15510998139E+04 -0.82375714333E+02 -0.37775846078E+03  0.15985611831E+04  0.10100000352E+00 0.  1.
</event>
<event>
 5   0  0.9714317E-07  0.2368690E+04  0.7818609E-02  0.8451319E-01
       -1   -1    0    0    0  501  0.00000000000E+00  0.00000000000E+00  0.77598086637E+03  0.77598086639E+03  0.50400001928E-02 0.  1.
        1   -1    0    0  501    0  0.00000000000E+00  0.00000000000E+00 -0.18076133911E+04  0.18076133911E+04  0.50400001928E-02 0. -1.
    10030    2    1    2    0    0  0.00000000000E+00  0.00000000000E+00 -0.10316325247E+04  0.25835942575E+04  0.23686902755E+04 0.  0.
        4    1    3    3  502    0  0.59304129516E+03  0.62437885440E+03 -0.14026817972E+04  0.16459236825E+04  0.12699999809E+01 0. -1.
       -4    1    3    3    0  502 -0.59304129516E+03 -0.62437885440E+03  0.37104927250E+03  0.93767057494E+03  0.12699999809E+01 0.  1.
</event>
<event>
 5   0  0.1003191E-06  0.3577439E+04  0.7818609E-02  0.8095679E-01
        1   -1    0    0  501    0  0.00000000000E+00  0.00000000000E+00  0.13638679902E+04  0.13638679903E+04  0.50400001928E-02 0. -1.
       -1   -1    0    0    0  501  0.00000000000E+00  0.00000000000E+00 -0.23459141463E+04  0.23459141463E+04  0.50400001928E-02 0.  1.
    10030    2    1    2    0    0  0.00000000000E+00  0.00000000000E+00 -0.98204615605E+03  0.37097821366E+04  0.35774388671E+04 0.  0.
        5    1    3    3  502    0  0.99907470712E+03  0.62662965258E+03 -0.18856468650E+04  0.22240731061E+04  0.46999998093E+01 0.  1.
       -5    1    3    3    0  502 -0.99907470712E+03 -0.62662965258E+03  0.90360070894E+03  0.14857090304E+04  0.46999998093E+01 0. -1.
</event>
<event>
 5   0  0.2856440E-06  0.2663090E+04  0.7818609E-02  0.8347081E-01
       -2   -1    0    0    0  501  0.00000000000E+00  0.00000000000E+00  0.10254276723E+04  0.10254276723E+04  0.25500000920E-02 0. -1.
        2   -1    0    0  501    0  0.00000000000E+00  0.00000000000E+00 -0.17290465102E+04  0.17290465102E+04  0.25500000920E-02 0.  1.
    10030    2    1    2    0    0  0.00000000000E+00  0.00000000000E+00 -0.70361883790E+03  0.27544741826E+04  0.26630900385E+04 0.  0.
        4    1    3    3  502    0  0.53071822565E+02  0.99463273243E+03 -0.12658184057E+04  0.16107168404E+04  0.12699999809E+01 0.  1.
       -4    1    3    3    0  502 -0.53071822565E+02 -0.99463273243E+03  0.56219956783E+03  0.11437573422E+04  0.12699999809E+01 0. -1.
</event>
<event>
 5   0  0.2767014E-06  0.3447081E+04  0.7818609E-02  0.8126447E-01
        2   -1    0    0  501    0  0.00000000000E+00  0.00000000000E+00  0.25590971484E+04  0.25590971484E+04  0.25500000920E-02 0.  1.
       -2   -1    0    0    0  501  0.00000000000E+00  0.00000000000E+00 -0.11607965608E+04  0.11607965609E+04  0.25500000920E-02 0. -1.
    10030    2    1    2    0    0  0.00000000000E+00  0.00000000000E+00  0.13983005876E+04  0.37198937093E+04  0.34470806018E+04 0.  0.
        1    1    3    3  502    0 -0.21188080931E+03  0.69161029335E+03  0.23873707761E+04  0.24945455494E+04  0.50400001928E-02 0.  1.
       -1    1    3    3    0  502  0.21188080931E+03 -0.69161029335E+03 -0.98907018851E+03  0.12253481599E+04  0.50400001928E-02 0. -1.
</event>
<event>
 5   0  0.9714317E-07  0.3343093E+04  0.7818609E-02  0.8152016E-01
       -1   -1    0    0    0  501  0.00000000000E+00  0.00000000000E+00  0.20473138209E+04  0.20473138209E+04  0.50400001928E-02 0.  1.
        1   -1    0    0  501    0  0.00000000000E+00  0.00000000000E+00 -0.13647483558E+04  0.13647483558E+04  0.50400001928E-02 0. -1.
    10030    2    1    2    0    0  0.00000000000E+00  0.00000000000E+00  0.68256546510E+03  0.34120621766E+04  0.33430932806E+04 0.  0.
        4    1    3    3  502    0  0.60029203047E+02 -0.82913122131E+02  0.20441114121E+04  0.20466731955E+04  0.12699999809E+01 0.  1.
       -4    1    3    3    0  502 -0.60029203047E+02  0.82913122131E+02 -0.13615459470E+04  0.13653889811E+04  0.12699999809E+01 0. -1.
</event>
<event>
 5   0  0.2664083E-06  0.3389156E+04  0.7818609E-02  0.8140573E-01
        2   -1    0    0  501    0  0.00000000000E+00  0.00000000000E+00  0.18128878713E+04  0.18128878713E+04  0.25500000920E-02 0. -1.
       -2   -1    0    0    0  501  0.00000000000E+00  0.00000000000E+00 -0.15839894349E+04  0.15839894349E+04  0.25500000920E-02 0.  1.
    10030    2    1    2    0    0  0.00000000000E+00  0.00000000000E+00  0.22889843636E+03  0.33968773062E+04  0.33891563757E+04 0.  0.
        2    1    3    3  502    0  0.29184086774E+03  0.12622186469E+04  0.12092875966E+04  0.17722142918E+04  0.25500000920E-02 0. -1.
       -2    1    3    3    0  502 -0.29184086774E+03 -0.12622186469E+04 -0.98038916027E+03  0.16246630144E+04  0.25500000920E-02 0.  1.
</event>
<event>
 5   0  0.1003191E-06  0.3087001E+04  0.7818609E-02  0.8219314E-01
        1   -1    0    0  501    0  0.00000000000E+00  0.00000000000E+00  0.20162262007E+04  0.20162262007E+04  0.50400001928E-02 0.  1.
       -1   -1    0    0    0  501  0.00000000000E+00  0.00000000000E+00 -0.11816104911E+04  0.11816104911E+04  0.50400001928E-02 0. -1.
    10030    2    1    2    0    0  0.00000000000E+00  0.00000000000E+00  0.83461570968E+03  0.31978366918E+04  0.30870011540E+04 0.  0.
        5    1    3    3  502    0 -0.17524670273E+03  0.73789795026E+02  0.20040393733E+04  0.20130455137E+04  0.46999998093E+01 0.  1.
       -5    1    3    3    0  502  0.17524670273E+03 -0.73789795026E+02 -0.11694236636E+04  0.11847911781E+04  0.46999998093E+01 0. -1.
</event>
<event>
 5   0  0.2664083E-06  0.2985071E+04  0.7818609E-02  0.8248007E-01
       -2   -1    0    0    0  501  0.00000000000E+00  0.00000000000E+00  0.13933947380E+04  0.13933947380E+04  0.25500000920E-02 0. -1.
        2   -1    0    0  501    0  0.00000000000E+00  0.00000000000E+00 -0.15987297802E+04  0.15987297802E+04  0.25500000920E-02 0.  1.
    10030    2    1    2    0    0  0.00000000000E+00  0.00000000000E+00 -0.20533504223E+03  0.29921245182E+04  0.29850706278E+04 0.  0.
        2    1    3    3  502    0  0.97857875571E+03  0.20027227136E+03  0.10089780993E+04  0.14197753937E+04  0.25500000920E-02 0. -1.
       -2    1    3    3    0  502 -0.97857875571E+03 -0.20027227136E+03 -0.12143131415E+04  0.15723491245E+04  0.25500000920E-02 0.  1.
</event>
<event>
 5   0  0.9714317E-07  0.3499013E+04  0.7818609E-02  0.8114024E-01
        1   -1    0    0  501    0  0.00000000000E+00  0.00000000000E+00  0.20739292124E+04  0.20739292124E+04  0.50400001928E-02 0. -1.
       -1   -1    0    0    0  501  0.00000000000E+00  0.00000000000E+00 -0.14758325915E+04  0.14758325915E+04  0.50400001928E-02 0.  1.
    10030    2    1    2    0    0  0.00000000000E+00  0.00000000000E+00  0.59809662088E+03  0.35497618039E+04  0.34990126173E+04 0.  0.
        4    1    3    3  502    0  0.66854493497E+03  0.77155391849E+03  0.17404019441E+04  0.20177334609E+04  0.12699999809E+01 0. -1.
       -4    1    3    3    0  502 -0.66854493497E+03 -0.77155391849E+03 -0.11423053232E+04  0.15320283430E+04  0.12699999809E+01 0.  1.
</event>
<event>
 5   0  0.9714317E-07  0.3422906E+04  0.7818609E-02  0.8132307E-01
       -1   -1    0    0    0  501  0.00000000000E+00  0.00000000000E+00  0.15537640146E+04  0.15537640146E+04  0.50400001928E-02 0. -1.
        1   -1    0    0  501    0  0.00000000000E+00  0.00000000000E+00 -0.18851452081E+04  0.18851452081E+04  0.50400001928E-02 0.  1.
    10030    2    1    2    0    0  0.00000000000E+00  0.00000000000E+00 -0.33138119352E+03  0.34389092226E+04  0.34229056584E+04 0.  0.
        4    1    3    3  502    0 -0.10643697190E+03  0.41627724517E+02  0.15499254478E+04  0.15541339077E+04  0.12699999809E+01 0. -1.
       -4    1    3    3    0  502  0.10643697190E+03 -0.41627724517E+02 -0.18813066413E+04  0.18847753150E+04  0.12699999809E+01 0.  1.
</event>
<event>
 5   0  0.9714317E-07  0.3036190E+04  0.7818609E-02  0.8233472E-01
        1   -1    0    0  501    0  0.00000000000E+00  0.00000000000E+00  0.12208226351E+04  0.12208226351E+04  0.50400001928E-02 0.  1.
       -1   -1    0    0    0  501  0.00000000000E+00  0.00000000000E+00 -0.18877531702E+04  0.18877531702E+04  0.50400001928E-02 0. -1.
    10030    2    1    2    0    0  0.00000000000E+00  0.00000000000E+00 -0.66693053503E+03  0.31085758053E+04  0.30361895855E+04 0.  0.
        4    1    3    3  502    0 -0.10376992881E+04  0.45709546231E+03  0.69998261007E+03  0.13325664491E+04  0.12699999809E+01 0.  1.
       -4    1    3    3    0  502  0.10376992881E+04 -0.45709546231E+03 -0.13669131451E+04  0.17760093562E+04  0.12699999809E+01 0. -1.
</event>
<event>
 5   0  0.2664083E-06  0.3132143E+04  0.7818609E-02  0.8206971E-01
       -2   -1    0    0    0  501  0.00000000000E+00  0.00000000000E+00  0.15462076523E+04  0.15462076523E+04  0.25500000920E-02 0. -1.
        2   -1    0    0  501    0  0.00000000000E+00  0.00000000000E+00 -0.15861908555E+04  0.15861908555E+04  0.25500000920E-02 0.  1.
    10030    2    1    2    0    0  0.00000000000E+00  0.00000000000E+00 -0.39983203221E+02  0.31323985078E+04  0.31321433165E+04 0.  0.
        2    1    3    3  502    0  0.38674121300E+03 -0.10777533868E+04 -0.10884696400E+04  0.15798377403E+04  0.25500000920E-02 0.  1.
       -2    1    3    3    0  502 -0.38674121300E+03  0.10777533868E+04  0.10484864367E+04  0.15525607675E+04  0.25500000920E-02 0. -1.
</event>
<event>
 5   0  0.9070500E-07  0.3375705E+04  0.7818609E-02  0.8143895E-01
       -3   -1    0    0    0  501  0.00000000000E+00  0.00000000000E+00  0.20592809569E+04  0.20592809593E+04  0.10100000352E+00 0.  1.
        3   -1    0    0  501    0  0.00000000000E+00  0.00000000000E+00 -0.13834177816E+04  0.13834177853E+04  0.10100000352E+00 0. -1.
    10030    2    1    2    0    0  0.00000000000E+00  0.00000000000E+00  0.67586317523E+03  0.34426987447E+04  0.33757049064E+04 0.  0.
        5    1    3    3  502    0  0.54810107925E+03 -0.12092966556E+04 -0.72486850164E+03  0.15127027563E+04  0.46999998093E+01 0. -1.
       -5    1    3    3    0  502 -0.54810107925E+03  0.12092966556E+04  0.14007316769E+04  0.19299959883E+04  0.46999998093E+01 0.  1.
</event>
<event>
 5   0  0.2906701E-06  0.3390609E+04  0.7818609E-02  0.8140215E-01
       -2   -1    0    0    0  501  0.00000000000E+00  0.00000000000E+00  0.15317573339E+04  0.15317573339E+04  0.25500000920E-02 0.  1.
        2   -1    0    0  501    0  0.00000000000E+00  0.00000000000E+00 -0.18763138948E+04  0.18763138948E+04  0.25500000920E-02 0. -1.
    10030    2    1    2    0    0  0.00000000000E+00  0.00000000000E+00 -0.34455656091E+03  0.34080712287E+04  0.33906091306E+04 0.  0.
        5    1    3    3  502    0 -0.57395949561E+03  0.14910903630E+03  0.14240990238E+04  0.15426416067E+04  0.46999998093E+01 0.  1.
       -5    1    3    3    0  502  0.57395949561E+03 -0.14910903630E+03 -0.17686555847E+04  0.18654296220E+04  0.46999998093E+01 0. -1.
</event>
<event>
 5   0  0.2906701E-06  0.3390854E+04  0.7818609E-02  0.8140155E-01
       -2   -1    0    0    0  501  0.00000000000E+00  0.00000000000E+00  0.19137443130E+04  0.19137443130E+04  0.25500000920E-02 0.  1.
        2   -1    0    0  501    0  0.00000000000E+00  0.00000000000E+00 -0.15020150292E+04  0.15020150292E+04  0.25500000920E-02 0. -1.
    10030    2    1    2    0    0  0.00000000000E+00  0.00000000000E+00  0.41172928378E+03  0.34157593422E+04  0.33908540046E+04 0.  0.
        5    1    3    3  502    0  0.89276275302E+03 -0.12654838049E+04 -0.48911281513E+03  0.16241083799E+04  0.46999998093E+01 0. -1.
       -5    1    3    3    0  502 -0.89276275302E+03  0.12654838049E+04  0.90084209891E+03  0.17916509623E+04  0.46999998093E+01 0.  1.
</event>
<event>
 5   0  0.2856440E-06  0.3556196E+04  0.7818609E-02  0.8100600E-01
        2   -1    0    0  501    0  0.00000000000E+00  0.00000000000E+00  0.19232969453E+04  0.19232969453E+04  0.25500000920E-02 0.  1.
       -2   -1    0    0    0  501  0.00000000000E+00  0.00000000000E+00 -0.16438607809E+04  0.16438607809E+04  0.25500000920E-02 0. -1.
    10030    2    1    2    0    0  0.00000000000E+00  0.00000000000E+00  0.27943616441E+03  0.35671577262E+04  0.35561959554E+04 0.  0.
        4    1    3    3  502    0 -0.30026922230E+03 -0.63298684300E+02  0.18965340023E+04  0.19212004487E+04  0.12699999809E+01 0.  1.
       -4    1    3    3    0  502  0.30026922230E+03  0.63298684300E+02 -0.16170978379E+04  0.16459572775E+04  0.12699999809E+01 0. -1.
</event>
<event>
 5   0  0.9714317E-07  0.3447950E+04  0.7818609E-02  0.8126237E-01
       -1   -1    0    0    0  501  0.00000000000E+00  0.00000000000E+00  0.11815750736E+04  0.11815750736E+04  0.50400001928E-02 0. -1.
        1   -1    0    0  501    0  0.00000000000E+00  0.00000000000E+00 -0.25153631734E+04  0.25153631734E+04  0.50400001928E-02 0.  1.
    10030    2    1    2    0    0  0.00000000000E+00  0.00000000000E+00 -0.13337880998E+04  0.36969382471E+04  0.34479503632E+04 0.  0.
        4    1    3    3  502    0 -0.94193948169E+03 -0.70905341756E+02 -0.22131919057E+04  0.24063452743E+04  0.12699999809E+01 0.  1.
       -4    1    3    3    0  502  0.94193948169E+03  0.70905341756E+02  0.87940380591E+03  0.12905929728E+04  0.12699999809E+01 0. -1.
</event>
<event>
 5   0  0.1010551E-06  0.2441798E+04  0.7818609E-02  0.8424019E-01
        1   -1    0    0  501    0  0.00000000000E+00  0.00000000000E+00  0.11383093818E+04  0.11383093819E+04  0.50400001928E-02 0.  1.
       -1   -1    0    0    0  501  0.00000000000E+00  0.00000000000E+00 -0.13094810887E+04  0.13094810887E+04  0.50400001928E-02 0. -1.
    10030    2    1    2    0    0  0.00000000000E+00  0.00000000000E+00 -0.17117170685E+03  0.24477904706E+04  0.24417981969E+04 0.  0.
        2    1    3    3  502    0 -0.18046335619E+03  0.10427205903E+04  0.52481017908E+03  0.11812108095E+04  0.25500000920E-02 0.  1.
       -2    1    3    3    0  502  0.18046335619E+03 -0.10427205903E+04 -0.69598188593E+03  0.12665796611E+04  0.25500000920E-02 0. -1.
</event>
<event>
 5   0  0.2664083E-06  0.3353840E+04  0.7818609E-02  0.8149329E-01
       -2   -1    0    0    0  501  0.00000000000E+00  0.00000000000E+00  0.16583571637E+04  0.16583571637E+04  0.25500000920E-02 0. -1.
        2   -1    0    0  501    0  0.00000000000E+00  0.00000000000E+00 -0.16956908248E+04  0.16956908248E+04  0.25500000920E-02 0.  1.
    10030    2    1    2    0    0  0.00000000000E+00  0.00000000000E+00 -0.37333661130E+02  0.33540479885E+04  0.33538402029E+04 0.  0.
        2    1    3    3  502    0  0.51630320141E+03 -0.55810672809E+03  0.14760859026E+04  0.16603860117E+04  0.25500000920E-02 0. -1.
       -2    1    3    3    0  502 -0.51630320141E+03  0.55810672809E+03 -0.15134195638E+04  0.16936619768E+04  0.25500000920E-02 0.  1.
</event>
<event>
 5   0  0.1010551E-06  0.3436482E+04  0.7818609E-02  0.8129010E-01
        1   -1    0    0  501    0  0.00000000000E+00  0.00000000000E+00  0.18386738893E+04  0.18386738893E+04  0.50400001928E-02 0. -1.
       -1   -1    0    0    0  501  0.00000000000E+00  0.00000000000E+00 -0.16056959953E+04  0.16056959953E+04  0.50400001928E-02 0.  1.
    10030    2    1    2    0    0  0.00000000000E+00  0.00000000000E+00  0.23297789401E+03  0.34443698847E+04  0.34364815151E+04 0.  0.
        2    1    3    3  502    0 -0.19243463177E+03  0.61957272591E+03  0.17111942386E+04  0.18300511393E+04  0.25500000920E-02 0. -1.
       -2    1    3    3    0  502  0.19243463177E+03 -0.61957272591E+03 -0.14782163446E+04  0.16143187454E+04  0.25500000920E-02 0.  1.
</event>
<event>
 5   0  0.2848685E-06  0.3402735E+04  0.7818609E-02  0.8137235E-01
       -2   -1    0    0    0  501  0.00000000000E+00  0.00000000000E+00  0.15843309686E+04  0.15843309686E+04  0.25500000920E-02 0.  1.
        2   -1    0    0  501    0  0.00000000000E+00  0.00000000000E+00 -0.18270497889E+04  0.18270497889E+04  0.25500000920E-02 0. -1.
    10030    2    1    2    0    0  0.00000000000E+00  0.00000000000E+00 -0.24271882037E+03  0.34113807575E+04  0.34027351126E+04 0.  0.
        3    1    3    3  502    0  0.14272972522E+04 -0.91751145536E+03 -0.24676453971E+03  0.17146129199E+04  0.10100000352E+00 0. -1.
       -3    1    3    3    0  502 -0.14272972522E+04  0.91751145536E+03  0.40457193384E+01  0.16967678376E+04  0.10100000352E+00 0.  1.
</event>
<event>
 5   0  0.2906701E-06  0.3295941E+04  0.7818609E-02  0.8163929E-01
        2   -1    0    0  501    0  0.00000000000E+00  0.00000000000E+00  0.17047110208E+04  0.17047110208E+04  0.25500000920E-02 0. -1.
       -2   -1    0    0    0  501  0.00000000000E+00  0.00000000000E+00 -0.15931184271E+04  0.15931184271E+04  0.25500000920E-02 0.  1.
    10030    2    1    2    0    0  0.00000000000E+00  0.00000000000E+00  0.11159259370E+03  0.32978294480E+04  0.32959408612E+04 0.  0.
        5    1    3    3  502    0 -0.10520299281E+04  0.26160111872E+03 -0.11861168886E+04  0.16068906243E+04  0.46999998093E+01 0.  1.
       -5    1    3    3    0  502  0.10520299281E+04 -0.26160111872E+03  0.12977094823E+04  0.16909388237E+04  0.46999998093E+01 0. -1.
</event>
<event>
 5   0  0.1003191E-06  0.3185256E+04  0.7818609E-02  0.8192722E-01
       -1   -1    0    0    0  501  0.00000000000E+00  0.00000000000E+00  0.10527532374E+04  0.10527532374E+04  0.50400001928E-02 0.  1.
        1   -1    0    0  501    0  0.00000000000E+00  0.00000000000E+00 -0.24093625057E+04  0.24093625057E+04  0.50400001928E-02 0. -1.
    10030    2    1    2    0    0  0.00000000000E+00  0.00000000000E+00 -0.13566092683E+04  0.34621157431E+04  0.31852561454E+04 0.  0.
        5    1    3    3  502    0 -0.19220219442E+03  0.15697938187E+04 -0.88236706269E+03  0.18110185090E+04  0.46999998093E+01 0.  1.
       -5    1    3    3    0  502  0.19220219442E+03 -0.15697938187E+04 -0.47424220563E+03  0.16510972341E+04  0.46999998093E+01 0. -1.
</event>
<event>
 5   0  0.9232963E-07  0.3347913E+04  0.7818609E-02  0.8150810E-01
       -1   -1    0    0    0  501  0.00000000000E+00  0.00000000000E+00  0.14190193397E+04  0.14190193397E+04  0.50400001928E-02 0.  1.
        1   -1    0    0  501    0  0.00000000000E+00  0.00000000000E+00 -0.19746949453E+04  0.19746949453E+04  0.50400001928E-02 0. -1.
    10030    2    1    2    0    0  0.00000000000E+00  0.00000000000E+00 -0.55567560567E+03  0.33937142850E+04  0.33479129722E+04 0.  0.
        3    1    3    3  502    0  0.10577668535E+04 -0.12278095991E+04  0.14711466476E+03  0.16272768243E+04  0.10100000352E+00 0.  1.
       -3    1    3    3    0  502 -0.10577668535E+04  0.12278095991E+04 -0.70279027043E+03  0.17664374607E+04  0.10100000352E+00 0. -1.
</event>
<event>
 5   0  0.2848685E-06  0.3019248E+04  0.7818609E-02  0.8238256E-01
       -2   -1    0    0    0  501  0.00000000000E+00  0.00000000000E+00  0.11553671390E+04  0.11553671390E+04  0.25500000920E-02 0. -1.
        2   -1    0    0  501    0  0.00000000000E+00  0.00000000000E+00 -0.19725031220E+04  0.19725031220E+04  0.25500000920E-02 0.  1.
    10030    2    1    2    0    0  0.00000000000E+00  0.00000000000E+00 -0.81713598300E+03  0.31278702610E+04  0.30192484421E+04 0.  0.
        3    1    3    3  502    0 -0.94068412036E+01  0.14857854108E+04 -0.68523093259E+03  0.16362115440E+04  0.10100000352E+00 0.  1.
       -3    1    3    3    0  502  0.94068412036E+01 -0.14857854108E+04 -0.13190505041E+03  0.14916587170E+04  0.10100000352E+00 0. -1.
</event>
<event>
 5   0  0.2767014E-06  0.3354062E+04  0.7818609E-02  0.8149274E-01
        2   -1    0    0  501    0  0.00000000000E+00  0.00000000000E+00  0.18201777310E+04  0.18201777310E+04  0.25500000920E-02 0.  1.
       -2   -1    0    0    0  501  0.00000000000E+00  0.00000000000E+00 -0.15451420599E+04  0.15451420599E+04  0.25500000920E-02 0. -1.
    10030    2    1    2    0    0  0.00000000000E+00  0.00000000000E+00  0.27503567108E+03  0.33653197908E+04  0.33540621154E+04 0.  0.
        1    1    3    3  502    0  0.56956004765E+03 -0.30790369045E+01  0.17201595619E+04  0.18120036001E+04  0.50400001928E-02 0.  1.
       -1    1    3    3    0  502 -0.56956004765E+03  0.30790369045E+01 -0.14451238909E+04  0.15533161907E+04  0.50400001928E-02 0. -1.
</event>
<event>
 5   0  0.2767014E-06  0.3291856E+04  0.7818609E-02  0.8164971E-01
       -2   -1    0    0    0  501  0.00000000000E+00  0.00000000000E+00  0.14593481001E+04  0.14593481001E+04  0.25500000920E-02 0. -1.
        2   -1    0    0  501    0  0.00000000000E+00  0.00000000000E+00 -0.18563621194E+04  0.18563621194E+04  0.25500000920E-02 0.  1.
    10030    2    1    2    0    0  0.00000000000E+00  0.00000000000E+00 -0.39701401934E+03  0.33157102195E+04  0.32918557271E+04 0.  0.
        1    1    3    3  502    0  0.14434186740E+04 -0.31035101930E+03 -0.93131142780E+03  0.17455990947E+04  0.50400001928E-02 0.  1.
       -1    1    3    3    0  502 -0.14434186740E+04  0.31035101930E+03  0.53429740846E+03  0.15701111249E+04  0.50400001928E-02 0. -1.
</event>
<event>
 5   0  0.2664083E-06  0.2498584E+04  0.7818609E-02  0.8403490E-01
       -2   -1    0    0    0  501  0.00000000000E+00  0.00000000000E+00  0.95349116195E+03  0.95349116195E+03  0.25500000920E-02 0.  1.
        2   -1    0    0  501    0  0.00000000000E+00  0.00000000000E+00 -0.16368587015E+04  0.16368587015E+04  0.25500000920E-02 0. -1.
    10030    2    1    2    0    0  0.00000000000E+00  0.00000000000E+00 -0.68336753959E+03  0.25903498635E+04  0.24985838431E+04 0.  0.
        2    1    3    3  502    0 -0.26590084229E+03 -0.12190203194E+04 -0.40738731845E+03  0.13125083711E+04  0.25500000920E-02 0.  1.
       -2    1    3    3    0  502  0.26590084229E+03  0.12190203194E+04 -0.27598022114E+03  0.12778414923E+04  0.25500000920E-02 0. -1.
</event>
<event>
 5   0  0.1010855E-06  0.2540193E+04  0.7818609E-02  0.8388805E-01
        1   -1    0    0  501    0  0.00000000000E+00  0.00000000000E+00  0.10361847375E+04  0.10361847375E+04  0.50400001928E-02 0. -1.
       -1   -1    0    0    0  501  0.00000000000E+00  0.00000000000E+00 -0.15568128674E+04  0.15568128674E+04  0.50400001928E-02 0.  1.
    10030    2    1    2    0    0  0.00000000000E+00  0.00000000000E+00 -0.52062812989E+03  0.25929976049E+04  0.25401934826E+04 0.  0.
        1    1    3    3  502    0 -0.97573803648E+03 -0.51050078781E+03 -0.90629587869E+03  0.14262005434E+04  0.50400001928E-02 0.  1.
       -1    1    3    3    0  502  0.97573803648E+03  0.51050078781E+03  0.38566774880E+03  0.11667970615E+04  0.50400001928E-02 0. -1.
</event>
<event>
 5   0  0.2767014E-06  0.2959510E+04  0.7818609E-02  0.8255388E-01
       -2   -1    0    0    0  501  0.00000000000E+00  0.00000000000E+00  0.13042487497E+04  0.13042487497E+04  0.25500000920E-02 0.  1.
        2   -1    0    0  501    0  0.00000000000E+00  0.00000000000E+00 -0.16788785059E+04  0.16788785059E+04  0.25500000920E-02 0. -1.
    10030    2    1    2    0    0  0.00000000000E+00  0.00000000000E+00 -0.37462975616E+03  0.29831272556E+04  0.29595102245E+04 0.  0.
        1    1    3    3  502    0  0.77059161611E+02  0.59119340255E+03  0.11778293221E+04  0.13201248674E+04  0.50400001928E-02 0.  1.
       -1    1    3    3    0  502 -0.77059161611E+02 -0.59119340255E+03 -0.15524590782E+04  0.16630023882E+04  0.50400001928E-02 0. -1.
</event>
<event>
 5   0  0.2856440E-06  0.3205093E+04  0.7818609E-02  0.8187473E-01
        2   -1    0    0  501    0  0.00000000000E+00  0.00000000000E+00  0.20774281768E+04  0.20774281768E+04  0.25500000920E-02 0. -1.
       -2   -1    0    0    0  501  0.00000000000E+00  0.00000000000E+00 -0.12362186018E+04  0.12362186018E+04  0.25500000920E-02 0.  1.
    10030    2    1    2    0    0  0.00000000000E+00  0.00000000000E+00  0.84120957504E+03  0.33136467786E+04  0.32050930446E+04 0.  0.
        4    1    3    3  502    0 -0.64015954367E+02  0.35051080595E+03  0.20359563738E+04  0.20669000548E+04  0.12699999809E+01 0. -1.
       -4    1    3    3    0  502  0.64015954367E+02 -0.35051080595E+03 -0.11947467987E+04  0.12467467239E+04  0.12699999809E+01 0.  1.
</event>
<event>
 5   0  0.2848685E-06  0.3373981E+04  0.7818609E-02  0.8144322E-01
       -2   -1    0    0    0  501  0.00000000000E+00  0.00000000000E+00  0.14940254495E+04  0.14940254495E+04  0.25500000920E-02 0. -1.
        2   -1    0    0  501    0  0.00000000000E+00  0.00000000000E+00 -0.19048788454E+04  0.19048788454E+04  0.25500000920E-02 0.  1.
    10030    2    1    2    0    0  0.00000000000E+00  0.00000000000E+00 -0.41085339593E+03  0.33989042950E+04  0.33739813119E+04 0.  0.
        3    1    3    3  502    0  0.15946968239E+04  0.54990036928E+03 -0.18314802922E+03  0.16967591423E+04  0.10100000352E+00 0.  1.
       -3    1    3    3    0  502 -0.15946968239E+04 -0.54990036928E+03 -0.22770536670E+03  0.17021451526E+04  0.10100000352E+00 0. -1.
</event>
<event>
 5   0  0.1003191E-06  0.3443025E+04  0.7818609E-02  0.8127427E-01
        1   -1    0    0  501    0  0.00000000000E+00  0.00000000000E+00  0.13637710162E+04  0.13637710162E+04  0.50400001928E-02 0.  1.
       -1   -1    0    0    0  501  0.00000000000E+00  0.00000000000E+00 -0.21730960997E+04  0.21730960997E+04  0.50400001928E-02 0. -1.
    10030    2    1    2    0    0  0.00000000000E+00  0.00000000000E+00 -0.80932508351E+03  0.35368671159E+04  0.34430251095E+04 0.  0.
        5    1    3    3  502    0 -0.16600001545E+03 -0.40777844382E+02  0.13550251112E+04  0.13657723015E+04  0.46999998093E+01 0.  1.
       -5    1    3    3    0  502  0.16600001545E+03  0.40777844382E+02 -0.21643501947E+04  0.21710948143E+04  0.46999998093E+01 0. -1.
</event>
<event>
 5   0  0.1010551E-06  0.3399142E+04  0.7818609E-02  0.8138117E-01
       -1   -1    0    0    0  501  0.00000000000E+00  0.00000000000E+00  0.19839759247E+04  0.19839759247E+04  0.50400001928E-02 0.  1.
        1   -1    0    0  501    0  0.00000000000E+00  0.00000000000E+00 -0.14559353828E+04  0.14559353828E+04  0.50400001928E-02 0. -1.
    10030    2    1    2    0    0  0.00000000000E+00  0.00000000000E+00  0.52804054191E+03  0.34399113075E+04  0.33991415078E+04 0.  0.
        2    1    3    3  502    0 -0.73888849411E+03  0.71308682430E+03  0.16345502055E+04  0.19303376388E+04  0.25500000920E-02 0.  1.
       -2    1    3    3    0  502  0.73888849411E+03 -0.71308682430E+03 -0.11065096635E+04  0.15095736687E+04  0.25500000920E-02 0. -1.
</event>
<event>
 5   0  0.2767014E-06  0.3384113E+04  0.7818609E-02  0.8141816E-01
        2   -1    0    0  501    0  0.00000000000E+00  0.00000000000E+00  0.24838296993E+04  0.24838296993E+04  0.25500000920E-02 0.  1.
       -2   -1    0    0    0  501  0.00000000000E+00  0.00000000000E+00 -0.11526780678E+04  0.11526780678E+04  0.25500000920E-02 0. -1.
    10030    2    1    2    0    0  0.00000000000E+00  0.00000000000E+00  0.13311516316E+04  0.36365077671E+04  0.33841134842E+04 0.  0.
        1    1    3    3  502    0  0.23708372822E+02 -0.60395908688E+03  0.23638668468E+04  0.24399170345E+04  0.50400001928E-02 0.  1.
       -1    1    3    3    0  502 -0.23708372822E+02  0.60395908688E+03 -0.10327152153E+04  0.11965907326E+04  0.50400001928E-02 0. -1.
</event>
<event>
 5   0  0.2856440E-06  0.3386098E+04  0.7818609E-02  0.8141327E-01
        2   -1    0    0  501    0  0.00000000000E+00  0.00000000000E+00  0.18142213338E+04  0.18142213338E+04  0.25500000920E-02 0. -1.
       -2   -1    0    0    0  501  0.00000000000E+00  0.00000000000E+00 -0.15799700340E+04  0.15799700340E+04  0.25500000920E-02 0.  1.
    10030    2    1    2    0    0  0.00000000000E+00  0.00000000000E+00  0.23425129988E+03  0.33941913678E+04  0.33860982516E+04 0.  0.
        4    1    3    3  502    0  0.49768184250E+03 -0.15973980496E+03  0.17313191288E+04  0.18084998093E+04  0.12699999809E+01 0. -1.
       -4    1    3    3    0  502 -0.49768184250E+03  0.15973980496E+03 -0.14970678289E+04  0.15856915585E+04  0.12699999809E+01 0.  1.
</event>
<event>
 5   0  0.2848685E-06  0.3419700E+04  0.7818609E-02  0.8133088E-01
        2   -1    0    0  501    0  0.00000000000E+00  0.00000000000E+00  0.19532128897E+04  0.19532128897E+04  0.25500000920E-02 0. -1.
       -2   -1    0    0    0  501  0.00000000000E+00  0.00000000000E+00 -0.14968091675E+04  0.14968091675E+04  0.25500000920E-02 0.  1.
    10030    2    1    2    0    0  0.00000000000E+00  0.00000000000E+00  0.45640372215E+03  0.34500220572E+04  0.34196999631E+04 0.  0.
        3    1    3    3  502    0  0.32746538288E+03 -0.23094936356E+03 -0.14487691272E+04  0.15031643887E+04  0.10100000352E+00 0.  1.
       -3    1    3    3    0  502 -0.32746538288E+03  0.23094936356E+03  0.19051728493E+04  0.19468576685E+04  0.10100000352E+00 0. -1.
</event>
<event>
 5   0  0.9232963E-07  0.3403434E+04  0.7818609E-02  0.8137064E-01
        1   -1    0    0  501    0  0.00000000000E+00  0.00000000000E+00  0.19498069394E+04  0.19498069394E+04  0.50400001928E-02 0. -1.
       -1   -1    0    0    0  501  0.00000000000E+00  0.00000000000E+00 -0.14851935114E+04  0.14851935114E+04  0.50400001928E-02 0.  1.
    10030    2    1    2    0    0  0.00000000000E+00  0.00000000000E+00  0.46461342800E+03  0.34350004508E+04  0.34034339217E+04 0.  0.
        3    1    3    3  502    0  0.99796362412E+01 -0.73056311619E+03 -0.13188337483E+04  0.15076951037E+04  0.10100000352E+00 0.  1.
       -3    1    3    3    0  502 -0.99796362412E+01  0.73056311619E+03  0.17834471763E+04  0.19273053470E+04  0.10100000352E+00 0. -1.
</event>
<event>
 5   0  0.2664083E-06  0.3391725E+04  0.7818609E-02  0.8139940E-01
        2   -1    0    0  501    0  0.00000000000E+00  0.00000000000E+00  0.12864287836E+04  0.12864287836E+04  0.25500000920E-02 0. -1.
       -2   -1    0    0    0  501  0.00000000000E+00  0.00000000000E+00 -0.22356072026E+04  0.22356072026E+04  0.25500000920E-02 0.  1.
    10030    2    1    2    0    0  0.00000000000E+00  0.00000000000E+00 -0.94917841893E+03  0.35220359862E+04  0.33917249029E+04 0.  0.
        2    1    3    3  502    0  0.94264113887E+03  0.74868094024E+03  0.76581415492E+03  0.14267329066E+04  0.25500000920E-02 0. -1.
       -2    1    3    3    0  502 -0.94264113887E+03 -0.74868094024E+03 -0.17149925739E+04  0.20953030796E+04  0.25500000920E-02 0.  1.
</event>
<event>
 5   0  0.1010855E-06  0.3400309E+04  0.7818609E-02  0.8137830E-01
        1   -1    0    0  501    0  0.00000000000E+00  0.00000000000E+00  0.23581907727E+04  0.23581907727E+04  0.50400001928E-02 0. -1.
       -1   -1    0    0    0  501  0.00000000000E+00  0.00000000000E+00 -0.12257385259E+04  0.12257385259E+04  0.50400001928E-02 0.  1.
    10030    2    1    2    0    0  0.00000000000E+00  0.00000000000E+00  0.11324522468E+04  0.35839292986E+04  0.34003089751E+04 0.  0.
        1    1    3    3  502    0 -0.54994834844E+03  0.13787497663E+04  0.14399231929E+04  0.20680360020E+04  0.50400001928E-02 0. -1.
       -1    1    3    3    0  502  0.54994834844E+03 -0.13787497663E+04 -0.30747094614E+03  0.15158932966E+04  0.50400001928E-02 0.  1.
</event>
<event>
 5   0  0.1010551E-06  0.3135381E+04  0.7818609E-02  0.8206094E-01
        1   -1    0    0  501    0  0.00000000000E+00  0.00000000000E+00  0.20981615616E+04  0.20981615616E+04  0.50400001928E-02 0.  1.
       -1   -1    0    0    0  501  0.00000000000E+00  0.00000000000E+00 -0.11713367911E+04  0.11713367911E+04  0.50400001928E-02 0. -1.
    10030    2    1    2    0    0  0.00000000000E+00  0.00000000000E+00  0.92682477050E+03  0.32694983527E+04  0.31353812086E+04 0.  0.
        2    1    3    3  502    0  0.89243891292E+03  0.12888767701E+04  0.46530349703E+03  0.16352852614E+04  0.25500000920E-02 0. -1.
       -2    1    3    3    0  502 -0.89243891292E+03 -0.12888767701E+04  0.46152127347E+03  0.16342130913E+04  0.25500000920E-02 0.  1.
</event>
<event>
 5   0  0.2906701E-06  0.3423083E+04  0.7818609E-02  0.8132264E-01
       -2   -1    0    0    0  501  0.00000000000E+00  0.00000000000E+00  0.16770567283E+04  0.16770567283E+04  0.25500000920E-02 0. -1.
        2   -1    0    0  501    0  0.00000000000E+00  0.00000000000E+00 -0.17467357875E+04  0.17467357875E+04  0.25500000920E-02 0.  1.
    10030    2    1    2    0    0  0.00000000000E+00  0.00000000000E+00 -0.69679059243E+02  0.34237925158E+04  0.34230834082E+04 0.  0.
        5    1    3    3  502    0  0.48523697239E+03 -0.12788456638E+04  0.99418444270E+03  0.16909541529E+04  0.46999998093E+01 0. -1.
       -5    1    3    3    0  502 -0.48523697239E+03  0.12788456638E+04 -0.10638635019E+04  0.17328383629E+04  0.46999998093E+01 0.  1.
</event>
<event>
 5   0  0.1010855E-06  0.3410592E+04  0.7818609E-02  0.8135312E-01
        1   -1    0    0  501    0  0.00000000000E+00  0.00000000000E+00  0.15025574296E+04  0.15025574296E+04  0.50400001928E-02 0.  1.
       -1   -1    0    0    0  501  0.00000000000E+00  0.00000000000E+00 -0.19353899666E+04  0.19353899666E+04  0.50400001928E-02 0. -1.
    10030    2    1    2    0    0  0.00000000000E+00  0.00000000000E+00 -0.43283253708E+03  0.34379473962E+04  0.34105920738E+04 0.  0.
        1    1    3    3  502    0 -0.10176994700E+04  0.10174585552E+04  0.70585406008E+03  0.16028612158E+04  0.50400001928E-02 0.  1.
       -1    1    3    3    0  502  0.10176994700E+04 -0.10174585552E+04 -0.11386865972E+04  0.18350861804E+04  0.50400001928E-02 0. -1.
</event>
<event>
 5   0  0.2856440E-06  0.3276284E+04  0.7818609E-02  0.8168956E-01
       -2   -1    0    0    0  501  0.00000000000E+00  0.00000000000E+00  0.20202487510E+04  0.20202487510E+04  0.25500000920E-02 0.  1.
        2   -1    0    0  501    0  0.00000000000E+00  0.00000000000E+00 -0.13283065360E+04  0.13283065360E+04  0.25500000920E-02 0. -1.
    10030    2    1    2    0    0  0.00000000000E+00  0.00000000000E+00  0.69194221500E+03  0.33485552870E+04  0.32762842491E+04 0.  0.
        4    1    3    3  502    0 -0.73881059694E+03 -0.54898204383E+03 -0.10390169134E+04  0.13880850629E+04  0.12699999809E+01 0. -1.
       -4    1    3    3    0  502  0.73881059694E+03  0.54898204383E+03  0.17309591284E+04  0.19604702241E+04  0.12699999809E+01 0.  1.
</event>
<event>
 5   0  0.9070500E-07  0.2310755E+04  0.7818609E-02  0.8473693E-01
       -3   -1    0    0    0  501  0.00000000000E+00  0.00000000000E+00  0.62425395495E+03  0.62425396312E+03  0.10100000352E+00 0. -1.
        3   -1    0    0  501    0  0.00000000000E+00  0.00000000000E+00 -0.21383880478E+04  0.21383880502E+04  0.10100000352E+00 0.  1.
    10030    2    1    2    0    0  0.00000000000E+00  0.00000000000E+00 -0.15141340928E+04  0.27626420133E+04  0.23107550373E+04 0.  0.
        5    1    3    3  502    0  0.56555243991E+03 -0.23761066247E+03  0.41346114994E+03  0.73978415887E+03  0.46999998093E+01 0. -1.
       -5    1    3    3    0  502 -0.56555243991E+03  0.23761066247E+03 -0.19275952428E+04  0.20228578544E+04  0.46999998093E+01 0.  1.
</event>
<event>
 5   0  0.2848685E-06  0.3205967E+04  0.7818609E-02  0.8187243E-01
       -2   -1    0    0    0  501  0.00000000000E+00  0.00000000000E+00  0.98948905191E+03  0.98948905191E+03  0.25500000920E-02 0. -1.
        2   -1    0    0  501    0  0.00000000000E+00  0.00000000000E+00 -0.25968521514E+04  0.25968521514E+04  0.25500000920E-02 0.  1.
    10030    2    1    2    0    0  0.00000000000E+00  0.00000000000E+00 -0.16073630995E+04  0.35863412033E+04  0.32059674192E+04 0.  0.
        3    1    3    3  502    0 -0.15355660624E+03  0.88624510440E+03  0.68059997558E+03  0.11279301190E+04  0.10100000352E+00 0. -1.
       -3    1    3    3    0  502  0.15355660624E+03 -0.88624510440E+03 -0.22879630750E+04  0.24584110843E+04  0.10100000352E+00 0.  1.
</event>
<event>
 5   0  0.2848685E-06  0.3688086E+04  0.7818609E-02  0.8070607E-01
       -2   -1    0    0    0  501  0.00000000000E+00  0.00000000000E+00  0.20329239093E+04  0.20329239093E+04  0.25500000920E-02 0. -1.
        2   -1    0    0  501    0  0.00000000000E+00  0.00000000000E+00 -0.16727108759E+04  0.16727108759E+04  0.25500000920E-02 0.  1.
    10030    2    1    2    0    0  0.00000000000E+00  0.00000000000E+00  0.36021303335E+03  0.37056347852E+04  0.36880856460E+04 0.  0.
        3    1    3    3  502    0 -0.11738960813E+03 -0.74781109640E+03  0.18696225669E+04  0.20170499025E+04  0.10100000352E+00 0. -1.
       -3    1    3    3    0  502  0.11738960813E+03  0.74781109640E+03 -0.15094095336E+04  0.16885848828E+04  0.10100000352E+00 0.  1.
</event>
<event>
 5   0  0.9232963E-07  0.3434507E+04  0.7818609E-02  0.8129489E-01
       -1   -1    0    0    0  501  0.00000000000E+00  0.00000000000E+00  0.23636848463E+04  0.23636848463E+04  0.50400001928E-02 0.  1.
        1   -1    0    0  501    0  0.00000000000E+00  0.00000000000E+00 -0.12476113885E+04  0.12476113885E+04  0.50400001928E-02 0. -1.
    10030    2    1    2    0    0  0.00000000000E+00  0.00000000000E+00  0.11160734578E+04  0.36112962349E+04  0.34345073202E+04 0.  0.
        3    1    3    3  502    0  0.34209480655E+03 -0.14554024535E+04  0.14463520549E+04  0.20801825486E+04  0.10100000352E+00 0.  1.
       -3    1    3    3    0  502 -0.34209480655E+03  0.14554024535E+04 -0.33027859712E+03  0.15311136863E+04  0.10100000352E+00 0. -1.
</event>
<event>
 5   0  0.2664083E-06  0.3033305E+04  0.7818609E-02  0.8234284E-01
       -2   -1    0    0    0  501  0.00000000000E+00  0.00000000000E+00  0.18095961121E+04  0.18095961121E+04  0.25500000920E-02 0. -1.
        2   -1    0    0  501    0  0.00000000000E+00  0.00000000000E+00 -0.12711315547E+04  0.12711315547E+04  0.25500000920E-02 0.  1.
    10030    2    1    2    0    0  0.00000000000E+00  0.00000000000E+00  0.53846455743E+03  0.30807276669E+04  0.30333049431E+04 0.  0.
        2    1    3    3  502    0  0.10134515488E+02  0.55629971910E+03 -0.11637343225E+04  0.12899029650E+04  0.25500000920E-02 0.  1.
       -2    1    3    3    0  502 -0.10134515488E+02 -0.55629971910E+03  0.17021988799E+04  0.17908247018E+04  0.25500000920E-02 0. -1.
</event>
<event>
 5   0  0.2856440E-06  0.2828177E+04  0.7818609E-02  0.8294574E-01
        2   -1    0    0  501    0  0.00000000000E+00  0.00000000000E+00  0.19538867461E+04  0.19538867461E+04  0.25500000920E-02 0.  1.
       -2   -1    0    0    0  501  0.00000000000E+00  0.00000000000E+00 -0.10234195767E+04  0.10234195767E+04  0.25500000920E-02 0. -1.
    10030    2    1    2    0    0  0.00000000000E+00  0.00000000000E+00  0.93046716933E+03  0.29773063228E+04  0.28281767601E+04 0.  0.
        4    1    3    3  502    0  0.27611604958E+03 -0.10281679074E+04 -0.51458317751E+03  0.11824410252E+04  0.12699999809E+01 0. -1.
       -4    1    3    3    0  502 -0.27611604958E+03  0.10281679074E+04  0.14450503468E+04  0.17948652976E+04  0.12699999809E+01 0.  1.
</event>
<event>
 5   0  0.2856440E-06  0.3333417E+04  0.7818609E-02  0.8154444E-01
        2   -1    0    0  501    0  0.00000000000E+00  0.00000000000E+00  0.23409039458E+04  0.23409039458E+04  0.25500000920E-02 0. -1.
       -2   -1    0    0    0  501  0.00000000000E+00  0.00000000000E+00 -0.11866857198E+04  0.11866857198E+04  0.25500000920E-02 0.  1.
    10030    2    1    2    0    0  0.00000000000E+00  0.00000000000E+00  0.11542182260E+04  0.35275896656E+04  0.33334170360E+04 0.  0.
        4    1    3    3  502    0 -0.50264574988E+03 -0.12990949279E+04  0.15456338312E+04  0.20806936187E+04  0.12699999809E+01 0. -1.
       -4    1    3    3    0  502  0.50264574988E+03  0.12990949279E+04 -0.39141560524E+03  0.14468960469E+04  0.12699999809E+01 0.  1.
</event>
<event>
 5   0  0.9714317E-07  0.3408722E+04  0.7818609E-02  0.8135769E-01
        1   -1    0    0  501    0  0.00000000000E+00  0.00000000000E+00  0.19307285605E+04  0.19307285605E+04  0.50400001928E-02 0.  1.
       -1   -1    0    0    0  501  0.00000000000E+00  0.00000000000E+00 -0.15045337513E+04  0.15045337513E+04  0.50400001928E-02 0. -1.
    10030    2    1    2    0    0  0.00000000000E+00  0.00000000000E+00  0.42619480919E+03  0.34352623118E+04  0.34087219211E+04 0.  0.
        4    1    3    3  502    0  0.47964094173E+03  0.22972015025E+03  0.18449696519E+04  0.19200889067E+04  0.12699999809E+01 0.  1.
       -4    1    3    3    0  502 -0.47964094173E+03 -0.22972015025E+03 -0.14187748427E+04  0.15151734051E+04  0.12699999809E+01 0. -1.
</event>
<event>
 5   0  0.1003191E-06  0.3362751E+04  0.7818609E-02  0.8147109E-01
        1   -1    0    0  501    0  0.00000000000E+00  0.00000000000E+00  0.22815266032E+04  0.22815266032E+04  0.50400001928E-02 0.  1.
       -1   -1    0    0    0  501  0.00000000000E+00  0.00000000000E+00 -0.12390933335E+04  0.12390933335E+04  0.50400001928E-02 0. -1.
    10030    2    1    2    0    0  0.00000000000E+00  0.00000000000E+00  0.10424332697E+04  0.35206199367E+04  0.33627514950E+04 0.  0.
        5    1    3    3  502    0  0.14166191625E+04  0.47546944770E+03  0.13281950506E+04  0.19992511672E+04  0.46999998093E+01 0.  1.
       -5    1    3    3    0  502 -0.14166191625E+04 -0.47546944770E+03 -0.28576178095E+03  0.15213687694E+04  0.46999998093E+01 0. -1.
</event>
<event>
 5   0  0.1010855E-06  0.3389456E+04  0.7818609E-02  0.8140499E-01
       -1   -1    0    0    0  501  0.00000000000E+00  0.00000000000E+00  0.10350814450E+04  0.10350814450E+04  0.50400001928E-02 0.  1.
        1   -1    0    0  501    0  0.00000000000E+00  0.00000000000E+00 -0.27747605831E+04  0.27747605831E+04  0.50400001928E-02 0. -1.
    10030    2    1    2    0    0  0.00000000000E+00  0.00000000000E+00 -0.17396791381E+04  0.38098420281E+04  0.33894561180E+04 0.  0.
        1    1    3    3  502    0 -0.99376726058E+03 -0.13723857353E+04 -0.90690213599E+03  0.19218448062E+04  0.50400001928E-02 0.  1.
       -1    1    3    3    0  502  0.99376726058E+03  0.13723857353E+04 -0.83277700216E+03  0.18879972219E+04  0.50400001928E-02 0. -1.
</event>
<event>
 5   0  0.9714317E-07  0.3360987E+04  0.7818609E-02  0.8147548E-01
       -1   -1    0    0    0  501  0.00000000000E+00  0.00000000000E+00  0.11716495420E+04  0.11716495420E+04  0.50400001928E-02 0.  1.
        1   -1    0    0  501    0  0.00000000000E+00  0.00000000000E+00 -0.24103264565E+04  0.24103264565E+04  0.50400001928E-02 0. -1.
    10030    2    1    2    0    0  0.00000000000E+00  0.00000000000E+00 -0.12386769145E+04  0.35819759985E+04  0.33609866937E+04 0.  0.
        4    1    3    3  502    0  0.13585334371E+04 -0.58366477570E+03 -0.14704585669E+04  0.20853123699E+04  0.12699999809E+01 0. -1.
       -4    1    3    3    0  502 -0.13585334371E+04  0.58366477570E+03  0.23178165244E+03  0.14966636286E+04  0.12699999809E+01 0.  1.
</event>
<event>
 5   0  0.1010855E-06  0.3359854E+04  0.7818609E-02  0.8147830E-01
        1   -1    0    0  501    0  0.00000000000E+00  0.00000000000E+00  0.16578322520E+04  0.16578322520E+04  0.50400001928E-02 0.  1.
       -1   -1    0    0    0  501  0.00000000000E+00  0.00000000000E+00 -0.17023159383E+04  0.17023159383E+04  0.50400001928E-02 0. -1.
    10030    2    1    2    0    0  0.00000000000E+00  0.00000000000E+00 -0.44483686292E+02  0.33601481903E+04  0.33598537263E+04 0.  0.
        1    1    3    3  502    0  0.12321617013E+04 -0.20427783581E+03 -0.11458181096E+04  0.16949486814E+04  0.50400001928E-02 0. -1.
       -1    1    3    3    0  502 -0.12321617013E+04  0.20427783581E+03  0.11013344233E+04  0.16651995089E+04  0.50400001928E-02 0.  1.
</event>
<event>
 5   0  0.2664083E-06  0.3343498E+04  0.7818609E-02  0.8151915E-01
       -2   -1    0    0    0  501  0.00000000000E+00  0.00000000000E+00  0.19002691939E+04  0.19002691939E+04  0.25500000920E-02 0. -1.
        2   -1    0    0  501    0  0.00000000000E+00  0.00000000000E+00 -0.14707096666E+04  0.14707096666E+04  0.25500000920E-02 0.  1.
    10030    2    1    2    0    0  0.00000000000E+00  0.00000000000E+00  0.42955952738E+03  0.33709788605E+04  0.33434977330E+04 0.  0.
        2    1    3    3  502    0  0.12065436553E+04 -0.26740582951E+02 -0.95156985832E+03  0.15368629888E+04  0.25500000920E-02 0.  1.
       -2    1    3    3    0  502 -0.12065436553E+04  0.26740582951E+02  0.13811293857E+04  0.18341158717E+04  0.25500000920E-02 0. -1.
</event>
<event>
 5   0  0.9714317E-07  0.3379603E+04  0.7818609E-02  0.8142931E-01
       -1   -1    0    0    0  501  0.00000000000E+00  0.00000000000E+00  0.17174552800E+04  0.17174552800E+04  0.50400001928E-02 0.  1.
        1   -1    0    0  501    0  0.00000000000E+00  0.00000000000E+00 -0.16625926367E+04  0.16625926367E+04  0.50400001928E-02 0. -1.
    10030    2    1    2    0    0  0.00000000000E+00  0.00000000000E+00  0.54862643327E+02  0.33800479167E+04  0.33796026407E+04 0.  0.
        4    1    3    3  502    0 -0.14260451157E+04  0.24613596390E+03  0.90003656485E+03  0.17041874943E+04  0.12699999809E+01 0.  1.
       -4    1    3    3    0  502  0.14260451157E+04 -0.24613596390E+03 -0.84517392152E+03  0.16758604224E+04  0.12699999809E+01 0. -1.
</event>
<event>
 5   0  0.2664083E-06  0.2475780E+04  0.7818609E-02  0.8411665E-01
       -2   -1    0    0    0  501  0.00000000000E+00  0.00000000000E+00  0.90454692439E+03  0.90454692440E+03  0.25500000920E-02 0. -1.
        2   -1    0    0  501    0  0.00000000000E+00  0.00000000000E+00 -0.16940761069E+04  0.16940761069E+04  0.25500000920E-02 0.  1.
    10030    2    1    2    0    0  0.00000000000E+00  0.00000000000E+00 -0.78952918254E+03  0.25986230313E+04  0.24757797416E+04 0.  0.
        2    1    3    3  502    0 -0.91816804222E+03  0.82991607324E+03 -0.42000108129E+03  0.13069790169E+04  0.25500000920E-02 0.  1.
       -2    1    3    3    0  502  0.91816804222E+03 -0.82991607324E+03 -0.36952810126E+03  0.12916440144E+04  0.25500000920E-02 0. -1.
</event>
<event>
 5   0  0.1010855E-06  0.3429354E+04  0.7818609E-02  0.8130739E-01
        1   -1    0    0  501    0  0.00000000000E+00  0.00000000000E+00  0.11515702608E+04  0.11515702609E+04  0.50400001928E-02 0. -1.
       -1   -1    0    0    0  501  0.00000000000E+00  0.00000000000E+00 -0.25531374557E+04  0.25531374557E+04  0.50400001928E-02 0.  1.
    10030    2    1    2    0    0  0.00000000000E+00  0.00000000000E+00 -0.14015671948E+04  0.37047077165E+04  0.34293539717E+04 0.  0.
        1    1    3    3  502    0  0.13316520645E+04 -0.40379832127E+03 -0.17831095246E+04  0.22618200374E+04  0.50400001928E-02 0.  1.
       -1    1    3    3    0  502 -0.13316520645E+04  0.40379832127E+03  0.38154232977E+03  0.14428876791E+04  0.50400001928E-02 0. -1.
</event>
<event>
 5   0  0.9232963E-07  0.3058940E+04  0.7818609E-02  0.8227098E-01
       -1   -1    0    0    0  501  0.00000000000E+00  0.00000000000E+00  0.17585844096E+04  0.17585844096E+04  0.50400001928E-02 0. -1.
        1   -1    0    0  501    0  0.00000000000E+00  0.00000000000E+00 -0.13302058322E+04  0.13302058322E+04  0.50400001928E-02 0.  1.
    10030    2    1    2    0    0  0.00000000000E+00  0.00000000000E+00  0.42837857743E+03  0.30887902418E+04  0.30589404951E+04 0.  0.
        3    1    3    3  502    0  0.11413769565E+04  0.10163907781E+04  0.27382196404E+03  0.15526654658E+04  0.10100000352E+00 0.  1.
       -3    1    3    3    0  502 -0.11413769565E+04 -0.10163907781E+04  0.15455661339E+03  0.15361247760E+04  0.10100000352E+00 0. -1.
</event>
<event>
 5   0  0.2664083E-06  0.2573116E+04  0.7818609E-02  0.8377391E-01
       -2   -1    0    0    0  501  0.00000000000E+00  0.00000000000E+00  0.15067728840E+04  0.15067728840E+04  0.25500000920E-02 0. -1.
        2   -1    0    0  501    0  0.00000000000E+00  0.00000000000E+00 -0.10985276359E+04  0.10985276359E+04  0.25500000920E-02 0.  1.
    10030    2    1    2    0    0  0.00000000000E+00  0.00000000000E+00  0.40824524809E+03  0.26053005199E+04  0.25731161296E+04 0.  0.
        2    1    3    3  502    0  0.12826776053E+04  0.27556660485E+02  0.10695115730E+03  0.12874236904E+04  0.25500000920E-02 0.  1.
       -2    1    3    3    0  502 -0.12826776053E+04 -0.27556660485E+02  0.30129409078E+03  0.13178768295E+04  0.25500000920E-02 0. -1.
</event>
<event>
 5   0  0.2767014E-06  0.3430417E+04  0.7818609E-02  0.8130481E-01
       -2   -1    0    0    0  501  0.00000000000E+00  0.00000000000E+00  0.24216420944E+04  0.24216420944E+04  0.25500000920E-02 0.  1.
        2   -1    0    0  501    0  0.00000000000E+00  0.00000000000E+00 -0.12148536951E+04  0.12148536951E+04  0.25500000920E-02 0. -1.
    10030    2    1    2    0    0  0.00000000000E+00  0.00000000000E+00  0.12067883993E+04  0.36364957895E+04  0.34304173779E+04 0.  0.
        1    1    3    3  502    0 -0.12603430978E+03 -0.33836971710E+03  0.23808956679E+04  0.24081201992E+04  0.50400001928E-02 0.  1.
       -1    1    3    3    0  502  0.12603430978E+03  0.33836971710E+03 -0.11741072686E+04  0.12283755903E+04  0.50400001928E-02 0. -1.
</event>
<event>
 5   0  0.2906701E-06  0.2991885E+04  0.7818609E-02  0.8246052E-01
        2   -1    0    0  501    0  0.00000000000E+00  0.00000000000E+00  0.18186280308E+04  0.18186280308E+04  0.25500000920E-02 0.  1.
       -2   -1    0    0    0  501  0.00000000000E+00  0.00000000000E+00 -0.12305122511E+04  0.12305122511E+04  0.25500000920E-02 0. -1.
    10030    2    1    2    0    0  0.00000000000E+00  0.00000000000E+00  0.58811577971E+03  0.30491402819E+04  0.29918850727E+04 0.  0.
        5    1    3    3  502    0  0.21712057272E+03 -0.82544428799E+03 -0.95799738546E+03  0.12830747041E+04  0.46999998093E+01 0. -1.
       -5    1    3    3    0  502 -0.21712057272E+03  0.82544428799E+03  0.15461131652E+04  0.17660655778E+04  0.46999998093E+01 0.  1.
</event>
<event>
 5   0  0.9714317E-07  0.3423797E+04  0.7818609E-02  0.8132090E-01
        1   -1    0    0  501    0  0.00000000000E+00  0.00000000000E+00  0.19886602235E+04  0.19886602235E+04  0.50400001928E-02 0. -1.
       -1   -1    0    0    0  501  0.00000000000E+00  0.00000000000E+00 -0.14736536439E+04  0.14736536439E+04  0.50400001928E-02 0.  1.
    10030    2    1    2    0    0  0.00000000000E+00  0.00000000000E+00  0.51500657965E+03  0.34623138674E+04  0.34237969478E+04 0.  0.
        4    1    3    3  502    0  0.13605076316E+04 -0.44486453219E+03  0.12070605236E+04  0.18724001144E+04  0.12699999809E+01 0. -1.
       -4    1    3    3    0  502 -0.13605076316E+04  0.44486453219E+03 -0.69205394398E+03  0.15899137530E+04  0.12699999809E+01 0.  1.
</event>
<event>
 5   0  0.1010855E-06  0.3185678E+04  0.7818609E-02  0.8192610E-01
       -1   -1    0    0    0  501  0.00000000000E+00  0.00000000000E+00  0.13227799261E+04  0.13227799261E+04  0.50400001928E-02 0.  1.
        1   -1    0    0  501    0  0.00000000000E+00  0.00000000000E+00 -0.19180336332E+04  0.19180336332E+04  0.50400001928E-02 0. -1.
    10030    2    1    2    0    0  0.00000000000E+00  0.00000000000E+00 -0.59525370707E+03  0.32408135593E+04  0.31856781932E+04 0.  0.
        1    1    3    3  502    0 -0.63655780377E+03 -0.29609642719E+03 -0.17521476656E+04  0.18875646675E+04  0.50400001928E-02 0. -1.
       -1    1    3    3    0  502  0.63655780377E+03  0.29609642719E+03  0.11568939586E+04  0.13532488918E+04  0.50400001928E-02 0.  1.
</event>
<event>
 5   0  0.1003191E-06  0.3294952E+04  0.7818609E-02  0.8164181E-01
       -1   -1    0    0    0  501  0.00000000000E+00  0.00000000000E+00  0.14014122738E+04  0.14014122739E+04  0.50400001928E-02 0.  1.
        1   -1    0    0  501    0  0.00000000000E+00  0.00000000000E+00 -0.19367444744E+04  0.19367444744E+04  0.50400001928E-02 0. -1.
    10030    2    1    2    0    0  0.00000000000E+00  0.00000000000E+00 -0.53533220057E+03  0.33381567483E+04  0.32949521865E+04 0.  0.
        5    1    3    3  502    0 -0.13546018871E+04 -0.72935441476E+03  0.32934103203E+03  0.15733377706E+04  0.46999998093E+01 0.  1.
       -5    1    3    3    0  502  0.13546018871E+04  0.72935441476E+03 -0.86467323260E+03  0.17648189777E+04  0.46999998093E+01 0. -1.
</event>
<event>
 5   0  0.2848685E-06  0.3420532E+04  0.7818609E-02  0.8132885E-01
        2   -1    0    0  501    0  0.00000000000E+00  0.00000000000E+00  0.20909684042E+04  0.20909684042E+04  0.25500000920E-02 0. -1.
       -2   -1    0    0    0  501  0.00000000000E+00  0.00000000000E+00 -0.13988780267E+04  0.13988780267E+04  0.25500000920E-02 0.  1.
    10030    2    1    2    0    0  0.00000000000E+00  0.00000000000E+00  0.69209037749E+03  0.34898464309E+04  0.34205319792E+04 0.  0.
        3    1    3    3  502    0  0.10082419599E+04  0.12246431020E+04 -0.30621187124E+03  0.16155705795E+04  0.10100000352E+00 0.  1.
       -3    1    3    3    0  502 -0.10082419599E+04 -0.12246431020E+04  0.99830224873E+03  0.18742758514E+04  0.10100000352E+00 0. -1.
</event>
<event>
 5   0  0.2664083E-06  0.3392111E+04  0.7818609E-02  0.8139845E-01
       -2   -1    0    0    0  501  0.00000000000E+00  0.00000000000E+00  0.21717243468E+04  0.21717243468E+04  0.25500000920E-02 0. -1.
        2   -1    0    0  501    0  0.00000000000E+00  0.00000000000E+00 -0.13245716614E+04  0.13245716614E+04  0.25500000920E-02 0.  1.
    10030    2    1    2    0    0  0.00000000000E+00  0.00000000000E+00  0.84715268542E+03  0.34962960082E+04  0.33921111575E+04 0.  0.
        2    1    3    3  502    0  0.14197775257E+04 -0.24203416259E+03 -0.49962099423E+03  0.15244572464E+04  0.25500000920E-02 0.  1.
       -2    1    3    3    0  502 -0.14197775257E+04  0.24203416259E+03  0.13467736797E+04  0.19718387618E+04  0.25500000920E-02 0. -1.
</event>
<event>
 5   0  0.1010551E-06  0.3169535E+04  0.7818609E-02  0.8196910E-01
       -1   -1    0    0    0  501  0.00000000000E+00  0.00000000000E+00  0.95547380434E+03  0.95547380435E+03  0.50400001928E-02 0.  1.
        1   -1    0    0  501    0  0.00000000000E+00  0.00000000000E+00 -0.26285261347E+04  0.26285261347E+04  0.50400001928E-02 0. -1.
    10030    2    1    2    0    0  0.00000000000E+00  0.00000000000E+00 -0.16730523304E+04  0.35839999390E+04  0.31695348970E+04 0.  0.
        2    1    3    3  502    0 -0.43025354158E+03 -0.42011243631E+03  0.82145308326E+03  0.10180362161E+04  0.25500000920E-02 0.  1.
       -2    1    3    3    0  502  0.43025354158E+03  0.42011243631E+03 -0.24945054136E+04  0.25659637230E+04  0.25500000920E-02 0. -1.
</event>
<event>
 5   0  0.1010551E-06  0.3487076E+04  0.7818609E-02  0.8116860E-01
       -1   -1    0    0    0  501  0.00000000000E+00  0.00000000000E+00  0.16882729788E+04  0.16882729788E+04  0.50400001928E-02 0.  1.
        1   -1    0    0  501    0  0.00000000000E+00  0.00000000000E+00 -0.18006123616E+04  0.18006123617E+04  0.50400001928E-02 0. -1.
    10030    2    1    2    0    0  0.00000000000E+00  0.00000000000E+00 -0.11233938288E+03  0.34888853404E+04  0.34870762512E+04 0.  0.
        2    1    3    3  502    0  0.31547920127E+03 -0.16302928777E+04  0.47565400487E+03  0.17273183626E+04  0.25500000920E-02 0.  1.
       -2    1    3    3    0  502 -0.31547920127E+03  0.16302928777E+04 -0.58799338775E+03  0.17615669778E+04  0.25500000920E-02 0. -1.
</event>
<event>
 5   0  0.2856440E-06  0.3383662E+04  0.7818609E-02  0.8141928E-01
       -2   -1    0    0    0  501  0.00000000000E+00  0.00000000000E+00  0.16974342566E+04  0.16974342566E+04  0.25500000920E-02 0.  1.
        2   -1    0    0  501    0  0.00000000000E+00  0.00000000000E+00 -0.16862463264E+04  0.16862463264E+04  0.25500000920E-02 0. -1.
    10030    2    1    2    0    0  0.00000000000E+00  0.00000000000E+00  0.11187930193E+02  0.33836805830E+04  0.33836620869E+04 0.  0.
        4    1    3    3  502    0  0.11752026662E+04 -0.12144584783E+04 -0.73652694782E+02  0.16915782673E+04  0.12699999809E+01 0.  1.
       -4    1    3    3    0  502 -0.11752026662E+04  0.12144584783E+04  0.84840624975E+02  0.16921023157E+04  0.12699999809E+01 0. -1.
</event>
<event>
 5   0  0.9232963E-07  0.2379896E+04  0.7818609E-02  0.8447069E-01
        1   -1    0    0  501    0  0.00000000000E+00  0.00000000000E+00  0.10968543213E+04  0.10968543213E+04  0.50400001928E-02 0. -1.
       -1   -1    0    0    0  501  0.00000000000E+00  0.00000000000E+00 -0.12909428274E+04  0.12909428275E+04  0.50400001928E-02 0.  1.
    10030    2    1    2    0    0  0.00000000000E+00  0.00000000000E+00 -0.19408850616E+03  0.23877971488E+04  0.23798959800E+04 0.  0.
        3    1    3    3  502    0 -0.71175168589E+03 -0.46190877516E+03 -0.93409578318E+03  0.12619370512E+04  0.10100000352E+00 0.  1.
       -3    1    3    3    0  502  0.71175168589E+03  0.46190877516E+03  0.74000727702E+03  0.11258600975E+04  0.10100000352E+00 0. -1.
</event>
<event>
 5   0  0.2767014E-06  0.3487000E+04  0.7818609E-02  0.8116878E-01
        2   -1    0    0  501    0  0.00000000000E+00  0.00000000000E+00  0.22748436080E+04  0.22748436080E+04  0.25500000920E-02 0.  1.
       -2   -1    0    0    0  501  0.00000000000E+00  0.00000000000E+00 -0.13362640492E+04  0.13362640492E+04  0.25500000920E-02 0. -1.
    10030    2    1    2    0    0  0.00000000000E+00  0.00000000000E+00  0.93857955874E+03  0.36111076572E+04  0.34869997023E+04 0.  0.
        1    1    3    3  502    0 -0.35142415891E+03  0.15498057150E+04  0.12120299460E+04  0.19986028330E+04  0.50400001928E-02 0.  1.
       -1    1    3    3    0  502  0.35142415891E+03 -0.15498057150E+04 -0.27345038727E+03  0.16125048242E+04  0.50400001928E-02 0. -1.
</event>
<event>
 5   0  0.1010551E-06  0.3531968E+04  0.7818609E-02  0.8106256E-01
       -1   -1    0    0    0  501  0.00000000000E+00  0.00000000000E+00  0.12321511127E+04  0.12321511127E+04  0.50400001928E-02 0.  1.
        1   -1    0    0  501    0  0.00000000000E+00  0.00000000000E+00 -0.25311009735E+04  0.25311009735E+04  0.50400001928E-02 0. -1.
    10030    2    1    2    0    0  0.00000000000E+00  0.00000000000E+00 -0.12989498608E+04  0.37632520863E+04  0.35319676561E+04 0.  0.
        2    1    3    3  502    0  0.87266332534E+03 -0.70879382662E+03 -0.21005554014E+04  0.23824909155E+04  0.25500000920E-02 0. -1.
       -2    1    3    3    0  502 -0.87266332534E+03  0.70879382662E+03  0.80160554060E+03  0.13807611708E+04  0.25500000920E-02 0.  1.
</event>
<event>
 5   0  0.9714317E-07  0.3344065E+04  0.7818609E-02  0.8151773E-01
        1   -1    0    0  501    0  0.00000000000E+00  0.00000000000E+00  0.22928690774E+04  0.22928690774E+04  0.50400001928E-02 0.  1.
       -1   -1    0    0    0  501  0.00000000000E+00  0.00000000000E+00 -0.12192989742E+04  0.12192989742E+04  0.50400001928E-02 0. -1.
    10030    2    1    2    0    0  0.00000000000E+00  0.00000000000E+00  0.10735701032E+04  0.35121680516E+04  0.33440651393E+04 0.  0.
        4    1    3    3  502    0 -0.74755402991E+03 -0.52314160136E+03  0.20083529438E+04  0.22059005695E+04  0.12699999809E+01 0.  1.
       -4    1    3    3    0  502  0.74755402991E+03  0.52314160136E+03 -0.93478284060E+03  0.13062674821E+04  0.12699999809E+01 0. -1.
</event>
<event>
 5   0  0.2856440E-06  0.3399637E+04  0.7818609E-02  0.8137995E-01
        2   -1    0    0  501    0  0.00000000000E+00  0.00000000000E+00  0.11126136257E+04  0.11126136257E+04  0.25500000920E-02 0.  1.
       -2   -1    0    0    0  501  0.00000000000E+00  0.00000000000E+00 -0.25969328961E+04  0.25969328961E+04  0.25500000920E-02 0. -1.
    10030    2    1    2    0    0  0.00000000000E+00  0.00000000000E+00 -0.14843192704E+04  0.37095465219E+04  0.33996369955E+04 0.  0.
        4    1    3    3  502    0 -0.12874603587E+04 -0.41512631215E+03  0.38099149589E+03  0.14053612216E+04  0.12699999809E+01 0.  1.
       -4    1    3    3    0  502  0.12874603587E+04  0.41512631215E+03 -0.18653107663E+04  0.23041853003E+04  0.12699999809E+01 0. -1.
</event>
<event>
 5   0  0.2664083E-06  0.2957878E+04  0.7818609E-02  0.8255862E-01
        2   -1    0    0  501    0  0.00000000000E+00  0.00000000000E+00  0.16506593954E+04  0.16506593954E+04  0.25500000920E-02 0.  1.
       -2   -1    0    0    0  501  0.00000000000E+00  0.00000000000E+00 -0.13250827928E+04  0.13250827928E+04  0.25500000920E-02 0. -1.
    10030    2    1    2    0    0  0.00000000000E+00  0.00000000000E+00  0.32557660254E+03  0.29757421882E+04  0.29578778620E+04 0.  0.
        2    1    3    3  502    0  0.10478124172E+04  0.33800265101E+03 -0.83064901479E+03  0.13791789005E+04  0.25500000920E-02 0. -1.
       -2    1    3    3    0  502 -0.10478124172E+04 -0.33800265101E+03  0.11562256173E+04  0.15965632878E+04  0.25500000920E-02 0.  1.
</event>
<event>
 5   0  0.1003191E-06  0.3399821E+04  0.7818609E-02  0.8137950E-01
        1   -1    0    0  501    0  0.00000000000E+00  0.00000000000E+00  0.12966359062E+04  0.12966359062E+04  0.50400001928E-02 0. -1.
       -1   -1    0    0    0  501  0.00000000000E+00  0.00000000000E+00 -0.22286102143E+04  0.22286102143E+04  0.50400001928E-02 0.  1.
    10030    2    1    2    0    0  0.00000000000E+00  0.00000000000E+00 -0.93197430817E+03  0.35252461205E+04  0.33998211863E+04 0.  0.
        5    1    3    3  502    0  0.48794566227E+03 -0.78436807720E+03  0.10136647123E+04  0.13714454013E+04  0.46999998093E+01 0. -1.
       -5    1    3    3    0  502 -0.48794566227E+03  0.78436807720E+03 -0.19456390205E+04  0.21538007192E+04  0.46999998093E+01 0.  1.
</event>
<event>
 5   0  0.2906701E-06  0.3356628E+04  0.7818609E-02  0.8148634E-01
        2   -1    0    0  501    0  0.00000000000E+00  0.00000000000E+00  0.20256762509E+04  0.20256762509E+04  0.25500000920E-02 0.  1.
       -2   -1    0    0    0  501  0.00000000000E+00  0.00000000000E+00 -0.13905177009E+04  0.13905177009E+04  0.25500000920E-02 0. -1.
    10030    2    1    2    0    0  0.00000000000E+00  0.00000000000E+00  0.63515854997E+03  0.34161939519E+04  0.33566284771E+04 0.  0.
        5    1    3    3  502    0 -0.16106024368E+04 -0.38442353692E+03  0.39053463305E+02  0.16563118451E+04  0.46999998093E+01 0.  1.
       -5    1    3    3    0  502  0.16106024368E+04  0.38442353692E+03  0.59610508666E+03  0.17598821067E+04  0.46999998093E+01 0. -1.
</event>
<event>
 5   0  0.2664083E-06  0.3387573E+04  0.7818609E-02  0.8140963E-01
       -2   -1    0    0    0  501  0.00000000000E+00  0.00000000000E+00  0.11368960566E+04  0.11368960566E+04  0.25500000920E-02 0.  1.
        2   -1    0    0  501    0  0.00000000000E+00  0.00000000000E+00 -0.25234607060E+04  0.25234607060E+04  0.25500000920E-02 0. -1.
    10030    2    1    2    0    0  0.00000000000E+00  0.00000000000E+00 -0.13865646493E+04  0.36603567626E+04  0.33875728926E+04 0.  0.
        2    1    3    3  502    0 -0.95057181138E+03 -0.75825002326E+03  0.58081304980E+03  0.13475435671E+04  0.25500000920E-02 0.  1.
       -2    1    3    3    0  502  0.95057181138E+03  0.75825002326E+03 -0.19673776991E+04  0.23128131955E+04  0.25500000920E-02 0. -1.
</event>
<event>
 5   0  0.9070500E-07  0.3338579E+04  0.7818609E-02  0.8153148E-01
       -4   -1    0    0    0  501  0.00000000000E+00  0.00000000000E+00  0.22681969957E+04  0.22681973513E+04  0.12699999809E+01 0. -1.
        4   -1    0    0  501    0  0.00000000000E+00  0.00000000000E+00 -0.12285204504E+04  0.12285211068E+04  0.12699999809E+01 0.  1.
    10030    2    1    2    0    0  0.00000000000E+00  0.00000000000E+00  0.10396765453E+04  0.34967184581E+04  0.33385794369E+04 0.  0.
        5    1    3    3  502    0 -0.87985726249E+03  0.13667177095E+04  0.12178366704E+03  0.16300059666E+04  0.46999998093E+01 0.  1.
       -5    1    3    3    0  502  0.87985726249E+03 -0.13667177095E+04  0.91789287830E+03  0.18667124915E+04  0.46999998093E+01 0. -1.
</event>
<event>
 5   0  0.9232963E-07  0.3365375E+04  0.7818609E-02  0.8146457E-01
       -1   -1    0    0    0  501  0.00000000000E+00  0.00000000000E+00  0.30212730025E+04  0.30212730025E+04  0.50400001928E-02 0. -1.
        1   -1    0    0  501    0  0.00000000000E+00  0.00000000000E+00 -0.93716684074E+03  0.93716684075E+03  0.50400001928E-02 0.  1.
    10030    2    1    2    0    0  0.00000000000E+00  0.00000000000E+00  0.20841061617E+04  0.39584398432E+04  0.33653747932E+04 0.  0.
        3    1    3    3  502    0  0.14717251094E+04  0.81572236999E+03  0.10510941201E+04  0.19839800004E+04  0.10100000352E+00 0.  1.
       -3    1    3    3    0  502 -0.14717251094E+04 -0.81572236999E+03  0.10330120416E+04  0.19744598428E+04  0.10100000352E+00 0. -1.
</event>
<event>
 5   0  0.2767014E-06  0.2628364E+04  0.7818609E-02  0.8358630E-01
        2   -1    0    0  501    0  0.00000000000E+00  0.00000000000E+00  0.14960234668E+04  0.14960234668E+04  0.25500000920E-02 0. -1.
       -2   -1    0    0    0  501  0.00000000000E+00  0.00000000000E+00 -0.11544433228E+04  0.11544433228E+04  0.25500000920E-02 0.  1.
    10030    2    1    2    0    0  0.00000000000E+00  0.00000000000E+00  0.34158014397E+03  0.26504667896E+04  0.26283639793E+04 0.  0.
        1    1    3    3  502    0  0.29318448521E+03 -0.77394269146E+03 -0.85864220753E+03  0.11925648295E+04  0.50400001928E-02 0.  1.
       -1    1    3    3    0  502 -0.29318448521E+03  0.77394269146E+03  0.12002223515E+04  0.14579019600E+04  0.50400001928E-02 0. -1.
</event>
<event>
 5   0  0.9232963E-07  0.2124507E+04  0.7818609E-02  0.8550524E-01
        1   -1    0    0  501    0  0.00000000000E+00  0.00000000000E+00  0.12603626635E+04  0.12603626635E+04  0.50400001928E-02 0.  1.
       -1   -1    0    0    0  501  0.00000000000E+00  0.00000000000E+00 -0.89528423408E+03  0.89528423409E+03  0.50400001928E-02 0. -1.
    10030    2    1    2    0    0  0.00000000000E+00  0.00000000000E+00  0.36507842940E+03  0.21556468976E+04  0.21245073046E+04 0.  0.
        3    1    3    3  502    0 -0.35948727302E+02 -0.10611732819E+04  0.15042460447E+03  0.10723845471E+04  0.10100000352E+00 0. -1.
       -3    1    3    3    0  502  0.35948727302E+02  0.10611732819E+04  0.21465382493E+03  0.10832623504E+04  0.10100000352E+00 0.  1.
</event>
<event>
 5   0  0.2664083E-06  0.2582400E+04  0.7818609E-02  0.8374204E-01
       -2   -1    0    0    0  501  0.00000000000E+00  0.00000000000E+00  0.11102035981E+04  0.11102035981E+04  0.25500000920E-02 0. -1.
        2   -1    0    0  501    0  0.00000000000E+00  0.00000000000E+00 -0.15017038536E+04  0.15017038536E+04  0.25500000920E-02 0.  1.
    10030    2    1    2    0    0  0.00000000000E+00  0.00000000000E+00 -0.39150025550E+03  0.26119074518E+04  0.25823996760E+04 0.  0.
        2    1    3    3  502    0  0.12403661725E+04  0.30481924065E+03 -0.44487318961E+01  0.12772794536E+04  0.25500000920E-02 0.  1.
       -2    1    3    3    0  502 -0.12403661725E+04 -0.30481924065E+03 -0.38705152361E+03  0.13346279981E+04  0.25500000920E-02 0. -1.
</event>
<event>
 5   0  0.2848685E-06  0.3431217E+04  0.7818609E-02  0.8130287E-01
       -2   -1    0    0    0  501  0.00000000000E+00  0.00000000000E+00  0.22661725757E+04  0.22661725757E+04  0.25500000920E-02 0. -1.
        2   -1    0    0  501    0  0.00000000000E+00  0.00000000000E+00 -0.12988031177E+04  0.12988031177E+04  0.25500000920E-02 0.  1.
    10030    2    1    2    0    0  0.00000000000E+00  0.00000000000E+00  0.96736945797E+03  0.35649756934E+04  0.34312166976E+04 0.  0.
        3    1    3    3  502    0 -0.11157868070E+04  0.44162425997E+03 -0.79020321595E+03  0.14368135990E+04  0.10100000352E+00 0.  1.
       -3    1    3    3    0  502  0.11157868070E+04 -0.44162425997E+03  0.17575726739E+04  0.21281620944E+04  0.10100000352E+00 0. -1.
</event>
<event>
 5   0  0.2767014E-06  0.3561701E+04  0.7818609E-02  0.8099321E-01
        2   -1    0    0  501    0  0.00000000000E+00  0.00000000000E+00  0.24413880640E+04  0.24413880640E+04  0.25500000920E-02 0. -1.
       -2   -1    0    0    0  501  0.00000000000E+00  0.00000000000E+00 -0.12990268745E+04  0.12990268745E+04  0.25500000920E-02 0.  1.
    10030    2    1    2    0    0  0.00000000000E+00  0.00000000000E+00  0.11423611895E+04  0.37404149385E+04  0.35617011140E+04 0.  0.
        1    1    3    3  502    0 -0.46330770782E+03 -0.15005647669E+04 -0.31064261517E+03  0.16008895921E+04  0.50400001928E-02 0.  1.
       -1    1    3    3    0  502  0.46330770782E+03  0.15005647669E+04  0.14530038046E+04  0.21395253464E+04  0.50400001928E-02 0. -1.
</event>
<event>
 5   0  0.2906701E-06  0.3352027E+04  0.7818609E-02  0.8149782E-01
       -2   -1    0    0    0  501  0.00000000000E+00  0.00000000000E+00  0.17608325653E+04  0.17608325653E+04  0.25500000920E-02 0.  1.
        2   -1    0    0  501    0  0.00000000000E+00  0.00000000000E+00 -0.15952799878E+04  0.15952799878E+04  0.25500000920E-02 0. -1.
    10030    2    1    2    0    0  0.00000000000E+00  0.00000000000E+00  0.16555257744E+03  0.33561125531E+04  0.33520268217E+04 0.  0.
        5    1    3    3  502    0  0.38064997986E+03  0.78183851865E+02 -0.15495457558E+04  0.15975359968E+04  0.46999998093E+01 0. -1.
       -5    1    3    3    0  502 -0.38064997986E+03 -0.78183851865E+02  0.17150983332E+04  0.17585765563E+04  0.46999998093E+01 0.  1.
</event>
<event>
 5   0  0.9714317E-07  0.3354708E+04  0.7818609E-02  0.8149113E-01
        1   -1    0    0  501    0  0.00000000000E+00  0.00000000000E+00  0.21767995606E+04  0.21767995606E+04  0.50400001928E-02 0.  1.
       -1   -1    0    0    0  501  0.00000000000E+00  0.00000000000E+00 -0.12925010932E+04  0.12925010932E+04  0.50400001928E-02 0. -1.
    10030    2    1    2    0    0  0.00000000000E+00  0.00000000000E+00  0.88429846748E+03  0.34693006538E+04  0.33547076247E+04 0.  0.
        4    1    3    3  502    0  0.12590806717E+04 -0.55027650548E+03 -0.55270183410E+03  0.14810703226E+04  0.12699999809E+01 0.  1.
       -4    1    3    3    0  502 -0.12590806717E+04  0.55027650548E+03  0.14370003016E+04  0.19882303312E+04  0.12699999809E+01 0. -1.
</event>
<event>
 5   0  0.1003191E-06  0.2589170E+04  0.7818609E-02  0.8371889E-01
       -1   -1    0    0    0  501  0.00000000000E+00  0.00000000000E+00  0.83065422128E+03  0.83065422130E+03  0.50400001928E-02 0. -1.
        1   -1    0    0  501    0  0.00000000000E+00  0.00000000000E+00 -0.20176268518E+04  0.20176268518E+04  0.50400001928E-02 0.  1.
    10030    2    1    2    0    0  0.00000000000E+00  0.00000000000E+00 -0.11869726305E+04  0.28482810731E+04  0.25891699530E+04 0.  0.
        5    1    3    3  502    0 -0.85054679542E+03  0.95691865080E+03 -0.38244096372E+03  0.13361909804E+04  0.46999998093E+01 0. -1.
       -5    1    3    3    0  502  0.85054679542E+03 -0.95691865080E+03 -0.80453166675E+03  0.15120900926E+04  0.46999998093E+01 0.  1.
</event>
<event>
 5   0  0.2856440E-06  0.3244139E+04  0.7818609E-02  0.8177257E-01
       -2   -1    0    0    0  501  0.00000000000E+00  0.00000000000E+00  0.28376886445E+04  0.28376886445E+04  0.25500000920E-02 0.  1.
        2   -1    0    0  501    0  0.00000000000E+00  0.00000000000E+00 -0.92720150675E+03  0.92720150675E+03  0.25500000920E-02 0. -1.
    10030    2    1    2    0    0  0.00000000000E+00  0.00000000000E+00  0.19104871377E+04  0.37648901512E+04  0.32441388299E+04 0.  0.
        4    1    3    3  502    0  0.13014334563E+04  0.49071128363E+03 -0.13343531027E+02  0.13909371904E+04  0.12699999809E+01 0. -1.
       -4    1    3    3    0  502 -0.13014334563E+04 -0.49071128363E+03  0.19238306688E+04  0.23739529608E+04  0.12699999809E+01 0.  1.
</event>
<event>
 5   0  0.9714317E-07  0.3134059E+04  0.7818609E-02  0.8206452E-01
        1   -1    0    0  501    0  0.00000000000E+00  0.00000000000E+00  0.20643804331E+04  0.20643804331E+04  0.50400001928E-02 0. -1.
       -1   -1    0    0    0  501  0.00000000000E+00  0.00000000000E+00 -0.11895007939E+04  0.11895007939E+04  0.50400001928E-02 0.  1.
    10030    2    1    2    0    0  0.00000000000E+00  0.00000000000E+00  0.87487963925E+03  0.32538812270E+04  0.31340594532E+04 0.  0.
        4    1    3    3  502    0  0.50289356960E+03  0.11514961007E+04  0.14095796148E+04  0.18883224077E+04  0.12699999809E+01 0. -1.
       -4    1    3    3    0  502 -0.50289356960E+03 -0.11514961007E+04 -0.53469997551E+03  0.13655588193E+04  0.12699999809E+01 0.  1.
</event>
<event>
 5   0  0.9232963E-07  0.3286699E+04  0.7818609E-02  0.8166288E-01
        1   -1    0    0  501    0  0.00000000000E+00  0.00000000000E+00  0.21568470599E+04  0.21568470599E+04  0.50400001928E-02 0.  1.
       -1   -1    0    0    0  501  0.00000000000E+00  0.00000000000E+00 -0.12521047077E+04  0.12521047077E+04  0.50400001928E-02 0. -1.
    10030    2    1    2    0    0  0.00000000000E+00  0.00000000000E+00  0.90474235219E+03  0.34089517677E+04  0.32866994737E+04 0.  0.
        3    1    3    3  502    0 -0.24103623170E+03  0.16008093168E+04  0.15917396623E+03  0.16266607807E+04  0.10100000352E+00 0. -1.
       -3    1    3    3    0  502  0.24103623170E+03 -0.16008093168E+04  0.74556838596E+03  0.17822909870E+04  0.10100000352E+00 0.  1.
</event>
<event>
 5   0  0.2767014E-06  0.3437816E+04  0.7818609E-02  0.8128687E-01
        2   -1    0    0  501    0  0.00000000000E+00  0.00000000000E+00  0.15577112816E+04  0.15577112816E+04  0.25500000920E-02 0. -1.
       -2   -1    0    0    0  501  0.00000000000E+00  0.00000000000E+00 -0.18967856088E+04  0.18967856088E+04  0.25500000920E-02 0.  1.
    10030    2    1    2    0    0  0.00000000000E+00  0.00000000000E+00 -0.33907432718E+03  0.34544968904E+04  0.34378157842E+04 0.  0.
        1    1    3    3  502    0  0.10320015978E+04 -0.94625299656E+03  0.83240800874E+03  0.16289030433E+04  0.50400001928E-02 0. -1.
       -1    1    3    3    0  502 -0.10320015978E+04  0.94625299656E+03 -0.11714823359E+04  0.18255938471E+04  0.50400001928E-02 0.  1.
</event>
<event>
 5   0  0.1003191E-06  0.3429861E+04  0.7818609E-02  0.8130616E-01
        1   -1    0    0  501    0  0.00000000000E+00  0.00000000000E+00  0.26943887753E+04  0.26943887753E+04  0.50400001928E-02 0. -1.
       -1   -1    0    0    0  501  0.00000000000E+00  0.00000000000E+00 -0.10915228184E+04  0.10915228184E+04  0.50400001928E-02 0.  1.
    10030    2    1    2    0    0  0.00000000000E+00  0.00000000000E+00  0.16028659569E+04  0.37859115937E+04  0.34298611225E+04 0.  0.
        5    1    3    3  502    0  0.12404359762E+04 -0.29168017428E+03 -0.46540415180E+03  0.13566067410E+04  0.46999998093E+01 0.  1.
       -5    1    3    3    0  502 -0.12404359762E+04  0.29168017428E+03  0.20682701087E+04  0.24293048527E+04  0.46999998093E+01 0. -1.
</event>
<event>
 5   0  0.2856440E-06  0.3500097E+04  0.7818609E-02  0.8113767E-01
        2   -1    0    0  501    0  0.00000000000E+00  0.00000000000E+00  0.10963969607E+04  0.10963969608E+04  0.25500000920E-02 0.  1.
       -2   -1    0    0    0  501  0.00000000000E+00  0.00000000000E+00 -0.27933950905E+04  0.27933950905E+04  0.25500000920E-02 0. -1.
    10030    2    1    2    0    0  0.00000000000E+00  0.00000000000E+00 -0.16969981298E+04  0.38897920513E+04  0.35000970772E+04 0.  0.
        4    1    3    3  502    0 -0.64124967830E+03  0.10286881039E+02  0.96109328433E+03  0.11554258453E+04  0.12699999809E+01 0.  1.
       -4    1    3    3    0  502  0.64124967830E+03 -0.10286881039E+02 -0.26580914141E+04  0.27343662060E+04  0.12699999809E+01 0. -1.
</event>
<event>
 5   0  0.2767014E-06  0.3444693E+04  0.7818609E-02  0.8127023E-01
        2   -1    0    0  501    0  0.00000000000E+00  0.00000000000E+00  0.21000503221E+04  0.21000503221E+04  0.25500000920E-02 0.  1.
       -2   -1    0    0    0  501  0.00000000000E+00  0.00000000000E+00 -0.14125747459E+04  0.14125747459E+04  0.25500000920E-02 0. -1.
    10030    2    1    2    0    0  0.00000000000E+00  0.00000000000E+00  0.68747557618E+03  0.35126250680E+04  0.34446933391E+04 0.  0.
        1    1    3    3  502    0 -0.63521038163E+03  0.41702155750E+03  0.19198838896E+04  0.20647889379E+04  0.50400001928E-02 0.  1.
       -1    1    3    3    0  502  0.63521038163E+03 -0.41702155750E+03 -0.12324083135E+04  0.14478361301E+04  0.50400001928E-02 0. -1.
</event>
<event>
 5   0  0.2848685E-06  0.2562616E+04  0.7818609E-02  0.8381012E-01
        2   -1    0    0  501    0  0.00000000000E+00  0.00000000000E+00  0.16610131940E+04  0.16610131940E+04  0.25500000920E-02 0. -1.
       -2   -1    0    0    0  501  0.00000000000E+00  0.00000000000E+00 -0.98840254683E+03  0.98840254683E+03  0.25500000920E-02 0.  1.
    10030    2    1    2    0    0  0.00000000000E+00  0.00000000000E+00  0.67261064720E+03  0.26494157409E+04  0.25626155945E+04 0.  0.
        3    1    3    3  502    0 -0.10393248988E+04  0.10954134221E+03 -0.43012358571E+03  0.11301335585E+04  0.10100000352E+00 0.  1.
       -3    1    3    3    0  502  0.10393248988E+04 -0.10954134221E+03  0.11027342329E+04  0.15192821823E+04  0.10100000352E+00 0. -1.
</event>
<event>
 5   0  0.2664083E-06  0.3252787E+04  0.7818609E-02  0.8175014E-01
       -2   -1    0    0    0  501  0.00000000000E+00  0.00000000000E+00  0.20445578612E+04  0.20445578612E+04  0.25500000920E-02 0. -1.
        2   -1    0    0  501    0  0.00000000000E+00  0.00000000000E+00 -0.12937540848E+04  0.12937540848E+04  0.25500000920E-02 0.  1.
    10030    2    1    2    0    0  0.00000000000E+00  0.00000000000E+00  0.75080377640E+03  0.33383119461E+04  0.32527865498E+04 0.  0.
        2    1    3    3  502    0  0.14621528661E+04 -0.14665308811E+03  0.10906897639E+04  0.18300279487E+04  0.25500000920E-02 0. -1.
       -2    1    3    3    0  502 -0.14621528661E+04  0.14665308811E+03 -0.33988598754E+03  0.15082839973E+04  0.25500000920E-02 0.  1.
</event>
<event>
 5   0  0.2767014E-06  0.3396023E+04  0.7818609E-02  0.8138883E-01
       -2   -1    0    0    0  501  0.00000000000E+00  0.00000000000E+00  0.23798969827E+04  0.23798969827E+04  0.25500000920E-02 0. -1.
        2   -1    0    0  501    0  0.00000000000E+00  0.00000000000E+00 -0.12114988036E+04  0.12114988036E+04  0.25500000920E-02 0.  1.
    10030    2    1    2    0    0  0.00000000000E+00  0.00000000000E+00  0.11683981790E+04  0.35913957863E+04  0.33960225837E+04 0.  0.
        1    1    3    3  502    0  0.11191846119E+04  0.12482804276E+04  0.29952087839E+03  0.17030827866E+04  0.50400001928E-02 0. -1.
       -1    1    3    3    0  502 -0.11191846119E+04 -0.12482804276E+04  0.86887730065E+03  0.18883129997E+04  0.50400001928E-02 0.  1.
</event>
<event>
 5   0  0.2906701E-06  0.3452367E+04  0.7818609E-02  0.8125172E-01
       -2   -1    0    0    0  501  0.00000000000E+00  0.00000000000E+00  0.12814746671E+04  0.12814746671E+04  0.25500000920E-02 0. -1.
        2   -1    0    0  501    0  0.00000000000E+00  0.00000000000E+00 -0.23252195916E+04  0.23252195916E+04  0.25500000920E-02 0.  1.
    10030    2    1    2    0    0  0.00000000000E+00  0.00000000000E+00 -0.10437449245E+04  0.36066942587E+04  0.34523673050E+04 0.  0.
        5    1    3    3  502    0  0.23953149468E+03  0.16924209777E+04 -0.77352160313E+03  0.18761721305E+04  0.46999998093E+01 0. -1.
       -5    1    3    3    0  502 -0.23953149468E+03 -0.16924209777E+04 -0.27022332138E+03  0.17305221282E+04  0.46999998093E+01 0.  1.
</event>
<event>
 5   0  0.2664083E-06  0.3743438E+04  0.7818609E-02  0.8058403E-01
       -2   -1    0    0    0  501  0.00000000000E+00  0.00000000000E+00  0.28601566430E+04  0.28601566430E+04  0.25500000920E-02 0.  1.
        2   -1    0    0  501    0  0.00000000000E+00  0.00000000000E+00 -0.12248739930E+04  0.12248739931E+04  0.25500000920E-02 0. -1.
    10030    2    1    2    0    0  0.00000000000E+00  0.00000000000E+00  0.16352826499E+04  0.40850306360E+04  0.37434377185E+04 0.  0.
        2    1    3    3  502    0  0.16607714040E+04 -0.83415405185E+03  0.10600780566E+04  0.21395654056E+04  0.25500000920E-02 0.  1.
       -2    1    3    3    0  502 -0.16607714040E+04  0.83415405185E+03  0.57520459331E+03  0.19454652304E+04  0.25500000920E-02 0. -1.
</event>
<event>
 5   0  0.9232963E-07  0.3325223E+04  0.7818609E-02  0.8156507E-01
        1   -1    0    0  501    0  0.00000000000E+00  0.00000000000E+00  0.16175238375E+04  0.16175238375E+04  0.50400001928E-02 0. -1.
       -1   -1    0    0    0  501  0.00000000000E+00  0.00000000000E+00 -0.17089561421E+04  0.17089561421E+04  0.50400001928E-02 0.  1.
    10030    2    1    2    0    0  0.00000000000E+00  0.00000000000E+00 -0.91432304675E+02  0.33264799796E+04  0.33252231787E+04 0.  0.
        3    1    3    3  502    0 -0.86327701378E+03 -0.34253919114E+03 -0.14252576663E+04  0.17011583482E+04  0.10100000352E+00 0.  1.
       -3    1    3    3    0  502  0.86327701378E+03  0.34253919114E+03  0.13338253616E+04  0.16253216314E+04  0.10100000352E+00 0. -1.
</event>
<event>
 5   0  0.1010855E-06  0.3348930E+04  0.7818609E-02  0.8150555E-01
       -1   -1    0    0    0  501  0.00000000000E+00  0.00000000000E+00  0.12652994864E+04  0.12652994864E+04  0.50400001928E-02 0.  1.
        1   -1    0    0  501    0  0.00000000000E+00  0.00000000000E+00 -0.22159447227E+04  0.22159447227E+04  0.50400001928E-02 0. -1.
    10030    2    1    2    0    0  0.00000000000E+00  0.00000000000E+00 -0.95064523624E+03  0.34812442091E+04  0.33489304081E+04 0.  0.
        1    1    3    3  502    0  0.11927556478E+04  0.81687592546E+03 -0.13536196246E+04  0.19804641883E+04  0.50400001928E-02 0. -1.
       -1    1    3    3    0  502 -0.11927556478E+04 -0.81687592546E+03  0.40297438838E+03  0.15007800208E+04  0.50400001928E-02 0.  1.
</event>
<event>
 5   0  0.2664083E-06  0.3391554E+04  0.7818609E-02  0.8139982E-01
        2   -1    0    0  501    0  0.00000000000E+00  0.00000000000E+00  0.27816253835E+04  0.27816253835E+04  0.25500000920E-02 0.  1.
       -2   -1    0    0    0  501  0.00000000000E+00  0.00000000000E+00 -0.10338057502E+04  0.10338057502E+04  0.25500000920E-02 0. -1.
    10030    2    1    2    0    0  0.00000000000E+00  0.00000000000E+00  0.17478196332E+04  0.38154311337E+04  0.33915544026E+04 0.  0.
        2    1    3    3  502    0 -0.51217933019E+03  0.16068474760E+04  0.10731737335E+04  0.19989968334E+04  0.25500000920E-02 0.  1.
       -2    1    3    3    0  502  0.51217933019E+03 -0.16068474760E+04  0.67464589970E+03  0.18164343003E+04  0.25500000920E-02 0. -1.
</event>
<event>
 5   0  0.2906701E-06  0.2804890E+04  0.7818609E-02  0.8301752E-01
       -2   -1    0    0    0  501  0.00000000000E+00  0.00000000000E+00  0.90937105074E+03  0.90937105074E+03  0.25500000920E-02 0.  1.
        2   -1    0    0  501    0  0.00000000000E+00  0.00000000000E+00 -0.21628714043E+04  0.21628714043E+04  0.25500000920E-02 0. -1.
    10030    2    1    2    0    0  0.00000000000E+00  0.00000000000E+00 -0.12535003535E+04  0.30722424550E+04  0.28048904731E+04 0.  0.
        5    1    3    3  502    0  0.22632316673E+03  0.12428565316E+04  0.40328983018E+02  0.12639474083E+04  0.46999998093E+01 0.  1.
       -5    1    3    3    0  502 -0.22632316673E+03 -0.12428565316E+04 -0.12938293366E+04  0.18082950468E+04  0.46999998093E+01 0. -1.
</event>
<event>
 5   0  0.2906701E-06  0.3394482E+04  0.7818609E-02  0.8139262E-01
        2   -1    0    0  501    0  0.00000000000E+00  0.00000000000E+00  0.26521303567E+04  0.26521303567E+04  0.25500000920E-02 0.  1.
       -2   -1    0    0    0  501  0.00000000000E+00  0.00000000000E+00 -0.10861559285E+04  0.10861559285E+04  0.25500000920E-02 0. -1.
    10030    2    1    2    0    0  0.00000000000E+00  0.00000000000E+00  0.15659744283E+04  0.37382862852E+04  0.33944820577E+04 0.  0.
        5    1    3    3  502    0 -0.57165518974E+03  0.15967429999E+04  0.71138553592E+03  0.18391490789E+04  0.46999998093E+01 0. -1.
       -5    1    3    3    0  502  0.57165518974E+03 -0.15967429999E+04  0.85458889234E+03  0.18991372063E+04  0.46999998093E+01 0.  1.
</event>
<event>
 5   0  0.9714317E-07  0.3463008E+04  0.7818609E-02  0.8122613E-01
        1   -1    0    0  501    0  0.00000000000E+00  0.00000000000E+00  0.15947214256E+04  0.15947214256E+04  0.50400001928E-02 0. -1.
       -1   -1    0    0    0  501  0.00000000000E+00  0.00000000000E+00 -0.18800182511E+04  0.18800182511E+04  0.50400001928E-02 0.  1.
    10030    2    1    2    0    0  0.00000000000E+00  0.00000000000E+00 -0.28529682549E+03  0.34747396767E+04  0.34630075862E+04 0.  0.
        4    1    3    3  502    0 -0.12757728570E+04 -0.55401483601E+03 -0.11774399796E+04  0.18223323900E+04  0.12699999809E+01 0.  1.
       -4    1    3    3    0  502  0.12757728570E+04  0.55401483601E+03  0.89214315408E+03  0.16524072868E+04  0.12699999809E+01 0. -1.
</event>
<event>
 5   0  0.9070500E-07  0.2346136E+04  0.7818609E-02  0.8459949E-01
        3   -1    0    0  501    0  0.00000000000E+00  0.00000000000E+00  0.27249384318E+04  0.27249384337E+04  0.10100000352E+00 0.  1.
       -3   -1    0    0    0  501  0.00000000000E+00  0.00000000000E+00 -0.50499803662E+03  0.50499804672E+03  0.10100000352E+00 0. -1.
    10030    2    1    2    0    0  0.00000000000E+00  0.00000000000E+00  0.22199403952E+04  0.32299364804E+04  0.23461360381E+04 0.  0.
        2    1    3    3  502    0  0.11155593006E+04 -0.34639962975E+03  0.96154559317E+03  0.15129557774E+04  0.25500000920E-02 0.  1.
       -2    1    3    3    0  502 -0.11155593006E+04  0.34639962975E+03  0.12583948020E+04  0.17169807030E+04  0.25500000920E-02 0. -1.
</event>
<event>
 5   0  0.2767014E-06  0.3409471E+04  0.7818609E-02  0.8135586E-01
       -2   -1    0    0    0  501  0.00000000000E+00  0.00000000000E+00  0.22508313632E+04  0.22508313632E+04  0.25500000920E-02 0.  1.
        2   -1    0    0  501    0  0.00000000000E+00  0.00000000000E+00 -0.12911334956E+04  0.12911334956E+04  0.25500000920E-02 0. -1.
    10030    2    1    2    0    0  0.00000000000E+00  0.00000000000E+00  0.95969786755E+03  0.35419648588E+04  0.34094713760E+04 0.  0.
        1    1    3    3  502    0  0.11527430689E+04 -0.10244556378E+04  0.12345778666E+04  0.19754767641E+04  0.50400001928E-02 0.  1.
       -1    1    3    3    0  502 -0.11527430689E+04  0.10244556378E+04 -0.27487999904E+03  0.15664880947E+04  0.50400001928E-02 0. -1.
</event>
<event>
 5   0  0.2856440E-06  0.3363286E+04  0.7818609E-02  0.8146976E-01
       -2   -1    0    0    0  501  0.00000000000E+00  0.00000000000E+00  0.13892693995E+04  0.13892693995E+04  0.25500000920E-02 0. -1.
        2   -1    0    0  501    0  0.00000000000E+00  0.00000000000E+00 -0.20355472868E+04  0.20355472868E+04  0.25500000920E-02 0.  1.
    10030    2    1    2    0    0  0.00000000000E+00  0.00000000000E+00 -0.64627788731E+03  0.34248166862E+04  0.33632862243E+04 0.  0.
        4    1    3    3  502    0  0.35832471141E+03  0.10691325285E+04 -0.15935533546E+04  0.19521410987E+04  0.12699999809E+01 0.  1.
       -4    1    3    3    0  502 -0.35832471141E+03 -0.10691325285E+04  0.94727546727E+03  0.14726755876E+04  0.12699999809E+01 0. -1.
</event>
<event>
 5   0  0.2664083E-06  0.3407461E+04  0.7818609E-02  0.8136078E-01
       -2   -1    0    0    0  501  0.00000000000E+00  0.00000000000E+00  0.11552647399E+04  0.11552647399E+04  0.25500000920E-02 0.  1.
        2   -1    0    0  501    0  0.00000000000E+00  0.00000000000E+00 -0.25125822869E+04  0.25125822869E+04  0.25500000920E-02 0. -1.
    10030    2    1    2    0    0  0.00000000000E+00  0.00000000000E+00 -0.13573175470E+04  0.36678470268E+04  0.34074610619E+04 0.  0.
        2    1    3    3  502    0 -0.90146558499E+03 -0.62651204008E+03 -0.20811183253E+04  0.23529154301E+04  0.25500000920E-02 0. -1.
       -2    1    3    3    0  502  0.90146558499E+03  0.62651204008E+03  0.72380077829E+03  0.13149315967E+04  0.25500000920E-02 0.  1.
</event>
<event>
 5   0  0.2664083E-06  0.3363377E+04  0.7818609E-02  0.8146954E-01
       -2   -1    0    0    0  501  0.00000000000E+00  0.00000000000E+00  0.17591801855E+04  0.17591801855E+04  0.25500000920E-02 0. -1.
        2   -1    0    0  501    0  0.00000000000E+00  0.00000000000E+00 -0.16076098441E+04  0.16076098441E+04  0.25500000920E-02 0.  1.
    10030    2    1    2    0    0  0.00000000000E+00  0.00000000000E+00  0.15157034138E+03  0.33667900296E+04  0.33633765080E+04 0.  0.
        2    1    3    3  502    0  0.14528652658E+04 -0.84690205514E+03  0.71932608272E+02  0.16832215753E+04  0.25500000920E-02 0. -1.
       -2    1    3    3    0  502 -0.14528652658E+04  0.84690205514E+03  0.79637733107E+02  0.16835684542E+04  0.25500000920E-02 0.  1.
</event>
<event>
 5   0  0.1010551E-06  0.2912411E+04  0.7818609E-02  0.8269194E-01
       -1   -1    0    0    0  501  0.00000000000E+00  0.00000000000E+00  0.16483894114E+04  0.16483894114E+04  0.50400001928E-02 0. -1.
        1   -1    0    0  501    0  0.00000000000E+00  0.00000000000E+00 -0.12864279993E+04  0.12864279993E+04  0.50400001928E-02 0.  1.
    10030    2    1    2    0    0  0.00000000000E+00  0.00000000000E+00  0.36196141210E+03  0.29348174107E+04  0.29124108862E+04 0.  0.
        2    1    3    3  502    0  0.22739849673E+03  0.52349870480E+03 -0.11690176632E+04  0.13009086313E+04  0.25500000920E-02 0.  1.
       -2    1    3    3    0  502 -0.22739849673E+03 -0.52349870480E+03  0.15309790753E+04  0.16339087793E+04  0.25500000920E-02 0. -1.
</event>
<event>
 5   0  0.9232963E-07  0.3150708E+04  0.7818609E-02  0.8201958E-01
       -1   -1    0    0    0  501  0.00000000000E+00  0.00000000000E+00  0.13407408688E+04  0.13407408688E+04  0.50400001928E-02 0.  1.
        1   -1    0    0  501    0  0.00000000000E+00  0.00000000000E+00 -0.18510213435E+04  0.18510213435E+04  0.50400001928E-02 0. -1.
    10030    2    1    2    0    0  0.00000000000E+00  0.00000000000E+00 -0.51028047469E+03  0.31917622122E+04  0.31507078342E+04 0.  0.
        3    1    3    3  502    0 -0.36774225762E+03 -0.12703532846E+03 -0.18015857180E+04  0.18431178617E+04  0.10100000352E+00 0. -1.
       -3    1    3    3    0  502  0.36774225762E+03  0.12703532846E+03  0.12913052433E+04  0.13486443505E+04  0.10100000352E+00 0.  1.
</event>
<event>
 5   0  0.2906701E-06  0.3491294E+04  0.7818609E-02  0.8115856E-01
        2   -1    0    0  501    0  0.00000000000E+00  0.00000000000E+00  0.12352987942E+04  0.12352987942E+04  0.25500000920E-02 0. -1.
       -2   -1    0    0    0  501  0.00000000000E+00  0.00000000000E+00 -0.24668385912E+04  0.24668385912E+04  0.25500000920E-02 0.  1.
    10030    2    1    2    0    0  0.00000000000E+00  0.00000000000E+00 -0.12315397970E+04  0.37021373853E+04  0.34912935924E+04 0.  0.
        5    1    3    3  502    0 -0.96357696562E+03 -0.11681612097E+04  0.30511110020E+03  0.15447317094E+04  0.46999998093E+01 0. -1.
       -5    1    3    3    0  502  0.96357696562E+03  0.11681612097E+04 -0.15366508972E+04  0.21574056759E+04  0.46999998093E+01 0.  1.
</event>
<event>
 5   0  0.2767014E-06  0.3183659E+04  0.7818609E-02  0.8193146E-01
        2   -1    0    0  501    0  0.00000000000E+00  0.00000000000E+00  0.11564308184E+04  0.11564308184E+04  0.25500000920E-02 0. -1.
       -2   -1    0    0    0  501  0.00000000000E+00  0.00000000000E+00 -0.21911571170E+04  0.21911571170E+04  0.25500000920E-02 0.  1.
    10030    2    1    2    0    0  0.00000000000E+00  0.00000000000E+00 -0.10347262986E+04  0.33475879354E+04  0.31836592895E+04 0.  0.
        1    1    3    3  502    0  0.10039597037E+04  0.31464147215E+03  0.73871152792E+03  0.12855462124E+04  0.50400001928E-02 0. -1.
       -1    1    3    3    0  502 -0.10039597037E+04 -0.31464147215E+03 -0.17734378266E+04  0.20620417230E+04  0.50400001928E-02 0.  1.
</event>
<event>
 5   0  0.9714317E-07  0.3324357E+04  0.7818609E-02  0.8156725E-01
        1   -1    0    0  501    0  0.00000000000E+00  0.00000000000E+00  0.18593903948E+04  0.18593903948E+04  0.50400001928E-02 0.  1.
       -1   -1    0    0    0  501  0.00000000000E+00  0.00000000000E+00 -0.14858830371E+04  0.14858830371E+04  0.50400001928E-02 0. -1.
    10030    2    1    2    0    0  0.00000000000E+00  0.00000000000E+00  0.37350735772E+03  0.33452734320E+04  0.33243565676E+04 0.  0.
        4    1    3    3  502    0  0.19728470716E+03 -0.17998757849E+03 -0.14641536147E+04  0.14883091764E+04  0.12699999809E+01 0. -1.
       -4    1    3    3    0  502 -0.19728470716E+03  0.17998757849E+03  0.18376609724E+04  0.18569642556E+04  0.12699999809E+01 0.  1.
</event>
<event>
 5   0  0.9232963E-07  0.3377521E+04  0.7818609E-02  0.8143446E-01
       -1   -1    0    0    0  501  0.00000000000E+00  0.00000000000E+00  0.10637796217E+04  0.10637796217E+04  0.50400001928E-02 0.  1.
        1   -1    0    0  501    0  0.00000000000E+00  0.00000000000E+00 -0.26809238411E+04  0.26809238411E+04  0.50400001928E-02 0. -1.
    10030    2    1    2    0    0  0.00000000000E+00  0.00000000000E+00 -0.16171442194E+04  0.37447034628E+04  0.33775210729E+04 0.  0.
        3    1    3    3  502    0  0.24480639308E+03  0.56352006588E+03  0.93546891717E+03  0.11191903949E+04  0.10100000352E+00 0.  1.
       -3    1    3    3    0  502 -0.24480639308E+03 -0.56352006588E+03 -0.25526131365E+04  0.26255130679E+04  0.10100000352E+00 0. -1.
</event>
<event>
 5   0  0.2906701E-06  0.3357173E+04  0.7818609E-02  0.8148498E-01
        2   -1    0    0  501    0  0.00000000000E+00  0.00000000000E+00  0.15434743467E+04  0.15434743467E+04  0.25500000920E-02 0.  1.
       -2   -1    0    0    0  501  0.00000000000E+00  0.00000000000E+00 -0.18255255135E+04  0.18255255135E+04  0.25500000920E-02 0. -1.
    10030    2    1    2    0    0  0.00000000000E+00  0.00000000000E+00 -0.28205116673E+03  0.33689998602E+04  0.33571725004E+04 0.  0.
        5    1    3    3  502    0  0.10389790916E+03 -0.11474128891E+04 -0.13660960434E+04  0.17870622830E+04  0.46999998093E+01 0. -1.
       -5    1    3    3    0  502 -0.10389790916E+03  0.11474128891E+04  0.10840448766E+04  0.15819375772E+04  0.46999998093E+01 0.  1.
</event>
<event>
 5   0  0.2906701E-06  0.3319305E+04  0.7818609E-02  0.8158001E-01
       -2   -1    0    0    0  501  0.00000000000E+00  0.00000000000E+00  0.17322163597E+04  0.17322163598E+04  0.25500000920E-02 0.  1.
        2   -1    0    0  501    0  0.00000000000E+00  0.00000000000E+00 -0.15901281556E+04  0.15901281557E+04  0.25500000920E-02 0. -1.
    10030    2    1    2    0    0  0.00000000000E+00  0.00000000000E+00  0.14208820410E+03  0.33223445154E+04  0.33193047497E+04 0.  0.
        5    1    3    3  502    0 -0.12627292101E+03 -0.75064021598E+03  0.15471890300E+04  0.17243032126E+04  0.46999998093E+01 0.  1.
       -5    1    3    3    0  502  0.12627292101E+03  0.75064021598E+03 -0.14051008259E+04  0.15980413028E+04  0.46999998093E+01 0. -1.
</event>
<event>
 5   0  0.2664083E-06  0.3472371E+04  0.7818609E-02  0.8120369E-01
        2   -1    0    0  501    0  0.00000000000E+00  0.00000000000E+00  0.10336580378E+04  0.10336580378E+04  0.25500000920E-02 0.  1.
       -2   -1    0    0    0  501  0.00000000000E+00  0.00000000000E+00 -0.29161863917E+04  0.29161863917E+04  0.25500000920E-02 0. -1.
    10030    2    1    2    0    0  0.00000000000E+00  0.00000000000E+00 -0.18825283539E+04  0.39498444295E+04  0.34723706619E+04 0.  0.
        2    1    3    3  502    0  0.90509654231E+03  0.25915800322E+03  0.71808339877E+03  0.11840635072E+04  0.25500000920E-02 0.  1.
       -2    1    3    3    0  502 -0.90509654231E+03 -0.25915800322E+03 -0.26006117527E+04  0.27657809222E+04  0.25500000920E-02 0. -1.
</event>
<event>
 5   0  0.2856440E-06  0.3359670E+04  0.7818609E-02  0.8147876E-01
       -2   -1    0    0    0  501  0.00000000000E+00  0.00000000000E+00  0.16478582158E+04  0.16478582158E+04  0.25500000920E-02 0. -1.
        2   -1    0    0  501    0  0.00000000000E+00  0.00000000000E+00 -0.17124322549E+04  0.17124322549E+04  0.25500000920E-02 0.  1.
    10030    2    1    2    0    0  0.00000000000E+00  0.00000000000E+00 -0.64574039140E+02  0.33602904707E+04  0.33596699601E+04 0.  0.
        4    1    3    3  502    0 -0.13380578767E+03  0.11011556874E+04  0.12294514665E+04  0.16558986557E+04  0.12699999809E+01 0. -1.
       -4    1    3    3    0  502  0.13380578767E+03 -0.11011556874E+04 -0.12940255057E+04  0.17043918150E+04  0.12699999809E+01 0.  1.
</event>
<event>
 5   0  0.1010855E-06  0.3584876E+04  0.7818609E-02  0.8093965E-01
        1   -1    0    0  501    0  0.00000000000E+00  0.00000000000E+00  0.20086662732E+04  0.20086662732E+04  0.50400001928E-02 0. -1.
       -1   -1    0    0    0  501  0.00000000000E+00  0.00000000000E+00 -0.15994864580E+04  0.15994864581E+04  0.50400001928E-02 0.  1.
    10030    2    1    2    0    0  0.00000000000E+00  0.00000000000E+00  0.40917981516E+03  0.36081527313E+04  0.35848762895E+04 0.  0.
        1    1    3    3  502    0 -0.11664236042E+04  0.12317137393E+04 -0.37810931431E+03  0.17379958037E+04  0.50400001928E-02 0.  1.
       -1    1    3    3    0  502  0.11664236042E+04 -0.12317137393E+04  0.78728912947E+03  0.18701569275E+04  0.50400001928E-02 0. -1.
</event>
<event>
 5   0  0.1010855E-06  0.3425171E+04  0.7818609E-02  0.8131756E-01
        1   -1    0    0  501    0  0.00000000000E+00  0.00000000000E+00  0.26871444332E+04  0.26871444332E+04  0.50400001928E-02 0. -1.
       -1   -1    0    0    0  501  0.00000000000E+00  0.00000000000E+00 -0.10914744183E+04  0.10914744183E+04  0.50400001928E-02 0.  1.
    10030    2    1    2    0    0  0.00000000000E+00  0.00000000000E+00  0.15956700150E+04  0.37786188515E+04  0.34251711823E+04 0.  0.
        1    1    3    3  502    0  0.13169631059E+04  0.60214179326E+03 -0.21083588485E+03  0.14633585794E+04  0.50400001928E-02 0.  1.
       -1    1    3    3    0  502 -0.13169631059E+04 -0.60214179326E+03  0.18065058998E+04  0.23152602721E+04  0.50400001928E-02 0. -1.
</event>
<event>
 5   0  0.1003191E-06  0.3344814E+04  0.7818609E-02  0.8151585E-01
       -1   -1    0    0    0  501  0.00000000000E+00  0.00000000000E+00  0.20836588663E+04  0.20836588663E+04  0.50400001928E-02 0. -1.
        1   -1    0    0  501    0  0.00000000000E+00  0.00000000000E+00 -0.13423240234E+04  0.13423240234E+04  0.50400001928E-02 0.  1.
    10030    2    1    2    0    0  0.00000000000E+00  0.00000000000E+00  0.74133484291E+03  0.34259828897E+04  0.33448141071E+04 0.  0.
        5    1    3    3  502    0 -0.77571563946E+03  0.29256327161E+03  0.18583585458E+04  0.20349070240E+04  0.46999998093E+01 0. -1.
       -5    1    3    3    0  502  0.77571563946E+03 -0.29256327161E+03 -0.11170237029E+04  0.13910758657E+04  0.46999998093E+01 0.  1.
</event>
<event>
 5   0  0.2767014E-06  0.3478286E+04  0.7818609E-02  0.8118955E-01
       -2   -1    0    0    0  501  0.00000000000E+00  0.00000000000E+00  0.29999771534E+04  0.29999771534E+04  0.25500000920E-02 0.  1.
        2   -1    0    0  501    0  0.00000000000E+00  0.00000000000E+00 -0.10082140371E+04  0.10082140371E+04  0.25500000920E-02 0. -1.
    10030    2    1    2    0    0  0.00000000000E+00  0.00000000000E+00  0.19917631163E+04  0.40081911905E+04  0.34782864040E+04 0.  0.
        1    1    3    3  502    0 -0.26447898413E+03  0.15659420446E+04  0.17901868084E+03  0.15981774959E+04  0.50400001928E-02 0. -1.
       -1    1    3    3    0  502  0.26447898413E+03 -0.15659420446E+04  0.18127444355E+04  0.24100136947E+04  0.50400001928E-02 0.  1.
</event>
<event>
 5   0  0.2664083E-06  0.3289022E+04  0.7818609E-02  0.8165694E-01
        2   -1    0    0  501    0  0.00000000000E+00  0.00000000000E+00  0.13381032686E+04  0.13381032686E+04  0.25500000920E-02 0.  1.
       -2   -1    0    0    0  501  0.00000000000E+00  0.00000000000E+00 -0.20210818283E+04  0.20210818283E+04  0.25500000920E-02 0. -1.
    10030    2    1    2    0    0  0.00000000000E+00  0.00000000000E+00 -0.68297855975E+03  0.33591850969E+04  0.32890218610E+04 0.  0.
        2    1    3    3  502    0  0.86366898954E+03  0.13077721691E+04  0.16735990907E+03  0.15761349907E+04  0.25500000920E-02 0.  1.
       -2    1    3    3    0  502 -0.86366898954E+03 -0.13077721691E+04 -0.85033846881E+03  0.17830501062E+04  0.25500000920E-02 0. -1.
</event>
<event>
 5   0  0.9714317E-07  0.3418891E+04  0.7818609E-02  0.8133285E-01
       -1   -1    0    0    0  501  0.00000000000E+00  0.00000000000E+00  0.15502416596E+04  0.15502416596E+04  0.50400001928E-02 0.  1.
        1   -1    0    0  501    0  0.00000000000E+00  0.00000000000E+00 -0.18849986267E+04  0.18849986267E+04  0.50400001928E-02 0. -1.
    10030    2    1    2    0    0  0.00000000000E+00  0.00000000000E+00 -0.33475696709E+03  0.34352402864E+04  0.34188906970E+04 0.  0.
        4    1    3    3  502    0  0.21001206512E+03 -0.16963664063E+04 -0.18840064465E+03  0.17196687087E+04  0.12699999809E+01 0.  1.
       -4    1    3    3    0  502 -0.21001206512E+03  0.16963664063E+04 -0.14635632244E+03  0.17155715776E+04  0.12699999809E+01 0. -1.
</event>
<event>
 5   0  0.1003191E-06  0.3408621E+04  0.7818609E-02  0.8135794E-01
       -1   -1    0    0    0  501  0.00000000000E+00  0.00000000000E+00  0.10004519341E+04  0.10004519341E+04  0.50400001928E-02 0.  1.
        1   -1    0    0  501    0  0.00000000000E+00  0.00000000000E+00 -0.29033629179E+04  0.29033629179E+04  0.50400001928E-02 0. -1.
    10030    2    1    2    0    0  0.00000000000E+00  0.00000000000E+00 -0.19029109838E+04  0.39038148520E+04  0.34086214496E+04 0.  0.
        5    1    3    3  502    0 -0.11250391678E+04 -0.11805707331E+04 -0.15185612980E+04  0.22283426332E+04  0.46999998093E+01 0.  1.
       -5    1    3    3    0  502  0.11250391678E+04  0.11805707331E+04 -0.38434968579E+03  0.16754722188E+04  0.46999998093E+01 0. -1.
</event>
<event>
 5   0  0.2767014E-06  0.3371613E+04  0.7818609E-02  0.8144909E-01
       -2   -1    0    0    0  501  0.00000000000E+00  0.00000000000E+00  0.14125239618E+04  0.14125239618E+04  0.25500000920E-02 0. -1.
        2   -1    0    0  501    0  0.00000000000E+00  0.00000000000E+00 -0.20119613343E+04  0.20119613343E+04  0.25500000920E-02 0.  1.
    10030    2    1    2    0    0  0.00000000000E+00  0.00000000000E+00 -0.59943737251E+03  0.34244852961E+04  0.33716130234E+04 0.  0.
        1    1    3    3  502    0  0.66396997227E+03 -0.14554664343E+04  0.24031925595E+03  0.16177119676E+04  0.50400001928E-02 0. -1.
       -1    1    3    3    0  502 -0.66396997227E+03  0.14554664343E+04 -0.83975662846E+03  0.18067733285E+04  0.50400001928E-02 0.  1.
</event>
<event>
 5   0  0.9232963E-07  0.3443335E+04  0.7818609E-02  0.8127352E-01
        1   -1    0    0  501    0  0.00000000000E+00  0.00000000000E+00  0.13972276769E+04  0.13972276769E+04  0.50400001928E-02 0.  1.
       -1   -1    0    0    0  501  0.00000000000E+00  0.00000000000E+00 -0.21214434589E+04  0.21214434589E+04  0.50400001928E-02 0. -1.
    10030    2    1    2    0    0  0.00000000000E+00  0.00000000000E+00 -0.72421578203E+03  0.35186711358E+04  0.34433353108E+04 0.  0.
        3    1    3    3  502    0 -0.24361665090E+03  0.16464768433E+04 -0.81208791672E+03  0.18519508262E+04  0.10100000352E+00 0.  1.
       -3    1    3    3    0  502  0.24361665090E+03 -0.16464768433E+04  0.87872134689E+02  0.16667203096E+04  0.10100000352E+00 0. -1.
</event>
<event>
 5   0  0.2664083E-06  0.3466664E+04  0.7818609E-02  0.8121736E-01
        2   -1    0    0  501    0  0.00000000000E+00  0.00000000000E+00  0.14074446864E+04  0.14074446864E+04  0.25500000920E-02 0. -1.
       -2   -1    0    0    0  501  0.00000000000E+00  0.00000000000E+00 -0.21346771012E+04  0.21346771012E+04  0.25500000920E-02 0.  1.
    10030    2    1    2    0    0  0.00000000000E+00  0.00000000000E+00 -0.72723241481E+03  0.35421217875E+04  0.34666640697E+04 0.  0.
        2    1    3    3  502    0 -0.64050788645E+03 -0.10576093831E+04  0.87758932587E+03  0.15162291993E+04  0.25500000920E-02 0. -1.
       -2    1    3    3    0  502  0.64050788645E+03  0.10576093831E+04 -0.16048217407E+04  0.20258925883E+04  0.25500000920E-02 0.  1.
</event>
<event>
 5   0  0.2664083E-06  0.2788167E+04  0.7818609E-02  0.8306951E-01
       -2   -1    0    0    0  501  0.00000000000E+00  0.00000000000E+00  0.14371603046E+04  0.14371603046E+04  0.25500000920E-02 0.  1.
        2   -1    0    0  501    0  0.00000000000E+00  0.00000000000E+00 -0.13522980735E+04  0.13522980735E+04  0.25500000920E-02 0. -1.
    10030    2    1    2    0    0  0.00000000000E+00  0.00000000000E+00  0.84862231102E+02  0.27894583781E+04  0.27881672196E+04 0.  0.
        2    1    3    3  502    0 -0.95540328719E+03  0.41454992273E+03 -0.88472455149E+03  0.13665228178E+04  0.25500000920E-02 0. -1.
       -2    1    3    3    0  502  0.95540328719E+03 -0.41454992273E+03  0.96958678259E+03  0.14229355602E+04  0.25500000920E-02 0.  1.
</event>
<event>
 5   0  0.2664083E-06  0.3448018E+04  0.7818609E-02  0.8126221E-01
        2   -1    0    0  501    0  0.00000000000E+00  0.00000000000E+00  0.24116012931E+04  0.24116012931E+04  0.25500000920E-02 0. -1.
       -2   -1    0    0    0  501  0.00000000000E+00  0.00000000000E+00 -0.12324621075E+04  0.12324621075E+04  0.25500000920E-02 0.  1.
    10030    2    1    2    0    0  0.00000000000E+00  0.00000000000E+00  0.11791391856E+04  0.36440634006E+04  0.34480181045E+04 0.  0.
        2    1    3    3  502    0 -0.17017072372E+04 -0.15188480874E+03  0.83363431668E+03  0.19010057049E+04  0.25500000920E-02 0.  1.
       -2    1    3    3    0  502  0.17017072372E+04  0.15188480874E+03  0.34550486893E+03  0.17430576957E+04  0.25500000920E-02 0. -1.
</event>
<event>
 5   0  0.2848685E-06  0.3370984E+04  0.7818609E-02  0.8145065E-01
        2   -1    0    0  501    0  0.00000000000E+00  0.00000000000E+00  0.12453518641E+04  0.12453518641E+04  0.25500000920E-02 0.  1.
       -2   -1    0    0    0  501  0.00000000000E+00  0.00000000000E+00 -0.22811890720E+04  0.22811890720E+04  0.25500000920E-02 0. -1.
    10030    2    1    2    0    0  0.00000000000E+00  0.00000000000E+00 -0.10358372080E+04  0.35265409361E+04  0.33709838701E+04 0.  0.
        3    1    3    3  502    0  0.58403154025E+03  0.14645497205E+04 -0.11411304019E+04  0.19463240552E+04  0.10100000352E+00 0. -1.
       -3    1    3    3    0  502 -0.58403154025E+03 -0.14645497205E+04  0.10529319392E+03  0.15802168809E+04  0.10100000352E+00 0.  1.
</event>
<event>
 5   0  0.2767014E-06  0.3390675E+04  0.7818609E-02  0.8140199E-01
       -2   -1    0    0    0  501  0.00000000000E+00  0.00000000000E+00  0.30191528835E+04  0.30191528835E+04  0.25500000920E-02 0. -1.
        2   -1    0    0  501    0  0.00000000000E+00  0.00000000000E+00 -0.95197851579E+03  0.95197851580E+03  0.25500000920E-02 0.  1.
    10030    2    1    2    0    0  0.00000000000E+00  0.00000000000E+00  0.20671743677E+04  0.39711313993E+04  0.33906746709E+04 0.  0.
        1    1    3    3  502    0 -0.21114534569E+03 -0.15479741982E+04  0.26258847294E+03  0.15842219483E+04  0.50400001928E-02 0.  1.
       -1    1    3    3    0  502  0.21114534569E+03  0.15479741982E+04  0.18045858948E+04  0.23869094509E+04  0.50400001928E-02 0. -1.
</event>
<event>
 5   0  0.2906701E-06  0.3354283E+04  0.7818609E-02  0.8149219E-01
        2   -1    0    0  501    0  0.00000000000E+00  0.00000000000E+00  0.14648791590E+04  0.14648791590E+04  0.25500000920E-02 0.  1.
       -2   -1    0    0    0  501  0.00000000000E+00  0.00000000000E+00 -0.19201608955E+04  0.19201608955E+04  0.25500000920E-02 0. -1.
    10030    2    1    2    0    0  0.00000000000E+00  0.00000000000E+00 -0.45528173657E+03  0.33850400545E+04  0.33542830398E+04 0.  0.
        5    1    3    3  502    0  0.58859638971E+02  0.54282501642E+03 -0.18279488864E+04  0.19077585479E+04  0.46999998093E+01 0. -1.
       -5    1    3    3    0  502 -0.58859638971E+02 -0.54282501642E+03  0.13726671499E+04  0.14772815066E+04  0.46999998093E+01 0.  1.
</event>
<event>
 5   0  0.9714317E-07  0.2453158E+04  0.7818609E-02  0.8419866E-01
        1   -1    0    0  501    0  0.00000000000E+00  0.00000000000E+00  0.25347128746E+04  0.25347128746E+04  0.50400001928E-02 0.  1.
       -1   -1    0    0    0  501  0.00000000000E+00  0.00000000000E+00 -0.59355677374E+03  0.59355677376E+03  0.50400001928E-02 0. -1.
    10030    2    1    2    0    0  0.00000000000E+00  0.00000000000E+00  0.19411561008E+04  0.31282696483E+04  0.24531579617E+04 0.  0.
        4    1    3    3  502    0  0.27987840280E+03  0.11934541919E+04  0.10251226033E+04  0.15979808488E+04  0.12699999809E+01 0.  1.
       -4    1    3    3    0  502 -0.27987840280E+03 -0.11934541919E+04  0.91603349758E+03  0.15302887996E+04  0.12699999809E+01 0. -1.
</event>
<event>
 5   0  0.1003191E-06  0.2432810E+04  0.7818609E-02  0.8427321E-01
        1   -1    0    0  501    0  0.00000000000E+00  0.00000000000E+00  0.14203841981E+04  0.14203841981E+04  0.50400001928E-02 0. -1.
       -1   -1    0    0    0  501  0.00000000000E+00  0.00000000000E+00 -0.10417191460E+04  0.10417191460E+04  0.50400001928E-02 0.  1.
    10030    2    1    2    0    0  0.00000000000E+00  0.00000000000E+00  0.37866505210E+03  0.24621033441E+04  0.24328102382E+04 0.  0.
        5    1    3    3  502    0 -0.21982015951E+03 -0.61838654234E+03 -0.84715567458E+03  0.10716424988E+04  0.46999998093E+01 0.  1.
       -5    1    3    3    0  502  0.21982015951E+03  0.61838654234E+03  0.12258207267E+04  0.13904608453E+04  0.46999998093E+01 0. -1.
</event>
<event>
 5   0  0.2856440E-06  0.3562299E+04  0.7818609E-02  0.8099183E-01
       -2   -1    0    0    0  501  0.00000000000E+00  0.00000000000E+00  0.12443418125E+04  0.12443418125E+04  0.25500000920E-02 0. -1.
        2   -1    0    0  501    0  0.00000000000E+00  0.00000000000E+00 -0.25495349734E+04  0.25495349734E+04  0.25500000920E-02 0.  1.
    10030    2    1    2    0    0  0.00000000000E+00  0.00000000000E+00 -0.13051931609E+04  0.37938767860E+04  0.35622986792E+04 0.  0.
        4    1    3    3  502    0 -0.16689961834E+04  0.32377948651E+03 -0.86927960318E+02  0.17023335452E+04  0.12699999809E+01 0.  1.
       -4    1    3    3    0  502  0.16689961834E+04 -0.32377948651E+03 -0.12182652006E+04  0.20915432407E+04  0.12699999809E+01 0. -1.
</event>
<event>
 5   0  0.2664083E-06  0.3336498E+04  0.7818609E-02  0.8153670E-01
        2   -1    0    0  501    0  0.00000000000E+00  0.00000000000E+00  0.24058862050E+04  0.24058862050E+04  0.25500000920E-02 0. -1.
       -2   -1    0    0    0  501  0.00000000000E+00  0.00000000000E+00 -0.11567692202E+04  0.11567692202E+04  0.25500000920E-02 0.  1.
    10030    2    1    2    0    0  0.00000000000E+00  0.00000000000E+00  0.12491169848E+04  0.35626554252E+04  0.33364982298E+04 0.  0.
        2    1    3    3  502    0 -0.12635094962E+04  0.10218971266E+04  0.10273902565E+04  0.19225661818E+04  0.25500000920E-02 0.  1.
       -2    1    3    3    0  502  0.12635094962E+04 -0.10218971266E+04  0.22172672836E+03  0.16400892434E+04  0.25500000920E-02 0. -1.
</event>
<event>
 5   0  0.1003191E-06  0.3249905E+04  0.7818609E-02  0.8175760E-01
        1   -1    0    0  501    0  0.00000000000E+00  0.00000000000E+00  0.14569079779E+04  0.14569079779E+04  0.50400001928E-02 0. -1.
       -1   -1    0    0    0  501  0.00000000000E+00  0.00000000000E+00 -0.18123801707E+04  0.18123801707E+04  0.50400001928E-02 0.  1.
    10030    2    1    2    0    0  0.00000000000E+00  0.00000000000E+00 -0.35547219284E+03  0.32692881487E+04  0.32499053092E+04 0.  0.
        5    1    3    3  502    0  0.22486228173E+03  0.93866188461E+03 -0.14927431814E+04  0.17776257972E+04  0.46999998093E+01 0.  1.
       -5    1    3    3    0  502 -0.22486228173E+03 -0.93866188461E+03  0.11372709885E+04  0.14916623514E+04  0.46999998093E+01 0. -1.
</event>
<event>
 5   0  0.9714317E-07  0.3226543E+04  0.7818609E-02  0.8181842E-01
       -1   -1    0    0    0  501  0.00000000000E+00  0.00000000000E+00  0.12415974534E+04  0.12415974534E+04  0.50400001928E-02 0.  1.
        1   -1    0    0  501    0  0.00000000000E+00  0.00000000000E+00 -0.20962061862E+04  0.20962061863E+04  0.50400001928E-02 0. -1.
    10030    2    1    2    0    0  0.00000000000E+00  0.00000000000E+00 -0.85460873282E+03  0.33378036397E+04  0.32265425847E+04 0.  0.
        4    1    3    3  502    0  0.11696215314E+04  0.30264646683E+03  0.67868973910E+03  0.13857239211E+04  0.12699999809E+01 0.  1.
       -4    1    3    3    0  502 -0.11696215314E+04 -0.30264646683E+03 -0.15332984719E+04  0.19520797186E+04  0.12699999809E+01 0. -1.
</event>
<event>
 5   0  0.2906701E-06  0.3430604E+04  0.7818609E-02  0.8130436E-01
       -2   -1    0    0    0  501  0.00000000000E+00  0.00000000000E+00  0.27274424175E+04  0.27274424175E+04  0.25500000920E-02 0.  1.
        2   -1    0    0  501    0  0.00000000000E+00  0.00000000000E+00 -0.10787619810E+04  0.10787619810E+04  0.25500000920E-02 0. -1.
    10030    2    1    2    0    0  0.00000000000E+00  0.00000000000E+00  0.16486804365E+04  0.38062043985E+04  0.34306041366E+04 0.  0.
        5    1    3    3  502    0  0.45163709525E+02 -0.67241390925E+03 -0.92571529787E+03  0.11450550767E+04  0.46999998093E+01 0. -1.
       -5    1    3    3    0  502 -0.45163709525E+02  0.67241390925E+03  0.25743957343E+04  0.26611493218E+04  0.46999998093E+01 0.  1.
</event>
<event>
 5   0  0.1010551E-06  0.3421917E+04  0.7818609E-02  0.8132548E-01
        1   -1    0    0  501    0  0.00000000000E+00  0.00000000000E+00  0.20047815441E+04  0.20047815441E+04  0.50400001928E-02 0.  1.
       -1   -1    0    0    0  501  0.00000000000E+00  0.00000000000E+00 -0.14601984345E+04  0.14601984345E+04  0.50400001928E-02 0. -1.
    10030    2    1    2    0    0  0.00000000000E+00  0.00000000000E+00  0.54458310966E+03  0.34649799786E+04  0.34219169319E+04 0.  0.
        2    1    3    3  502    0  0.97673049480E+03  0.11527655499E+04 -0.54062397991E+03  0.16047258832E+04  0.25500000920E-02 0. -1.
       -2    1    3    3    0  502 -0.97673049480E+03 -0.11527655499E+04  0.10852070896E+04  0.18602540955E+04  0.25500000920E-02 0.  1.
</event>
<event>
 5   0  0.9232963E-07  0.3377358E+04  0.7818609E-02  0.8143486E-01
       -1   -1    0    0    0  501  0.00000000000E+00  0.00000000000E+00  0.17609923437E+04  0.17609923437E+04  0.50400001928E-02 0. -1.
        1   -1    0    0  501    0  0.00000000000E+00  0.00000000000E+00 -0.16193349273E+04  0.16193349273E+04  0.50400001928E-02 0.  1.
    10030    2    1    2    0    0  0.00000000000E+00  0.00000000000E+00  0.14165741637E+03  0.33803272710E+04  0.33773577891E+04 0.  0.
        3    1    3    3  502    0  0.50956350056E+02  0.94730947480E+03  0.14690697513E+04  0.17487589128E+04  0.10100000352E+00 0. -1.
       -3    1    3    3    0  502 -0.50956350056E+02 -0.94730947480E+03 -0.13274123349E+04  0.16315683583E+04  0.10100000352E+00 0.  1.
</event>
<event>
 5   0  0.1010855E-06  0.3383508E+04  0.7818609E-02  0.8141966E-01
       -1   -1    0    0    0  501  0.00000000000E+00  0.00000000000E+00  0.14133119265E+04  0.14133119265E+04  0.50400001928E-02 0. -1.
        1   -1    0    0  501    0  0.00000000000E+00  0.00000000000E+00 -0.20250527850E+04  0.20250527850E+04  0.50400001928E-02 0.  1.
    10030    2    1    2    0    0  0.00000000000E+00  0.00000000000E+00 -0.61174085859E+03  0.34383647115E+04  0.33835077968E+04 0.  0.
        1    1    3    3  502    0  0.30197125380E+03 -0.11661224188E+04  0.90124484752E+03  0.15044169664E+04  0.50400001928E-02 0. -1.
       -1    1    3    3    0  502 -0.30197125380E+03  0.11661224188E+04 -0.15129857061E+04  0.19339477451E+04  0.50400001928E-02 0.  1.
</event>
<event>
 5   0  0.2767014E-06  0.2933988E+04  0.7818609E-02  0.8262836E-01
        2   -1    0    0  501    0  0.00000000000E+00  0.00000000000E+00  0.25487177665E+04  0.25487177665E+04  0.25500000920E-02 0. -1.
       -2   -1    0    0    0  501  0.00000000000E+00  0.00000000000E+00 -0.84437399300E+03  0.84437399301E+03  0.25500000920E-02 0.  1.
    10030    2    1    2    0    0  0.00000000000E+00  0.00000000000E+00  0.17043437735E+04  0.33930917595E+04  0.29339877283E+04 0.  0.
        1    1    3    3  502    0  0.48780725269E+03  0.30479007842E+03 -0.70852401199E+03  0.91261118954E+03  0.50400001928E-02 0.  1.
       -1    1    3    3    0  502 -0.48780725269E+03 -0.30479007842E+03  0.24128677855E+04  0.24804805699E+04  0.50400001928E-02 0. -1.
</event>
<event>
 5   0  0.2848685E-06  0.3158582E+04  0.7818609E-02  0.8199842E-01
       -2   -1    0    0    0  501  0.00000000000E+00  0.00000000000E+00  0.11942540139E+04  0.11942540139E+04  0.25500000920E-02 0.  1.
        2   -1    0    0  501    0  0.00000000000E+00  0.00000000000E+00 -0.20884676285E+04  0.20884676285E+04  0.25500000920E-02 0. -1.
    10030    2    1    2    0    0  0.00000000000E+00  0.00000000000E+00 -0.89421361460E+03  0.32827216424E+04  0.31585824975E+04 0.  0.
        3    1    3    3  502    0  0.24103350531E+03  0.10593137161E+04 -0.16384201007E+04  0.19658746491E+04  0.10100000352E+00 0. -1.
       -3    1    3    3    0  502 -0.24103350531E+03 -0.10593137161E+04  0.74420648605E+03  0.13168469933E+04  0.10100000352E+00 0.  1.
</event>
<event>
 5   0  0.2906701E-06  0.3394973E+04  0.7818609E-02  0.8139141E-01
       -2   -1    0    0    0  501  0.00000000000E+00  0.00000000000E+00  0.12491809852E+04  0.12491809852E+04  0.25500000920E-02 0.  1.
        2   -1    0    0  501    0  0.00000000000E+00  0.00000000000E+00 -0.23066794332E+04  0.23066794332E+04  0.25500000920E-02 0. -1.
    10030    2    1    2    0    0  0.00000000000E+00  0.00000000000E+00 -0.10574984480E+04  0.35558604184E+04  0.33949728051E+04 0.  0.
        5    1    3    3  502    0  0.99399405108E+03 -0.13637634468E+04 -0.33686496984E+03  0.17208646113E+04  0.46999998093E+01 0.  1.
       -5    1    3    3    0  502 -0.99399405108E+03  0.13637634468E+04 -0.72063347817E+03  0.18349958071E+04  0.46999998093E+01 0. -1.
</event>
<event>
 5   0  0.2856440E-06  0.3238319E+04  0.7818609E-02  0.8178770E-01
        2   -1    0    0  501    0  0.00000000000E+00  0.00000000000E+00  0.16104143172E+04  0.16104143172E+04  0.25500000920E-02 0. -1.
       -2   -1    0    0    0  501  0.00000000000E+00  0.00000000000E+00 -0.16279518714E+04  0.16279518714E+04  0.25500000920E-02 0.  1.
    10030    2    1    2    0    0  0.00000000000E+00  0.00000000000E+00 -0.17537554215E+02  0.32383661886E+04  0.32383187004E+04 0.  0.
        4    1    3    3  502    0 -0.14322926154E+04  0.74114549523E+03  0.13585909255E+03  0.16183998539E+04  0.12699999809E+01 0. -1.
       -4    1    3    3    0  502  0.14322926154E+04 -0.74114549523E+03 -0.15339664677E+03  0.16199663346E+04  0.12699999809E+01 0.  1.
</event>
<event>
 5   0  0.2767014E-06  0.2827370E+04  0.7818609E-02  0.8294821E-01
       -2   -1    0    0    0  501  0.00000000000E+00  0.00000000000E+00  0.19294285699E+04  0.19294285699E+04  0.25500000920E-02 0. -1.
        2   -1    0    0  501    0  0.00000000000E+00  0.00000000000E+00 -0.10358018144E+04  0.10358018144E+04  0.25500000920E-02 0.  1.
    10030    2    1    2    0    0  0.00000000000E+00  0.00000000000E+00  0.89362675551E+03  0.29652303842E+04  0.28273702364E+04 0.  0.
        1    1    3    3  502    0  0.67310814466E+03 -0.28169048899E+03  0.17166703786E+04  0.18653099728E+04  0.50400001928E-02 0. -1.
       -1    1    3    3    0  502 -0.67310814466E+03  0.28169048899E+03 -0.82304362306E+03  0.10999204114E+04  0.50400001928E-02 0.  1.
</event>
<event>
 5   0  0.1010551E-06  0.2156492E+04  0.7818609E-02  0.8536758E-01
       -1   -1    0    0    0  501  0.00000000000E+00  0.00000000000E+00  0.53221837138E+03  0.53221837140E+03  0.50400001928E-02 0.  1.
        1   -1    0    0  501    0  0.00000000000E+00  0.00000000000E+00 -0.21844687537E+04  0.21844687538E+04  0.50400001928E-02 0. -1.
    10030    2    1    2    0    0  0.00000000000E+00  0.00000000000E+00 -0.16522503824E+04  0.27166871252E+04  0.21564919684E+04 0.  0.
        2    1    3    3  502    0  0.36004835280E+03 -0.10459657033E+03  0.44745279667E+03  0.58377158558E+03  0.25500000920E-02 0.  1.
       -2    1    3    3    0  502 -0.36004835280E+03  0.10459657033E+03 -0.20997031790E+04  0.21329155396E+04  0.25500000920E-02 0. -1.
</event>
<event>
 5   0  0.9232963E-07  0.3406412E+04  0.7818609E-02  0.8136334E-01
       -1   -1    0    0    0  501  0.00000000000E+00  0.00000000000E+00  0.11445669357E+04  0.11445669357E+04  0.50400001928E-02 0. -1.
        1   -1    0    0  501    0  0.00000000000E+00  0.00000000000E+00 -0.25345051554E+04  0.25345051555E+04  0.50400001928E-02 0.  1.
    10030    2    1    2    0    0  0.00000000000E+00  0.00000000000E+00 -0.13899382198E+04  0.36790720911E+04  0.34064120709E+04 0.  0.
        3    1    3    3  502    0  0.13909128804E+04  0.98176401758E+03 -0.74800749781E+03  0.18595737292E+04  0.10100000352E+00 0. -1.
       -3    1    3    3    0  502 -0.13909128804E+04 -0.98176401758E+03 -0.64193072197E+03  0.18194983620E+04  0.10100000352E+00 0.  1.
</event>
<event>
 5   0  0.2848685E-06  0.3275200E+04  0.7818609E-02  0.8169235E-01
       -2   -1    0    0    0  501  0.00000000000E+00  0.00000000000E+00  0.23810493339E+04  0.23810493339E+04  0.25500000920E-02 0.  1.
        2   -1    0    0  501    0  0.00000000000E+00  0.00000000000E+00 -0.11262824179E+04  0.11262824179E+04  0.25500000920E-02 0. -1.
    10030    2    1    2    0    0  0.00000000000E+00  0.00000000000E+00  0.12547669161E+04  0.35073317518E+04  0.32752001471E+04 0.  0.
        3    1    3    3  502    0  0.13176035830E+04 -0.69068886948E+03  0.13604473813E+04  0.20159234618E+04  0.10100000352E+00 0. -1.
       -3    1    3    3    0  502 -0.13176035830E+04  0.69068886948E+03 -0.10568046527E+03  0.14914082900E+04  0.10100000352E+00 0.  1.
</event>
<event>
 5   0  0.2848685E-06  0.2715994E+04  0.7818609E-02  0.8329834E-01
       -2   -1    0    0    0  501  0.00000000000E+00  0.00000000000E+00  0.12385126006E+04  0.12385126006E+04  0.25500000920E-02 0. -1.
        2   -1    0    0  501    0  0.00000000000E+00  0.00000000000E+00 -0.14890087464E+04  0.14890087464E+04  0.25500000920E-02 0.  1.
    10030    2    1    2    0    0  0.00000000000E+00  0.00000000000E+00 -0.25049614585E+03  0.27275213470E+04  0.27159941788E+04 0.  0.
        3    1    3    3  502    0  0.50667598480E+03  0.70826461543E+03 -0.11716862975E+04  0.14598657846E+04  0.10100000352E+00 0.  1.
       -3    1    3    3    0  502 -0.50667598480E+03 -0.70826461543E+03  0.92119015168E+03  0.12676555624E+04  0.10100000352E+00 0. -1.
</event>
<event>
 5   0  0.9714317E-07  0.3441262E+04  0.7818609E-02  0.8127853E-01
        1   -1    0    0  501    0  0.00000000000E+00  0.00000000000E+00  0.11758032851E+04  0.11758032851E+04  0.50400001928E-02 0. -1.
       -1   -1    0    0    0  501  0.00000000000E+00  0.00000000000E+00 -0.25179132121E+04  0.25179132121E+04  0.50400001928E-02 0.  1.
    10030    2    1    2    0    0  0.00000000000E+00  0.00000000000E+00 -0.13421099271E+04  0.36937164972E+04  0.34412617607E+04 0.  0.
        4    1    3    3  502    0 -0.13175705556E+04 -0.10804509075E+04 -0.41433831014E+03  0.17535803890E+04  0.12699999809E+01 0.  1.
       -4    1    3    3    0  502  0.13175705556E+04  0.10804509075E+04 -0.92777161692E+03  0.19401361082E+04  0.12699999809E+01 0. -1.
</event>
<event>
 5   0  0.1010855E-06  0.3362036E+04  0.7818609E-02  0.8147287E-01
        1   -1    0    0  501    0  0.00000000000E+00  0.00000000000E+00  0.24274533471E+04  0.24274533471E+04  0.50400001928E-02 0. -1.
       -1   -1    0    0    0  501  0.00000000000E+00  0.00000000000E+00 -0.11641097416E+04  0.11641097416E+04  0.50400001928E-02 0.  1.
    10030    2    1    2    0    0  0.00000000000E+00  0.00000000000E+00  0.12633436055E+04  0.35915630888E+04  0.33620363405E+04 0.  0.
        1    1    3    3  502    0  0.14739731121E+04  0.21759719791E+03  0.14631928803E+04  0.20882716971E+04  0.50400001928E-02 0. -1.
       -1    1    3    3    0  502 -0.14739731121E+04 -0.21759719791E+03 -0.19984927481E+03  0.15032913917E+04  0.50400001928E-02 0.  1.
</event>
<event>
 5   0  0.2906701E-06  0.3293742E+04  0.7818609E-02  0.8164490E-01
       -2   -1    0    0    0  501  0.00000000000E+00  0.00000000000E+00  0.16424935468E+04  0.16424935468E+04  0.25500000920E-02 0. -1.
        2   -1    0    0  501    0  0.00000000000E+00  0.00000000000E+00 -0.16512600954E+04  0.16512600954E+04  0.25500000920E-02 0.  1.
    10030    2    1    2    0    0  0.00000000000E+00  0.00000000000E+00 -0.87665486075E+01  0.32937536421E+04  0.32937419757E+04 0.  0.
        5    1    3    3  502    0 -0.97677239661E+03 -0.74966284507E+03  0.10892765163E+04  0.16439659714E+04  0.46999998093E+01 0. -1.
       -5    1    3    3    0  502  0.97677239661E+03  0.74966284507E+03 -0.10980430649E+04  0.16497876707E+04  0.46999998093E+01 0.  1.
</event>
<event>
 5   0  0.1010855E-06  0.3354188E+04  0.7818609E-02  0.8149243E-01
       -1   -1    0    0    0  501  0.00000000000E+00  0.00000000000E+00  0.15153544328E+04  0.15153544328E+04  0.50400001928E-02 0.  1.
        1   -1    0    0  501    0  0.00000000000E+00  0.00000000000E+00 -0.18560962620E+04  0.18560962620E+04  0.50400001928E-02 0. -1.
    10030    2    1    2    0    0  0.00000000000E+00  0.00000000000E+00 -0.34074182916E+03  0.33714506948E+04  0.33541876503E+04 0.  0.
        1    1    3    3  502    0  0.55696195917E+03 -0.66933244190E+03  0.12703347163E+04  0.15401177985E+04  0.50400001928E-02 0.  1.
       -1    1    3    3    0  502 -0.55696195917E+03  0.66933244190E+03 -0.16110765454E+04  0.18313328963E+04  0.50400001928E-02 0. -1.
</event>
<event>
 5   0  0.1010855E-06  0.3300257E+04  0.7818609E-02  0.8162830E-01
        1   -1    0    0  501    0  0.00000000000E+00  0.00000000000E+00  0.25801911616E+04  0.25801911616E+04  0.50400001928E-02 0. -1.
       -1   -1    0    0    0  501  0.00000000000E+00  0.00000000000E+00 -0.10553185959E+04  0.10553185959E+04  0.50400001928E-02 0.  1.
    10030    2    1    2    0    0  0.00000000000E+00  0.00000000000E+00  0.15248725657E+04  0.36355097576E+04  0.33002567863E+04 0.  0.
        1    1    3    3  502    0  0.14380747669E+04  0.80702347758E+03  0.69654549165E+03  0.17901177477E+04  0.50400001928E-02 0. -1.
       -1    1    3    3    0  502 -0.14380747669E+04 -0.80702347758E+03  0.82832707404E+03  0.18453920099E+04  0.50400001928E-02 0.  1.
</event>
<event>
 5   0  0.2856440E-06  0.3474371E+04  0.7818609E-02  0.8119891E-01
       -2   -1    0    0    0  501  0.00000000000E+00  0.00000000000E+00  0.12306434557E+04  0.12306434557E+04  0.25500000920E-02 0. -1.
        2   -1    0    0  501    0  0.00000000000E+00  0.00000000000E+00 -0.24522245432E+04  0.24522245432E+04  0.25500000920E-02 0.  1.
    10030    2    1    2    0    0  0.00000000000E+00  0.00000000000E+00 -0.12215810875E+04  0.36828679990E+04  0.34743713596E+04 0.  0.
        4    1    3    3  502    0 -0.22018537836E+03 -0.16966928244E+04 -0.29179213940E+03  0.17356245005E+04  0.12699999809E+01 0. -1.
       -4    1    3    3    0  502  0.22018537836E+03  0.16966928244E+04 -0.92978894810E+03  0.19472434985E+04  0.12699999809E+01 0.  1.
</event>
<event>
 5   0  0.9232963E-07  0.3230637E+04  0.7818609E-02  0.8180773E-01
        1   -1    0    0  501    0  0.00000000000E+00  0.00000000000E+00  0.21735578992E+04  0.21735578992E+04  0.50400001928E-02 0. -1.
       -1   -1    0    0    0  501  0.00000000000E+00  0.00000000000E+00 -0.12004525825E+04  0.12004525825E+04  0.50400001928E-02 0.  1.
    10030    2    1    2    0    0  0.00000000000E+00  0.00000000000E+00  0.97310531674E+03  0.33740104817E+04  0.32306365895E+04 0.  0.
        3    1    3    3  502    0 -0.35626854330E+03  0.10864225190E+04 -0.70514426054E+03  0.13433054764E+04  0.10100000352E+00 0.  1.
       -3    1    3    3    0  502  0.35626854330E+03 -0.10864225190E+04  0.16782495773E+04  0.20307050053E+04  0.10100000352E+00 0. -1.
</event>
<event>
 5   0  0.9232963E-07  0.3219593E+04  0.7818609E-02  0.8183662E-01
       -1   -1    0    0    0  501  0.00000000000E+00  0.00000000000E+00  0.15390056340E+04  0.15390056340E+04  0.50400001928E-02 0. -1.
        1   -1    0    0  501    0  0.00000000000E+00  0.00000000000E+00 -0.16838437512E+04  0.16838437513E+04  0.50400001928E-02 0.  1.
    10030    2    1    2    0    0  0.00000000000E+00  0.00000000000E+00 -0.14483811730E+03  0.32228493852E+04  0.32195931544E+04 0.  0.
        3    1    3    3  502    0 -0.10127083434E+04  0.83551896457E+02  0.11773972266E+04  0.15552566822E+04  0.10100000352E+00 0. -1.
       -3    1    3    3    0  502  0.10127083434E+04 -0.83551896457E+02 -0.13222353439E+04  0.16675927030E+04  0.10100000352E+00 0.  1.
</event>
<event>
 5   0  0.1010855E-06  0.3467108E+04  0.7818609E-02  0.8121629E-01
        1   -1    0    0  501    0  0.00000000000E+00  0.00000000000E+00  0.24079526574E+04  0.24079526574E+04  0.50400001928E-02 0. -1.
       -1   -1    0    0    0  501  0.00000000000E+00  0.00000000000E+00 -0.12480349798E+04  0.12480349798E+04  0.50400001928E-02 0.  1.
    10030    2    1    2    0    0  0.00000000000E+00  0.00000000000E+00  0.11599176776E+04  0.36559876373E+04  0.34671078127E+04 0.  0.
        1    1    3    3  502    0 -0.86782345031E+03 -0.13274738232E+04  0.13180215142E+04  0.20621554268E+04  0.50400001928E-02 0. -1.
       -1    1    3    3    0  502  0.86782345031E+03  0.13274738232E+04 -0.15810383659E+03  0.15938322105E+04  0.50400001928E-02 0.  1.
</event>
<event>
 5   0  0.1003191E-06  0.3409331E+04  0.7818609E-02  0.8135620E-01
        1   -1    0    0  501    0  0.00000000000E+00  0.00000000000E+00  0.28484364269E+04  0.28484364269E+04  0.50400001928E-02 0. -1.
       -1   -1    0    0    0  501  0.00000000000E+00  0.00000000000E+00 -0.10201682098E+04  0.10201682098E+04  0.50400001928E-02 0.  1.
    10030    2    1    2    0    0  0.00000000000E+00  0.00000000000E+00  0.18282682170E+04  0.38686046367E+04  0.34093308965E+04 0.  0.
        5    1    3    3  502    0 -0.88647017056E+03 -0.12465868243E+04  0.17678515894E+04  0.23377616230E+04  0.46999998093E+01 0. -1.
       -5    1    3    3    0  502  0.88647017056E+03  0.12465868243E+04  0.60416627670E+02  0.15308430137E+04  0.46999998093E+01 0.  1.
</event>
<event>
 5   0  0.1003191E-06  0.3353376E+04  0.7818609E-02  0.8149445E-01
       -1   -1    0    0    0  501  0.00000000000E+00  0.00000000000E+00  0.14190553947E+04  0.14190553947E+04  0.50400001928E-02 0. -1.
        1   -1    0    0  501    0  0.00000000000E+00  0.00000000000E+00 -0.19810938990E+04  0.19810938990E+04  0.50400001928E-02 0.  1.
    10030    2    1    2    0    0  0.00000000000E+00  0.00000000000E+00 -0.56203850431E+03  0.34001492937E+04  0.33533756036E+04 0.  0.
        5    1    3    3  502    0 -0.46267526714E+00  0.53990119202E+03  0.13284990698E+04  0.14340241908E+04  0.46999998093E+01 0. -1.
       -5    1    3    3    0  502  0.46267526714E+00 -0.53990119202E+03 -0.18905375741E+04  0.19661251029E+04  0.46999998093E+01 0.  1.
</event>
<event>
 5   0  0.1010551E-06  0.2233810E+04  0.7818609E-02  0.8504486E-01
       -1   -1    0    0    0  501  0.00000000000E+00  0.00000000000E+00  0.67570868325E+03  0.67570868327E+03  0.50400001928E-02 0.  1.
        1   -1    0    0  501    0  0.00000000000E+00  0.00000000000E+00 -0.18461750511E+04  0.18461750511E+04  0.50400001928E-02 0. -1.
    10030    2    1    2    0    0  0.00000000000E+00  0.00000000000E+00 -0.11704663678E+04  0.25218837344E+04  0.22338097617E+04 0.  0.
        2    1    3    3  502    0  0.44193774710E+03 -0.64487302844E+03  0.31532544883E+03  0.84297113462E+03  0.25500000920E-02 0.  1.
       -2    1    3    3    0  502 -0.44193774710E+03  0.64487302844E+03 -0.14857918167E+04  0.16789125998E+04  0.25500000920E-02 0. -1.
</event>
<event>
 5   0  0.1010551E-06  0.3068827E+04  0.7818609E-02  0.8224345E-01
        1   -1    0    0  501    0  0.00000000000E+00  0.00000000000E+00  0.26035001931E+04  0.26035001931E+04  0.50400001928E-02 0.  1.
       -1   -1    0    0    0  501  0.00000000000E+00  0.00000000000E+00 -0.90433062596E+03  0.90433062597E+03  0.50400001928E-02 0. -1.
    10030    2    1    2    0    0  0.00000000000E+00  0.00000000000E+00  0.16991695671E+04  0.35078308191E+04  0.30688271110E+04 0.  0.
        2    1    3    3  502    0 -0.53757487965E+03 -0.21062352919E+03  0.24746003774E+04  0.25410619926E+04  0.25500000920E-02 0.  1.
       -2    1    3    3    0  502  0.53757487965E+03  0.21062352919E+03 -0.77543081029E+03  0.96676882647E+03  0.25500000920E-02 0. -1.
</event>
<event>
 5   0  0.1010551E-06  0.2510884E+04  0.7818609E-02  0.8399118E-01
        1   -1    0    0  501    0  0.00000000000E+00  0.00000000000E+00  0.11887605123E+04  0.11887605123E+04  0.50400001928E-02 0. -1.
       -1   -1    0    0    0  501  0.00000000000E+00  0.00000000000E+00 -0.13258640187E+04  0.13258640187E+04  0.50400001928E-02 0.  1.
    10030    2    1    2    0    0  0.00000000000E+00  0.00000000000E+00 -0.13710350644E+03  0.25146245310E+04  0.25108841392E+04 0.  0.
        2    1    3    3  502    0 -0.10938494358E+04  0.60287107034E+03 -0.19592090212E+03  0.12642567444E+04  0.25500000920E-02 0.  1.
       -2    1    3    3    0  502  0.10938494358E+04 -0.60287107034E+03  0.58817395681E+02  0.12503677866E+04  0.25500000920E-02 0. -1.
</event>
<event>
 5   0  0.2906701E-06  0.3443254E+04  0.7818609E-02  0.8127371E-01
        2   -1    0    0  501    0  0.00000000000E+00  0.00000000000E+00  0.26751542233E+04  0.26751542233E+04  0.25500000920E-02 0.  1.
       -2   -1    0    0    0  501  0.00000000000E+00  0.00000000000E+00 -0.11079735657E+04  0.11079735657E+04  0.25500000920E-02 0. -1.
    10030    2    1    2    0    0  0.00000000000E+00  0.00000000000E+00  0.15671806576E+04  0.37831277890E+04  0.34432543696E+04 0.  0.
        5    1    3    3  502    0 -0.82658708146E+03  0.92878632346E+03  0.20919690427E+04  0.24335666836E+04  0.46999998093E+01 0.  1.
       -5    1    3    3    0  502  0.82658708146E+03 -0.92878632346E+03 -0.52478838511E+03  0.13495611053E+04  0.46999998093E+01 0. -1.
</event>
<event>
 5   0  0.1010855E-06  0.3340008E+04  0.7818609E-02  0.8152789E-01
        1   -1    0    0  501    0  0.00000000000E+00  0.00000000000E+00  0.13146783894E+04  0.13146783894E+04  0.50400001928E-02 0. -1.
       -1   -1    0    0    0  501  0.00000000000E+00  0.00000000000E+00 -0.21213653385E+04  0.21213653385E+04  0.50400001928E-02 0.  1.
    10030    2    1    2    0    0  0.00000000000E+00  0.00000000000E+00 -0.80668694912E+03  0.34360437279E+04  0.33400078841E+04 0.  0.
        1    1    3    3  502    0  0.13310609310E+04 -0.63560605069E+03 -0.12089267879E+04  0.19071502909E+04  0.50400001928E-02 0.  1.
       -1    1    3    3    0  502 -0.13310609310E+04  0.63560605069E+03  0.40223983881E+03  0.15288934370E+04  0.50400001928E-02 0. -1.
</event>
<event>
 5   0  0.2848685E-06  0.3395479E+04  0.7818609E-02  0.8139017E-01
       -2   -1    0    0    0  501  0.00000000000E+00  0.00000000000E+00  0.10419666943E+04  0.10419666943E+04  0.25500000920E-02 0. -1.
        2   -1    0    0  501    0  0.00000000000E+00  0.00000000000E+00 -0.27662294779E+04  0.27662294779E+04  0.25500000920E-02 0.  1.
    10030    2    1    2    0    0  0.00000000000E+00  0.00000000000E+00 -0.17242627836E+04  0.38081961722E+04  0.33954787496E+04 0.  0.
        3    1    3    3  502    0 -0.36262927826E+03  0.10057198246E+04  0.61701569867E+03  0.12343746359E+04  0.10100000352E+00 0. -1.
       -3    1    3    3    0  502  0.36262927826E+03 -0.10057198246E+04 -0.23412784823E+04  0.25738215363E+04  0.10100000352E+00 0.  1.
</event>
<event>
 5   0  0.9714317E-07  0.3422462E+04  0.7818609E-02  0.8132415E-01
        1   -1    0    0  501    0  0.00000000000E+00  0.00000000000E+00  0.10625412165E+04  0.10625412165E+04  0.50400001928E-02 0.  1.
       -1   -1    0    0    0  501  0.00000000000E+00  0.00000000000E+00 -0.27559505186E+04  0.27559505186E+04  0.50400001928E-02 0. -1.
    10030    2    1    2    0    0  0.00000000000E+00  0.00000000000E+00 -0.16934093021E+04  0.38184917351E+04  0.34224616969E+04 0.  0.
        4    1    3    3  502    0  0.89153578099E+03  0.97488154100E+03 -0.20602616884E+04  0.24474292442E+04  0.12699999809E+01 0. -1.
       -4    1    3    3    0  502 -0.89153578099E+03 -0.97488154100E+03  0.36685238631E+03  0.13710624909E+04  0.12699999809E+01 0.  1.
</event>
<event>
 5   0  0.2856440E-06  0.3341303E+04  0.7818609E-02  0.8152465E-01
        2   -1    0    0  501    0  0.00000000000E+00  0.00000000000E+00  0.13465745572E+04  0.13465745572E+04  0.25500000920E-02 0.  1.
       -2   -1    0    0    0  501  0.00000000000E+00  0.00000000000E+00 -0.20727238210E+04  0.20727238210E+04  0.25500000920E-02 0. -1.
    10030    2    1    2    0    0  0.00000000000E+00  0.00000000000E+00 -0.72614926386E+03  0.34192983782E+04  0.33413034351E+04 0.  0.
        4    1    3    3  502    0 -0.13331848954E+04 -0.63745729945E+03  0.43443816433E+03  0.15402830602E+04  0.12699999809E+01 0.  1.
       -4    1    3    3    0  502  0.13331848954E+04  0.63745729945E+03 -0.11605874282E+04  0.18790153180E+04  0.12699999809E+01 0. -1.
</event>
<event>
 5   0  0.2767014E-06  0.2549452E+04  0.7818609E-02  0.8385577E-01
        2   -1    0    0  501    0  0.00000000000E+00  0.00000000000E+00  0.15553465884E+04  0.15553465884E+04  0.25500000920E-02 0.  1.
       -2   -1    0    0    0  501  0.00000000000E+00  0.00000000000E+00 -0.10447360946E+04  0.10447360946E+04  0.25500000920E-02 0. -1.
    10030    2    1    2    0    0  0.00000000000E+00  0.00000000000E+00  0.51061049384E+03  0.26000826830E+04  0.25494522710E+04 0.  0.
        1    1    3    3  502    0  0.47803728549E+03  0.71365090700E+03  0.12158749344E+04  0.14886803281E+04  0.50400001928E-02 0.  1.
       -1    1    3    3    0  502 -0.47803728549E+03 -0.71365090700E+03 -0.70526444051E+03  0.11114023549E+04  0.50400001928E-02 0. -1.
</event>
<event>
 5   0  0.9232963E-07  0.3326471E+04  0.7818609E-02  0.8156192E-01
        1   -1    0    0  501    0  0.00000000000E+00  0.00000000000E+00  0.27652538554E+04  0.27652538554E+04  0.50400001928E-02 0. -1.
       -1   -1    0    0    0  501  0.00000000000E+00  0.00000000000E+00 -0.10003972801E+04  0.10003972801E+04  0.50400001928E-02 0.  1.
    10030    2    1    2    0    0  0.00000000000E+00  0.00000000000E+00  0.17648565754E+04  0.37656511355E+04  0.33264710645E+04 0.  0.
        3    1    3    3  502    0  0.41293258638E+03  0.13925874353E+03  0.26994782291E+04  0.27344266379E+04  0.10100000352E+00 0. -1.
       -3    1    3    3    0  502 -0.41293258638E+03 -0.13925874353E+03 -0.93462165374E+03  0.10312244976E+04  0.10100000352E+00 0.  1.
</event>
<event>
 5   0  0.2848685E-06  0.3549408E+04  0.7818609E-02  0.8102180E-01
        2   -1    0    0  501    0  0.00000000000E+00  0.00000000000E+00  0.16090827614E+04  0.16090827614E+04  0.25500000920E-02 0. -1.
       -2   -1    0    0    0  501  0.00000000000E+00  0.00000000000E+00 -0.19573723117E+04  0.19573723117E+04  0.25500000920E-02 0.  1.
    10030    2    1    2    0    0  0.00000000000E+00  0.00000000000E+00 -0.34828955033E+03  0.35664550731E+04  0.35494078630E+04 0.  0.
        3    1    3    3  502    0  0.58910945919E+02  0.87131128989E+03  0.13782415119E+04  0.16316260413E+04  0.10100000352E+00 0. -1.
       -3    1    3    3    0  502 -0.58910945919E+02 -0.87131128989E+03 -0.17265310622E+04  0.19348290318E+04  0.10100000352E+00 0.  1.
</event>
<event>
 5   0  0.9714317E-07  0.2298081E+04  0.7818609E-02  0.8478678E-01
       -1   -1    0    0    0  501  0.00000000000E+00  0.00000000000E+00  0.59672012218E+03  0.59672012220E+03  0.50400001928E-02 0.  1.
        1   -1    0    0  501    0  0.00000000000E+00  0.00000000000E+00 -0.22125844605E+04  0.22125844605E+04  0.50400001928E-02 0. -1.
    10030    2    1    2    0    0  0.00000000000E+00  0.00000000000E+00 -0.16158643384E+04  0.28093045827E+04  0.22980806510E+04 0.  0.
        4    1    3    3  502    0 -0.53653822858E+03  0.32877445183E+03 -0.19832252527E+04  0.20806609351E+04  0.12699999809E+01 0. -1.
       -4    1    3    3    0  502  0.53653822858E+03 -0.32877445183E+03  0.36736091439E+03  0.72864364762E+03  0.12699999809E+01 0.  1.
</event>
<event>
 5   0  0.2664083E-06  0.3408381E+04  0.7818609E-02  0.8135852E-01
        2   -1    0    0  501    0  0.00000000000E+00  0.00000000000E+00  0.24996290997E+04  0.24996290997E+04  0.25500000920E-02 0. -1.
       -2   -1    0    0    0  501  0.00000000000E+00  0.00000000000E+00 -0.11618785212E+04  0.11618785212E+04  0.25500000920E-02 0.  1.
    10030    2    1    2    0    0  0.00000000000E+00  0.00000000000E+00  0.13377505785E+04  0.36615076209E+04  0.34083810596E+04 0.  0.
        2    1    3    3  502    0  0.29044292038E+02  0.70052849576E+03  0.23375120490E+04  0.24403988042E+04  0.25500000920E-02 0. -1.
       -2    1    3    3    0  502 -0.29044292038E+02 -0.70052849576E+03 -0.99976147051E+03  0.12211088167E+04  0.25500000920E-02 0.  1.
</event>
<event>
 5   0  0.9714317E-07  0.3425337E+04  0.7818609E-02  0.8131716E-01
       -1   -1    0    0    0  501  0.00000000000E+00  0.00000000000E+00  0.10125726909E+04  0.10125726909E+04  0.50400001928E-02 0. -1.
        1   -1    0    0  501    0  0.00000000000E+00  0.00000000000E+00 -0.28968129374E+04  0.28968129374E+04  0.50400001928E-02 0.  1.
    10030    2    1    2    0    0  0.00000000000E+00  0.00000000000E+00 -0.18842402465E+04  0.39093856283E+04  0.34253371636E+04 0.  0.
        4    1    3    3  502    0 -0.12655283984E+04 -0.10827323181E+04 -0.13977327413E+04  0.21742883500E+04  0.12699999809E+01 0.  1.
       -4    1    3    3    0  502  0.12655283984E+04  0.10827323181E+04 -0.48650750515E+03  0.17350972783E+04  0.12699999809E+01 0. -1.
</event>
<event>
 5   0  0.9714317E-07  0.3410604E+04  0.7818609E-02  0.8135309E-01
        1   -1    0    0  501    0  0.00000000000E+00  0.00000000000E+00  0.17296017737E+04  0.17296017737E+04  0.50400001928E-02 0.  1.
       -1   -1    0    0    0  501  0.00000000000E+00  0.00000000000E+00 -0.16813437397E+04  0.16813437397E+04  0.50400001928E-02 0. -1.
    10030    2    1    2    0    0  0.00000000000E+00  0.00000000000E+00  0.48258033946E+02  0.34109455134E+04  0.34106041192E+04 0.  0.
        4    1    3    3  502    0  0.29354982386E+03  0.15595262641E+04  0.64849899236E+03  0.17143063389E+04  0.12699999809E+01 0.  1.
       -4    1    3    3    0  502 -0.29354982386E+03 -0.15595262641E+04 -0.60024095842E+03  0.16966391746E+04  0.12699999809E+01 0. -1.
</event>
<event>
 5   0  0.1010551E-06  0.3449927E+04  0.7818609E-02  0.8125760E-01
        1   -1    0    0  501    0  0.00000000000E+00  0.00000000000E+00  0.22267219002E+04  0.22267219002E+04  0.50400001928E-02 0. -1.
       -1   -1    0    0    0  501  0.00000000000E+00  0.00000000000E+00 -0.13362688731E+04  0.13362688731E+04  0.50400001928E-02 0.  1.
    10030    2    1    2    0    0  0.00000000000E+00  0.00000000000E+00  0.89045302711E+03  0.35629907734E+04  0.34499270511E+04 0.  0.
        2    1    3    3  502    0  0.11189492746E+04 -0.12374034726E+04  0.89809983127E+03  0.18946762626E+04  0.25500000920E-02 0. -1.
       -2    1    3    3    0  502 -0.11189492746E+04  0.12374034726E+04 -0.76468041645E+01  0.16683145108E+04  0.25500000920E-02 0.  1.
</event>
<event>
 5   0  0.2664083E-06  0.2555976E+04  0.7818609E-02  0.8383311E-01
        2   -1    0    0  501    0  0.00000000000E+00  0.00000000000E+00  0.17125584389E+04  0.17125584389E+04  0.25500000920E-02 0.  1.
       -2   -1    0    0    0  501  0.00000000000E+00  0.00000000000E+00 -0.95369207311E+03  0.95369207311E+03  0.25500000920E-02 0. -1.
    10030    2    1    2    0    0  0.00000000000E+00  0.00000000000E+00  0.75886636582E+03  0.26662505120E+04  0.25559760624E+04 0.  0.
        2    1    3    3  502    0  0.40311437648E+03  0.12000876940E+04  0.56173500773E+03  0.13850118746E+04  0.25500000920E-02 0.  1.
       -2    1    3    3    0  502 -0.40311437648E+03 -0.12000876940E+04  0.19713135809E+03  0.12812386375E+04  0.25500000920E-02 0. -1.
</event>
<event>
 5   0  0.2767014E-06  0.3415134E+04  0.7818609E-02  0.8134202E-01
       -2   -1    0    0    0  501  0.00000000000E+00  0.00000000000E+00  0.16971097756E+04  0.16971097756E+04  0.25500000920E-02 0.  1.
        2   -1    0    0  501    0  0.00000000000E+00  0.00000000000E+00 -0.17180884743E+04  0.17180884743E+04  0.25500000920E-02 0. -1.
    10030    2    1    2    0    0  0.00000000000E+00  0.00000000000E+00 -0.20978698689E+02  0.34151982499E+04  0.34151338159E+04 0.  0.
        1    1    3    3  502    0  0.91693252250E+03  0.54741706269E+03 -0.13429386153E+04  0.17157840237E+04  0.50400001928E-02 0. -1.
       -1    1    3    3    0  502 -0.91693252250E+03 -0.54741706269E+03  0.13219599166E+04  0.16994142263E+04  0.50400001928E-02 0.  1.
</event>
<event>
 5   0  0.9070500E-07  0.2863449E+04  0.7818609E-02  0.8283836E-01
       -4   -1    0    0    0  501  0.00000000000E+00  0.00000000000E+00  0.14556722014E+04  0.14556727554E+04  0.12699999809E+01 0. -1.
        4   -1    0    0  501    0  0.00000000000E+00  0.00000000000E+00 -0.14081697809E+04  0.14081703536E+04  0.12699999809E+01 0.  1.
    10030    2    1    2    0    0  0.00000000000E+00  0.00000000000E+00  0.47502420491E+02  0.28638431090E+04  0.28634491218E+04 0.  0.
        1    1    3    3  502    0 -0.13798534943E+04 -0.33339237565E+03 -0.16252445339E+03  0.14288318095E+04  0.50400001928E-02 0.  1.
       -1    1    3    3    0  502  0.13798534943E+04  0.33339237565E+03  0.21002687388E+03  0.14350112995E+04  0.50400001928E-02 0. -1.
</event>
<event>
 5   0  0.2767014E-06  0.3204213E+04  0.7818609E-02  0.8187705E-01
       -2   -1    0    0    0  501  0.00000000000E+00  0.00000000000E+00  0.13156474570E+04  0.13156474570E+04  0.25500000920E-02 0. -1.
        2   -1    0    0  501    0  0.00000000000E+00  0.00000000000E+00 -0.19509367003E+04  0.19509367003E+04  0.25500000920E-02 0.  1.
    10030    2    1    2    0    0  0.00000000000E+00  0.00000000000E+00 -0.63528924331E+03  0.32665841574E+04  0.32042127948E+04 0.  0.
        1    1    3    3  502    0 -0.37518279254E+01  0.88331285513E+03 -0.16802581695E+04  0.18982948118E+04  0.50400001928E-02 0.  1.
       -1    1    3    3    0  502  0.37518279254E+01 -0.88331285513E+03  0.10449689262E+04  0.13682893455E+04  0.50400001928E-02 0. -1.
</event>
<event>
 5   0  0.1010855E-06  0.3297781E+04  0.7818609E-02  0.8163460E-01
        1   -1    0    0  501    0  0.00000000000E+00  0.00000000000E+00  0.17689219828E+04  0.17689219828E+04  0.50400001928E-02 0.  1.
       -1   -1    0    0    0  501  0.00000000000E+00  0.00000000000E+00 -0.15370033809E+04  0.15370033810E+04  0.50400001928E-02 0. -1.
    10030    2    1    2    0    0  0.00000000000E+00  0.00000000000E+00  0.23191860185E+03  0.33059253638E+04  0.32977805071E+04 0.  0.
        1    1    3    3  502    0  0.96605620184E+03 -0.89863994028E+02  0.14524808759E+04  0.17467228794E+04  0.50400001928E-02 0.  1.
       -1    1    3    3    0  502 -0.96605620184E+03  0.89863994028E+02 -0.12205622740E+04  0.15592024844E+04  0.50400001928E-02 0. -1.
</event>
<event>
 5   0  0.2906701E-06  0.3391803E+04  0.7818609E-02  0.8139921E-01
       -2   -1    0    0    0  501  0.00000000000E+00  0.00000000000E+00  0.15558953721E+04  0.15558953721E+04  0.25500000920E-02 0. -1.
        2   -1    0    0  501    0  0.00000000000E+00  0.00000000000E+00 -0.18485055386E+04  0.18485055386E+04  0.25500000920E-02 0.  1.
    10030    2    1    2    0    0  0.00000000000E+00  0.00000000000E+00 -0.29261016651E+03  0.34044009107E+04  0.33918025961E+04 0.  0.
        5    1    3    3  502    0  0.12250261439E+04  0.57328664143E+03 -0.11731948696E+04  0.17904622081E+04  0.46999998093E+01 0.  1.
       -5    1    3    3    0  502 -0.12250261439E+04 -0.57328664143E+03  0.88058470305E+03  0.16139387026E+04  0.46999998093E+01 0. -1.
</event>
<event>
 5   0  0.2856440E-06  0.3415884E+04  0.7818609E-02  0.8134019E-01
       -2   -1    0    0    0  501  0.00000000000E+00  0.00000000000E+00  0.11878629777E+04  0.11878629777E+04  0.25500000920E-02 0. -1.
        2   -1    0    0  501    0  0.00000000000E+00  0.00000000000E+00 -0.24557254793E+04  0.24557254793E+04  0.25500000920E-02 0.  1.
    10030    2    1    2    0    0  0.00000000000E+00  0.00000000000E+00 -0.12678625016E+04  0.36435884570E+04  0.34158837101E+04 0.  0.
        4    1    3    3  502    0 -0.15806639559E+04 -0.19136522100E+03  0.25282738514E+02  0.15924069891E+04  0.12699999809E+01 0. -1.
       -4    1    3    3    0  502  0.15806639559E+04  0.19136522100E+03 -0.12931452401E+04  0.20511814679E+04  0.12699999809E+01 0.  1.
</event>
<event>
 5   0  0.2856440E-06  0.3442490E+04  0.7818609E-02  0.8127556E-01
        2   -1    0    0  501    0  0.00000000000E+00  0.00000000000E+00  0.27405306656E+04  0.27405306656E+04  0.25500000920E-02 0.  1.
       -2   -1    0    0    0  501  0.00000000000E+00  0.00000000000E+00 -0.10810623465E+04  0.10810623465E+04  0.25500000920E-02 0. -1.
    10030    2    1    2    0    0  0.00000000000E+00  0.00000000000E+00  0.16594683191E+04  0.38215930121E+04  0.34424900941E+04 0.  0.
        4    1    3    3  502    0 -0.48382524210E+03 -0.13677494572E+04  0.18579381860E+04  0.23572783795E+04  0.12699999809E+01 0.  1.
       -4    1    3    3    0  502  0.48382524210E+03  0.13677494572E+04 -0.19846986685E+03  0.14643146327E+04  0.12699999809E+01 0. -1.
</event>
<event>
 5   0  0.1010551E-06  0.3328180E+04  0.7818609E-02  0.8155762E-01
       -1   -1    0    0    0  501  0.00000000000E+00  0.00000000000E+00  0.14448892070E+04  0.14448892070E+04  0.50400001928E-02 0. -1.
        1   -1    0    0  501    0  0.00000000000E+00  0.00000000000E+00 -0.19165446963E+04  0.19165446963E+04  0.50400001928E-02 0.  1.
    10030    2    1    2    0    0  0.00000000000E+00  0.00000000000E+00 -0.47165548928E+03  0.33614339033E+04  0.33281795303E+04 0.  0.
        2    1    3    3  502    0 -0.13782553460E+04  0.66704288827E+03 -0.89399895779E+03  0.17730674409E+04  0.25500000920E-02 0.  1.
       -2    1    3    3    0  502  0.13782553460E+04 -0.66704288827E+03  0.42234346851E+03  0.15883664624E+04  0.25500000920E-02 0. -1.
</event>
<event>
 5   0  0.9232963E-07  0.3290036E+04  0.7818609E-02  0.8165435E-01
        1   -1    0    0  501    0  0.00000000000E+00  0.00000000000E+00  0.14087119502E+04  0.14087119502E+04  0.50400001928E-02 0. -1.
       -1   -1    0    0    0  501  0.00000000000E+00  0.00000000000E+00 -0.19209640420E+04  0.19209640420E+04  0.50400001928E-02 0.  1.
    10030    2    1    2    0    0  0.00000000000E+00  0.00000000000E+00 -0.51225209179E+03  0.33296759921E+04  0.32900364750E+04 0.  0.
        3    1    3    3  502    0  0.11232748205E+04  0.35141585234E+03  0.90700134602E+03  0.14858973301E+04  0.10100000352E+00 0. -1.
       -3    1    3    3    0  502 -0.11232748205E+04 -0.35141585234E+03 -0.14192534378E+04  0.18437786621E+04  0.10100000352E+00 0.  1.
</event>
<event>
 5   0  0.1003191E-06  0.2805453E+04  0.7818609E-02  0.8301577E-01
       -1   -1    0    0    0  501  0.00000000000E+00  0.00000000000E+00  0.10866955676E+04  0.10866955677E+04  0.50400001928E-02 0.  1.
        1   -1    0    0  501    0  0.00000000000E+00  0.00000000000E+00 -0.18106656276E+04  0.18106656276E+04  0.50400001928E-02 0. -1.
    10030    2    1    2    0    0  0.00000000000E+00  0.00000000000E+00 -0.72397005998E+03  0.28973611953E+04  0.28054534835E+04 0.  0.
        5    1    3    3  502    0  0.11985997439E+04  0.49204556227E+03 -0.91705894447E+03  0.15873781462E+04  0.46999998093E+01 0.  1.
       -5    1    3    3    0  502 -0.11985997439E+04 -0.49204556227E+03  0.19308888449E+03  0.13099830491E+04  0.46999998093E+01 0. -1.
</event>
<event>
 5   0  0.2856440E-06  0.3413901E+04  0.7818609E-02  0.8134503E-01
       -2   -1    0    0    0  501  0.00000000000E+00  0.00000000000E+00  0.20960294245E+04  0.20960294245E+04  0.25500000920E-02 0. -1.
        2   -1    0    0  501    0  0.00000000000E+00  0.00000000000E+00 -0.13900952879E+04  0.13900952879E+04  0.25500000920E-02 0.  1.
    10030    2    1    2    0    0  0.00000000000E+00  0.00000000000E+00  0.70593413666E+03  0.34861247124E+04  0.34139013613E+04 0.  0.
        4    1    3    3  502    0 -0.14039057308E+04 -0.48293827501E+03 -0.50716995359E+03  0.15688861187E+04  0.12699999809E+01 0.  1.
       -4    1    3    3    0  502  0.14039057308E+04  0.48293827501E+03  0.12131040902E+04  0.19172385937E+04  0.12699999809E+01 0. -1.
</event>
<event>
 5   0  0.2906701E-06  0.3330673E+04  0.7818609E-02  0.8155134E-01
        2   -1    0    0  501    0  0.00000000000E+00  0.00000000000E+00  0.14381121444E+04  0.14381121444E+04  0.25500000920E-02 0. -1.
       -2   -1    0    0    0  501  0.00000000000E+00  0.00000000000E+00 -0.19284621922E+04  0.19284621922E+04  0.25500000920E-02 0.  1.
    10030    2    1    2    0    0  0.00000000000E+00  0.00000000000E+00 -0.49035004780E+03  0.33665743367E+04  0.33306725439E+04 0.  0.
        5    1    3    3  502    0  0.11100233327E+04  0.16475302268E+03  0.99854648832E+03  0.15021359915E+04  0.46999998093E+01 0. -1.
       -5    1    3    3    0  502 -0.11100233327E+04 -0.16475302268E+03 -0.14888965361E+04  0.18644383452E+04  0.46999998093E+01 0.  1.
</event>
<event>
 5   0  0.2767014E-06  0.3406095E+04  0.7818609E-02  0.8136412E-01
       -2   -1    0    0    0  501  0.00000000000E+00  0.00000000000E+00  0.20832888668E+04  0.20832888668E+04  0.25500000920E-02 0.  1.
        2   -1    0    0  501    0  0.00000000000E+00  0.00000000000E+00 -0.13922079482E+04  0.13922079482E+04  0.25500000920E-02 0. -1.
    10030    2    1    2    0    0  0.00000000000E+00  0.00000000000E+00  0.69108091858E+03  0.34754968150E+04  0.34060953120E+04 0.  0.
        1    1    3    3  502    0  0.76100146125E+03  0.17758991239E+03  0.18895512490E+04  0.20447653468E+04  0.50400001928E-02 0.  1.
       -1    1    3    3    0  502 -0.76100146125E+03 -0.17758991239E+03 -0.11984703304E+04  0.14307314681E+04  0.50400001928E-02 0. -1.
</event>
<event>
 5   0  0.2767014E-06  0.3400142E+04  0.7818609E-02  0.8137872E-01
       -2   -1    0    0    0  501  0.00000000000E+00  0.00000000000E+00  0.18092356865E+04  0.18092356865E+04  0.25500000920E-02 0. -1.
        2   -1    0    0  501    0  0.00000000000E+00  0.00000000000E+00 -0.15974926675E+04  0.15974926675E+04  0.25500000920E-02 0.  1.
    10030    2    1    2    0    0  0.00000000000E+00  0.00000000000E+00  0.21174301895E+03  0.34067283540E+04  0.34001416106E+04 0.  0.
        1    1    3    3  502    0  0.86253600165E+03  0.20677511046E+03  0.15590315788E+04  0.17936844104E+04  0.50400001928E-02 0. -1.
       -1    1    3    3    0  502 -0.86253600165E+03 -0.20677511046E+03 -0.13472885599E+04  0.16130439436E+04  0.50400001928E-02 0.  1.
</event>
<event>
 5   0  0.9070500E-07  0.3461935E+04  0.7818609E-02  0.8122870E-01
        3   -1    0    0  501    0  0.00000000000E+00  0.00000000000E+00  0.29050833138E+04  0.29050833156E+04  0.10100000352E+00 0. -1.
       -3   -1    0    0    0  501  0.00000000000E+00  0.00000000000E+00 -0.10313814380E+04  0.10313814429E+04  0.10100000352E+00 0.  1.
    10030    2    1    2    0    0  0.00000000000E+00  0.00000000000E+00  0.18737018759E+04  0.39364647585E+04  0.34619353078E+04 0.  0.
        3    1    3    3  502    0 -0.56987716120E+03 -0.60070998857E+03 -0.79158480264E+03  0.11455212696E+04  0.10100000352E+00 0.  1.
       -3    1    3    3    0  502  0.56987716120E+03  0.60070998857E+03  0.26652866785E+04  0.27909434889E+04  0.10100000352E+00 0. -1.
</event>
<event>
 5   0  0.9070500E-07  0.3212752E+04  0.7818609E-02  0.8185457E-01
        3   -1    0    0  501    0  0.00000000000E+00  0.00000000000E+00  0.10408520998E+04  0.10408521047E+04  0.10100000352E+00 0. -1.
       -3   -1    0    0    0  501  0.00000000000E+00  0.00000000000E+00 -0.24791652793E+04  0.24791652814E+04  0.10100000352E+00 0.  1.
    10030    2    1    2    0    0  0.00000000000E+00  0.00000000000E+00 -0.14383131795E+04  0.35200173861E+04  0.32127523397E+04 0.  0.
        3    1    3    3  502    0 -0.13034626556E+03 -0.13891920857E+04 -0.15912740943E+04  0.21163643479E+04  0.10100000352E+00 0.  1.
       -3    1    3    3    0  502  0.13034626556E+03  0.13891920857E+04  0.15296091479E+03  0.14036530382E+04  0.10100000352E+00 0. -1.
</event>
<event>
 5   0  0.2856440E-06  0.2543819E+04  0.7818609E-02  0.8387539E-01
        2   -1    0    0  501    0  0.00000000000E+00  0.00000000000E+00  0.22177400367E+04  0.22177400367E+04  0.25500000920E-02 0. -1.
       -2   -1    0    0    0  501  0.00000000000E+00  0.00000000000E+00 -0.72946026272E+03  0.72946026272E+03  0.25500000920E-02 0.  1.
    10030    2    1    2    0    0  0.00000000000E+00  0.00000000000E+00  0.14882797740E+04  0.29472002994E+04  0.25438185704E+04 0.  0.
        4    1    3    3  502    0  0.93688418741E+03  0.81249641511E+03  0.41675484284E+03  0.13082769650E+04  0.12699999809E+01 0.  1.
       -4    1    3    3    0  502 -0.93688418741E+03 -0.81249641511E+03  0.10715249311E+04  0.16389233344E+04  0.12699999809E+01 0. -1.
</event>
<event>
 5   0  0.9714317E-07  0.3420054E+04  0.7818609E-02  0.8133002E-01
        1   -1    0    0  501    0  0.00000000000E+00  0.00000000000E+00  0.10919610135E+04  0.10919610135E+04  0.50400001928E-02 0. -1.
       -1   -1    0    0    0  501  0.00000000000E+00  0.00000000000E+00 -0.26779269297E+04  0.26779269297E+04  0.50400001928E-02 0.  1.
    10030    2    1    2    0    0  0.00000000000E+00  0.00000000000E+00 -0.15859659162E+04  0.37698879431E+04  0.34200536862E+04 0.  0.
        4    1    3    3  502    0  0.15395735026E+04  0.11728521913E+03 -0.16031075640E+04  0.22257578186E+04  0.12699999809E+01 0.  1.
       -4    1    3    3    0  502 -0.15395735026E+04 -0.11728521913E+03  0.17141647763E+02  0.15441301245E+04  0.12699999809E+01 0. -1.
</event>
<event>
 5   0  0.2856440E-06  0.3387399E+04  0.7818609E-02  0.8141006E-01
       -2   -1    0    0    0  501  0.00000000000E+00  0.00000000000E+00  0.23749605121E+04  0.23749605121E+04  0.25500000920E-02 0.  1.
        2   -1    0    0  501    0  0.00000000000E+00  0.00000000000E+00 -0.12078591022E+04  0.12078591022E+04  0.25500000920E-02 0. -1.
    10030    2    1    2    0    0  0.00000000000E+00  0.00000000000E+00  0.11671014100E+04  0.35828196143E+04  0.33873988084E+04 0.  0.
        4    1    3    3  502    0 -0.80248156287E+03  0.85202242526E+03  0.18783890702E+04  0.22132026531E+04  0.12699999809E+01 0.  1.
       -4    1    3    3    0  502  0.80248156287E+03 -0.85202242526E+03 -0.71128766020E+03  0.13696169612E+04  0.12699999809E+01 0. -1.
</event>
<event>
 5   0  0.9232963E-07  0.3446993E+04  0.7818609E-02  0.8126468E-01
        1   -1    0    0  501    0  0.00000000000E+00  0.00000000000E+00  0.20369285437E+04  0.20369285437E+04  0.50400001928E-02 0. -1.
       -1   -1    0    0    0  501  0.00000000000E+00  0.00000000000E+00 -0.14582938156E+04  0.14582938156E+04  0.50400001928E-02 0.  1.
    10030    2    1    2    0    0  0.00000000000E+00  0.00000000000E+00  0.57863472809E+03  0.34952223593E+04  0.34469930653E+04 0.  0.
        3    1    3    3  502    0 -0.14534506963E+04 -0.16026883036E+03 -0.63571612771E+03  0.15944717087E+04  0.10100000352E+00 0.  1.
       -3    1    3    3    0  502  0.14534506963E+04  0.16026883036E+03  0.12143508558E+04  0.19007506506E+04  0.10100000352E+00 0. -1.
</event>
<event>
 5   0  0.9714317E-07  0.2966066E+04  0.7818609E-02  0.8253488E-01
       -1   -1    0    0    0  501  0.00000000000E+00  0.00000000000E+00  0.12328824755E+04  0.12328824755E+04  0.50400001928E-02 0. -1.
        1   -1    0    0  501    0  0.00000000000E+00  0.00000000000E+00 -0.17839387310E+04  0.17839387310E+04  0.50400001928E-02 0.  1.
    10030    2    1    2    0    0  0.00000000000E+00  0.00000000000E+00 -0.55105625550E+03  0.30168212065E+04  0.29660659459E+04 0.  0.
        4    1    3    3  502    0 -0.49555106276E+03  0.10192474437E+04 -0.12484258978E+04  0.16861213012E+04  0.12699999809E+01 0.  1.
       -4    1    3    3    0  502  0.49555106276E+03 -0.10192474437E+04  0.69736964227E+03  0.13306999053E+04  0.12699999809E+01 0. -1.
</event>
<event>
 5   0  0.1010551E-06  0.2526120E+04  0.7818609E-02  0.8393739E-01
        1   -1    0    0  501    0  0.00000000000E+00  0.00000000000E+00  0.16205172232E+04  0.16205172232E+04  0.50400001928E-02 0.  1.
       -1   -1    0    0    0  501  0.00000000000E+00  0.00000000000E+00 -0.98445139242E+03  0.98445139243E+03  0.50400001928E-02 0. -1.
    10030    2    1    2    0    0  0.00000000000E+00  0.00000000000E+00  0.63606583078E+03  0.26049686156E+04  0.25261198996E+04 0.  0.
        2    1    3    3  502    0 -0.14180871544E+03 -0.12515583844E+04  0.41483708067E+03  0.13261213764E+04  0.25500000920E-02 0.  1.
       -2    1    3    3    0  502  0.14180871544E+03  0.12515583844E+04  0.22122875011E+03  0.12788472392E+04  0.25500000920E-02 0. -1.
</event>
<event>
 5   0  0.2767014E-06  0.3348716E+04  0.7818609E-02  0.8150609E-01
        2   -1    0    0  501    0  0.00000000000E+00  0.00000000000E+00  0.14257151356E+04  0.14257151356E+04  0.25500000920E-02 0.  1.
       -2   -1    0    0    0  501  0.00000000000E+00  0.00000000000E+00 -0.19663639480E+04  0.19663639480E+04  0.25500000920E-02 0. -1.
    10030    2    1    2    0    0  0.00000000000E+00  0.00000000000E+00 -0.54064881246E+03  0.33920790836E+04  0.33487160780E+04 0.  0.
        1    1    3    3  502    0 -0.38459642020E+03  0.15419387032E+04  0.26374621855E+03  0.16109163351E+04  0.50400001928E-02 0. -1.
       -1    1    3    3    0  502  0.38459642020E+03 -0.15419387032E+04 -0.80439503101E+03  0.17811627485E+04  0.50400001928E-02 0.  1.
</event>
<event>
 5   0  0.9232963E-07  0.3376931E+04  0.7818609E-02  0.8143591E-01
        1   -1    0    0  501    0  0.00000000000E+00  0.00000000000E+00  0.31251012622E+04  0.31251012622E+04  0.50400001928E-02 0.  1.
       -1   -1    0    0    0  501  0.00000000000E+00  0.00000000000E+00 -0.91226359752E+03  0.91226359754E+03  0.50400001928E-02 0. -1.
    10030    2    1    2    0    0  0.00000000000E+00  0.00000000000E+00  0.22128376647E+04  0.40373648598E+04  0.33769312224E+04 0.  0.
        3    1    3    3  502    0  0.26527681828E+03 -0.15954177919E+04  0.16862237240E+04  0.23364674573E+04  0.10100000352E+00 0.  1.
       -3    1    3    3    0  502 -0.26527681828E+03  0.15954177919E+04  0.52661394067E+03  0.17008974025E+04  0.10100000352E+00 0. -1.
</event>
<event>
 5   0  0.2767014E-06  0.3595078E+04  0.7818609E-02  0.8091620E-01
       -2   -1    0    0    0  501  0.00000000000E+00  0.00000000000E+00  0.11818462335E+04  0.11818462335E+04  0.25500000920E-02 0.  1.
        2   -1    0    0  501    0  0.00000000000E+00  0.00000000000E+00 -0.27339825426E+04  0.27339825426E+04  0.25500000920E-02 0. -1.
    10030    2    1    2    0    0  0.00000000000E+00  0.00000000000E+00 -0.15521363091E+04  0.39158287762E+04  0.35950782860E+04 0.  0.
        1    1    3    3  502    0 -0.22196907626E+03  0.48344326357E+03 -0.26462800524E+04  0.26992194753E+04  0.50400001928E-02 0. -1.
       -1    1    3    3    0  502  0.22196907626E+03 -0.48344326357E+03  0.10941437433E+04  0.12166093009E+04  0.50400001928E-02 0.  1.
</event>
<event>
 5   0  0.2664083E-06  0.3598065E+04  0.7818609E-02  0.8090935E-01
       -2   -1    0    0    0  501  0.00000000000E+00  0.00000000000E+00  0.16035943502E+04  0.16035943503E+04  0.25500000920E-02 0. -1.
        2   -1    0    0  501    0  0.00000000000E+00  0.00000000000E+00 -0.20182898589E+04  0.20182898589E+04  0.25500000920E-02 0.  1.
    10030    2    1    2    0    0  0.00000000000E+00  0.00000000000E+00 -0.41469550869E+03  0.36218842092E+04  0.35980651550E+04 0.  0.
        2    1    3    3  502    0  0.16152825488E+03  0.16896846759E+04 -0.80744231239E+03  0.18796512360E+04  0.25500000920E-02 0.  1.
       -2    1    3    3    0  502 -0.16152825488E+03 -0.16896846759E+04  0.39274680369E+03  0.17422329732E+04  0.25500000920E-02 0. -1.
</event>
<event>
 5   0  0.2856440E-06  0.3510537E+04  0.7818609E-02  0.8111297E-01
       -2   -1    0    0    0  501  0.00000000000E+00  0.00000000000E+00  0.13732508313E+04  0.13732508313E+04  0.25500000920E-02 0.  1.
        2   -1    0    0  501    0  0.00000000000E+00  0.00000000000E+00 -0.22435574366E+04  0.22435574366E+04  0.25500000920E-02 0. -1.
    10030    2    1    2    0    0  0.00000000000E+00  0.00000000000E+00 -0.87030660525E+03  0.36168082679E+04  0.35105367765E+04 0.  0.
        4    1    3    3  502    0  0.30076999497E+03  0.70220870820E+03  0.11930045996E+04  0.14166231846E+04  0.12699999809E+01 0.  1.
       -4    1    3    3    0  502 -0.30076999497E+03 -0.70220870820E+03 -0.20633112048E+04  0.22001850832E+04  0.12699999809E+01 0. -1.
</event>
<event>
 5   0  0.9714317E-07  0.3443511E+04  0.7818609E-02  0.8127309E-01
        1   -1    0    0  501    0  0.00000000000E+00  0.00000000000E+00  0.18009411225E+04  0.18009411225E+04  0.50400001928E-02 0. -1.
       -1   -1    0    0    0  501  0.00000000000E+00  0.00000000000E+00 -0.16460514458E+04  0.16460514458E+04  0.50400001928E-02 0.  1.
    10030    2    1    2    0    0  0.00000000000E+00  0.00000000000E+00  0.15488967662E+03  0.34469925683E+04  0.34435108471E+04 0.  0.
        4    1    3    3  502    0 -0.33869204248E+02  0.88263318331E+03 -0.14019708832E+04  0.16570191398E+04  0.12699999809E+01 0.  1.
       -4    1    3    3    0  502  0.33869204248E+02 -0.88263318331E+03  0.15568605598E+04  0.17899734285E+04  0.12699999809E+01 0. -1.
</event>
<event>
 5   0  0.1010855E-06  0.3476561E+04  0.7818609E-02  0.8119367E-01
        1   -1    0    0  501    0  0.00000000000E+00  0.00000000000E+00  0.19601477443E+04  0.19601477443E+04  0.50400001928E-02 0. -1.
       -1   -1    0    0    0  501  0.00000000000E+00  0.00000000000E+00 -0.15415260542E+04  0.15415260542E+04  0.50400001928E-02 0.  1.
    10030    2    1    2    0    0  0.00000000000E+00  0.00000000000E+00  0.41862169009E+03  0.35016737986E+04  0.34765608397E+04 0.  0.
        1    1    3    3  502    0  0.83943611044E+03  0.34980729710E+03 -0.12828086626E+04  0.15724554663E+04  0.50400001928E-02 0.  1.
       -1    1    3    3    0  502 -0.83943611044E+03 -0.34980729710E+03  0.17014303527E+04  0.19292183323E+04  0.50400001928E-02 0. -1.
</event>
<event>
 5   0  0.2856440E-06  0.3179377E+04  0.7818609E-02  0.8194285E-01
        2   -1    0    0  501    0  0.00000000000E+00  0.00000000000E+00  0.25796961599E+04  0.25796961599E+04  0.25500000920E-02 0. -1.
       -2   -1    0    0    0  501  0.00000000000E+00  0.00000000000E+00 -0.97961523049E+03  0.97961523049E+03  0.25500000920E-02 0.  1.
    10030    2    1    2    0    0  0.00000000000E+00  0.00000000000E+00  0.16000809294E+04  0.35593113903E+04  0.31793770762E+04 0.  0.
        4    1    3    3  502    0 -0.31943927502E+03  0.14669129586E+04  0.21485910102E+03  0.15165886472E+04  0.12699999809E+01 0.  1.
       -4    1    3    3    0  502  0.31943927502E+03 -0.14669129586E+04  0.13852218283E+04  0.20427227431E+04  0.12699999809E+01 0. -1.
</event>
<event>
 5   0  0.2906701E-06  0.3326730E+04  0.7818609E-02  0.8156127E-01
       -2   -1    0    0    0  501  0.00000000000E+00  0.00000000000E+00  0.33743552034E+04  0.33743552034E+04  0.25500000920E-02 0.  1.
        2   -1    0    0  501    0  0.00000000000E+00  0.00000000000E+00 -0.81994438763E+03  0.81994438763E+03  0.25500000920E-02 0. -1.
    10030    2    1    2    0    0  0.00000000000E+00  0.00000000000E+00  0.25544108157E+04  0.41942995910E+04  0.33267302932E+04 0.  0.
        5    1    3    3  502    0  0.10732726560E+04  0.79469630066E+03  0.26986667150E+02  0.13357420315E+04  0.46999998093E+01 0. -1.
       -5    1    3    3    0  502 -0.10732726560E+04 -0.79469630066E+03  0.25274241486E+04  0.28585575596E+04  0.46999998093E+01 0.  1.
</event>
<event>
 5   0  0.1010551E-06  0.3344098E+04  0.7818609E-02  0.8151764E-01
        1   -1    0    0  501    0  0.00000000000E+00  0.00000000000E+00  0.25897321921E+04  0.25897321921E+04  0.50400001928E-02 0.  1.
       -1   -1    0    0    0  501  0.00000000000E+00  0.00000000000E+00 -0.10795510952E+04  0.10795510952E+04  0.50400001928E-02 0. -1.
    10030    2    1    2    0    0  0.00000000000E+00  0.00000000000E+00  0.15101810969E+04  0.36692832873E+04  0.33440982188E+04 0.  0.
        2    1    3    3  502    0  0.18284764178E+03 -0.59711536187E+03  0.24569712320E+04  0.25350912509E+04  0.25500000920E-02 0.  1.
       -2    1    3    3    0  502 -0.18284764178E+03  0.59711536187E+03 -0.94679013507E+03  0.11341920364E+04  0.25500000920E-02 0. -1.
</event>
<event>
 5   0  0.9232963E-07  0.3259655E+04  0.7818609E-02  0.8173238E-01
       -1   -1    0    0    0  501  0.00000000000E+00  0.00000000000E+00  0.18387705843E+04  0.18387705844E+04  0.50400001928E-02 0.  1.
        1   -1    0    0  501    0  0.00000000000E+00  0.00000000000E+00 -0.14446269994E+04  0.14446269994E+04  0.50400001928E-02 0. -1.
    10030    2    1    2    0    0  0.00000000000E+00  0.00000000000E+00  0.39414358495E+03  0.32833975838E+04  0.32596549706E+04 0.  0.
        3    1    3    3  502    0 -0.78463191425E+03  0.38141421818E+03 -0.11896231142E+04  0.14752380183E+04  0.10100000352E+00 0. -1.
       -3    1    3    3    0  502  0.78463191425E+03 -0.38141421818E+03  0.15837666991E+04  0.18081595655E+04  0.10100000352E+00 0.  1.
</event>
<event>
 5   0  0.2664083E-06  0.3379322E+04  0.7818609E-02  0.8143000E-01
        2   -1    0    0  501    0  0.00000000000E+00  0.00000000000E+00  0.22739846032E+04  0.22739846032E+04  0.25500000920E-02 0. -1.
       -2   -1    0    0    0  501  0.00000000000E+00  0.00000000000E+00 -0.12554852746E+04  0.12554852746E+04  0.25500000920E-02 0.  1.
    10030    2    1    2    0    0  0.00000000000E+00  0.00000000000E+00  0.10184993287E+04  0.35294698778E+04  0.33793219343E+04 0.  0.
        2    1    3    3  502    0 -0.85214239944E+02  0.14070539093E+04  0.14822494812E+04  0.20455135528E+04  0.25500000920E-02 0. -1.
       -2    1    3    3    0  502  0.85214239944E+02 -0.14070539093E+04 -0.46375015258E+03  0.14839563249E+04  0.25500000920E-02 0.  1.
</event>
<event>
 5   0  0.2856440E-06  0.3387736E+04  0.7818609E-02  0.8140923E-01
       -2   -1    0    0    0  501  0.00000000000E+00  0.00000000000E+00  0.11716912483E+04  0.11716912483E+04  0.25500000920E-02 0. -1.
        2   -1    0    0  501    0  0.00000000000E+00  0.00000000000E+00 -0.24487578670E+04  0.24487578670E+04  0.25500000920E-02 0.  1.
    10030    2    1    2    0    0  0.00000000000E+00  0.00000000000E+00 -0.12770666187E+04  0.36204491153E+04  0.33877356225E+04 0.  0.
        4    1    3    3  502    0  0.13681910343E+04 -0.99720563052E+03 -0.69529260667E+03  0.18302456660E+04  0.12699999809E+01 0.  1.
       -4    1    3    3    0  502 -0.13681910343E+04  0.99720563052E+03 -0.58177401202E+03  0.17902034493E+04  0.12699999809E+01 0. -1.
</event>
<event>
 5   0  0.1010855E-06  0.2803366E+04  0.7818609E-02  0.8302224E-01
       -1   -1    0    0    0  501  0.00000000000E+00  0.00000000000E+00  0.87210019070E+03  0.87210019072E+03  0.50400001928E-02 0. -1.
        1   -1    0    0  501    0  0.00000000000E+00  0.00000000000E+00 -0.22528554190E+04  0.22528554190E+04  0.50400001928E-02 0.  1.
    10030    2    1    2    0    0  0.00000000000E+00  0.00000000000E+00 -0.13807552283E+04  0.31249556097E+04  0.28033662911E+04 0.  0.
        1    1    3    3  502    0 -0.55471550551E+03  0.11733686344E+04 -0.10030198557E+03  0.13017540984E+04  0.50400001928E-02 0. -1.
       -1    1    3    3    0  502  0.55471550551E+03 -0.11733686344E+04 -0.12804532427E+04  0.18232015114E+04  0.50400001928E-02 0.  1.
</event>
<event>
 5   0  0.1010855E-06  0.3471480E+04  0.7818609E-02  0.8120582E-01
        1   -1    0    0  501    0  0.00000000000E+00  0.00000000000E+00  0.20474458059E+04  0.20474458059E+04  0.50400001928E-02 0. -1.
       -1   -1    0    0    0  501  0.00000000000E+00  0.00000000000E+00 -0.14714888435E+04  0.14714888435E+04  0.50400001928E-02 0.  1.
    10030    2    1    2    0    0  0.00000000000E+00  0.00000000000E+00  0.57595696244E+03  0.35189346494E+04  0.34714801806E+04 0.  0.
        1    1    3    3  502    0  0.51855554162E+03 -0.13892137837E+04 -0.62656230404E+03  0.16097810744E+04  0.50400001928E-02 0.  1.
       -1    1    3    3    0  502 -0.51855554162E+03  0.13892137837E+04  0.12025192665E+04  0.19091535750E+04  0.50400001928E-02 0. -1.
</event>
<event>
 5   0  0.2848685E-06  0.3300528E+04  0.7818609E-02  0.8162761E-01
        2   -1    0    0  501    0  0.00000000000E+00  0.00000000000E+00  0.10485420644E+04  0.10485420645E+04  0.25500000920E-02 0.  1.
       -2   -1    0    0    0  501  0.00000000000E+00  0.00000000000E+00 -0.25972937772E+04  0.25972937772E+04  0.25500000920E-02 0. -1.
    10030    2    1    2    0    0  0.00000000000E+00  0.00000000000E+00 -0.15487517127E+04  0.36458358416E+04  0.33005283087E+04 0.  0.
        3    1    3    3  502    0  0.14437433225E+04 -0.41491286102E+03 -0.15291037095E+04  0.21435264468E+04  0.10100000352E+00 0. -1.
       -3    1    3    3    0  502 -0.14437433225E+04  0.41491286102E+03 -0.19648003247E+02  0.15023093948E+04  0.10100000352E+00 0.  1.
</event>
<event>
 5   0  0.9714317E-07  0.3386070E+04  0.7818609E-02  0.8141334E-01
        1   -1    0    0  501    0  0.00000000000E+00  0.00000000000E+00  0.28125566588E+04  0.28125566588E+04  0.50400001928E-02 0. -1.
       -1   -1    0    0    0  501  0.00000000000E+00  0.00000000000E+00 -0.10191322905E+04  0.10191322906E+04  0.50400001928E-02 0.  1.
    10030    2    1    2    0    0  0.00000000000E+00  0.00000000000E+00  0.17934243683E+04  0.38316889494E+04  0.33860698811E+04 0.  0.
        4    1    3    3  502    0  0.12872255317E+04 -0.21787716987E+03  0.21165082827E+04  0.24867707885E+04  0.12699999809E+01 0. -1.
       -4    1    3    3    0  502 -0.12872255317E+04  0.21787716987E+03 -0.32308391447E+03  0.13449181609E+04  0.12699999809E+01 0.  1.
</event>
<event>
 5   0  0.9232963E-07  0.2875801E+04  0.7818609E-02  0.8280114E-01
       -1   -1    0    0    0  501  0.00000000000E+00  0.00000000000E+00  0.15905710128E+04  0.15905710128E+04  0.50400001928E-02 0.  1.
        1   -1    0    0  501    0  0.00000000000E+00  0.00000000000E+00 -0.12998836528E+04  0.12998836528E+04  0.50400001928E-02 0. -1.
    10030    2    1    2    0    0  0.00000000000E+00  0.00000000000E+00  0.29068735995E+03  0.28904546656E+04  0.28758005899E+04 0.  0.
        3    1    3    3  502    0 -0.15487140706E+03  0.13604846437E+04 -0.29581618113E+03  0.14008607503E+04  0.10100000352E+00 0. -1.
       -3    1    3    3    0  502  0.15487140706E+03 -0.13604846437E+04  0.58650354109E+03  0.14895939153E+04  0.10100000352E+00 0.  1.
</event>
<event>
 5   0  0.1010855E-06  0.3195221E+04  0.7818609E-02  0.8190081E-01
       -1   -1    0    0    0  501  0.00000000000E+00  0.00000000000E+00  0.12970509975E+04  0.12970509976E+04  0.50400001928E-02 0.  1.
        1   -1    0    0  501    0  0.00000000000E+00  0.00000000000E+00 -0.19678167568E+04  0.19678167568E+04  0.50400001928E-02 0. -1.
    10030    2    1    2    0    0  0.00000000000E+00  0.00000000000E+00 -0.67076575926E+03  0.32648677544E+04  0.31952206105E+04 0.  0.
        1    1    3    3  502    0 -0.98346459172E+03  0.47536951418E+03 -0.15266337168E+04  0.18771758797E+04  0.50400001928E-02 0. -1.
       -1    1    3    3    0  502  0.98346459172E+03 -0.47536951418E+03  0.85586795753E+03  0.13876918746E+04  0.50400001928E-02 0.  1.
</event>
<event>
 5   0  0.9232963E-07  0.3313886E+04  0.7818609E-02  0.8159371E-01
        1   -1    0    0  501    0  0.00000000000E+00  0.00000000000E+00  0.20366881561E+04  0.20366881561E+04  0.50400001928E-02 0.  1.
       -1   -1    0    0    0  501  0.00000000000E+00  0.00000000000E+00 -0.13480023753E+04  0.13480023753E+04  0.50400001928E-02 0. -1.
    10030    2    1    2    0    0  0.00000000000E+00  0.00000000000E+00  0.68868578083E+03  0.33846905314E+04  0.33138862214E+04 0.  0.
        3    1    3    3  502    0  0.12870399958E+04 -0.61538736150E+03 -0.51644921956E+03  0.15171991834E+04  0.10100000352E+00 0. -1.
       -3    1    3    3    0  502 -0.12870399958E+04  0.61538736150E+03  0.12051350004E+04  0.18674913480E+04  0.10100000352E+00 0.  1.
</event>
<event>
 5   0  0.2906701E-06  0.3381654E+04  0.7818609E-02  0.8142424E-01
        2   -1    0    0  501    0  0.00000000000E+00  0.00000000000E+00  0.99964310107E+03  0.99964310108E+03  0.25500000920E-02 0. -1.
       -2   -1    0    0    0  501  0.00000000000E+00  0.00000000000E+00 -0.28599163316E+04  0.28599163316E+04  0.25500000920E-02 0.  1.
    10030    2    1    2    0    0  0.00000000000E+00  0.00000000000E+00 -0.18602732305E+04  0.38595594327E+04  0.33816538146E+04 0.  0.
        5    1    3    3  502    0  0.15113703173E+04  0.57654584720E+03 -0.14918579633E+04  0.22005243972E+04  0.46999998093E+01 0.  1.
       -5    1    3    3    0  502 -0.15113703173E+04 -0.57654584720E+03 -0.36841526716E+03  0.16590350355E+04  0.46999998093E+01 0. -1.
</event>
<event>
 5   0  0.9714317E-07  0.3490915E+04  0.7818609E-02  0.8115946E-01
        1   -1    0    0  501    0  0.00000000000E+00  0.00000000000E+00  0.22541764511E+04  0.22541764511E+04  0.50400001928E-02 0.  1.
       -1   -1    0    0    0  501  0.00000000000E+00  0.00000000000E+00 -0.13515453838E+04  0.13515453838E+04  0.50400001928E-02 0. -1.
    10030    2    1    2    0    0  0.00000000000E+00  0.00000000000E+00  0.90263106730E+03  0.36057218349E+04  0.34909149384E+04 0.  0.
        4    1    3    3  502    0 -0.13571307595E+04  0.35873598994E+03 -0.62016494766E+03  0.15346340229E+04  0.12699999809E+01 0. -1.
       -4    1    3    3    0  502  0.13571307595E+04 -0.35873598994E+03  0.15227960150E+04  0.20710878120E+04  0.12699999809E+01 0.  1.
</event>
<event>
 5   0  0.1010855E-06  0.3438676E+04  0.7818609E-02  0.8128479E-01
       -1   -1    0    0    0  501  0.00000000000E+00  0.00000000000E+00  0.15585792077E+04  0.15585792077E+04  0.50400001928E-02 0. -1.
        1   -1    0    0  501    0  0.00000000000E+00  0.00000000000E+00 -0.18966786072E+04  0.18966786072E+04  0.50400001928E-02 0.  1.
    10030    2    1    2    0    0  0.00000000000E+00  0.00000000000E+00 -0.33809939949E+03  0.34552578149E+04  0.34386763970E+04 0.  0.
        1    1    3    3  502    0 -0.38003155315E+03  0.14739337163E+04  0.63431746273E+03  0.16490188674E+04  0.50400001928E-02 0. -1.
       -1    1    3    3    0  502  0.38003155315E+03 -0.14739337163E+04 -0.97241686222E+03  0.18062389475E+04  0.50400001928E-02 0.  1.
</event>
<event>
 5   0  0.9232963E-07  0.3460238E+04  0.7818609E-02  0.8123278E-01
       -1   -1    0    0    0  501  0.00000000000E+00  0.00000000000E+00  0.15291939353E+04  0.15291939353E+04  0.50400001928E-02 0.  1.
        1   -1    0    0  501    0  0.00000000000E+00  0.00000000000E+00 -0.19574442892E+04  0.19574442892E+04  0.50400001928E-02 0. -1.
    10030    2    1    2    0    0  0.00000000000E+00  0.00000000000E+00 -0.42825035383E+03  0.34866382245E+04  0.34602381049E+04 0.  0.
        3    1    3    3  502    0 -0.15659756118E+03 -0.11847874550E+04 -0.14746966740E+04  0.18981502576E+04  0.10100000352E+00 0. -1.
       -3    1    3    3    0  502  0.15659756118E+03  0.11847874550E+04  0.10464463202E+04  0.15884879669E+04  0.10100000352E+00 0.  1.
</event>
<event>
 5   0  0.2906701E-06  0.3420480E+04  0.7818609E-02  0.8132898E-01
        2   -1    0    0  501    0  0.00000000000E+00  0.00000000000E+00  0.25772464455E+04  0.25772464455E+04  0.25500000920E-02 0.  1.
       -2   -1    0    0    0  501  0.00000000000E+00  0.00000000000E+00 -0.11349012706E+04  0.11349012706E+04  0.25500000920E-02 0. -1.
    10030    2    1    2    0    0  0.00000000000E+00  0.00000000000E+00  0.14423451749E+04  0.37121477162E+04  0.34204796539E+04 0.  0.
        5    1    3    3  502    0  0.14144992514E+04  0.14137257916E+03 -0.31075065525E+03  0.14551228120E+04  0.46999998093E+01 0. -1.
       -5    1    3    3    0  502 -0.14144992514E+04 -0.14137257916E+03  0.17530958301E+04  0.22570249042E+04  0.46999998093E+01 0.  1.
</event>
<event>
 5   0  0.2856440E-06  0.3386774E+04  0.7818609E-02  0.8141160E-01
        2   -1    0    0  501    0  0.00000000000E+00  0.00000000000E+00  0.10230326950E+04  0.10230326950E+04  0.25500000920E-02 0.  1.
       -2   -1    0    0    0  501  0.00000000000E+00  0.00000000000E+00 -0.28029991267E+04  0.28029991267E+04  0.25500000920E-02 0. -1.
    10030    2    1    2    0    0  0.00000000000E+00  0.00000000000E+00 -0.17799664317E+04  0.38260318217E+04  0.33867741292E+04 0.  0.
        4    1    3    3  502    0 -0.16029276894E+04 -0.54356188177E+03 -0.94891665758E+03  0.19404332332E+04  0.12699999809E+01 0.  1.
       -4    1    3    3    0  502  0.16029276894E+04  0.54356188177E+03 -0.83104977416E+03  0.18855985885E+04  0.12699999809E+01 0. -1.
</event>
<event>
 5   0  0.1003191E-06  0.3427371E+04  0.7818609E-02  0.8131221E-01
        1   -1    0    0  501    0  0.00000000000E+00  0.00000000000E+00  0.95448097145E+03  0.95448097146E+03  0.50400001928E-02 0.  1.
       -1   -1    0    0    0  501  0.00000000000E+00  0.00000000000E+00 -0.30767700976E+04  0.30767700976E+04  0.50400001928E-02 0. -1.
    10030    2    1    2    0    0  0.00000000000E+00  0.00000000000E+00 -0.21222891261E+04  0.40312510691E+04  0.34273713027E+04 0.  0.
        5    1    3    3  502    0  0.17245090098E+03 -0.55072884536E+03  0.83674263736E+03  0.10164653981E+04  0.46999998093E+01 0.  1.
       -5    1    3    3    0  502 -0.17245090098E+03  0.55072884536E+03 -0.29590317635E+04  0.30147856710E+04  0.46999998093E+01 0. -1.
</event>
<event>
 5   0  0.2856440E-06  0.3267679E+04  0.7818609E-02  0.8171169E-01
       -2   -1    0    0    0  501  0.00000000000E+00  0.00000000000E+00  0.11717461108E+04  0.11717461108E+04  0.25500000920E-02 0.  1.
        2   -1    0    0  501    0  0.00000000000E+00  0.00000000000E+00 -0.22781648231E+04  0.22781648231E+04  0.25500000920E-02 0. -1.
    10030    2    1    2    0    0  0.00000000000E+00  0.00000000000E+00 -0.11064187123E+04  0.34499109339E+04  0.32676785467E+04 0.  0.
        4    1    3    3  502    0 -0.81959403295E+02  0.38122868416E+02 -0.22755223728E+04  0.22773173646E+04  0.12699999809E+01 0. -1.
       -4    1    3    3    0  502  0.81959403295E+02 -0.38122868416E+02  0.11691036605E+04  0.11725935693E+04  0.12699999809E+01 0.  1.
</event>
<event>
 5   0  0.9232963E-07  0.3569090E+04  0.7818609E-02  0.8097609E-01
        1   -1    0    0  501    0  0.00000000000E+00  0.00000000000E+00  0.16239699068E+04  0.16239699068E+04  0.50400001928E-02 0. -1.
       -1   -1    0    0    0  501  0.00000000000E+00  0.00000000000E+00 -0.19609972589E+04  0.19609972590E+04  0.50400001928E-02 0.  1.
    10030    2    1    2    0    0  0.00000000000E+00  0.00000000000E+00 -0.33702735214E+03  0.35849671658E+04  0.35690898200E+04 0.  0.
        3    1    3    3  502    0  0.87671138862E+03  0.99937159979E+02  0.13895120864E+04  0.16460115866E+04  0.10100000352E+00 0. -1.
       -3    1    3    3    0  502 -0.87671138862E+03 -0.99937159979E+02 -0.17265394385E+04  0.19389555791E+04  0.10100000352E+00 0.  1.
</event>
<event>
 5   0  0.2664083E-06  0.3533851E+04  0.7818609E-02  0.8105814E-01
       -2   -1    0    0    0  501  0.00000000000E+00  0.00000000000E+00  0.18683185442E+04  0.18683185442E+04  0.25500000920E-02 0. -1.
        2   -1    0    0  501    0  0.00000000000E+00  0.00000000000E+00 -0.16710351604E+04  0.16710351604E+04  0.25500000920E-02 0.  1.
    10030    2    1    2    0    0  0.00000000000E+00  0.00000000000E+00  0.19728338389E+03  0.35393537046E+04  0.35338511447E+04 0.  0.
        2    1    3    3  502    0 -0.15836804752E+04  0.46359085864E+03  0.73134176644E+03  0.18049435202E+04  0.25500000920E-02 0. -1.
       -2    1    3    3    0  502  0.15836804752E+04 -0.46359085864E+03 -0.53405838255E+03  0.17344101844E+04  0.25500000920E-02 0.  1.
</event>
<event>
 5   0  0.2767014E-06  0.3551354E+04  0.7818609E-02  0.8101726E-01
       -2   -1    0    0    0  501  0.00000000000E+00  0.00000000000E+00  0.25335567361E+04  0.25335567361E+04  0.25500000920E-02 0.  1.
        2   -1    0    0  501    0  0.00000000000E+00  0.00000000000E+00 -0.12445066572E+04  0.12445066572E+04  0.25500000920E-02 0. -1.
    10030    2    1    2    0    0  0.00000000000E+00  0.00000000000E+00  0.12890500790E+04  0.37780633933E+04  0.35513536712E+04 0.  0.
        1    1    3    3  502    0  0.13080323777E+04 -0.10417491225E+04  0.12800184331E+04  0.21058578120E+04  0.50400001928E-02 0.  1.
       -1    1    3    3    0  502 -0.13080323777E+04  0.10417491225E+04  0.90316458460E+01  0.16722055813E+04  0.50400001928E-02 0. -1.
</event>
<event>
 5   0  0.9714317E-07  0.3409442E+04  0.7818609E-02  0.8135593E-01
        1   -1    0    0  501    0  0.00000000000E+00  0.00000000000E+00  0.12826169903E+04  0.12826169903E+04  0.50400001928E-02 0.  1.
       -1   -1    0    0    0  501  0.00000000000E+00  0.00000000000E+00 -0.22657377188E+04  0.22657377188E+04  0.50400001928E-02 0. -1.
    10030    2    1    2    0    0  0.00000000000E+00  0.00000000000E+00 -0.98312072845E+03  0.35483547091E+04  0.34094420034E+04 0.  0.
        4    1    3    3  502    0 -0.96729636668E+02 -0.16635686181E+04 -0.86572888467E+03  0.18778459160E+04  0.12699999809E+01 0.  1.
       -4    1    3    3    0  502  0.96729636668E+02  0.16635686181E+04 -0.11739184378E+03  0.16705087930E+04  0.12699999809E+01 0. -1.
</event>
<event>
 5   0  0.2767014E-06  0.2613846E+04  0.7818609E-02  0.8363513E-01
       -2   -1    0    0    0  501  0.00000000000E+00  0.00000000000E+00  0.16461788147E+04  0.16461788147E+04  0.25500000920E-02 0.  1.
        2   -1    0    0  501    0  0.00000000000E+00  0.00000000000E+00 -0.10375830140E+04  0.10375830140E+04  0.25500000920E-02 0. -1.
    10030    2    1    2    0    0  0.00000000000E+00  0.00000000000E+00  0.60859580076E+03  0.26837618287E+04  0.26138455778E+04 0.  0.
        1    1    3    3  502    0 -0.16708393098E+03  0.70375464844E+03 -0.81333062618E+03  0.10884366553E+04  0.50400001928E-02 0. -1.
       -1    1    3    3    0  502  0.16708393098E+03 -0.70375464844E+03  0.14219264269E+04  0.15953251734E+04  0.50400001928E-02 0.  1.
</event>
<event>
 5   0  0.1010551E-06  0.3423076E+04  0.7818609E-02  0.8132266E-01
        1   -1    0    0  501    0  0.00000000000E+00  0.00000000000E+00  0.14624743262E+04  0.14624743262E+04  0.50400001928E-02 0. -1.
       -1   -1    0    0    0  501  0.00000000000E+00  0.00000000000E+00 -0.20030183623E+04  0.20030183623E+04  0.50400001928E-02 0.  1.
    10030    2    1    2    0    0  0.00000000000E+00  0.00000000000E+00 -0.54054403617E+03  0.34654926885E+04  0.34230763531E+04 0.  0.
        2    1    3    3  502    0  0.12667451305E+04 -0.11419766866E+04 -0.12493496595E+03  0.17100768182E+04  0.25500000920E-02 0.  1.
       -2    1    3    3    0  502 -0.12667451305E+04  0.11419766866E+04 -0.41560907022E+03  0.17554158703E+04  0.25500000920E-02 0. -1.
</event>
<event>
 5   0  0.2856440E-06  0.3426822E+04  0.7818609E-02  0.8131355E-01
        2   -1    0    0  501    0  0.00000000000E+00  0.00000000000E+00  0.16052121420E+04  0.16052121420E+04  0.25500000920E-02 0.  1.
       -2   -1    0    0    0  501  0.00000000000E+00  0.00000000000E+00 -0.18289027075E+04  0.18289027075E+04  0.25500000920E-02 0. -1.
    10030    2    1    2    0    0  0.00000000000E+00  0.00000000000E+00 -0.22369056545E+03  0.34341148495E+04  0.34268217535E+04 0.  0.
        4    1    3    3  502    0  0.29221061484E+03 -0.16089893647E+04 -0.62434487360E+03  0.17504405026E+04  0.12699999809E+01 0. -1.
       -4    1    3    3    0  502 -0.29221061484E+03  0.16089893647E+04  0.40065430815E+03  0.16836743469E+04  0.12699999809E+01 0.  1.
</event>
<event>
 5   0  0.2848685E-06  0.3401314E+04  0.7818609E-02  0.8137584E-01
       -2   -1    0    0    0  501  0.00000000000E+00  0.00000000000E+00  0.28383205649E+04  0.28383205649E+04  0.25500000920E-02 0.  1.
        2   -1    0    0  501    0  0.00000000000E+00  0.00000000000E+00 -0.10189951760E+04  0.10189951760E+04  0.25500000920E-02 0. -1.
    10030    2    1    2    0    0  0.00000000000E+00  0.00000000000E+00  0.18193253889E+04  0.38573157409E+04  0.34013144304E+04 0.  0.
        3    1    3    3  502    0 -0.15063523082E+04  0.78403541297E+03  0.10137632270E+04  0.19777574917E+04  0.10100000352E+00 0. -1.
       -3    1    3    3    0  502  0.15063523082E+04 -0.78403541297E+03  0.80556216190E+03  0.18795582492E+04  0.10100000352E+00 0.  1.
</event>
<event>
 5   0  0.1010551E-06  0.3424696E+04  0.7818609E-02  0.8131872E-01
       -1   -1    0    0    0  501  0.00000000000E+00  0.00000000000E+00  0.14539682074E+04  0.14539682074E+04  0.50400001928E-02 0. -1.
        1   -1    0    0  501    0  0.00000000000E+00  0.00000000000E+00 -0.20166435708E+04  0.20166435709E+04  0.50400001928E-02 0.  1.
    10030    2    1    2    0    0  0.00000000000E+00  0.00000000000E+00 -0.56267536345E+03  0.34706117783E+04  0.34246959793E+04 0.  0.
        2    1    3    3  502    0 -0.90912428516E+03 -0.96469954920E+03  0.81716187867E+03  0.15572108791E+04  0.25500000920E-02 0. -1.
       -2    1    3    3    0  502  0.90912428516E+03  0.96469954920E+03 -0.13798372421E+04  0.19134008991E+04  0.25500000920E-02 0.  1.
</event>
<event>
 5   0  0.9714317E-07  0.3227072E+04  0.7818609E-02  0.8181704E-01
       -1   -1    0    0    0  501  0.00000000000E+00  0.00000000000E+00  0.13903028128E+04  0.13903028128E+04  0.50400001928E-02 0.  1.
        1   -1    0    0  501    0  0.00000000000E+00  0.00000000000E+00 -0.18726121595E+04  0.18726121596E+04  0.50400001928E-02 0. -1.
    10030    2    1    2    0    0  0.00000000000E+00  0.00000000000E+00 -0.48230934678E+03  0.32629149723E+04  0.32270717083E+04 0.  0.
        4    1    3    3  502    0 -0.43408998211E+03 -0.81762177834E+03 -0.15774070930E+04  0.18289762806E+04  0.12699999809E+01 0. -1.
       -4    1    3    3    0  502  0.43408998211E+03  0.81762177834E+03  0.10950977462E+04  0.14339386917E+04  0.12699999809E+01 0.  1.
</event>
<event>
 5   0  0.9232963E-07  0.3444194E+04  0.7818609E-02  0.8127144E-01
        1   -1    0    0  501    0  0.00000000000E+00  0.00000000000E+00  0.23422013668E+04  0.23422013668E+04  0.50400001928E-02 0. -1.
       -1   -1    0    0    0  501  0.00000000000E+00  0.00000000000E+00 -0.12661669221E+04  0.12661669221E+04  0.50400001928E-02 0.  1.
    10030    2    1    2    0    0  0.00000000000E+00  0.00000000000E+00  0.10760344447E+04  0.36083682889E+04  0.34441938944E+04 0.  0.
        3    1    3    3  502    0  0.36324001241E+02  0.12737099124E+04 -0.67563231589E+03  0.14422674546E+04  0.10100000352E+00 0.  1.
       -3    1    3    3    0  502 -0.36324001241E+02 -0.12737099124E+04  0.17516667606E+04  0.21661008343E+04  0.10100000352E+00 0. -1.
</event>
<event>
 5   0  0.9232963E-07  0.3503778E+04  0.7818609E-02  0.8112895E-01
       -1   -1    0    0    0  501  0.00000000000E+00  0.00000000000E+00  0.17233735086E+04  0.17233735086E+04  0.50400001928E-02 0. -1.
        1   -1    0    0  501    0  0.00000000000E+00  0.00000000000E+00 -0.17808765271E+04  0.17808765272E+04  0.50400001928E-02 0.  1.
    10030    2    1    2    0    0  0.00000000000E+00  0.00000000000E+00 -0.57503018562E+02  0.35042500357E+04  0.35037782059E+04 0.  0.
        3    1    3    3  502    0  0.23117048771E+03 -0.10016237563E+04  0.13900393530E+04  0.17288433580E+04  0.10100000352E+00 0. -1.
       -3    1    3    3    0  502 -0.23117048771E+03  0.10016237563E+04 -0.14475423716E+04  0.17754066777E+04  0.10100000352E+00 0.  1.
</event>
<event>
 5   0  0.2767014E-06  0.3484784E+04  0.7818609E-02  0.8117405E-01
        2   -1    0    0  501    0  0.00000000000E+00  0.00000000000E+00  0.18250370428E+04  0.18250370428E+04  0.25500000920E-02 0. -1.
       -2   -1    0    0    0  501  0.00000000000E+00  0.00000000000E+00 -0.16634897214E+04  0.16634897214E+04  0.25500000920E-02 0.  1.
    10030    2    1    2    0    0  0.00000000000E+00  0.00000000000E+00  0.16154732146E+03  0.34885267642E+04  0.34847842756E+04 0.  0.
        1    1    3    3  502    0 -0.85612603192E+03  0.14435463620E+04  0.54941366219E+03  0.17659652471E+04  0.50400001928E-02 0. -1.
       -1    1    3    3    0  502  0.85612603192E+03 -0.14435463620E+04 -0.38786634073E+03  0.17225615171E+04  0.50400001928E-02 0.  1.
</event>
<event>
 5   0  0.2906701E-06  0.2376499E+04  0.7818609E-02  0.8448355E-01
       -2   -1    0    0    0  501  0.00000000000E+00  0.00000000000E+00  0.87150991220E+03  0.87150991221E+03  0.25500000920E-02 0.  1.
        2   -1    0    0  501    0  0.00000000000E+00  0.00000000000E+00 -0.16201043906E+04  0.16201043906E+04  0.25500000920E-02 0. -1.
    10030    2    1    2    0    0  0.00000000000E+00  0.00000000000E+00 -0.74859447838E+03  0.24916143028E+04  0.23764991355E+04 0.  0.
        5    1    3    3  502    0 -0.82726879434E+02  0.77396245267E+03 -0.13155907028E+04  0.15286146022E+04  0.46999998093E+01 0. -1.
       -5    1    3    3    0  502  0.82726879434E+02 -0.77396245267E+03  0.56699622447E+03  0.96299970056E+03  0.46999998093E+01 0.  1.
</event>
<event>
 5   0  0.2664083E-06  0.3426941E+04  0.7818609E-02  0.8131326E-01
        2   -1    0    0  501    0  0.00000000000E+00  0.00000000000E+00  0.20537236347E+04  0.20537236347E+04  0.25500000920E-02 0.  1.
       -2   -1    0    0    0  501  0.00000000000E+00  0.00000000000E+00 -0.14295891653E+04  0.14295891653E+04  0.25500000920E-02 0. -1.
    10030    2    1    2    0    0  0.00000000000E+00  0.00000000000E+00  0.62413446947E+03  0.34833128000E+04  0.34269409430E+04 0.  0.
        2    1    3    3  502    0  0.71184504420E+03 -0.13309060978E+04 -0.51241479623E+03  0.15939270158E+04  0.25500000920E-02 0. -1.
       -2    1    3    3    0  502 -0.71184504420E+03  0.13309060978E+04  0.11365492657E+04  0.18893857842E+04  0.25500000920E-02 0.  1.
</event>
<event>
 5   0  0.9232963E-07  0.3079135E+04  0.7818609E-02  0.8221488E-01
       -1   -1    0    0    0  501  0.00000000000E+00  0.00000000000E+00  0.99458967646E+03  0.99458967648E+03  0.50400001928E-02 0. -1.
        1   -1    0    0  501    0  0.00000000000E+00  0.00000000000E+00 -0.23831612971E+04  0.23831612971E+04  0.50400001928E-02 0.  1.
    10030    2    1    2    0    0  0.00000000000E+00  0.00000000000E+00 -0.13885716207E+04  0.33777509736E+04  0.30791346989E+04 0.  0.
        3    1    3    3  502    0 -0.17520443075E+03 -0.53095519074E+03  0.87928211630E+03  0.10419918701E+04  0.10100000352E+00 0. -1.
       -3    1    3    3    0  502  0.17520443075E+03  0.53095519074E+03 -0.22678537370E+04  0.23357591035E+04  0.10100000352E+00 0.  1.
</event>
<event>
 5   0  0.2664083E-06  0.3402689E+04  0.7818609E-02  0.8137247E-01
       -2   -1    0    0    0  501  0.00000000000E+00  0.00000000000E+00  0.14712295707E+04  0.14712295707E+04  0.25500000920E-02 0.  1.
        2   -1    0    0  501    0  0.00000000000E+00  0.00000000000E+00 -0.19674516518E+04  0.19674516518E+04  0.25500000920E-02 0. -1.
    10030    2    1    2    0    0  0.00000000000E+00  0.00000000000E+00 -0.49622208116E+03  0.34386812225E+04  0.34026889655E+04 0.  0.
        2    1    3    3  502    0  0.14729245156E+04  0.35753182282E+00 -0.11086261934E+04  0.18435180480E+04  0.25500000920E-02 0. -1.
       -2    1    3    3    0  502 -0.14729245156E+04 -0.35753182282E+00  0.61240411225E+03  0.15951631745E+04  0.25500000920E-02 0.  1.
</event>
<event>
 5   0  0.1010855E-06  0.3384952E+04  0.7818609E-02  0.8141610E-01
        1   -1    0    0  501    0  0.00000000000E+00  0.00000000000E+00  0.22465552710E+04  0.22465552710E+04  0.50400001928E-02 0. -1.
       -1   -1    0    0    0  501  0.00000000000E+00  0.00000000000E+00 -0.12750518322E+04  0.12750518322E+04  0.50400001928E-02 0.  1.
    10030    2    1    2    0    0  0.00000000000E+00  0.00000000000E+00  0.97150343878E+03  0.35216071032E+04  0.33849516478E+04 0.  0.
        1    1    3    3  502    0 -0.14857066495E+04 -0.33243824980E+03  0.12549479369E+04  0.19730012070E+04  0.50400001928E-02 0.  1.
       -1    1    3    3    0  502  0.14857066495E+04  0.33243824980E+03 -0.28344449814E+03  0.15486058962E+04  0.50400001928E-02 0. -1.
</event>
<event>
 5   0  0.1003191E-06  0.3512298E+04  0.7818609E-02  0.8110882E-01
       -1   -1    0    0    0  501  0.00000000000E+00  0.00000000000E+00  0.17087712239E+04  0.17087712239E+04  0.50400001928E-02 0.  1.
        1   -1    0    0  501    0  0.00000000000E+00  0.00000000000E+00 -0.18048398820E+04  0.18048398820E+04  0.50400001928E-02 0. -1.
    10030    2    1    2    0    0  0.00000000000E+00  0.00000000000E+00 -0.96068658117E+02  0.35136111058E+04  0.35122975125E+04 0.  0.
        5    1    3    3  502    0 -0.91333854441E+03  0.69745010305E+03  0.12803977145E+04  0.17204837518E+04  0.46999998093E+01 0.  1.
       -5    1    3    3    0  502  0.91333854441E+03 -0.69745010305E+03 -0.13764663726E+04  0.17931273540E+04  0.46999998093E+01 0. -1.
</event>
<event>
 5   0  0.2856440E-06  0.3483002E+04  0.7818609E-02  0.8117830E-01
        2   -1    0    0  501    0  0.00000000000E+00  0.00000000000E+00  0.28800182969E+04  0.28800182969E+04  0.25500000920E-02 0.  1.
       -2   -1    0    0    0  501  0.00000000000E+00  0.00000000000E+00 -0.10530575894E+04  0.10530575894E+04  0.25500000920E-02 0. -1.
    10030    2    1    2    0    0  0.00000000000E+00  0.00000000000E+00  0.18269607075E+04  0.39330758862E+04  0.34830016509E+04 0.  0.
        4    1    3    3  502    0  0.17854511851E+02 -0.31865638841E+03  0.28467115799E+04  0.28645469292E+04  0.12699999809E+01 0.  1.
       -4    1    3    3    0  502 -0.17854511851E+02  0.31865638841E+03 -0.10197508724E+04  0.10685289571E+04  0.12699999809E+01 0. -1.
</event>
<event>
 5   0  0.9232963E-07  0.3384334E+04  0.7818609E-02  0.8141762E-01
        1   -1    0    0  501    0  0.00000000000E+00  0.00000000000E+00  0.19530530926E+04  0.19530530926E+04  0.50400001928E-02 0. -1.
       -1   -1    0    0    0  501  0.00000000000E+00  0.00000000000E+00 -0.14661297148E+04  0.14661297148E+04  0.50400001928E-02 0.  1.
    10030    2    1    2    0    0  0.00000000000E+00  0.00000000000E+00  0.48692337782E+03  0.34191828075E+04  0.33843340106E+04 0.  0.
        3    1    3    3  502    0 -0.58954892081E+03 -0.71716892052E+03 -0.11858605525E+04  0.15060426457E+04  0.10100000352E+00 0.  1.
       -3    1    3    3    0  502  0.58954892081E+03  0.71716892052E+03  0.16727839303E+04  0.19131401617E+04  0.10100000352E+00 0. -1.
</event>
<event>
 5   0  0.1010855E-06  0.3360330E+04  0.7818609E-02  0.8147712E-01
        1   -1    0    0  501    0  0.00000000000E+00  0.00000000000E+00  0.19675901879E+04  0.19675901879E+04  0.50400001928E-02 0.  1.
       -1   -1    0    0    0  501  0.00000000000E+00  0.00000000000E+00 -0.14347267352E+04  0.14347267352E+04  0.50400001928E-02 0. -1.
    10030    2    1    2    0    0  0.00000000000E+00  0.00000000000E+00  0.53286345269E+03  0.34023169231E+04  0.33603298924E+04 0.  0.
        1    1    3    3  502    0 -0.14635054190E+04  0.82480563454E+03  0.29510161276E+03  0.17056486766E+04  0.50400001928E-02 0.  1.
       -1    1    3    3    0  502  0.14635054190E+04 -0.82480563454E+03  0.23776183993E+03  0.16966682465E+04  0.50400001928E-02 0. -1.
</event>
<event>
 5   0  0.1010551E-06  0.3394628E+04  0.7818609E-02  0.8139226E-01
       -1   -1    0    0    0  501  0.00000000000E+00  0.00000000000E+00  0.14843907539E+04  0.14843907539E+04  0.50400001928E-02 0. -1.
        1   -1    0    0  501    0  0.00000000000E+00  0.00000000000E+00 -0.19407791776E+04  0.19407791776E+04  0.50400001928E-02 0.  1.
    10030    2    1    2    0    0  0.00000000000E+00  0.00000000000E+00 -0.45638842371E+03  0.34251699315E+04  0.33946279128E+04 0.  0.
        2    1    3    3  502    0  0.37442878713E+02 -0.13366017479E+03 -0.19350427690E+04  0.19400148271E+04  0.25500000920E-02 0.  1.
       -2    1    3    3    0  502 -0.37442878713E+02  0.13366017479E+03  0.14786543453E+04  0.14851551044E+04  0.25500000920E-02 0. -1.
</event>
<event>
 5   0  0.9714317E-07  0.3416537E+04  0.7818609E-02  0.8133859E-01
        1   -1    0    0  501    0  0.00000000000E+00  0.00000000000E+00  0.21148138969E+04  0.21148138969E+04  0.50400001928E-02 0.  1.
       -1   -1    0    0    0  501  0.00000000000E+00  0.00000000000E+00 -0.13798762290E+04  0.13798762291E+04  0.50400001928E-02 0. -1.
    10030    2    1    2    0    0  0.00000000000E+00  0.00000000000E+00  0.73493766784E+03  0.34946901259E+04  0.34165370920E+04 0.  0.
        4    1    3    3  502    0 -0.43314923432E+03  0.64741051805E+03  0.19225822804E+04  0.20743873495E+04  0.12699999809E+01 0.  1.
       -4    1    3    3    0  502  0.43314923432E+03 -0.64741051805E+03 -0.11876446126E+04  0.14203027764E+04  0.12699999809E+01 0. -1.
</event>
<event>
 5   0  0.9070500E-07  0.3325194E+04  0.7818609E-02  0.8156514E-01
       -3   -1    0    0    0  501  0.00000000000E+00  0.00000000000E+00  0.11612411656E+04  0.11612411700E+04  0.10100000352E+00 0. -1.
        3   -1    0    0  501    0  0.00000000000E+00  0.00000000000E+00 -0.23804092415E+04  0.23804092436E+04  0.10100000352E+00 0.  1.
    10030    2    1    2    0    0  0.00000000000E+00  0.00000000000E+00 -0.12191680758E+04  0.35416504136E+04  0.33251942583E+04 0.  0.
        1    1    3    3  502    0  0.98650927530E+03  0.12336616274E+04 -0.57059343456E+02  0.15806256134E+04  0.50400001928E-02 0. -1.
       -1    1    3    3    0  502 -0.98650927530E+03 -0.12336616274E+04 -0.11621087324E+04  0.19610248002E+04  0.50400001928E-02 0.  1.
</event>
<event>
 5   0  0.2767014E-06  0.2907149E+04  0.7818609E-02  0.8270754E-01
       -2   -1    0    0    0  501  0.00000000000E+00  0.00000000000E+00  0.13409080779E+04  0.13409080779E+04  0.25500000920E-02 0. -1.
        2   -1    0    0  501    0  0.00000000000E+00  0.00000000000E+00 -0.15757078570E+04  0.15757078570E+04  0.25500000920E-02 0.  1.
    10030    2    1    2    0    0  0.00000000000E+00  0.00000000000E+00 -0.23479977908E+03  0.29166159349E+04  0.29071493899E+04 0.  0.
        1    1    3    3  502    0 -0.16946191290E+02  0.11889810554E+03 -0.15707216381E+04  0.15753064455E+04  0.50400001928E-02 0.  1.
       -1    1    3    3    0  502  0.16946191290E+02 -0.11889810554E+03  0.13359218590E+04  0.13413094894E+04  0.50400001928E-02 0. -1.
</event>
<event>
 5   0  0.1010551E-06  0.3387286E+04  0.7818609E-02  0.8141034E-01
        1   -1    0    0  501    0  0.00000000000E+00  0.00000000000E+00  0.27339742162E+04  0.27339742162E+04  0.50400001928E-02 0. -1.
       -1   -1    0    0    0  501  0.00000000000E+00  0.00000000000E+00 -0.10491782555E+04  0.10491782556E+04  0.50400001928E-02 0.  1.
    10030    2    1    2    0    0  0.00000000000E+00  0.00000000000E+00  0.16847959607E+04  0.37831524718E+04  0.33872858154E+04 0.  0.
        2    1    3    3  502    0 -0.13549387077E+04  0.10103658422E+04  0.96335158993E+03  0.19454419350E+04  0.25500000920E-02 0.  1.
       -2    1    3    3    0  502  0.13549387077E+04 -0.10103658422E+04  0.72144437074E+03  0.18377105367E+04  0.25500000920E-02 0. -1.
</event>
<event>
 5   0  0.2848685E-06  0.3402576E+04  0.7818609E-02  0.8137274E-01
        2   -1    0    0  501    0  0.00000000000E+00  0.00000000000E+00  0.21237734775E+04  0.21237734775E+04  0.25500000920E-02 0. -1.
       -2   -1    0    0    0  501  0.00000000000E+00  0.00000000000E+00 -0.13628479112E+04  0.13628479112E+04  0.25500000920E-02 0.  1.
    10030    2    1    2    0    0  0.00000000000E+00  0.00000000000E+00  0.76092556629E+03  0.34866213887E+04  0.34025756407E+04 0.  0.
        3    1    3    3  502    0  0.16155681876E+04  0.36049429802E+03 -0.22133120811E+02  0.16554475506E+04  0.10100000352E+00 0.  1.
       -3    1    3    3    0  502 -0.16155681876E+04 -0.36049429802E+03  0.78305868710E+03  0.18311738381E+04  0.10100000352E+00 0. -1.
</event>
<event>
 5   0  0.9714317E-07  0.3487601E+04  0.7818609E-02  0.8116735E-01
        1   -1    0    0  501    0  0.00000000000E+00  0.00000000000E+00  0.23653396250E+04  0.23653396251E+04  0.50400001928E-02 0. -1.
       -1   -1    0    0    0  501  0.00000000000E+00  0.00000000000E+00 -0.12855829388E+04  0.12855829388E+04  0.50400001928E-02 0.  1.
    10030    2    1    2    0    0  0.00000000000E+00  0.00000000000E+00  0.10797566863E+04  0.36509225638E+04  0.34876010474E+04 0.  0.
        4    1    3    3  502    0  0.13700919197E+04 -0.91657007231E+03  0.11353632287E+04  0.20015753395E+04  0.12699999809E+01 0. -1.
       -4    1    3    3    0  502 -0.13700919197E+04  0.91657007231E+03 -0.55606542383E+02  0.16493472243E+04  0.12699999809E+01 0.  1.
</event>
<event>
 5   0  0.2767014E-06  0.3262661E+04  0.7818609E-02  0.8172462E-01
        2   -1    0    0  501    0  0.00000000000E+00  0.00000000000E+00  0.20539153387E+04  0.20539153387E+04  0.25500000920E-02 0.  1.
       -2   -1    0    0    0  501  0.00000000000E+00  0.00000000000E+00 -0.12956909916E+04  0.12956909916E+04  0.25500000920E-02 0. -1.
    10030    2    1    2    0    0  0.00000000000E+00  0.00000000000E+00  0.75822434712E+03  0.33496063303E+04  0.32626612462E+04 0.  0.
        1    1    3    3  502    0 -0.11557253704E+04  0.92561360942E+03 -0.32380694575E+03  0.15156888282E+04  0.50400001928E-02 0.  1.
       -1    1    3    3    0  502  0.11557253704E+04 -0.92561360942E+03  0.10820312929E+04  0.18339175021E+04  0.50400001928E-02 0. -1.
</event>
<event>
 5   0  0.9232963E-07  0.3401927E+04  0.7818609E-02  0.8137434E-01
        1   -1    0    0  501    0  0.00000000000E+00  0.00000000000E+00  0.19813604531E+04  0.19813604531E+04  0.50400001928E-02 0.  1.
       -1   -1    0    0    0  501  0.00000000000E+00  0.00000000000E+00 -0.14602473511E+04  0.14602473511E+04  0.50400001928E-02 0. -1.
    10030    2    1    2    0    0  0.00000000000E+00  0.00000000000E+00  0.52111310205E+03  0.34416078042E+04  0.34019267207E+04 0.  0.
        3    1    3    3  502    0  0.58485331667E+03 -0.40462559011E+03 -0.13026206460E+04  0.14841144928E+04  0.10100000352E+00 0. -1.
       -3    1    3    3    0  502 -0.58485331667E+03  0.40462559011E+03  0.18237337480E+04  0.19574933114E+04  0.10100000352E+00 0.  1.
</event>
<event>
 5   0  0.2856440E-06  0.3250105E+04  0.7818609E-02  0.8175709E-01
       -2   -1    0    0    0  501  0.00000000000E+00  0.00000000000E+00  0.13836568482E+04  0.13836568482E+04  0.25500000920E-02 0. -1.
        2   -1    0    0  501    0  0.00000000000E+00  0.00000000000E+00 -0.19085621900E+04  0.19085621900E+04  0.25500000920E-02 0.  1.
    10030    2    1    2    0    0  0.00000000000E+00  0.00000000000E+00 -0.52490534176E+03  0.32922190382E+04  0.32501047026E+04 0.  0.
        4    1    3    3  502    0 -0.10886842669E+03 -0.13419428017E+04 -0.11842613993E+04  0.17930810055E+04  0.12699999809E+01 0.  1.
       -4    1    3    3    0  502  0.10886842669E+03  0.13419428017E+04  0.65935605758E+03  0.14991380327E+04  0.12699999809E+01 0. -1.
</event>
<event>
 5   0  0.2664083E-06  0.3378507E+04  0.7818609E-02  0.8143202E-01
       -2   -1    0    0    0  501  0.00000000000E+00  0.00000000000E+00  0.17012017503E+04  0.17012017503E+04  0.25500000920E-02 0. -1.
        2   -1    0    0  501    0  0.00000000000E+00  0.00000000000E+00 -0.16773894377E+04  0.16773894377E+04  0.25500000920E-02 0.  1.
    10030    2    1    2    0    0  0.00000000000E+00  0.00000000000E+00  0.23812312552E+02  0.33785911880E+04  0.33785072723E+04 0.  0.
        2    1    3    3  502    0  0.11910182258E+04 -0.82018658286E+03  0.88505292133E+03  0.16954495329E+04  0.25500000920E-02 0. -1.
       -2    1    3    3    0  502 -0.11910182258E+04  0.82018658286E+03 -0.86124060878E+03  0.16831416551E+04  0.25500000920E-02 0.  1.
</event>
<event>
 5   0  0.2906701E-06  0.3435889E+04  0.7818609E-02  0.8129154E-01
       -2   -1    0    0    0  501  0.00000000000E+00  0.00000000000E+00  0.16655939962E+04  0.16655939962E+04  0.25500000920E-02 0.  1.
        2   -1    0    0  501    0  0.00000000000E+00  0.00000000000E+00 -0.17719401869E+04  0.17719401869E+04  0.25500000920E-02 0. -1.
    10030    2    1    2    0    0  0.00000000000E+00  0.00000000000E+00 -0.10634619071E+03  0.34375341832E+04  0.34358887858E+04 0.  0.
        5    1    3    3  502    0  0.14336891780E+04  0.82254209965E+03  0.41531462453E+03  0.17042735966E+04  0.46999998093E+01 0.  1.
       -5    1    3    3    0  502 -0.14336891780E+04 -0.82254209965E+03 -0.52166081525E+03  0.17332605866E+04  0.46999998093E+01 0. -1.
</event>
<event>
 5   0  0.2664083E-06  0.2341870E+04  0.7818609E-02  0.8461593E-01
       -2   -1    0    0    0  501  0.00000000000E+00  0.00000000000E+00  0.68671801078E+03  0.68671801079E+03  0.25500000920E-02 0. -1.
        2   -1    0    0  501    0  0.00000000000E+00  0.00000000000E+00 -0.19965826267E+04  0.19965826267E+04  0.25500000920E-02 0.  1.
    10030    2    1    2    0    0  0.00000000000E+00  0.00000000000E+00 -0.13098646159E+04  0.26833006375E+04  0.23418704061E+04 0.  0.
        2    1    3    3  502    0 -0.48251927036E+03  0.88574622336E+02 -0.18731536061E+04  0.19363302255E+04  0.25500000920E-02 0.  1.
       -2    1    3    3    0  502  0.48251927036E+03 -0.88574622336E+02  0.56328899018E+03  0.74697041203E+03  0.25500000920E-02 0. -1.
</event>
<event>
 5   0  0.2848685E-06  0.3374642E+04  0.7818609E-02  0.8144158E-01
        2   -1    0    0  501    0  0.00000000000E+00  0.00000000000E+00  0.19665903841E+04  0.19665903841E+04  0.25500000920E-02 0.  1.
       -2   -1    0    0    0  501  0.00000000000E+00  0.00000000000E+00 -0.14477096283E+04  0.14477096283E+04  0.25500000920E-02 0. -1.
    10030    2    1    2    0    0  0.00000000000E+00  0.00000000000E+00  0.51888075581E+03  0.34143000124E+04  0.33746418086E+04 0.  0.
        3    1    3    3  502    0  0.92207845884E+03  0.34828553072E+03 -0.11261500832E+04  0.14965779349E+04  0.10100000352E+00 0. -1.
       -3    1    3    3    0  502 -0.92207845884E+03 -0.34828553072E+03  0.16450308390E+04  0.19177220775E+04  0.10100000352E+00 0.  1.
</event>
<event>
 5   0  0.2848685E-06  0.3390399E+04  0.7818609E-02  0.8140267E-01
        2   -1    0    0  501    0  0.00000000000E+00  0.00000000000E+00  0.11751990475E+04  0.11751990475E+04  0.25500000920E-02 0. -1.
       -2   -1    0    0    0  501  0.00000000000E+00  0.00000000000E+00 -0.24452893888E+04  0.24452893888E+04  0.25500000920E-02 0.  1.
    10030    2    1    2    0    0  0.00000000000E+00  0.00000000000E+00 -0.12700903413E+04  0.36204884363E+04  0.33903992452E+04 0.  0.
        3    1    3    3  502    0  0.66291509387E+03 -0.68375318106E+03  0.86252904049E+03  0.12848856720E+04  0.10100000352E+00 0. -1.
       -3    1    3    3    0  502 -0.66291509387E+03  0.68375318106E+03 -0.21326193818E+04  0.23356027642E+04  0.10100000352E+00 0.  1.
</event>
<event>
 5   0  0.2664083E-06  0.2876643E+04  0.7818609E-02  0.8279861E-01
       -2   -1    0    0    0  501  0.00000000000E+00  0.00000000000E+00  0.15940700218E+04  0.15940700218E+04  0.25500000920E-02 0.  1.
        2   -1    0    0  501    0  0.00000000000E+00  0.00000000000E+00 -0.12977904925E+04  0.12977904925E+04  0.25500000920E-02 0. -1.
    10030    2    1    2    0    0  0.00000000000E+00  0.00000000000E+00  0.29627952927E+03  0.28918605143E+04  0.28766431260E+04 0.  0.
        2    1    3    3  502    0 -0.38670392713E+03 -0.10579464974E+04 -0.75100667829E+03  0.13538100862E+04  0.25500000920E-02 0. -1.
       -2    1    3    3    0  502  0.38670392713E+03  0.10579464974E+04  0.10472862076E+04  0.15380504280E+04  0.25500000920E-02 0.  1.
</event>
<event>
 5   0  0.9070500E-07  0.3339673E+04  0.7818609E-02  0.8152873E-01
        4   -1    0    0  501    0  0.00000000000E+00  0.00000000000E+00  0.11089294215E+04  0.11089301487E+04  0.12699999809E+01 0.  1.
       -4   -1    0    0    0  501  0.00000000000E+00  0.00000000000E+00 -0.25144537469E+04  0.25144540677E+04  0.12699999809E+01 0. -1.
    10030    2    1    2    0    0  0.00000000000E+00  0.00000000000E+00 -0.14055243255E+04  0.36233842164E+04  0.33396728208E+04 0.  0.
        3    1    3    3  502    0 -0.11984978388E+04  0.74926834574E+03  0.26190190038E+03  0.14374953006E+04  0.10100000352E+00 0.  1.
       -3    1    3    3    0  502  0.11984978388E+04 -0.74926834574E+03 -0.16674262258E+04  0.21858889158E+04  0.10100000352E+00 0. -1.
</event>
<event>
 5   0  0.2848685E-06  0.3378378E+04  0.7818609E-02  0.8143233E-01
       -2   -1    0    0    0  501  0.00000000000E+00  0.00000000000E+00  0.18923002973E+04  0.18923002973E+04  0.25500000920E-02 0.  1.
        2   -1    0    0  501    0  0.00000000000E+00  0.00000000000E+00 -0.15078791964E+04  0.15078791964E+04  0.25500000920E-02 0. -1.
    10030    2    1    2    0    0  0.00000000000E+00  0.00000000000E+00  0.38442110097E+03  0.34001794937E+04  0.33783784581E+04 0.  0.
        3    1    3    3  502    0 -0.77053220444E+03 -0.10272050247E+04 -0.91236437477E+03  0.15752075429E+04  0.10100000352E+00 0. -1.
       -3    1    3    3    0  502  0.77053220444E+03  0.10272050247E+04  0.12967854757E+04  0.18249719508E+04  0.10100000352E+00 0.  1.
</event>
<event>
 5   0  0.1010855E-06  0.3279257E+04  0.7818609E-02  0.8168194E-01
       -1   -1    0    0    0  501  0.00000000000E+00  0.00000000000E+00  0.19106768213E+04  0.19106768213E+04  0.50400001928E-02 0.  1.
        1   -1    0    0  501    0  0.00000000000E+00  0.00000000000E+00 -0.14070306625E+04  0.14070306625E+04  0.50400001928E-02 0. -1.
    10030    2    1    2    0    0  0.00000000000E+00  0.00000000000E+00  0.50364615878E+03  0.33177074838E+04  0.32792565460E+04 0.  0.
        1    1    3    3  502    0 -0.13377033168E+02 -0.76734404042E+03 -0.12140917850E+04  0.14363198403E+04  0.50400001928E-02 0. -1.
       -1    1    3    3    0  502  0.13377033168E+02  0.76734404042E+03  0.17177379437E+04  0.18813876434E+04  0.50400001928E-02 0.  1.
</event>
<event>
 5   0  0.2767014E-06  0.3460774E+04  0.7818609E-02  0.8123149E-01
        2   -1    0    0  501    0  0.00000000000E+00  0.00000000000E+00  0.16373661880E+04  0.16373661880E+04  0.25500000920E-02 0. -1.
       -2   -1    0    0    0  501  0.00000000000E+00  0.00000000000E+00 -0.18286921127E+04  0.18286921127E+04  0.25500000920E-02 0.  1.
    10030    2    1    2    0    0  0.00000000000E+00  0.00000000000E+00 -0.19132592472E+03  0.34660583007E+04  0.34607736901E+04 0.  0.
        1    1    3    3  502    0  0.94495779674E+03  0.14489928602E+04 -0.13711561900E+03  0.17353173311E+04  0.50400001928E-02 0. -1.
       -1    1    3    3    0  502 -0.94495779674E+03 -0.14489928602E+04 -0.54210305725E+02  0.17307409696E+04  0.50400001928E-02 0.  1.
</event>
<event>
 5   0  0.2664083E-06  0.3393294E+04  0.7818609E-02  0.8139554E-01
        2   -1    0    0  501    0  0.00000000000E+00  0.00000000000E+00  0.10789950255E+04  0.10789950255E+04  0.25500000920E-02 0. -1.
       -2   -1    0    0    0  501  0.00000000000E+00  0.00000000000E+00 -0.26678629066E+04  0.26678629066E+04  0.25500000920E-02 0.  1.
    10030    2    1    2    0    0  0.00000000000E+00  0.00000000000E+00 -0.15888678811E+04  0.37468579321E+04  0.33932938599E+04 0.  0.
        2    1    3    3  502    0  0.43994236165E+03 -0.23755333634E+03 -0.25846707394E+04  0.26325849845E+04  0.25500000920E-02 0.  1.
       -2    1    3    3    0  502 -0.43994236165E+03  0.23755333634E+03  0.99580285834E+03  0.11142729476E+04  0.25500000920E-02 0. -1.
</event>
<event>
 5   0  0.1010551E-06  0.3242236E+04  0.7818609E-02  0.8177751E-01
        1   -1    0    0  501    0  0.00000000000E+00  0.00000000000E+00  0.20820877720E+04  0.20820877720E+04  0.50400001928E-02 0. -1.
       -1   -1    0    0    0  501  0.00000000000E+00  0.00000000000E+00 -0.12622060575E+04  0.12622060575E+04  0.50400001928E-02 0.  1.
    10030    2    1    2    0    0  0.00000000000E+00  0.00000000000E+00  0.81988171454E+03  0.33442938295E+04  0.32422361407E+04 0.  0.
        2    1    3    3  502    0  0.35690164480E+03 -0.13955206744E+04 -0.35722265890E+03  0.14840703369E+04  0.25500000920E-02 0.  1.
       -2    1    3    3    0  502 -0.35690164480E+03  0.13955206744E+04  0.11771043734E+04  0.18602234927E+04  0.25500000920E-02 0. -1.
</event>
<event>
 5   0  0.2906701E-06  0.3436075E+04  0.7818609E-02  0.8129109E-01
       -2   -1    0    0    0  501  0.00000000000E+00  0.00000000000E+00  0.12564823103E+04  0.12564823103E+04  0.25500000920E-02 0.  1.
        2   -1    0    0  501    0  0.00000000000E+00  0.00000000000E+00 -0.23491404191E+04  0.23491404191E+04  0.25500000920E-02 0. -1.
    10030    2    1    2    0    0  0.00000000000E+00  0.00000000000E+00 -0.10926581088E+04  0.36056227294E+04  0.34360753083E+04 0.  0.
        5    1    3    3  502    0  0.19532718660E+03  0.76145272139E+03  0.10566844306E+04  0.13170296248E+04  0.46999998093E+01 0.  1.
       -5    1    3    3    0  502 -0.19532718660E+03 -0.76145272139E+03 -0.21493425394E+04  0.22885931046E+04  0.46999998093E+01 0. -1.
</event>
<event>
 5   0  0.9232963E-07  0.3438026E+04  0.7818609E-02  0.8128636E-01
       -1   -1    0    0    0  501  0.00000000000E+00  0.00000000000E+00  0.10439286865E+04  0.10439286865E+04  0.50400001928E-02 0. -1.
        1   -1    0    0  501    0  0.00000000000E+00  0.00000000000E+00 -0.28306580877E+04  0.28306580877E+04  0.50400001928E-02 0.  1.
    10030    2    1    2    0    0  0.00000000000E+00  0.00000000000E+00 -0.17867294013E+04  0.38745867742E+04  0.34380257006E+04 0.  0.
        3    1    3    3  502    0  0.15453498877E+04 -0.32869750578E+02 -0.45640006860E+02  0.15463730844E+04  0.10100000352E+00 0.  1.
       -3    1    3    3    0  502 -0.15453498877E+04  0.32869750578E+02 -0.17410893944E+04  0.23282136898E+04  0.10100000352E+00 0. -1.
</event>
<event>
 5   0  0.9232963E-07  0.2612933E+04  0.7818609E-02  0.8363821E-01
        1   -1    0    0  501    0  0.00000000000E+00  0.00000000000E+00  0.13759337378E+04  0.13759337378E+04  0.50400001928E-02 0.  1.
       -1   -1    0    0    0  501  0.00000000000E+00  0.00000000000E+00 -0.12405061939E+04  0.12405061939E+04  0.50400001928E-02 0. -1.
    10030    2    1    2    0    0  0.00000000000E+00  0.00000000000E+00  0.13542754387E+03  0.26164399317E+04  0.26129327004E+04 0.  0.
        3    1    3    3  502    0 -0.31655274423E+03 -0.11062741363E+04  0.68725759531E+03  0.13402876993E+04  0.10100000352E+00 0.  1.
       -3    1    3    3    0  502  0.31655274423E+03  0.11062741363E+04 -0.55183005144E+03  0.12761522324E+04  0.10100000352E+00 0. -1.
</event>
<event>
 5   0  0.9714317E-07  0.3343741E+04  0.7818609E-02  0.8151854E-01
        1   -1    0    0  501    0  0.00000000000E+00  0.00000000000E+00  0.23437885908E+04  0.23437885909E+04  0.50400001928E-02 0. -1.
       -1   -1    0    0    0  501  0.00000000000E+00  0.00000000000E+00 -0.11925777768E+04  0.11925777768E+04  0.50400001928E-02 0.  1.
    10030    2    1    2    0    0  0.00000000000E+00  0.00000000000E+00  0.11512108141E+04  0.35363663676E+04  0.33437405323E+04 0.  0.
        4    1    3    3  502    0 -0.97910675346E+03 -0.56514560002E+03  0.18782713914E+04  0.21922464772E+04  0.12699999809E+01 0. -1.
       -4    1    3    3    0  502  0.97910675346E+03  0.56514560002E+03 -0.72706057735E+03  0.13441198905E+04  0.12699999809E+01 0.  1.
</event>
<event>
 5   0  0.2856440E-06  0.3410709E+04  0.7818609E-02  0.8135283E-01
        2   -1    0    0  501    0  0.00000000000E+00  0.00000000000E+00  0.24414894473E+04  0.24414894473E+04  0.25500000920E-02 0.  1.
       -2   -1    0    0    0  501  0.00000000000E+00  0.00000000000E+00 -0.11911719473E+04  0.11911719473E+04  0.25500000920E-02 0. -1.
    10030    2    1    2    0    0  0.00000000000E+00  0.00000000000E+00  0.12503175000E+04  0.36326613947E+04  0.34107088644E+04 0.  0.
        4    1    3    3  502    0  0.91691991300E+02 -0.16778009640E+04  0.31498839039E+03  0.17095738636E+04  0.12699999809E+01 0. -1.
       -4    1    3    3    0  502 -0.91691991300E+02  0.16778009640E+04  0.93532910961E+03  0.19230875311E+04  0.12699999809E+01 0.  1.
</event>
<event>
 5   0  0.2664083E-06  0.3399741E+04  0.7818609E-02  0.8137970E-01
       -2   -1    0    0    0  501  0.00000000000E+00  0.00000000000E+00  0.22476794578E+04  0.22476794578E+04  0.25500000920E-02 0.  1.
        2   -1    0    0  501    0  0.00000000000E+00  0.00000000000E+00 -0.12855747750E+04  0.12855747750E+04  0.25500000920E-02 0. -1.
    10030    2    1    2    0    0  0.00000000000E+00  0.00000000000E+00  0.96210468273E+03  0.35332542328E+04  0.33997411744E+04 0.  0.
        2    1    3    3  502    0  0.11775261504E+04  0.61033948690E+03  0.15860467210E+04  0.20675169468E+04  0.25500000920E-02 0.  1.
       -2    1    3    3    0  502 -0.11775261504E+04 -0.61033948690E+03 -0.62394203829E+03  0.14657372859E+04  0.25500000920E-02 0. -1.
</event>
<event>
 5   0  0.2856440E-06  0.3364761E+04  0.7818609E-02  0.8146610E-01
        2   -1    0    0  501    0  0.00000000000E+00  0.00000000000E+00  0.25207996183E+04  0.25207996183E+04  0.25500000920E-02 0. -1.
       -2   -1    0    0    0  501  0.00000000000E+00  0.00000000000E+00 -0.11228202615E+04  0.11228202615E+04  0.25500000920E-02 0.  1.
    10030    2    1    2    0    0  0.00000000000E+00  0.00000000000E+00  0.13979793568E+04  0.36436198799E+04  0.33647614398E+04 0.  0.
        4    1    3    3  502    0  0.14846447538E+04  0.56168279960E+03  0.13026342807E+04  0.20534155192E+04  0.12699999809E+01 0. -1.
       -4    1    3    3    0  502 -0.14846447538E+04 -0.56168279960E+03  0.95345076029E+02  0.15902043607E+04  0.12699999809E+01 0.  1.
</event>
<event>
 5   0  0.2767014E-06  0.3335925E+04  0.7818609E-02  0.8153814E-01
       -2   -1    0    0    0  501  0.00000000000E+00  0.00000000000E+00  0.21308907300E+04  0.21308907300E+04  0.25500000920E-02 0. -1.
        2   -1    0    0  501    0  0.00000000000E+00  0.00000000000E+00 -0.13056036308E+04  0.13056036308E+04  0.25500000920E-02 0.  1.
    10030    2    1    2    0    0  0.00000000000E+00  0.00000000000E+00  0.82528709916E+03  0.34364943609E+04  0.33359248637E+04 0.  0.
        1    1    3    3  502    0 -0.15935217065E+04 -0.36532135266E+03  0.75325888054E+03  0.18000472385E+04  0.50400001928E-02 0. -1.
       -1    1    3    3    0  502  0.15935217065E+04  0.36532135266E+03  0.72028218620E+02  0.16364471223E+04  0.50400001928E-02 0.  1.
</event>
<event>
 5   0  0.2848685E-06  0.3356797E+04  0.7818609E-02  0.8148592E-01
        2   -1    0    0  501    0  0.00000000000E+00  0.00000000000E+00  0.21843995405E+04  0.21843995405E+04  0.25500000920E-02 0. -1.
       -2   -1    0    0    0  501  0.00000000000E+00  0.00000000000E+00 -0.12896089031E+04  0.12896089031E+04  0.25500000920E-02 0.  1.
    10030    2    1    2    0    0  0.00000000000E+00  0.00000000000E+00  0.89479063738E+03  0.34740084436E+04  0.33567967441E+04 0.  0.
        3    1    3    3  502    0  0.89960542895E+03  0.14076036119E+04  0.61549612583E+03  0.17803014765E+04  0.10100000352E+00 0.  1.
       -3    1    3    3    0  502 -0.89960542895E+03 -0.14076036119E+04  0.27929451155E+03  0.16937069671E+04  0.10100000352E+00 0. -1.
</event>
<event>
 5   0  0.1010855E-06  0.3444159E+04  0.7818609E-02  0.8127153E-01
        1   -1    0    0  501    0  0.00000000000E+00  0.00000000000E+00  0.22258190235E+04  0.22258190235E+04  0.50400001928E-02 0.  1.
       -1   -1    0    0    0  501  0.00000000000E+00  0.00000000000E+00 -0.13323445167E+04  0.13323445167E+04  0.50400001928E-02 0. -1.
    10030    2    1    2    0    0  0.00000000000E+00  0.00000000000E+00  0.89347450682E+03  0.35581635402E+04  0.34441589807E+04 0.  0.
        1    1    3    3  502    0 -0.65358743658E+03  0.70317918176E+03 -0.10302430058E+04  0.14082038737E+04  0.50400001928E-02 0. -1.
       -1    1    3    3    0  502  0.65358743658E+03 -0.70317918176E+03  0.19237175127E+04  0.21499596665E+04  0.50400001928E-02 0.  1.
</event>
<event>
 5   0  0.2664083E-06  0.3655732E+04  0.7818609E-02  0.8077844E-01
       -2   -1    0    0    0  501  0.00000000000E+00  0.00000000000E+00  0.23598685187E+04  0.23598685187E+04  0.25500000920E-02 0. -1.
        2   -1    0    0  501    0  0.00000000000E+00  0.00000000000E+00 -0.14157963458E+04  0.14157963458E+04  0.25500000920E-02 0.  1.
    10030    2    1    2    0    0  0.00000000000E+00  0.00000000000E+00  0.94407217281E+03  0.37756648645E+04  0.36557315139E+04 0.  0.
        2    1    3    3  502    0 -0.75521086281E+03  0.15619592493E+04 -0.12219428418E+03  0.17392502945E+04  0.25500000920E-02 0. -1.
       -2    1    3    3    0  502  0.75521086281E+03 -0.15619592493E+04  0.10662664570E+04  0.20364145700E+04  0.25500000920E-02 0.  1.
</event>
<event>
 5   0  0.9714317E-07  0.3407169E+04  0.7818609E-02  0.8136149E-01
       -1   -1    0    0    0  501  0.00000000000E+00  0.00000000000E+00  0.15853107526E+04  0.15853107526E+04  0.50400001928E-02 0.  1.
        1   -1    0    0  501    0  0.00000000000E+00  0.00000000000E+00 -0.18306818612E+04  0.18306818612E+04  0.50400001928E-02 0. -1.
    10030    2    1    2    0    0  0.00000000000E+00  0.00000000000E+00 -0.24537110853E+03  0.34159926138E+04  0.34071687010E+04 0.  0.
        4    1    3    3  502    0 -0.43141019422E+03 -0.80870170160E+02  0.15276464891E+04  0.15894527828E+04  0.12699999809E+01 0.  1.
       -4    1    3    3    0  502  0.43141019422E+03  0.80870170160E+02 -0.17730175976E+04  0.18265398311E+04  0.12699999809E+01 0. -1.
</event>
<event>
 5   0  0.2664083E-06  0.3391175E+04  0.7818609E-02  0.8140076E-01
        2   -1    0    0  501    0  0.00000000000E+00  0.00000000000E+00  0.19971830852E+04  0.19971830852E+04  0.25500000920E-02 0.  1.
       -2   -1    0    0    0  501  0.00000000000E+00  0.00000000000E+00 -0.14395357104E+04  0.14395357104E+04  0.25500000920E-02 0. -1.
    10030    2    1    2    0    0  0.00000000000E+00  0.00000000000E+00  0.55764737483E+03  0.34367187957E+04  0.33911746469E+04 0.  0.
        2    1    3    3  502    0  0.73048482422E+03  0.55927495702E+02  0.18285040753E+04  0.19698129649E+04  0.25500000920E-02 0.  1.
       -2    1    3    3    0  502 -0.73048482422E+03 -0.55927495702E+02 -0.12708567005E+04  0.14669058308E+04  0.25500000920E-02 0. -1.
</event>
<event>
 5   0  0.2856440E-06  0.3362010E+04  0.7818609E-02  0.8147294E-01
        2   -1    0    0  501    0  0.00000000000E+00  0.00000000000E+00  0.14533071425E+04  0.14533071425E+04  0.25500000920E-02 0.  1.
       -2   -1    0    0    0  501  0.00000000000E+00  0.00000000000E+00 -0.19443781104E+04  0.19443781105E+04  0.25500000920E-02 0. -1.
    10030    2    1    2    0    0  0.00000000000E+00  0.00000000000E+00 -0.49107096797E+03  0.33976852529E+04  0.33620104673E+04 0.  0.
        4    1    3    3  502    0 -0.14870078993E+04 -0.12563309517E+03  0.53649786879E+03  0.15858145362E+04  0.12699999809E+01 0. -1.
       -4    1    3    3    0  502  0.14870078993E+04  0.12563309517E+03 -0.10275688368E+04  0.18118707168E+04  0.12699999809E+01 0.  1.
</event>
<event>
 5   0  0.1010855E-06  0.3328698E+04  0.7818609E-02  0.8155631E-01
        1   -1    0    0  501    0  0.00000000000E+00  0.00000000000E+00  0.17621434658E+04  0.17621434658E+04  0.50400001928E-02 0. -1.
       -1   -1    0    0    0  501  0.00000000000E+00  0.00000000000E+00 -0.15719820749E+04  0.15719820749E+04  0.50400001928E-02 0.  1.
    10030    2    1    2    0    0  0.00000000000E+00  0.00000000000E+00  0.19016139089E+03  0.33341255406E+04  0.33286982089E+04 0.  0.
        1    1    3    3  502    0  0.51240835997E+03 -0.62407548556E+03  0.15527973253E+04  0.17502034375E+04  0.50400001928E-02 0. -1.
       -1    1    3    3    0  502 -0.51240835997E+03  0.62407548556E+03 -0.13626359344E+04  0.15839221031E+04  0.50400001928E-02 0.  1.
</event>
<event>
 5   0  0.9232963E-07  0.2304368E+04  0.7818609E-02  0.8476201E-01
        1   -1    0    0  501    0  0.00000000000E+00  0.00000000000E+00  0.16106272069E+04  0.16106272070E+04  0.50400001928E-02 0. -1.
       -1   -1    0    0    0  501  0.00000000000E+00  0.00000000000E+00 -0.82423032366E+03  0.82423032367E+03  0.50400001928E-02 0.  1.
    10030    2    1    2    0    0  0.00000000000E+00  0.00000000000E+00  0.78639688329E+03  0.24348575306E+04  0.23043678388E+04 0.  0.
        3    1    3    3  502    0 -0.98122625516E+03  0.60079996678E+03  0.32838825594E+03  0.11964967283E+04  0.10100000352E+00 0.  1.
       -3    1    3    3    0  502  0.98122625516E+03 -0.60079996678E+03  0.45800862734E+03  0.12383608024E+04  0.10100000352E+00 0. -1.
</event>
<event>
 5   0  0.2848685E-06  0.3252222E+04  0.7818609E-02  0.8175160E-01
       -2   -1    0    0    0  501  0.00000000000E+00  0.00000000000E+00  0.12640936608E+04  0.12640936608E+04  0.25500000920E-02 0.  1.
        2   -1    0    0  501    0  0.00000000000E+00  0.00000000000E+00 -0.20918044570E+04  0.20918044570E+04  0.25500000920E-02 0. -1.
    10030    2    1    2    0    0  0.00000000000E+00  0.00000000000E+00 -0.82771079619E+03  0.33558981179E+04  0.32522218582E+04 0.  0.
        3    1    3    3  502    0  0.11291286759E+04  0.11697182432E+04 -0.38019007817E+03  0.16696457232E+04  0.10100000352E+00 0. -1.
       -3    1    3    3    0  502 -0.11291286759E+04 -0.11697182432E+04 -0.44752071802E+03  0.16862523947E+04  0.10100000352E+00 0.  1.
</event>
<event>
 5   0  0.1003191E-06  0.3459509E+04  0.7818609E-02  0.8123453E-01
       -1   -1    0    0    0  501  0.00000000000E+00  0.00000000000E+00  0.19575500585E+04  0.19575500585E+04  0.50400001928E-02 0. -1.
        1   -1    0    0  501    0  0.00000000000E+00  0.00000000000E+00 -0.15284671486E+04  0.15284671487E+04  0.50400001928E-02 0.  1.
    10030    2    1    2    0    0  0.00000000000E+00  0.00000000000E+00  0.42908290987E+03  0.34860172072E+04  0.34595091885E+04 0.  0.
        5    1    3    3  502    0  0.62667668416E+03 -0.12836674132E+04 -0.76838304064E+03  0.16220235144E+04  0.46999998093E+01 0.  1.
       -5    1    3    3    0  502 -0.62667668416E+03  0.12836674132E+04  0.11974659505E+04  0.18639936928E+04  0.46999998093E+01 0. -1.
</event>
<event>
 5   0  0.9714317E-07  0.2429240E+04  0.7818609E-02  0.8428637E-01
       -1   -1    0    0    0  501  0.00000000000E+00  0.00000000000E+00  0.83191318388E+03  0.83191318390E+03  0.50400001928E-02 0. -1.
        1   -1    0    0  501    0  0.00000000000E+00  0.00000000000E+00 -0.17733848323E+04  0.17733848323E+04  0.50400001928E-02 0.  1.
    10030    2    1    2    0    0  0.00000000000E+00  0.00000000000E+00 -0.94147164846E+03  0.26052980162E+04  0.24292403933E+04 0.  0.
        4    1    3    3  502    0 -0.54719418715E+03  0.86580506576E+03  0.22946814994E+03  0.10496176137E+04  0.12699999809E+01 0. -1.
       -4    1    3    3    0  502  0.54719418715E+03 -0.86580506576E+03 -0.11709397984E+04  0.15556804025E+04  0.12699999809E+01 0.  1.
</event>
<event>
 5   0  0.2856440E-06  0.3367487E+04  0.7818609E-02  0.8145932E-01
        2   -1    0    0  501    0  0.00000000000E+00  0.00000000000E+00  0.19550698386E+04  0.19550698386E+04  0.25500000920E-02 0. -1.
       -2   -1    0    0    0  501  0.00000000000E+00  0.00000000000E+00 -0.14500723931E+04  0.14500723931E+04  0.25500000920E-02 0.  1.
    10030    2    1    2    0    0  0.00000000000E+00  0.00000000000E+00  0.50499744552E+03  0.34051422318E+04  0.33674873717E+04 0.  0.
        4    1    3    3  502    0  0.12653274500E+04  0.60842148000E+02 -0.86906375904E+03  0.15362385078E+04  0.12699999809E+01 0.  1.
       -4    1    3    3    0  502 -0.12653274500E+04 -0.60842148000E+02  0.13740612046E+04  0.18689037240E+04  0.12699999809E+01 0. -1.
</event>
<event>
 5   0  0.2767014E-06  0.3012306E+04  0.7818609E-02  0.8240226E-01
        2   -1    0    0  501    0  0.00000000000E+00  0.00000000000E+00  0.17724705441E+04  0.17724705441E+04  0.25500000920E-02 0. -1.
       -2   -1    0    0    0  501  0.00000000000E+00  0.00000000000E+00 -0.12798502838E+04  0.12798502838E+04  0.25500000920E-02 0.  1.
    10030    2    1    2    0    0  0.00000000000E+00  0.00000000000E+00  0.49262026031E+03  0.30523208280E+04  0.30123060462E+04 0.  0.
        1    1    3    3  502    0 -0.67654820633E+02 -0.54652389790E+03  0.16667993170E+04  0.17554160501E+04  0.50400001928E-02 0. -1.
       -1    1    3    3    0  502  0.67654820633E+02  0.54652389790E+03 -0.11741790567E+04  0.12969047779E+04  0.50400001928E-02 0.  1.
</event>
<event>
 5   0  0.1010551E-06  0.3387668E+04  0.7818609E-02  0.8140940E-01
        1   -1    0    0  501    0  0.00000000000E+00  0.00000000000E+00  0.26950640025E+04  0.26950640025E+04  0.50400001928E-02 0.  1.
       -1   -1    0    0    0  501  0.00000000000E+00  0.00000000000E+00 -0.10645659057E+04  0.10645659058E+04  0.50400001928E-02 0. -1.
    10030    2    1    2    0    0  0.00000000000E+00  0.00000000000E+00  0.16304980967E+04  0.37596299082E+04  0.33876677823E+04 0.  0.
        2    1    3    3  502    0  0.12848734682E+04 -0.92018439174E+03  0.13887774712E+03  0.15864823266E+04  0.25500000920E-02 0. -1.
       -2    1    3    3    0  502 -0.12848734682E+04  0.92018439174E+03  0.14916203496E+04  0.21731475816E+04  0.25500000920E-02 0.  1.
</event>
<event>
 5   0  0.2664083E-06  0.2819124E+04  0.7818609E-02  0.8297356E-01
       -2   -1    0    0    0  501  0.00000000000E+00  0.00000000000E+00  0.12224802349E+04  0.12224802349E+04  0.25500000920E-02 0. -1.
        2   -1    0    0  501    0  0.00000000000E+00  0.00000000000E+00 -0.16252734265E+04  0.16252734265E+04  0.25500000920E-02 0.  1.
    10030    2    1    2    0    0  0.00000000000E+00  0.00000000000E+00 -0.40279319161E+03  0.28477536614E+04  0.28191237222E+04 0.  0.
        2    1    3    3  502    0  0.42679439386E+03 -0.84237793846E+03  0.85570632571E+03  0.12743576271E+04  0.25500000920E-02 0. -1.
       -2    1    3    3    0  502 -0.42679439386E+03  0.84237793846E+03 -0.12584995173E+04  0.15733960344E+04  0.25500000920E-02 0.  1.
</event>
<event>
 5   0  0.2767014E-06  0.3416453E+04  0.7818609E-02  0.8133880E-01
       -2   -1    0    0    0  501  0.00000000000E+00  0.00000000000E+00  0.15244492102E+04  0.15244492102E+04  0.25500000920E-02 0.  1.
        2   -1    0    0  501    0  0.00000000000E+00  0.00000000000E+00 -0.19141590576E+04  0.19141590576E+04  0.25500000920E-02 0. -1.
    10030    2    1    2    0    0  0.00000000000E+00  0.00000000000E+00 -0.38970984737E+03  0.34386082678E+04  0.34164532858E+04 0.  0.
        1    1    3    3  502    0  0.30212965793E+03  0.13872449596E+04  0.76120357190E+03  0.16109505846E+04  0.50400001928E-02 0.  1.
       -1    1    3    3    0  502 -0.30212965793E+03 -0.13872449596E+04 -0.11509134193E+04  0.18276576832E+04  0.50400001928E-02 0. -1.
</event>
<event>
 5   0  0.2848685E-06  0.3407874E+04  0.7818609E-02  0.8135977E-01
        2   -1    0    0  501    0  0.00000000000E+00  0.00000000000E+00  0.17778974353E+04  0.17778974353E+04  0.25500000920E-02 0.  1.
       -2   -1    0    0    0  501  0.00000000000E+00  0.00000000000E+00 -0.16330531064E+04  0.16330531064E+04  0.25500000920E-02 0. -1.
    10030    2    1    2    0    0  0.00000000000E+00  0.00000000000E+00  0.14484432889E+03  0.34109505418E+04  0.34078737827E+04 0.  0.
        3    1    3    3  502    0 -0.13639834718E+04 -0.73775769866E+02  0.10919227245E+04  0.17487678583E+04  0.10100000352E+00 0.  1.
       -3    1    3    3    0  502  0.13639834718E+04  0.73775769866E+02 -0.94707839565E+03  0.16621826835E+04  0.10100000352E+00 0. -1.
</event>
<event>
 5   0  0.2664083E-06  0.3257579E+04  0.7818609E-02  0.8173774E-01
        2   -1    0    0  501    0  0.00000000000E+00  0.00000000000E+00  0.17447206461E+04  0.17447206461E+04  0.25500000920E-02 0. -1.
       -2   -1    0    0    0  501  0.00000000000E+00  0.00000000000E+00 -0.15205612955E+04  0.15205612955E+04  0.25500000920E-02 0.  1.
    10030    2    1    2    0    0  0.00000000000E+00  0.00000000000E+00  0.22415935063E+03  0.32652819416E+04  0.32575786627E+04 0.  0.
        2    1    3    3  502    0  0.56598331317E+03  0.12961494851E+04  0.92183534398E+03  0.16882301383E+04  0.25500000920E-02 0. -1.
       -2    1    3    3    0  502 -0.56598331317E+03 -0.12961494851E+04 -0.69767599335E+03  0.15770518033E+04  0.25500000920E-02 0.  1.
</event>
<event>
 5   0  0.1003191E-06  0.3356357E+04  0.7818609E-02  0.8148701E-01
       -1   -1    0    0    0  501  0.00000000000E+00  0.00000000000E+00  0.13960492114E+04  0.13960492114E+04  0.50400001928E-02 0. -1.
        1   -1    0    0  501    0  0.00000000000E+00  0.00000000000E+00 -0.20173242092E+04  0.20173242092E+04  0.50400001928E-02 0.  1.
    10030    2    1    2    0    0  0.00000000000E+00  0.00000000000E+00 -0.62127499785E+03  0.34133734206E+04  0.33563574728E+04 0.  0.
        5    1    3    3  502    0 -0.14700896189E+04  0.15668741557E+03 -0.11181968388E+04  0.18536722186E+04  0.46999998093E+01 0.  1.
       -5    1    3    3    0  502  0.14700896189E+04 -0.15668741557E+03  0.49692184090E+03  0.15597012020E+04  0.46999998093E+01 0. -1.
</event>
<event>
 5   0  0.2856440E-06  0.3384185E+04  0.7818609E-02  0.8141799E-01
        2   -1    0    0  501    0  0.00000000000E+00  0.00000000000E+00  0.22294583428E+04  0.22294583428E+04  0.25500000920E-02 0.  1.
       -2   -1    0    0    0  501  0.00000000000E+00  0.00000000000E+00 -0.12842480901E+04  0.12842480901E+04  0.25500000920E-02 0. -1.
    10030    2    1    2    0    0  0.00000000000E+00  0.00000000000E+00  0.94521025265E+03  0.35137064329E+04  0.33841853487E+04 0.  0.
        4    1    3    3  502    0  0.44780247338E+03  0.23620902163E+03  0.21489744612E+04  0.22078076467E+04  0.12699999809E+01 0.  1.
       -4    1    3    3    0  502 -0.44780247338E+03 -0.23620902163E+03 -0.12037642085E+04  0.13058987862E+04  0.12699999809E+01 0. -1.
</event>
<event>
 5   0  0.9232963E-07  0.2648004E+04  0.7818609E-02  0.8352076E-01
        1   -1    0    0  501    0  0.00000000000E+00  0.00000000000E+00  0.21855535685E+04  0.21855535685E+04  0.50400001928E-02 0. -1.
       -1   -1    0    0    0  501  0.00000000000E+00  0.00000000000E+00 -0.80207674393E+03  0.80207674394E+03  0.50400001928E-02 0.  1.
    10030    2    1    2    0    0  0.00000000000E+00  0.00000000000E+00  0.13834768246E+04  0.29876303124E+04  0.26480042975E+04 0.  0.
        3    1    3    3  502    0  0.11597981818E+03  0.12959475676E+04  0.96821962811E+03  0.16218448368E+04  0.10100000352E+00 0.  1.
       -3    1    3    3    0  502 -0.11597981818E+03 -0.12959475676E+04  0.41525719644E+03  0.13657854757E+04  0.10100000352E+00 0. -1.
</event>
<event>
 5   0  0.9232963E-07  0.3393264E+04  0.7818609E-02  0.8139562E-01
       -1   -1    0    0    0  501  0.00000000000E+00  0.00000000000E+00  0.18157316131E+04  0.18157316131E+04  0.50400001928E-02 0.  1.
        1   -1    0    0  501    0  0.00000000000E+00  0.00000000000E+00 -0.15853440969E+04  0.15853440969E+04  0.50400001928E-02 0. -1.
    10030    2    1    2    0    0  0.00000000000E+00  0.00000000000E+00  0.23038751613E+03  0.34010757100E+04  0.33932635585E+04 0.  0.
        3    1    3    3  502    0  0.38906132121E+03  0.65089037277E+03  0.16364272161E+04  0.18035856045E+04  0.10100000352E+00 0.  1.
       -3    1    3    3    0  502 -0.38906132121E+03 -0.65089037277E+03 -0.14060397000E+04  0.15974901055E+04  0.10100000352E+00 0. -1.
</event>
<event>
 5   0  0.2848685E-06  0.3361115E+04  0.7818609E-02  0.8147517E-01
       -2   -1    0    0    0  501  0.00000000000E+00  0.00000000000E+00  0.14544427421E+04  0.14544427421E+04  0.25500000920E-02 0. -1.
        2   -1    0    0  501    0  0.00000000000E+00  0.00000000000E+00 -0.19418245987E+04  0.19418245987E+04  0.25500000920E-02 0.  1.
    10030    2    1    2    0    0  0.00000000000E+00  0.00000000000E+00 -0.48738185654E+03  0.33962673408E+04  0.33611145140E+04 0.  0.
        3    1    3    3  502    0 -0.34155336440E+03  0.81869132081E+03  0.11985980604E+04  0.14911577717E+04  0.10100000352E+00 0. -1.
       -3    1    3    3    0  502  0.34155336440E+03 -0.81869132081E+03 -0.16859799170E+04  0.19051095691E+04  0.10100000352E+00 0.  1.
</event>
<event>
 5   0  0.9232963E-07  0.3389106E+04  0.7818609E-02  0.8140585E-01
        1   -1    0    0  501    0  0.00000000000E+00  0.00000000000E+00  0.13592774839E+04  0.13592774839E+04  0.50400001928E-02 0. -1.
       -1   -1    0    0    0  501  0.00000000000E+00  0.00000000000E+00 -0.21125265635E+04  0.21125265635E+04  0.50400001928E-02 0.  1.
    10030    2    1    2    0    0  0.00000000000E+00  0.00000000000E+00 -0.75324907960E+03  0.34718040475E+04  0.33891059541E+04 0.  0.
        3    1    3    3  502    0 -0.32984770342E+03  0.13207459877E+04  0.65712784956E+03  0.15116171778E+04  0.10100000352E+00 0. -1.
       -3    1    3    3    0  502  0.32984770342E+03 -0.13207459877E+04 -0.14103769292E+04  0.19601868696E+04  0.10100000352E+00 0.  1.
</event>
<event>
 5   0  0.9714317E-07  0.3462125E+04  0.7818609E-02  0.8122825E-01
        1   -1    0    0  501    0  0.00000000000E+00  0.00000000000E+00  0.22400741972E+04  0.22400741972E+04  0.50400001928E-02 0.  1.
       -1   -1    0    0    0  501  0.00000000000E+00  0.00000000000E+00 -0.13377135463E+04  0.13377135463E+04  0.50400001928E-02 0. -1.
    10030    2    1    2    0    0  0.00000000000E+00  0.00000000000E+00  0.90236065093E+03  0.35777877436E+04  0.34621251268E+04 0.  0.
        4    1    3    3  502    0  0.16894549807E+04 -0.35674567562E+03  0.32440185881E+03  0.17569188336E+04  0.12699999809E+01 0.  1.
       -4    1    3    3    0  502 -0.16894549807E+04  0.35674567562E+03  0.57795879212E+03  0.18208689100E+04  0.12699999809E+01 0. -1.
</event>
<event>
 5   0  0.1003191E-06  0.3344006E+04  0.7818609E-02  0.8151787E-01
       -1   -1    0    0    0  501  0.00000000000E+00  0.00000000000E+00  0.21288531590E+04  0.21288531590E+04  0.50400001928E-02 0. -1.
        1   -1    0    0  501    0  0.00000000000E+00  0.00000000000E+00 -0.13131927266E+04  0.13131927266E+04  0.50400001928E-02 0.  1.
    10030    2    1    2    0    0  0.00000000000E+00  0.00000000000E+00  0.81566043247E+03  0.34420458856E+04  0.33440062705E+04 0.  0.
        5    1    3    3  502    0  0.10864004468E+04  0.54922137009E+03  0.15875841904E+04  0.20005888373E+04  0.46999998093E+01 0. -1.
       -5    1    3    3    0  502 -0.10864004468E+04 -0.54922137009E+03 -0.77192375793E+03  0.14414570483E+04  0.46999998093E+01 0.  1.
</event>
<event>
 5   0  0.9714317E-07  0.3008163E+04  0.7818609E-02  0.8241404E-01
       -1   -1    0    0    0  501  0.00000000000E+00  0.00000000000E+00  0.11335778254E+04  0.11335778254E+04  0.50400001928E-02 0. -1.
        1   -1    0    0  501    0  0.00000000000E+00  0.00000000000E+00 -0.19956825384E+04  0.19956825384E+04  0.50400001928E-02 0.  1.
    10030    2    1    2    0    0  0.00000000000E+00  0.00000000000E+00 -0.86210471304E+03  0.31292603638E+04  0.30081632084E+04 0.  0.
        4    1    3    3  502    0  0.35858326313E+03  0.13727933194E+03 -0.19438410505E+04  0.19814003165E+04  0.12699999809E+01 0.  1.
       -4    1    3    3    0  502 -0.35858326313E+03 -0.13727933194E+03  0.10817363375E+04  0.11478600473E+04  0.12699999809E+01 0. -1.
</event>
<event>
 5   0  0.2767014E-06  0.3280664E+04  0.7818609E-02  0.8167833E-01
        2   -1    0    0  501    0  0.00000000000E+00  0.00000000000E+00  0.13572910347E+04  0.13572910347E+04  0.25500000920E-02 0. -1.
       -2   -1    0    0    0  501  0.00000000000E+00  0.00000000000E+00 -0.19823961127E+04  0.19823961127E+04  0.25500000920E-02 0.  1.
    10030    2    1    2    0    0  0.00000000000E+00  0.00000000000E+00 -0.62510507801E+03  0.33396871474E+04  0.32806636347E+04 0.  0.
        1    1    3    3  502    0 -0.77149922305E+03  0.11303409208E+04  0.60804422777E+03  0.14975311120E+04  0.50400001928E-02 0. -1.
       -1    1    3    3    0  502  0.77149922305E+03 -0.11303409208E+04 -0.12331493058E+04  0.18421560354E+04  0.50400001928E-02 0.  1.
</event>
<event>
 5   0  0.1010855E-06  0.2409654E+04  0.7818609E-02  0.8435898E-01
        1   -1    0    0  501    0  0.00000000000E+00  0.00000000000E+00  0.25961285769E+04  0.25961285769E+04  0.50400001928E-02 0.  1.
       -1   -1    0    0    0  501  0.00000000000E+00  0.00000000000E+00 -0.55914332893E+03  0.55914332896E+03  0.50400001928E-02 0. -1.
    10030    2    1    2    0    0  0.00000000000E+00  0.00000000000E+00  0.20369852479E+04  0.31552719058E+04  0.24096538962E+04 0.  0.
        1    1    3    3  502    0  0.54526626611E+03  0.77061948520E+03  0.19987633175E+04  0.22104806019E+04  0.50400001928E-02 0.  1.
       -1    1    3    3    0  502 -0.54526626611E+03 -0.77061948520E+03  0.38221930394E+02  0.94479130390E+03  0.50400001928E-02 0. -1.
</event>
<event>
 5   0  0.2848685E-06  0.3385623E+04  0.7818609E-02  0.8141444E-01
       -2   -1    0    0    0  501  0.00000000000E+00  0.00000000000E+00  0.95081050469E+03  0.95081050469E+03  0.25500000920E-02 0. -1.
        2   -1    0    0  501    0  0.00000000000E+00  0.00000000000E+00 -0.30138619209E+04  0.30138619209E+04  0.25500000920E-02 0.  1.
    10030    2    1    2    0    0  0.00000000000E+00  0.00000000000E+00 -0.20630514162E+04  0.39646724256E+04  0.33856234723E+04 0.  0.
        3    1    3    3  502    0 -0.16653087130E+04 -0.23633313625E+03 -0.12552666400E+04  0.20987617322E+04  0.10100000352E+00 0. -1.
       -3    1    3    3    0  502  0.16653087130E+04  0.23633313625E+03 -0.80778477618E+03  0.18659106934E+04  0.10100000352E+00 0.  1.
</event>
<event>
 5   0  0.2856440E-06  0.2356909E+04  0.7818609E-02  0.8455815E-01
        2   -1    0    0  501    0  0.00000000000E+00  0.00000000000E+00  0.22472348058E+04  0.22472348058E+04  0.25500000920E-02 0.  1.
       -2   -1    0    0    0  501  0.00000000000E+00  0.00000000000E+00 -0.61798395579E+03  0.61798395580E+03  0.25500000920E-02 0. -1.
    10030    2    1    2    0    0  0.00000000000E+00  0.00000000000E+00  0.16292508500E+04  0.28652187616E+04  0.23569090393E+04 0.  0.
        4    1    3    3  502    0 -0.51240500555E+03  0.28852072608E+03  0.20561255850E+04  0.21385642692E+04  0.12699999809E+01 0.  1.
       -4    1    3    3    0  502  0.51240500555E+03 -0.28852072608E+03 -0.42687473501E+03  0.72665449244E+03  0.12699999809E+01 0. -1.
</event>
<event>
 5   0  0.9714317E-07  0.3338984E+04  0.7818609E-02  0.8153046E-01
        1   -1    0    0  501    0  0.00000000000E+00  0.00000000000E+00  0.91691814639E+03  0.91691814640E+03  0.50400001928E-02 0. -1.
       -1   -1    0    0    0  501  0.00000000000E+00  0.00000000000E+00 -0.30397520645E+04  0.30397520645E+04  0.50400001928E-02 0.  1.
    10030    2    1    2    0    0  0.00000000000E+00  0.00000000000E+00 -0.21228339181E+04  0.39566702109E+04  0.33389841740E+04 0.  0.
        4    1    3    3  502    0  0.52508577237E+03  0.15762007146E+04 -0.12564137350E+04  0.20829548356E+04  0.12699999809E+01 0.  1.
       -4    1    3    3    0  502 -0.52508577237E+03 -0.15762007146E+04 -0.86642018313E+03  0.18737153753E+04  0.12699999809E+01 0. -1.
</event>
<event>
 5   0  0.1010855E-06  0.3462607E+04  0.7818609E-02  0.8122709E-01
       -1   -1    0    0    0  501  0.00000000000E+00  0.00000000000E+00  0.14035778637E+04  0.14035778637E+04  0.50400001928E-02 0.  1.
        1   -1    0    0  501    0  0.00000000000E+00  0.00000000000E+00 -0.21355506548E+04  0.21355506548E+04  0.50400001928E-02 0. -1.
    10030    2    1    2    0    0  0.00000000000E+00  0.00000000000E+00 -0.73197279114E+03  0.35391285185E+04  0.34626068941E+04 0.  0.
        1    1    3    3  502    0  0.90829732214E+03  0.14628218870E+04 -0.55041722720E+03  0.18077087770E+04  0.50400001928E-02 0. -1.
       -1    1    3    3    0  502 -0.90829732214E+03 -0.14628218870E+04 -0.18155556394E+03  0.17314197415E+04  0.50400001928E-02 0.  1.
</event>
<event>
 5   0  0.2664083E-06  0.3466882E+04  0.7818609E-02  0.8121684E-01
       -2   -1    0    0    0  501  0.00000000000E+00  0.00000000000E+00  0.27087224494E+04  0.27087224494E+04  0.25500000920E-02 0.  1.
        2   -1    0    0  501    0  0.00000000000E+00  0.00000000000E+00 -0.11093118861E+04  0.11093118861E+04  0.25500000920E-02 0. -1.
    10030    2    1    2    0    0  0.00000000000E+00  0.00000000000E+00  0.15994105633E+04  0.38180343356E+04  0.34668821782E+04 0.  0.
        2    1    3    3  502    0  0.10939729498E+04  0.30333067628E+03 -0.64295275620E+03  0.13046741205E+04  0.25500000920E-02 0. -1.
       -2    1    3    3    0  502 -0.10939729498E+04 -0.30333067628E+03  0.22423633195E+04  0.25133602151E+04  0.25500000920E-02 0.  1.
</event>
<event>
 5   0  0.2848685E-06  0.3321556E+04  0.7818609E-02  0.8157432E-01
       -2   -1    0    0    0  501  0.00000000000E+00  0.00000000000E+00  0.15078876331E+04  0.15078876331E+04  0.25500000920E-02 0. -1.
        2   -1    0    0  501    0  0.00000000000E+00  0.00000000000E+00 -0.18291703051E+04  0.18291703051E+04  0.25500000920E-02 0.  1.
    10030    2    1    2    0    0  0.00000000000E+00  0.00000000000E+00 -0.32128267199E+03  0.33370579382E+04  0.33215558294E+04 0.  0.
        3    1    3    3  502    0  0.57317429221E+02  0.15862238104E+04  0.33030280750E+03  0.16212622302E+04  0.10100000352E+00 0.  1.
       -3    1    3    3    0  502 -0.57317429221E+02 -0.15862238104E+04 -0.65158547949E+03  0.17157957080E+04  0.10100000352E+00 0. -1.
</event>
<event>
 5   0  0.9714317E-07  0.2187104E+04  0.7818609E-02  0.8523815E-01
        1   -1    0    0  501    0  0.00000000000E+00  0.00000000000E+00  0.16480919906E+04  0.16480919906E+04  0.50400001928E-02 0.  1.
       -1   -1    0    0    0  501  0.00000000000E+00  0.00000000000E+00 -0.72560050767E+03  0.72560050768E+03  0.50400001928E-02 0. -1.
    10030    2    1    2    0    0  0.00000000000E+00  0.00000000000E+00  0.92249148290E+03  0.23736924983E+04  0.21871043734E+04 0.  0.
        4    1    3    3  502    0  0.68454174204E+03  0.17418087720E+03 -0.44479121586E+03  0.83473182111E+03  0.12699999809E+01 0. -1.
       -4    1    3    3    0  502 -0.68454174204E+03 -0.17418087720E+03  0.13672826988E+04  0.15389606771E+04  0.12699999809E+01 0.  1.
</event>
<event>
 5   0  0.1010551E-06  0.3475473E+04  0.7818609E-02  0.8119627E-01
       -1   -1    0    0    0  501  0.00000000000E+00  0.00000000000E+00  0.24040413181E+04  0.24040413181E+04  0.50400001928E-02 0. -1.
        1   -1    0    0  501    0  0.00000000000E+00  0.00000000000E+00 -0.12561052785E+04  0.12561052785E+04  0.50400001928E-02 0.  1.
    10030    2    1    2    0    0  0.00000000000E+00  0.00000000000E+00  0.11479360396E+04  0.36601465966E+04  0.34754734868E+04 0.  0.
        2    1    3    3  502    0  0.12461087696E+04  0.18749380402E+03 -0.68618666707E+03  0.14348495163E+04  0.25500000920E-02 0.  1.
       -2    1    3    3    0  502 -0.12461087696E+04 -0.18749380402E+03  0.18341227067E+04  0.22252970803E+04  0.25500000920E-02 0. -1.
</event>
<event>
 5   0  0.1010855E-06  0.3375956E+04  0.7818609E-02  0.8143833E-01
        1   -1    0    0  501    0  0.00000000000E+00  0.00000000000E+00  0.14569900387E+04  0.14569900387E+04  0.50400001928E-02 0.  1.
       -1   -1    0    0    0  501  0.00000000000E+00  0.00000000000E+00 -0.19555859150E+04  0.19555859150E+04  0.50400001928E-02 0. -1.
    10030    2    1    2    0    0  0.00000000000E+00  0.00000000000E+00 -0.49859587632E+03  0.34125759537E+04  0.33759556857E+04 0.  0.
        1    1    3    3  502    0  0.10557567532E+04 -0.96213924388E+03 -0.11584622698E+04  0.18391218222E+04  0.50400001928E-02 0. -1.
       -1    1    3    3    0  502 -0.10557567532E+04  0.96213924388E+03  0.65986639344E+03  0.15734541314E+04  0.50400001928E-02 0.  1.
</event>
<event>
 5   0  0.2664083E-06  0.3165767E+04  0.7818609E-02  0.8197917E-01
        2   -1    0    0  501    0  0.00000000000E+00  0.00000000000E+00  0.13008146823E+04  0.13008146823E+04  0.25500000920E-02 0. -1.
       -2   -1    0    0    0  501  0.00000000000E+00  0.00000000000E+00 -0.19261160304E+04  0.19261160304E+04  0.25500000920E-02 0.  1.
    10030    2    1    2    0    0  0.00000000000E+00  0.00000000000E+00 -0.62530134806E+03  0.32269307128E+04  0.31657668975E+04 0.  0.
        2    1    3    3  502    0 -0.15427119941E+04  0.35247705252E+03 -0.34967941491E+03  0.16206406333E+04  0.25500000920E-02 0.  1.
       -2    1    3    3    0  502  0.15427119941E+04 -0.35247705252E+03 -0.27562193315E+03  0.16062900794E+04  0.25500000920E-02 0. -1.
</event>
<event>
 5   0  0.1003191E-06  0.3397260E+04  0.7818609E-02  0.8138579E-01
       -1   -1    0    0    0  501  0.00000000000E+00  0.00000000000E+00  0.14299774033E+04  0.14299774034E+04  0.50400001928E-02 0.  1.
        1   -1    0    0  501    0  0.00000000000E+00  0.00000000000E+00 -0.20177550936E+04  0.20177550936E+04  0.50400001928E-02 0. -1.
    10030    2    1    2    0    0  0.00000000000E+00  0.00000000000E+00 -0.58777769026E+03  0.34477324970E+04  0.33972601839E+04 0.  0.
        5    1    3    3  502    0 -0.10958777126E+04  0.82684127668E+03 -0.13091046290E+04  0.18969426658E+04  0.46999998093E+01 0. -1.
       -5    1    3    3    0  502  0.10958777126E+04 -0.82684127668E+03  0.72132693871E+03  0.15507898311E+04  0.46999998093E+01 0.  1.
</event>
<event>
 5   0  0.9232963E-07  0.3360801E+04  0.7818609E-02  0.8147595E-01
       -1   -1    0    0    0  501  0.00000000000E+00  0.00000000000E+00  0.12281656802E+04  0.12281656803E+04  0.50400001928E-02 0.  1.
        1   -1    0    0  501    0  0.00000000000E+00  0.00000000000E+00 -0.22991574283E+04  0.22991574283E+04  0.50400001928E-02 0. -1.
    10030    2    1    2    0    0  0.00000000000E+00  0.00000000000E+00 -0.10709917480E+04  0.35273231085E+04  0.33608012419E+04 0.  0.
        3    1    3    3  502    0  0.36192384284E+03 -0.11209170027E+04  0.72234401753E+03  0.13817469684E+04  0.10100000352E+00 0.  1.
       -3    1    3    3    0  502 -0.36192384284E+03  0.11209170027E+04 -0.17933357655E+04  0.21455761401E+04  0.10100000352E+00 0. -1.
</event>
<event>
 5   0  0.2848685E-06  0.3326937E+04  0.7818609E-02  0.8156075E-01
        2   -1    0    0  501    0  0.00000000000E+00  0.00000000000E+00  0.16817635375E+04  0.16817635375E+04  0.25500000920E-02 0. -1.
       -2   -1    0    0    0  501  0.00000000000E+00  0.00000000000E+00 -0.16453725451E+04  0.16453725451E+04  0.25500000920E-02 0.  1.
    10030    2    1    2    0    0  0.00000000000E+00  0.00000000000E+00  0.36390992361E+02  0.33271360826E+04  0.33269370610E+04 0.  0.
        3    1    3    3  502    0  0.12344006040E+04 -0.58895019573E+03 -0.92870873484E+03  0.16532111506E+04  0.10100000352E+00 0.  1.
       -3    1    3    3    0  502 -0.12344006040E+04  0.58895019573E+03  0.96509972720E+03  0.16739249319E+04  0.10100000352E+00 0. -1.
</event>
<event>
 5   0  0.2848685E-06  0.3395923E+04  0.7818609E-02  0.8138908E-01
        2   -1    0    0  501    0  0.00000000000E+00  0.00000000000E+00  0.20015244171E+04  0.20015244171E+04  0.25500000920E-02 0.  1.
       -2   -1    0    0    0  501  0.00000000000E+00  0.00000000000E+00 -0.14404385008E+04  0.14404385009E+04  0.25500000920E-02 0. -1.
    10030    2    1    2    0    0  0.00000000000E+00  0.00000000000E+00  0.56108591627E+03  0.34419629180E+04  0.33959227499E+04 0.  0.
        3    1    3    3  502    0 -0.80198401361E+03 -0.11244076641E+04  0.12816596355E+04  0.18841768453E+04  0.10100000352E+00 0. -1.
       -3    1    3    3    0  502  0.80198401361E+03  0.11244076641E+04 -0.72057371922E+03  0.15577860726E+04  0.10100000352E+00 0.  1.
</event>
<event>
 5   0  0.1010855E-06  0.3234042E+04  0.7818609E-02  0.8179884E-01
       -1   -1    0    0    0  501  0.00000000000E+00  0.00000000000E+00  0.11159985570E+04  0.11159985571E+04  0.50400001928E-02 0.  1.
        1   -1    0    0  501    0  0.00000000000E+00  0.00000000000E+00 -0.23429748331E+04  0.23429748331E+04  0.50400001928E-02 0. -1.
    10030    2    1    2    0    0  0.00000000000E+00  0.00000000000E+00 -0.12269762761E+04  0.34589733902E+04  0.32340417641E+04 0.  0.
        1    1    3    3  502    0  0.66577493259E+03  0.10158722397E+04 -0.17552078472E+04  0.21344805586E+04  0.50400001928E-02 0. -1.
       -1    1    3    3    0  502 -0.66577493259E+03 -0.10158722397E+04  0.52823157111E+03  0.13244928316E+04  0.50400001928E-02 0.  1.
</event>
<event>
 5   0  0.2767014E-06  0.3532307E+04  0.7818609E-02  0.8106176E-01
        2   -1    0    0  501    0  0.00000000000E+00  0.00000000000E+00  0.25746244942E+04  0.25746244942E+04  0.25500000920E-02 0. -1.
       -2   -1    0    0    0  501  0.00000000000E+00  0.00000000000E+00 -0.12115545431E+04  0.12115545431E+04  0.25500000920E-02 0.  1.
    10030    2    1    2    0    0  0.00000000000E+00  0.00000000000E+00  0.13630699511E+04  0.37861790373E+04  0.35323068965E+04 0.  0.
        1    1    3    3  502    0  0.54807262326E+03 -0.16644527676E+04  0.44545205872E+03  0.18080968317E+04  0.50400001928E-02 0. -1.
       -1    1    3    3    0  502 -0.54807262326E+03  0.16644527676E+04  0.91761789236E+03  0.19780822057E+04  0.50400001928E-02 0.  1.
</event>
<event>
 5   0  0.9714317E-07  0.2125678E+04  0.7818609E-02  0.8550015E-01
        1   -1    0    0  501    0  0.00000000000E+00  0.00000000000E+00  0.20300900374E+04  0.20300900374E+04  0.50400001928E-02 0.  1.
       -1   -1    0    0    0  501  0.00000000000E+00  0.00000000000E+00 -0.55644185926E+03  0.55644185928E+03  0.50400001928E-02 0. -1.
    10030    2    1    2    0    0  0.00000000000E+00  0.00000000000E+00  0.14736481781E+04  0.25865318967E+04  0.21256783152E+04 0.  0.
        4    1    3    3  502    0 -0.70377908227E+03  0.61541117967E+01 -0.23226051175E+03  0.74114062630E+03  0.12699999809E+01 0. -1.
       -4    1    3    3    0  502  0.70377908227E+03 -0.61541117967E+01  0.17059086899E+04  0.18453912704E+04  0.12699999809E+01 0.  1.
</event>
<event>
 5   0  0.1010855E-06  0.3463759E+04  0.7818609E-02  0.8122433E-01
       -1   -1    0    0    0  501  0.00000000000E+00  0.00000000000E+00  0.93859321783E+03  0.93859321784E+03  0.50400001928E-02 0.  1.
        1   -1    0    0  501    0  0.00000000000E+00  0.00000000000E+00 -0.31956398393E+04  0.31956398393E+04  0.50400001928E-02 0. -1.
    10030    2    1    2    0    0  0.00000000000E+00  0.00000000000E+00 -0.22570466215E+04  0.41342330571E+04  0.34637585827E+04 0.  0.
        1    1    3    3  502    0 -0.16877928268E+04  0.50308259948E+02 -0.66899118120E+03  0.18162391769E+04  0.50400001928E-02 0.  1.
       -1    1    3    3    0  502  0.16877928268E+04 -0.50308259948E+02 -0.15880554403E+04  0.23179938802E+04  0.50400001928E-02 0. -1.
</event>
<event>
 5   0  0.1010551E-06  0.3387288E+04  0.7818609E-02  0.8141033E-01
       -1   -1    0    0    0  501  0.00000000000E+00  0.00000000000E+00  0.19322076987E+04  0.19322076987E+04  0.50400001928E-02 0. -1.
        1   -1    0    0  501    0  0.00000000000E+00  0.00000000000E+00 -0.14845353608E+04  0.14845353608E+04  0.50400001928E-02 0.  1.
    10030    2    1    2    0    0  0.00000000000E+00  0.00000000000E+00  0.44767233795E+03  0.34167430595E+04  0.33872883864E+04 0.  0.
        2    1    3    3  502    0 -0.10503959541E+04  0.11277666967E+04  0.93225459997E+03  0.18011907233E+04  0.25500000920E-02 0. -1.
       -2    1    3    3    0  502  0.10503959541E+04 -0.11277666967E+04 -0.48458226202E+03  0.16155523363E+04  0.25500000920E-02 0.  1.
</event>
<event>
 5   0  0.2767014E-06  0.3394482E+04  0.7818609E-02  0.8139262E-01
        2   -1    0    0  501    0  0.00000000000E+00  0.00000000000E+00  0.18056172240E+04  0.18056172240E+04  0.25500000920E-02 0.  1.
       -2   -1    0    0    0  501  0.00000000000E+00  0.00000000000E+00 -0.15953698843E+04  0.15953698843E+04  0.25500000920E-02 0. -1.
    10030    2    1    2    0    0  0.00000000000E+00  0.00000000000E+00  0.21024733977E+03  0.34009871083E+04  0.33944821942E+04 0.  0.
        1    1    3    3  502    0  0.10831221802E+03  0.15149963498E+04 -0.65374567855E+03  0.16535806266E+04  0.50400001928E-02 0. -1.
       -1    1    3    3    0  502 -0.10831221802E+03 -0.15149963498E+04  0.86399301831E+03  0.17474064817E+04  0.50400001928E-02 0.  1.
</event>
<event>
 5   0  0.9714317E-07  0.3133581E+04  0.7818609E-02  0.8206582E-01
       -1   -1    0    0    0  501  0.00000000000E+00  0.00000000000E+00  0.11259710796E+04  0.11259710796E+04  0.50400001928E-02 0.  1.
        1   -1    0    0  501    0  0.00000000000E+00  0.00000000000E+00 -0.21801907335E+04  0.21801907335E+04  0.50400001928E-02 0. -1.
    10030    2    1    2    0    0  0.00000000000E+00  0.00000000000E+00 -0.10542196539E+04  0.33061618131E+04  0.31335805169E+04 0.  0.
        4    1    3    3  502    0  0.10586090834E+04 -0.10104779283E+04 -0.11174911285E+04  0.18413329059E+04  0.12699999809E+01 0. -1.
       -4    1    3    3    0  502 -0.10586090834E+04  0.10104779283E+04  0.63271474608E+02  0.14648289072E+04  0.12699999809E+01 0.  1.
</event>
<event>
 5   0  0.1010551E-06  0.3369986E+04  0.7818609E-02  0.8145312E-01
        1   -1    0    0  501    0  0.00000000000E+00  0.00000000000E+00  0.20387041534E+04  0.20387041534E+04  0.50400001928E-02 0. -1.
       -1   -1    0    0    0  501  0.00000000000E+00  0.00000000000E+00 -0.13926501530E+04  0.13926501530E+04  0.50400001928E-02 0.  1.
    10030    2    1    2    0    0  0.00000000000E+00  0.00000000000E+00  0.64605400041E+03  0.34313543065E+04  0.33699861432E+04 0.  0.
        2    1    3    3  502    0 -0.25748036598E+03 -0.16644266625E+04  0.27121422984E+03  0.17059218658E+04  0.25500000920E-02 0. -1.
       -2    1    3    3    0  502  0.25748036598E+03  0.16644266625E+04  0.37483977057E+03  0.17254324407E+04  0.25500000920E-02 0.  1.
</event>
<event>
 5   0  0.2664083E-06  0.3391163E+04  0.7818609E-02  0.8140079E-01
       -2   -1    0    0    0  501  0.00000000000E+00  0.00000000000E+00  0.28484702675E+04  0.28484702675E+04  0.25500000920E-02 0.  1.
        2   -1    0    0  501    0  0.00000000000E+00  0.00000000000E+00 -0.10093124797E+04  0.10093124797E+04  0.25500000920E-02 0. -1.
    10030    2    1    2    0    0  0.00000000000E+00  0.00000000000E+00  0.18391577878E+04  0.38577827472E+04  0.33911629799E+04 0.  0.
        2    1    3    3  502    0  0.12218776120E+04 -0.61068962758E+03 -0.22316714112E+03  0.13840990907E+04  0.25500000920E-02 0. -1.
       -2    1    3    3    0  502 -0.12218776120E+04  0.61068962758E+03  0.20623249289E+04  0.24736836565E+04  0.25500000920E-02 0.  1.
</event>
<event>
 5   0  0.9232963E-07  0.3272181E+04  0.7818609E-02  0.8170010E-01
        1   -1    0    0  501    0  0.00000000000E+00  0.00000000000E+00  0.14161670285E+04  0.14161670285E+04  0.50400001928E-02 0.  1.
       -1   -1    0    0    0  501  0.00000000000E+00  0.00000000000E+00 -0.18901673139E+04  0.18901673139E+04  0.50400001928E-02 0. -1.
    10030    2    1    2    0    0  0.00000000000E+00  0.00000000000E+00 -0.47400028541E+03  0.33063343424E+04  0.32721813081E+04 0.  0.
        3    1    3    3  502    0 -0.69141767138E+03 -0.13187853191E+04  0.44796872692E+03  0.15549691652E+04  0.10100000352E+00 0.  1.
       -3    1    3    3    0  502  0.69141767138E+03  0.13187853191E+04 -0.92196901233E+03  0.17513651772E+04  0.10100000352E+00 0. -1.
</event>
<event>
 5   0  0.2906701E-06  0.3400946E+04  0.7818609E-02  0.8137674E-01
        2   -1    0    0  501    0  0.00000000000E+00  0.00000000000E+00  0.26468329887E+04  0.26468329887E+04  0.25500000920E-02 0.  1.
       -2   -1    0    0    0  501  0.00000000000E+00  0.00000000000E+00 -0.10924783135E+04  0.10924783135E+04  0.25500000920E-02 0. -1.
    10030    2    1    2    0    0  0.00000000000E+00  0.00000000000E+00  0.15543546752E+04  0.37393113022E+04  0.34009455388E+04 0.  0.
        5    1    3    3  502    0  0.15355560474E+03 -0.10318879004E+04  0.22536164117E+04  0.24833809582E+04  0.46999998093E+01 0.  1.
       -5    1    3    3    0  502 -0.15355560474E+03  0.10318879004E+04 -0.69926173650E+03  0.12559303439E+04  0.46999998093E+01 0. -1.
</event>
<event>
 5   0  0.9232963E-07  0.3444394E+04  0.7818609E-02  0.8127096E-01
        1   -1    0    0  501    0  0.00000000000E+00  0.00000000000E+00  0.19996987514E+04  0.19996987514E+04  0.50400001928E-02 0.  1.
       -1   -1    0    0    0  501  0.00000000000E+00  0.00000000000E+00 -0.14832045766E+04  0.14832045766E+04  0.50400001928E-02 0. -1.
    10030    2    1    2    0    0  0.00000000000E+00  0.00000000000E+00  0.51649417478E+03  0.34829033280E+04  0.34443939031E+04 0.  0.
        3    1    3    3  502    0  0.11453293881E+04 -0.12766079000E+04  0.41637704327E+03  0.17649014108E+04  0.10100000352E+00 0.  1.
       -3    1    3    3    0  502 -0.11453293881E+04  0.12766079000E+04  0.10011713151E+03  0.17180019172E+04  0.10100000352E+00 0. -1.
</event>
<event>
 5   0  0.2664083E-06  0.3159879E+04  0.7818609E-02  0.8199494E-01
        2   -1    0    0  501    0  0.00000000000E+00  0.00000000000E+00  0.31908497450E+04  0.31908497450E+04  0.25500000920E-02 0. -1.
       -2   -1    0    0    0  501  0.00000000000E+00  0.00000000000E+00 -0.78230217320E+03  0.78230217320E+03  0.25500000920E-02 0.  1.
    10030    2    1    2    0    0  0.00000000000E+00  0.00000000000E+00  0.24085475718E+04  0.39731519182E+04  0.31598789153E+04 0.  0.
        2    1    3    3  502    0  0.79092044458E+03 -0.10053167688E+04  0.38238028251E+02  0.12797183683E+04  0.25500000920E-02 0.  1.
       -2    1    3    3    0  502 -0.79092044458E+03  0.10053167688E+04  0.23703095435E+04  0.26934335498E+04  0.25500000920E-02 0. -1.
</event>
<event>
 5   0  0.2664083E-06  0.3112258E+04  0.7818609E-02  0.8212382E-01
       -2   -1    0    0    0  501  0.00000000000E+00  0.00000000000E+00  0.12829059333E+04  0.12829059333E+04  0.25500000920E-02 0. -1.
        2   -1    0    0  501    0  0.00000000000E+00  0.00000000000E+00 -0.18875414980E+04  0.18875414980E+04  0.25500000920E-02 0.  1.
    10030    2    1    2    0    0  0.00000000000E+00  0.00000000000E+00 -0.60463556472E+03  0.31704474313E+04  0.31122584643E+04 0.  0.
        2    1    3    3  502    0 -0.14364038350E+03 -0.10588880479E+04 -0.14546892341E+04  0.18049923062E+04  0.25500000920E-02 0.  1.
       -2    1    3    3    0  502  0.14364038350E+03  0.10588880479E+04  0.85005366938E+03  0.13654551251E+04  0.25500000920E-02 0. -1.
</event>
<event>
 5   0  0.1010855E-06  0.2647055E+04  0.7818609E-02  0.8352391E-01
       -1   -1    0    0    0  501  0.00000000000E+00  0.00000000000E+00  0.16711593327E+04  0.16711593327E+04  0.50400001928E-02 0. -1.
        1   -1    0    0  501    0  0.00000000000E+00  0.00000000000E+00 -0.10482096315E+04  0.10482096315E+04  0.50400001928E-02 0.  1.
    10030    2    1    2    0    0  0.00000000000E+00  0.00000000000E+00  0.62294970120E+03  0.27193689641E+04  0.26470552002E+04 0.  0.
        1    1    3    3  502    0 -0.80955077571E+03 -0.39303157963E+03  0.13084921687E+04  0.15880799843E+04  0.50400001928E-02 0. -1.
       -1    1    3    3    0  502  0.80955077571E+03  0.39303157963E+03 -0.68554246751E+03  0.11312889798E+04  0.50400001928E-02 0.  1.
</event>
<event>
 5   0  0.2848685E-06  0.2764174E+04  0.7818609E-02  0.8314478E-01
        2   -1    0    0  501    0  0.00000000000E+00  0.00000000000E+00  0.20347252667E+04  0.20347252667E+04  0.25500000920E-02 0. -1.
       -2   -1    0    0    0  501  0.00000000000E+00  0.00000000000E+00 -0.93878270003E+03  0.93878270003E+03  0.25500000920E-02 0.  1.
    10030    2    1    2    0    0  0.00000000000E+00  0.00000000000E+00  0.10959425667E+04  0.29735079668E+04  0.27641742924E+04 0.  0.
        3    1    3    3  502    0 -0.50463761455E+03  0.27403016932E+03 -0.80437841627E+03  0.98831993933E+03  0.10100000352E+00 0.  1.
       -3    1    3    3    0  502  0.50463761455E+03 -0.27403016932E+03  0.19003209830E+04  0.19851880274E+04  0.10100000352E+00 0. -1.
</event>
<event>
 5   0  0.2664083E-06  0.3471332E+04  0.7818609E-02  0.8120618E-01
        2   -1    0    0  501    0  0.00000000000E+00  0.00000000000E+00  0.24112456782E+04  0.24112456782E+04  0.25500000920E-02 0.  1.
       -2   -1    0    0    0  501  0.00000000000E+00  0.00000000000E+00 -0.12493691630E+04  0.12493691630E+04  0.25500000920E-02 0. -1.
    10030    2    1    2    0    0  0.00000000000E+00  0.00000000000E+00  0.11618765152E+04  0.36606148411E+04  0.34713317299E+04 0.  0.
        2    1    3    3  502    0  0.98733155513E+03 -0.72828209070E+03  0.18756118864E+04  0.22412358983E+04  0.25500000920E-02 0.  1.
       -2    1    3    3    0  502 -0.98733155513E+03  0.72828209070E+03 -0.71373537120E+03  0.14193789429E+04  0.25500000920E-02 0. -1.
</event>
<event>
 5   0  0.9232963E-07  0.3113332E+04  0.7818609E-02  0.8212089E-01
       -1   -1    0    0    0  501  0.00000000000E+00  0.00000000000E+00  0.11541288460E+04  0.11541288460E+04  0.50400001928E-02 0. -1.
        1   -1    0    0  501    0  0.00000000000E+00  0.00000000000E+00 -0.20996000085E+04  0.20996000085E+04  0.50400001928E-02 0.  1.
    10030    2    1    2    0    0  0.00000000000E+00  0.00000000000E+00 -0.94547116250E+03  0.32537288545E+04  0.31133319353E+04 0.  0.
        3    1    3    3  502    0 -0.35970598219E+03  0.82017922176E+02 -0.20532479566E+04  0.20861309918E+04  0.10100000352E+00 0.  1.
       -3    1    3    3    0  502  0.35970598219E+03 -0.82017922176E+02  0.11077767941E+04  0.11675978627E+04  0.10100000352E+00 0. -1.
</event>
<event>
 5   0  0.9232963E-07  0.3354030E+04  0.7818609E-02  0.8149282E-01
       -1   -1    0    0    0  501  0.00000000000E+00  0.00000000000E+00  0.11890812947E+04  0.11890812947E+04  0.50400001928E-02 0. -1.
        1   -1    0    0  501    0  0.00000000000E+00  0.00000000000E+00 -0.23651694766E+04  0.23651694766E+04  0.50400001928E-02 0.  1.
    10030    2    1    2    0    0  0.00000000000E+00  0.00000000000E+00 -0.11760881819E+04  0.35542507713E+04  0.33540296859E+04 0.  0.
        3    1    3    3  502    0 -0.52327797759E+03 -0.15696560011E+04 -0.29833994076E+03  0.16812633744E+04  0.10100000352E+00 0. -1.
       -3    1    3    3    0  502  0.52327797759E+03  0.15696560011E+04 -0.87774824110E+03  0.18729873968E+04  0.10100000352E+00 0.  1.
</event>
<event>
 5   0  0.9714317E-07  0.3386635E+04  0.7818609E-02  0.8141194E-01
        1   -1    0    0  501    0  0.00000000000E+00  0.00000000000E+00  0.21894116674E+04  0.21894116674E+04  0.50400001928E-02 0. -1.
       -1   -1    0    0    0  501  0.00000000000E+00  0.00000000000E+00 -0.13096318940E+04  0.13096318940E+04  0.50400001928E-02 0.  1.
    10030    2    1    2    0    0  0.00000000000E+00  0.00000000000E+00  0.87977977339E+03  0.34990435615E+04  0.33866345235E+04 0.  0.
        4    1    3    3  502    0  0.62752088544E+03 -0.10780927188E+04  0.16229986111E+04  0.20469959639E+04  0.12699999809E+01 0. -1.
       -4    1    3    3    0  502 -0.62752088544E+03  0.10780927188E+04 -0.74321883767E+03  0.14520475975E+04  0.12699999809E+01 0.  1.
</event>
<event>
 5   0  0.2848685E-06  0.3250545E+04  0.7818609E-02  0.8175594E-01
        2   -1    0    0  501    0  0.00000000000E+00  0.00000000000E+00  0.15883512855E+04  0.15883512855E+04  0.25500000920E-02 0. -1.
       -2   -1    0    0    0  501  0.00000000000E+00  0.00000000000E+00 -0.16630521853E+04  0.16630521853E+04  0.25500000920E-02 0.  1.
    10030    2    1    2    0    0  0.00000000000E+00  0.00000000000E+00 -0.74700899725E+02  0.32514034708E+04  0.32505452320E+04 0.  0.
        3    1    3    3  502    0 -0.78220652237E+03  0.30890514421E+03  0.13537869128E+04  0.15937403951E+04  0.10100000352E+00 0. -1.
       -3    1    3    3    0  502  0.78220652237E+03 -0.30890514421E+03 -0.14284878125E+04  0.16576630756E+04  0.10100000352E+00 0.  1.
</event>
<event>
 5   0  0.2664083E-06  0.3193054E+04  0.7818609E-02  0.8190654E-01
        2   -1    0    0  501    0  0.00000000000E+00  0.00000000000E+00  0.88094943722E+03  0.88094943723E+03  0.25500000920E-02 0.  1.
       -2   -1    0    0    0  501  0.00000000000E+00  0.00000000000E+00 -0.28933541154E+04  0.28933541154E+04  0.25500000920E-02 0. -1.
    10030    2    1    2    0    0  0.00000000000E+00  0.00000000000E+00 -0.20124046782E+04  0.37743035526E+04  0.31930541365E+04 0.  0.
        2    1    3    3  502    0 -0.15616758556E+04 -0.28901898898E+03 -0.11987516356E+04  0.19898163076E+04  0.25500000920E-02 0. -1.
       -2    1    3    3    0  502  0.15616758556E+04  0.28901898898E+03 -0.81365304259E+03  0.17844872451E+04  0.25500000920E-02 0.  1.
</event>
<event>
 5   0  0.2856440E-06  0.3415225E+04  0.7818609E-02  0.8134180E-01
        2   -1    0    0  501    0  0.00000000000E+00  0.00000000000E+00  0.10347230663E+04  0.10347230663E+04  0.25500000920E-02 0. -1.
       -2   -1    0    0    0  501  0.00000000000E+00  0.00000000000E+00 -0.28180882863E+04  0.28180882863E+04  0.25500000920E-02 0.  1.
    10030    2    1    2    0    0  0.00000000000E+00  0.00000000000E+00 -0.17833652200E+04  0.38528113526E+04  0.34152252943E+04 0.  0.
        4    1    3    3  502    0  0.16175005056E+04  0.47342071470E+03 -0.58169511474E+03  0.17829206034E+04  0.12699999809E+01 0.  1.
       -4    1    3    3    0  502 -0.16175005056E+04 -0.47342071470E+03 -0.12016701053E+04  0.20698907492E+04  0.12699999809E+01 0. -1.
</event>
<event>
 5   0  0.1010551E-06  0.2499561E+04  0.7818609E-02  0.8403142E-01
       -1   -1    0    0    0  501  0.00000000000E+00  0.00000000000E+00  0.78250827203E+03  0.78250827204E+03  0.50400001928E-02 0. -1.
        1   -1    0    0  501    0  0.00000000000E+00  0.00000000000E+00 -0.19960822041E+04  0.19960822041E+04  0.50400001928E-02 0.  1.
    10030    2    1    2    0    0  0.00000000000E+00  0.00000000000E+00 -0.12135739321E+04  0.27785904761E+04  0.24995606305E+04 0.  0.
        2    1    3    3  502    0  0.83409192929E+03  0.75036607754E+03 -0.12188834821E+04  0.16566337978E+04  0.25500000920E-02 0.  1.
       -2    1    3    3    0  502 -0.83409192929E+03 -0.75036607754E+03  0.53095500893E+01  0.11219566784E+04  0.25500000920E-02 0. -1.
</event>
<event>
 5   0  0.2767014E-06  0.3175300E+04  0.7818609E-02  0.8195371E-01
       -2   -1    0    0    0  501  0.00000000000E+00  0.00000000000E+00  0.14969898818E+04  0.14969898818E+04  0.25500000920E-02 0.  1.
        2   -1    0    0  501    0  0.00000000000E+00  0.00000000000E+00 -0.16838010048E+04  0.16838010048E+04  0.25500000920E-02 0. -1.
    10030    2    1    2    0    0  0.00000000000E+00  0.00000000000E+00 -0.18681112302E+03  0.31807908866E+04  0.31753003430E+04 0.  0.
        1    1    3    3  502    0 -0.14912187128E+04 -0.44499471108E+03  0.22158931760E+03  0.15718954698E+04  0.50400001928E-02 0.  1.
       -1    1    3    3    0  502  0.14912187128E+04  0.44499471108E+03 -0.40840044062E+03  0.16088954168E+04  0.50400001928E-02 0. -1.
</event>
<event>
 5   0  0.2664083E-06  0.2208624E+04  0.7818609E-02  0.8514847E-01
        2   -1    0    0  501    0  0.00000000000E+00  0.00000000000E+00  0.10786412382E+04  0.10786412382E+04  0.25500000920E-02 0. -1.
       -2   -1    0    0    0  501  0.00000000000E+00  0.00000000000E+00 -0.11305941322E+04  0.11305941322E+04  0.25500000920E-02 0.  1.
    10030    2    1    2    0    0  0.00000000000E+00  0.00000000000E+00 -0.51952894036E+02  0.22092353704E+04  0.22086244177E+04 0.  0.
        2    1    3    3  502    0 -0.13394124122E+03  0.29321202100E+03  0.10305315689E+04  0.10797725964E+04  0.25500000920E-02 0. -1.
       -2    1    3    3    0  502  0.13394124122E+03 -0.29321202100E+03 -0.10824844629E+04  0.11294627740E+04  0.25500000920E-02 0.  1.
</event>
<event>
 5   0  0.1010855E-06  0.3424319E+04  0.7818609E-02  0.8131963E-01
       -1   -1    0    0    0  501  0.00000000000E+00  0.00000000000E+00  0.12909770280E+04  0.12909770280E+04  0.50400001928E-02 0.  1.
        1   -1    0    0  501    0  0.00000000000E+00  0.00000000000E+00 -0.22707530938E+04  0.22707530938E+04  0.50400001928E-02 0. -1.
    10030    2    1    2    0    0  0.00000000000E+00  0.00000000000E+00 -0.97977606577E+03  0.35617301218E+04  0.34243189573E+04 0.  0.
        1    1    3    3  502    0  0.20700081602E+03 -0.38135839003E+03 -0.22126134100E+04  0.22547597791E+04  0.50400001928E-02 0. -1.
       -1    1    3    3    0  502 -0.20700081602E+03  0.38135839003E+03  0.12328373442E+04  0.13069703427E+04  0.50400001928E-02 0.  1.
</event>
<event>
 5   0  0.1003191E-06  0.3469006E+04  0.7818609E-02  0.8121175E-01
       -1   -1    0    0    0  501  0.00000000000E+00  0.00000000000E+00  0.18293996459E+04  0.18293996459E+04  0.50400001928E-02 0. -1.
        1   -1    0    0  501    0  0.00000000000E+00  0.00000000000E+00 -0.16445284670E+04  0.16445284670E+04  0.50400001928E-02 0.  1.
    10030    2    1    2    0    0  0.00000000000E+00  0.00000000000E+00  0.18487117888E+03  0.34739281129E+04  0.34690055032E+04 0.  0.
        5    1    3    3  502    0  0.19797282373E+03 -0.13242247932E+03 -0.16280678005E+04  0.16454044503E+04  0.46999998093E+01 0.  1.
       -5    1    3    3    0  502 -0.19797282373E+03  0.13242247932E+03  0.18129389794E+04  0.18285236627E+04  0.46999998093E+01 0. -1.
</event>
<event>
 5   0  0.9714317E-07  0.3290563E+04  0.7818609E-02  0.8165301E-01
        1   -1    0    0  501    0  0.00000000000E+00  0.00000000000E+00  0.86305290505E+03  0.86305290506E+03  0.50400001928E-02 0.  1.
       -1   -1    0    0    0  501  0.00000000000E+00  0.00000000000E+00 -0.31364836037E+04  0.31364836037E+04  0.50400001928E-02 0. -1.
    10030    2    1    2    0    0  0.00000000000E+00  0.00000000000E+00 -0.22734306987E+04  0.39995365088E+04  0.32905630435E+04 0.  0.
        4    1    3    3  502    0 -0.78625716994E+03  0.82401362869E+03  0.30643186750E+03  0.11794494054E+04  0.12699999809E+01 0.  1.
       -4    1    3    3    0  502  0.78625716994E+03 -0.82401362869E+03 -0.25798625662E+04  0.28200871034E+04  0.12699999809E+01 0. -1.
</event>
<event>
 5   0  0.9232963E-07  0.2818466E+04  0.7818609E-02  0.8297558E-01
        1   -1    0    0  501    0  0.00000000000E+00  0.00000000000E+00  0.11244014523E+04  0.11244014524E+04  0.50400001928E-02 0. -1.
       -1   -1    0    0    0  501  0.00000000000E+00  0.00000000000E+00 -0.17662173651E+04  0.17662173651E+04  0.50400001928E-02 0.  1.
    10030    2    1    2    0    0  0.00000000000E+00  0.00000000000E+00 -0.64181591271E+03  0.28906188174E+04  0.28184658028E+04 0.  0.
        3    1    3    3  502    0  0.11656767347E+04 -0.75411845153E+02  0.48759294869E+03  0.12657946477E+04  0.10100000352E+00 0. -1.
       -3    1    3    3    0  502 -0.11656767347E+04  0.75411845153E+02 -0.11294088614E+04  0.16248241698E+04  0.10100000352E+00 0.  1.
</event>
<event>
 5   0  0.2848685E-06  0.3423924E+04  0.7818609E-02  0.8132059E-01
        2   -1    0    0  501    0  0.00000000000E+00  0.00000000000E+00  0.26745065096E+04  0.26745065096E+04  0.25500000920E-02 0. -1.
       -2   -1    0    0    0  501  0.00000000000E+00  0.00000000000E+00 -0.10958336913E+04  0.10958336913E+04  0.25500000920E-02 0.  1.
    10030    2    1    2    0    0  0.00000000000E+00  0.00000000000E+00  0.15786728183E+04  0.37703402009E+04  0.34239242636E+04 0.  0.
        3    1    3    3  502    0 -0.24104086191E+03 -0.12167014539E+03 -0.10722391304E+04  0.11057129303E+04  0.10100000352E+00 0.  1.
       -3    1    3    3    0  502  0.24104086191E+03  0.12167014539E+03  0.26509119487E+04  0.26646272706E+04  0.10100000352E+00 0. -1.
</event>
<event>
 5   0  0.9714317E-07  0.3420396E+04  0.7818609E-02  0.8132919E-01
        1   -1    0    0  501    0  0.00000000000E+00  0.00000000000E+00  0.22777653724E+04  0.22777653724E+04  0.50400001928E-02 0. -1.
       -1   -1    0    0    0  501  0.00000000000E+00  0.00000000000E+00 -0.12840554540E+04  0.12840554540E+04  0.50400001928E-02 0.  1.
    10030    2    1    2    0    0  0.00000000000E+00  0.00000000000E+00  0.99370991844E+03  0.35618208264E+04  0.34203959124E+04 0.  0.
        4    1    3    3  502    0 -0.16524881294E+04 -0.15205624645E+03  0.66314339790E+02  0.16607941848E+04  0.12699999809E+01 0.  1.
       -4    1    3    3    0  502  0.16524881294E+04  0.15205624645E+03  0.92739557865E+03  0.19010266416E+04  0.12699999809E+01 0. -1.
</event>
<event>
 5   0  0.2767014E-06  0.2227588E+04  0.7818609E-02  0.8507033E-01
        2   -1    0    0  501    0  0.00000000000E+00  0.00000000000E+00  0.22147973269E+04  0.22147973269E+04  0.25500000920E-02 0. -1.
       -2   -1    0    0    0  501  0.00000000000E+00  0.00000000000E+00 -0.56011292167E+03  0.56011292167E+03  0.25500000920E-02 0.  1.
    10030    2    1    2    0    0  0.00000000000E+00  0.00000000000E+00  0.16546844052E+04  0.27749102486E+04  0.22275875755E+04 0.  0.
        1    1    3    3  502    0 -0.46838851305E+03  0.10360223063E+03  0.20795146060E+04  0.21341279760E+04  0.50400001928E-02 0. -1.
       -1    1    3    3    0  502  0.46838851305E+03 -0.10360223063E+03 -0.42483020077E+03  0.64078227258E+03  0.50400001928E-02 0.  1.
</event>
<event>
 5   0  0.1010551E-06  0.3401947E+04  0.7818609E-02  0.8137429E-01
       -1   -1    0    0    0  501  0.00000000000E+00  0.00000000000E+00  0.21290153679E+04  0.21290153679E+04  0.50400001928E-02 0.  1.
        1   -1    0    0  501    0  0.00000000000E+00  0.00000000000E+00 -0.13589902631E+04  0.13589902631E+04  0.50400001928E-02 0. -1.
    10030    2    1    2    0    0  0.00000000000E+00  0.00000000000E+00  0.77002510482E+03  0.34880056311E+04  0.34019471807E+04 0.  0.
        2    1    3    3  502    0 -0.66612131243E+03  0.13214598240E+04  0.12448799710E+04  0.19338303471E+04  0.25500000920E-02 0.  1.
       -2    1    3    3    0  502  0.66612131243E+03 -0.13214598240E+04 -0.47485486619E+03  0.15541752839E+04  0.25500000920E-02 0. -1.
</event>
<event>
 5   0  0.9232963E-07  0.3414460E+04  0.7818609E-02  0.8134366E-01
       -1   -1    0    0    0  501  0.00000000000E+00  0.00000000000E+00  0.14452073952E+04  0.14452073952E+04  0.50400001928E-02 0. -1.
        1   -1    0    0  501    0  0.00000000000E+00  0.00000000000E+00 -0.20167588097E+04  0.20167588097E+04  0.50400001928E-02 0.  1.
    10030    2    1    2    0    0  0.00000000000E+00  0.00000000000E+00 -0.57155141451E+03  0.34619662049E+04  0.34144602772E+04 0.  0.
        3    1    3    3  502    0 -0.13237985824E+04 -0.73135967820E+03  0.51726980291E+03  0.15984047438E+04  0.10100000352E+00 0. -1.
       -3    1    3    3    0  502  0.13237985824E+04  0.73135967820E+03 -0.10888212174E+04  0.18635614611E+04  0.10100000352E+00 0.  1.
</event>
<event>
 5   0  0.2856440E-06  0.3401508E+04  0.7818609E-02  0.8137536E-01
       -2   -1    0    0    0  501  0.00000000000E+00  0.00000000000E+00  0.17357541518E+04  0.17357541518E+04  0.25500000920E-02 0.  1.
        2   -1    0    0  501    0  0.00000000000E+00  0.00000000000E+00 -0.16664600865E+04  0.16664600865E+04  0.25500000920E-02 0. -1.
    10030    2    1    2    0    0  0.00000000000E+00  0.00000000000E+00  0.69294065378E+02  0.34022142383E+04  0.34015084971E+04 0.  0.
        4    1    3    3  502    0  0.30416056012E+03  0.66427156378E+03  0.15708019550E+04  0.17323945138E+04  0.12699999809E+01 0.  1.
       -4    1    3    3    0  502 -0.30416056012E+03 -0.66427156378E+03 -0.15015078896E+04  0.16698197245E+04  0.12699999809E+01 0. -1.
</event>
<event>
 5   0  0.9714317E-07  0.3487512E+04  0.7818609E-02  0.8116756E-01
       -1   -1    0    0    0  501  0.00000000000E+00  0.00000000000E+00  0.15701457864E+04  0.15701457864E+04  0.50400001928E-02 0.  1.
        1   -1    0    0  501    0  0.00000000000E+00  0.00000000000E+00 -0.19365618946E+04  0.19365618946E+04  0.50400001928E-02 0. -1.
    10030    2    1    2    0    0  0.00000000000E+00  0.00000000000E+00 -0.36641610819E+03  0.35067076810E+04  0.34875117198E+04 0.  0.
        4    1    3    3  502    0 -0.14494533694E+04 -0.86738536125E+03  0.25208405230E+03  0.17078701407E+04  0.12699999809E+01 0.  1.
       -4    1    3    3    0  502  0.14494533694E+04  0.86738536125E+03 -0.61850016049E+03  0.17988375403E+04  0.12699999809E+01 0. -1.
</event>
<event>
 5   0  0.2664083E-06  0.3419843E+04  0.7818609E-02  0.8133053E-01
       -2   -1    0    0    0  501  0.00000000000E+00  0.00000000000E+00  0.19782469127E+04  0.19782469127E+04  0.25500000920E-02 0.  1.
        2   -1    0    0  501    0  0.00000000000E+00  0.00000000000E+00 -0.14779911377E+04  0.14779911377E+04  0.25500000920E-02 0. -1.
    10030    2    1    2    0    0  0.00000000000E+00  0.00000000000E+00  0.50025577509E+03  0.34562380504E+04  0.34198429234E+04 0.  0.
        2    1    3    3  502    0  0.12004983160E+04 -0.82552258882E+03 -0.65446625392E+03  0.15971881007E+04  0.25500000920E-02 0. -1.
       -2    1    3    3    0  502 -0.12004983160E+04  0.82552258882E+03  0.11547220290E+04  0.18590499497E+04  0.25500000920E-02 0.  1.
</event>
<event>
 5   0  0.1003191E-06  0.3405681E+04  0.7818609E-02  0.8136513E-01
        1   -1    0    0  501    0  0.00000000000E+00  0.00000000000E+00  0.19070085840E+04  0.19070085840E+04  0.50400001928E-02 0. -1.
       -1   -1    0    0    0  501  0.00000000000E+00  0.00000000000E+00 -0.15205313985E+04  0.15205313985E+04  0.50400001928E-02 0.  1.
    10030    2    1    2    0    0  0.00000000000E+00  0.00000000000E+00  0.38647718551E+03  0.34275399826E+04  0.34056813881E+04 0.  0.
        5    1    3    3  502    0  0.67437083050E+03 -0.24147848901E+03 -0.13615250285E+04  0.15384603898E+04  0.46999998093E+01 0.  1.
       -5    1    3    3    0  502 -0.67437083050E+03  0.24147848901E+03  0.17480022140E+04  0.18890795928E+04  0.46999998093E+01 0. -1.
</event>
<event>
 5   0  0.2848685E-06  0.3254444E+04  0.7818609E-02  0.8174585E-01
        2   -1    0    0  501    0  0.00000000000E+00  0.00000000000E+00  0.13665462634E+04  0.13665462634E+04  0.25500000920E-02 0.  1.
       -2   -1    0    0    0  501  0.00000000000E+00  0.00000000000E+00 -0.19376229235E+04  0.19376229235E+04  0.25500000920E-02 0. -1.
    10030    2    1    2    0    0  0.00000000000E+00  0.00000000000E+00 -0.57107666009E+03  0.33041691868E+04  0.32544439561E+04 0.  0.
        3    1    3    3  502    0  0.47057930872E+02 -0.15100049785E+04  0.32828326619E+03  0.15459946303E+04  0.10100000352E+00 0.  1.
       -3    1    3    3    0  502 -0.47057930872E+02  0.15100049785E+04 -0.89935992628E+03  0.17581745565E+04  0.10100000352E+00 0. -1.
</event>
<event>
 5   0  0.1010551E-06  0.3281682E+04  0.7818609E-02  0.8167572E-01
       -1   -1    0    0    0  501  0.00000000000E+00  0.00000000000E+00  0.13873898825E+04  0.13873898825E+04  0.50400001928E-02 0. -1.
        1   -1    0    0  501    0  0.00000000000E+00  0.00000000000E+00 -0.19405926987E+04  0.19405926987E+04  0.50400001928E-02 0.  1.
    10030    2    1    2    0    0  0.00000000000E+00  0.00000000000E+00 -0.55320281619E+03  0.33279825812E+04  0.32816816885E+04 0.  0.
        2    1    3    3  502    0 -0.10706271757E+04  0.10170205377E+04  0.44888372453E+03  0.15433955817E+04  0.25500000920E-02 0. -1.
       -2    1    3    3    0  502  0.10706271757E+04 -0.10170205377E+04 -0.10020865407E+04  0.17845869995E+04  0.25500000920E-02 0.  1.
</event>
<event>
 5   0  0.2664083E-06  0.2234875E+04  0.7818609E-02  0.8504051E-01
       -2   -1    0    0    0  501  0.00000000000E+00  0.00000000000E+00  0.99022719699E+03  0.99022719699E+03  0.25500000920E-02 0.  1.
        2   -1    0    0  501    0  0.00000000000E+00  0.00000000000E+00 -0.12609894868E+04  0.12609894868E+04  0.25500000920E-02 0. -1.
    10030    2    1    2    0    0  0.00000000000E+00  0.00000000000E+00 -0.27076228985E+03  0.22512166838E+04  0.22348745692E+04 0.  0.
        2    1    3    3  502    0 -0.70937755489E+03  0.20785703242E+03 -0.97950948307E+03  0.12271348291E+04  0.25500000920E-02 0. -1.
       -2    1    3    3    0  502  0.70937755489E+03 -0.20785703242E+03  0.70874719322E+03  0.10240818547E+04  0.25500000920E-02 0.  1.
</event>
<event>
 5   0  0.2767014E-06  0.3362694E+04  0.7818609E-02  0.8147124E-01
        2   -1    0    0  501    0  0.00000000000E+00  0.00000000000E+00  0.18210702923E+04  0.18210702924E+04  0.25500000920E-02 0. -1.
       -2   -1    0    0    0  501  0.00000000000E+00  0.00000000000E+00 -0.15523441883E+04  0.15523441883E+04  0.25500000920E-02 0.  1.
    10030    2    1    2    0    0  0.00000000000E+00  0.00000000000E+00  0.26872610404E+03  0.33734144807E+04  0.33626940895E+04 0.  0.
        1    1    3    3  502    0  0.43676534788E+03 -0.42825764554E+03 -0.14367585873E+04  0.15615517341E+04  0.50400001928E-02 0.  1.
       -1    1    3    3    0  502 -0.43676534788E+03  0.42825764554E+03  0.17054846913E+04  0.18118627466E+04  0.50400001928E-02 0. -1.
</event>
<event>
 5   0  0.9232963E-07  0.3012778E+04  0.7818609E-02  0.8240091E-01
       -1   -1    0    0    0  501  0.00000000000E+00  0.00000000000E+00  0.18095807963E+04  0.18095807963E+04  0.50400001928E-02 0. -1.
        1   -1    0    0  501    0  0.00000000000E+00  0.00000000000E+00 -0.12539965177E+04  0.12539965177E+04  0.50400001928E-02 0.  1.
    10030    2    1    2    0    0  0.00000000000E+00  0.00000000000E+00  0.55558427860E+03  0.30635773140E+04  0.30127781312E+04 0.  0.
        3    1    3    3  502    0 -0.42492282045E+03 -0.61188929262E+03 -0.10535740365E+04  0.12903434312E+04  0.10100000352E+00 0.  1.
       -3    1    3    3    0  502  0.42492282045E+03  0.61188929262E+03  0.16091583151E+04  0.17732338828E+04  0.10100000352E+00 0. -1.
</event>
<event>
 5   0  0.9714317E-07  0.2788689E+04  0.7818609E-02  0.8306789E-01
        1   -1    0    0  501    0  0.00000000000E+00  0.00000000000E+00  0.13016364815E+04  0.13016364815E+04  0.50400001928E-02 0.  1.
       -1   -1    0    0    0  501  0.00000000000E+00  0.00000000000E+00 -0.14936551872E+04  0.14936551872E+04  0.50400001928E-02 0. -1.
    10030    2    1    2    0    0  0.00000000000E+00  0.00000000000E+00 -0.19201870569E+03  0.27952916688E+04  0.27886886399E+04 0.  0.
        4    1    3    3  502    0  0.39499461197E+03 -0.29277928379E+03 -0.14038800150E+04  0.14874882056E+04  0.12699999809E+01 0. -1.
       -4    1    3    3    0  502 -0.39499461197E+03  0.29277928379E+03  0.12118613093E+04  0.13078034632E+04  0.12699999809E+01 0.  1.
</event>
<event>
 5   0  0.2664083E-06  0.3373215E+04  0.7818609E-02  0.8144512E-01
       -2   -1    0    0    0  501  0.00000000000E+00  0.00000000000E+00  0.12181962768E+04  0.12181962768E+04  0.25500000920E-02 0.  1.
        2   -1    0    0  501    0  0.00000000000E+00  0.00000000000E+00 -0.23351285787E+04  0.23351285787E+04  0.25500000920E-02 0. -1.
    10030    2    1    2    0    0  0.00000000000E+00  0.00000000000E+00 -0.11169323019E+04  0.35533248555E+04  0.33732150483E+04 0.  0.
        2    1    3    3  502    0 -0.22768319761E+03  0.14317679930E+04  0.34943840697E+03  0.14912767766E+04  0.25500000920E-02 0.  1.
       -2    1    3    3    0  502  0.22768319761E+03 -0.14317679930E+04 -0.14663707088E+04  0.20620480789E+04  0.25500000920E-02 0. -1.
</event>
<event>
 5   0  0.2856440E-06  0.3316855E+04  0.7818609E-02  0.8158620E-01
       -2   -1    0    0    0  501  0.00000000000E+00  0.00000000000E+00  0.20591480891E+04  0.20591480891E+04  0.25500000920E-02 0.  1.
        2   -1    0    0  501    0  0.00000000000E+00  0.00000000000E+00 -0.13356889324E+04  0.13356889324E+04  0.25500000920E-02 0. -1.
    10030    2    1    2    0    0  0.00000000000E+00  0.00000000000E+00  0.72345915667E+03  0.33948370216E+04  0.33168547227E+04 0.  0.
        4    1    3    3  502    0  0.91211208272E+03  0.12844296347E+04 -0.16879253559E+03  0.15843612186E+04  0.12699999809E+01 0. -1.
       -4    1    3    3    0  502 -0.91211208272E+03 -0.12844296347E+04  0.89225169226E+03  0.18104758030E+04  0.12699999809E+01 0.  1.
</event>
<event>
 5   0  0.2848685E-06  0.3145246E+04  0.7818609E-02  0.8203429E-01
        2   -1    0    0  501    0  0.00000000000E+00  0.00000000000E+00  0.25410062108E+04  0.25410062108E+04  0.25500000920E-02 0. -1.
       -2   -1    0    0    0  501  0.00000000000E+00  0.00000000000E+00 -0.97329279609E+03  0.97329279610E+03  0.25500000920E-02 0.  1.
    10030    2    1    2    0    0  0.00000000000E+00  0.00000000000E+00  0.15677134147E+04  0.35142990069E+04  0.31452459616E+04 0.  0.
        3    1    3    3  502    0  0.14538597932E+04 -0.21878281095E+03  0.14075356571E+04  0.20353699548E+04  0.10100000352E+00 0.  1.
       -3    1    3    3    0  502 -0.14538597932E+04  0.21878281095E+03  0.16017775753E+03  0.14789290520E+04  0.10100000352E+00 0. -1.
</event>
<event>
 5   0  0.2906701E-06  0.3398890E+04  0.7818609E-02  0.8138179E-01
       -2   -1    0    0    0  501  0.00000000000E+00  0.00000000000E+00  0.11303107432E+04  0.11303107432E+04  0.25500000920E-02 0.  1.
        2   -1    0    0  501    0  0.00000000000E+00  0.00000000000E+00 -0.25551492247E+04  0.25551492247E+04  0.25500000920E-02 0. -1.
    10030    2    1    2    0    0  0.00000000000E+00  0.00000000000E+00 -0.14248384815E+04  0.36854599679E+04  0.33988895947E+04 0.  0.
        5    1    3    3  502    0  0.23919315860E+03 -0.13136675957E+04 -0.18523176833E+04  0.22834269879E+04  0.46999998093E+01 0. -1.
       -5    1    3    3    0  502 -0.23919315860E+03  0.13136675957E+04  0.42747920179E+03  0.14020329800E+04  0.46999998093E+01 0.  1.
</event>
<event>
 5   0  0.9714317E-07  0.3452123E+04  0.7818609E-02  0.8125231E-01
       -1   -1    0    0    0  501  0.00000000000E+00  0.00000000000E+00  0.12327518487E+04  0.12327518487E+04  0.50400001928E-02 0. -1.
        1   -1    0    0  501    0  0.00000000000E+00  0.00000000000E+00 -0.24167788837E+04  0.24167788837E+04  0.50400001928E-02 0.  1.
    10030    2    1    2    0    0  0.00000000000E+00  0.00000000000E+00 -0.11840270350E+04  0.36495307324E+04  0.34521231941E+04 0.  0.
        4    1    3    3  502    0  0.35149428490E+03  0.70054767727E+03  0.10337737481E+04  0.12973068471E+04  0.12699999809E+01 0. -1.
       -4    1    3    3    0  502 -0.35149428490E+03 -0.70054767727E+03 -0.22178007831E+04  0.23522238853E+04  0.12699999809E+01 0.  1.
</event>
<event>
 5   0  0.1003191E-06  0.3450622E+04  0.7818609E-02  0.8125593E-01
       -1   -1    0    0    0  501  0.00000000000E+00  0.00000000000E+00  0.14532170578E+04  0.14532170578E+04  0.50400001928E-02 0.  1.
        1   -1    0    0  501    0  0.00000000000E+00  0.00000000000E+00 -0.20483508989E+04  0.20483508989E+04  0.50400001928E-02 0. -1.
    10030    2    1    2    0    0  0.00000000000E+00  0.00000000000E+00 -0.59513384106E+03  0.35015679567E+04  0.34506222434E+04 0.  0.
        5    1    3    3  502    0  0.12307351785E+04 -0.19872622167E+02 -0.15243712639E+04  0.19592942201E+04  0.46999998093E+01 0. -1.
       -5    1    3    3    0  502 -0.12307351785E+04  0.19872622167E+02  0.92923742284E+03  0.15422737366E+04  0.46999998093E+01 0.  1.
</event>
<event>
 5   0  0.1010855E-06  0.3566362E+04  0.7818609E-02  0.8098241E-01
        1   -1    0    0  501    0  0.00000000000E+00  0.00000000000E+00  0.22023555115E+04  0.22023555115E+04  0.50400001928E-02 0.  1.
       -1   -1    0    0    0  501  0.00000000000E+00  0.00000000000E+00 -0.14437876845E+04  0.14437876845E+04  0.50400001928E-02 0. -1.
    10030    2    1    2    0    0  0.00000000000E+00  0.00000000000E+00  0.75856782701E+03  0.36461431960E+04  0.35663615994E+04 0.  0.
        1    1    3    3  502    0  0.36362648409E+03  0.12799626691E+04 -0.83437164863E+03  0.15705746408E+04  0.50400001928E-02 0. -1.
       -1    1    3    3    0  502 -0.36362648409E+03 -0.12799626691E+04  0.15929394756E+04  0.20755685552E+04  0.50400001928E-02 0.  1.
</event>
<event>
 5   0  0.2856440E-06  0.3312556E+04  0.7818609E-02  0.8159708E-01
       -2   -1    0    0    0  501  0.00000000000E+00  0.00000000000E+00  0.13146355252E+04  0.13146355252E+04  0.25500000920E-02 0. -1.
        2   -1    0    0  501    0  0.00000000000E+00  0.00000000000E+00 -0.20867049139E+04  0.20867049139E+04  0.25500000920E-02 0.  1.
    10030    2    1    2    0    0  0.00000000000E+00  0.00000000000E+00 -0.77206938865E+03  0.34013404391E+04  0.33125557568E+04 0.  0.
        4    1    3    3  502    0  0.11539909203E+04 -0.89398644282E+03 -0.11895350161E+04  0.18830565503E+04  0.12699999809E+01 0.  1.
       -4    1    3    3    0  502 -0.11539909203E+04  0.89398644282E+03  0.41746562746E+03  0.15182838888E+04  0.12699999809E+01 0. -1.
</event>
<event>
 5   0  0.2856440E-06  0.3706859E+04  0.7818609E-02  0.8066443E-01
        2   -1    0    0  501    0  0.00000000000E+00  0.00000000000E+00  0.24887543840E+04  0.24887543840E+04  0.25500000920E-02 0. -1.
       -2   -1    0    0    0  501  0.00000000000E+00  0.00000000000E+00 -0.13802894615E+04  0.13802894615E+04  0.25500000920E-02 0.  1.
    10030    2    1    2    0    0  0.00000000000E+00  0.00000000000E+00  0.11084649225E+04  0.38690438455E+04  0.37068592898E+04 0.  0.
        4    1    3    3  502    0  0.16116736077E+04 -0.83439933707E+03  0.16162918165E+03  0.18220427208E+04  0.12699999809E+01 0.  1.
       -4    1    3    3    0  502 -0.16116736077E+04  0.83439933707E+03  0.94683574090E+03  0.20470011247E+04  0.12699999809E+01 0. -1.
</event>
<event>
 5   0  0.9070500E-07  0.3259896E+04  0.7818609E-02  0.8173175E-01
       -3   -1    0    0    0  501  0.00000000000E+00  0.00000000000E+00  0.15846061069E+04  0.15846061101E+04  0.10100000352E+00 0.  1.
        3   -1    0    0  501    0  0.00000000000E+00  0.00000000000E+00 -0.16765877098E+04  0.16765877129E+04  0.10100000352E+00 0. -1.
    10030    2    1    2    0    0  0.00000000000E+00  0.00000000000E+00 -0.91981602914E+02  0.32611938230E+04  0.32598963996E+04 0.  0.
        5    1    3    3  502    0 -0.15626509892E+04 -0.15830388177E+02 -0.50940332471E+03  0.16436674093E+04  0.46999998093E+01 0. -1.
       -5    1    3    3    0  502  0.15626509892E+04  0.15830388177E+02  0.41742172180E+03  0.16175264137E+04  0.46999998093E+01 0.  1.
</event>
<event>
 5   0  0.2664083E-06  0.3371397E+04  0.7818609E-02  0.8144962E-01
        2   -1    0    0  501    0  0.00000000000E+00  0.00000000000E+00  0.12106347275E+04  0.12106347275E+04  0.25500000920E-02 0. -1.
       -2   -1    0    0    0  501  0.00000000000E+00  0.00000000000E+00 -0.23471811120E+04  0.23471811120E+04  0.25500000920E-02 0.  1.
    10030    2    1    2    0    0  0.00000000000E+00  0.00000000000E+00 -0.11365463845E+04  0.35578158395E+04  0.33713967230E+04 0.  0.
        2    1    3    3  502    0  0.55977420268E+03  0.12707022224E+04 -0.15769202153E+04  0.21011208108E+04  0.25500000920E-02 0.  1.
       -2    1    3    3    0  502 -0.55977420268E+03 -0.12707022224E+04  0.44037383082E+03  0.14566950288E+04  0.25500000920E-02 0. -1.
</event>
<event>
 5   0  0.1010551E-06  0.3461049E+04  0.7818609E-02  0.8123083E-01
       -1   -1    0    0    0  501  0.00000000000E+00  0.00000000000E+00  0.16919220603E+04  0.16919220603E+04  0.50400001928E-02 0.  1.
        1   -1    0    0  501    0  0.00000000000E+00  0.00000000000E+00 -0.17700081900E+04  0.17700081900E+04  0.50400001928E-02 0. -1.
    10030    2    1    2    0    0  0.00000000000E+00  0.00000000000E+00 -0.78086129700E+02  0.34619302503E+04  0.34610494961E+04 0.  0.
        2    1    3    3  502    0  0.84303112445E+03 -0.10997840043E+04 -0.10758827362E+04  0.17543517307E+04  0.25500000920E-02 0. -1.
       -2    1    3    3    0  502 -0.84303112445E+03  0.10997840043E+04  0.99779660648E+03  0.17075785197E+04  0.25500000920E-02 0.  1.
</event>
<event>
 5   0  0.9232963E-07  0.3306575E+04  0.7818609E-02  0.8161224E-01
        1   -1    0    0  501    0  0.00000000000E+00  0.00000000000E+00  0.29855684651E+04  0.29855684651E+04  0.50400001928E-02 0. -1.
       -1   -1    0    0    0  501  0.00000000000E+00  0.00000000000E+00 -0.91552383075E+03  0.91552383077E+03  0.50400001928E-02 0.  1.
    10030    2    1    2    0    0  0.00000000000E+00  0.00000000000E+00  0.20700446344E+04  0.39010922959E+04  0.33065747100E+04 0.  0.
        3    1    3    3  502    0 -0.90168301586E+03 -0.11806997190E+04  0.18909050161E+04  0.24047049461E+04  0.10100000352E+00 0. -1.
       -3    1    3    3    0  502  0.90168301586E+03  0.11806997190E+04  0.17913961827E+03  0.14963873498E+04  0.10100000352E+00 0.  1.
</event>
<event>
 5   0  0.2906701E-06  0.3154891E+04  0.7818609E-02  0.8200833E-01
       -2   -1    0    0    0  501  0.00000000000E+00  0.00000000000E+00  0.14592141499E+04  0.14592141499E+04  0.25500000920E-02 0. -1.
        2   -1    0    0  501    0  0.00000000000E+00  0.00000000000E+00 -0.17052565778E+04  0.17052565778E+04  0.25500000920E-02 0.  1.
    10030    2    1    2    0    0  0.00000000000E+00  0.00000000000E+00 -0.24604242788E+03  0.31644707278E+04  0.31548911408E+04 0.  0.
        5    1    3    3  502    0 -0.18754142917E+03  0.10686663634E+04  0.10254852115E+04  0.14929372367E+04  0.46999998093E+01 0. -1.
       -5    1    3    3    0  502  0.18754142917E+03 -0.10686663634E+04 -0.12715276394E+04  0.16715334910E+04  0.46999998093E+01 0.  1.
</event>
<event>
 5   0  0.2767014E-06  0.3318131E+04  0.7818609E-02  0.8158297E-01
        2   -1    0    0  501    0  0.00000000000E+00  0.00000000000E+00  0.23124126553E+04  0.23124126553E+04  0.25500000920E-02 0.  1.
       -2   -1    0    0    0  501  0.00000000000E+00  0.00000000000E+00 -0.11903145115E+04  0.11903145115E+04  0.25500000920E-02 0. -1.
    10030    2    1    2    0    0  0.00000000000E+00  0.00000000000E+00  0.11220981438E+04  0.35027271668E+04  0.33181310042E+04 0.  0.
        1    1    3    3  502    0  0.56782624636E+03  0.68800174706E+03  0.20376995532E+04  0.22244083526E+04  0.50400001928E-02 0.  1.
       -1    1    3    3    0  502 -0.56782624636E+03 -0.68800174706E+03 -0.91560140935E+03  0.12783188142E+04  0.50400001928E-02 0. -1.
</event>
<event>
 5   0  0.9714317E-07  0.3273142E+04  0.7818609E-02  0.8169763E-01
       -1   -1    0    0    0  501  0.00000000000E+00  0.00000000000E+00  0.23641356742E+04  0.23641356742E+04  0.50400001928E-02 0. -1.
        1   -1    0    0  501    0  0.00000000000E+00  0.00000000000E+00 -0.11329150101E+04  0.11329150101E+04  0.50400001928E-02 0.  1.
    10030    2    1    2    0    0  0.00000000000E+00  0.00000000000E+00  0.12312206641E+04  0.34970506843E+04  0.32731420936E+04 0.  0.
        4    1    3    3  502    0 -0.14006953665E+04  0.56211043308E+03  0.12917086834E+04  0.19865620011E+04  0.12699999809E+01 0. -1.
       -4    1    3    3    0  502  0.14006953665E+04 -0.56211043308E+03 -0.60488019329E+02  0.15104886832E+04  0.12699999809E+01 0.  1.
</event>
<event>
 5   0  0.9714317E-07  0.3261102E+04  0.7818609E-02  0.8172864E-01
        1   -1    0    0  501    0  0.00000000000E+00  0.00000000000E+00  0.94519733189E+03  0.94519733191E+03  0.50400001928E-02 0. -1.
       -1   -1    0    0    0  501  0.00000000000E+00  0.00000000000E+00 -0.28128476362E+04  0.28128476362E+04  0.50400001928E-02 0.  1.
    10030    2    1    2    0    0  0.00000000000E+00  0.00000000000E+00 -0.18676503043E+04  0.37580449681E+04  0.32611017039E+04 0.  0.
        4    1    3    3  502    0  0.55952241226E+03  0.66973424687E+03  0.65340916411E+03  0.10902084387E+04  0.12699999809E+01 0. -1.
       -4    1    3    3    0  502 -0.55952241226E+03 -0.66973424687E+03 -0.25210594684E+04  0.26678365294E+04  0.12699999809E+01 0.  1.
</event>
<event>
 5   0  0.1003191E-06  0.3397431E+04  0.7818609E-02  0.8138537E-01
        1   -1    0    0  501    0  0.00000000000E+00  0.00000000000E+00  0.25624846728E+04  0.25624846728E+04  0.50400001928E-02 0.  1.
       -1   -1    0    0    0  501  0.00000000000E+00  0.00000000000E+00 -0.11261077659E+04  0.11261077659E+04  0.50400001928E-02 0. -1.
    10030    2    1    2    0    0  0.00000000000E+00  0.00000000000E+00  0.14363769069E+04  0.36885924388E+04  0.33974307293E+04 0.  0.
        5    1    3    3  502    0 -0.79592452268E+03 -0.98509240640E+02 -0.90761392370E+03  0.12111915789E+04  0.46999998093E+01 0. -1.
       -5    1    3    3    0  502  0.79592452268E+03  0.98509240640E+02  0.23439908306E+04  0.24774008599E+04  0.46999998093E+01 0.  1.
</event>
<event>
 5   0  0.2856440E-06  0.3372072E+04  0.7818609E-02  0.8144795E-01
        2   -1    0    0  501    0  0.00000000000E+00  0.00000000000E+00  0.11188486872E+04  0.11188486872E+04  0.25500000920E-02 0. -1.
       -2   -1    0    0    0  501  0.00000000000E+00  0.00000000000E+00 -0.25407525681E+04  0.25407525681E+04  0.25500000920E-02 0.  1.
    10030    2    1    2    0    0  0.00000000000E+00  0.00000000000E+00 -0.14219038809E+04  0.36596012553E+04  0.33720721673E+04 0.  0.
        4    1    3    3  502    0  0.46437127601E+03  0.27904654499E+03 -0.24437165860E+04  0.25030501437E+04  0.12699999809E+01 0.  1.
       -4    1    3    3    0  502 -0.46437127601E+03 -0.27904654499E+03  0.10218127052E+04  0.11565511116E+04  0.12699999809E+01 0. -1.
</event>
<event>
 5   0  0.1003191E-06  0.3199359E+04  0.7818609E-02  0.8188986E-01
        1   -1    0    0  501    0  0.00000000000E+00  0.00000000000E+00  0.11091426203E+04  0.11091426203E+04  0.50400001928E-02 0. -1.
       -1   -1    0    0    0  501  0.00000000000E+00  0.00000000000E+00 -0.23071651496E+04  0.23071651496E+04  0.50400001928E-02 0.  1.
    10030    2    1    2    0    0  0.00000000000E+00  0.00000000000E+00 -0.11980225294E+04  0.34163077699E+04  0.31993594356E+04 0.  0.
        5    1    3    3  502    0  0.12488434018E+04  0.99066965230E+03 -0.74194195016E+03  0.17582764714E+04  0.46999998093E+01 0.  1.
       -5    1    3    3    0  502 -0.12488434018E+04 -0.99066965230E+03 -0.45608057921E+03  0.16580312986E+04  0.46999998093E+01 0. -1.
</event>
<event>
 5   0  0.2848685E-06  0.3418867E+04  0.7818609E-02  0.8133291E-01
        2   -1    0    0  501    0  0.00000000000E+00  0.00000000000E+00  0.18807373437E+04  0.18807373437E+04  0.25500000920E-02 0.  1.
       -2   -1    0    0    0  501  0.00000000000E+00  0.00000000000E+00 -0.15537329541E+04  0.15537329541E+04  0.25500000920E-02 0. -1.
    10030    2    1    2    0    0  0.00000000000E+00  0.00000000000E+00  0.32700438965E+03  0.34344702978E+04  0.34188674084E+04 0.  0.
        3    1    3    3  502    0  0.27295139913E+03 -0.14987087626E+04 -0.61562307855E+03  0.16430527096E+04  0.10100000352E+00 0. -1.
       -3    1    3    3    0  502 -0.27295139913E+03  0.14987087626E+04  0.94262746820E+03  0.17914175882E+04  0.10100000352E+00 0.  1.
</event>
<event>
 5   0  0.2848685E-06  0.3343373E+04  0.7818609E-02  0.8151946E-01
        2   -1    0    0  501    0  0.00000000000E+00  0.00000000000E+00  0.30437899213E+04  0.30437899213E+04  0.25500000920E-02 0.  1.
       -2   -1    0    0    0  501  0.00000000000E+00  0.00000000000E+00 -0.91811078842E+03  0.91811078842E+03  0.25500000920E-02 0. -1.
    10030    2    1    2    0    0  0.00000000000E+00  0.00000000000E+00  0.21256791329E+04  0.39619007097E+04  0.33433733650E+04 0.  0.
        3    1    3    3  502    0  0.13687191362E+03  0.72814229130E+03 -0.71292749268E+03  0.10281978103E+04  0.10100000352E+00 0. -1.
       -3    1    3    3    0  502 -0.13687191362E+03 -0.72814229130E+03  0.28386066256E+04  0.29337028994E+04  0.10100000352E+00 0.  1.
</event>
<event>
 5   0  0.1003191E-06  0.2865557E+04  0.7818609E-02  0.8283199E-01
        1   -1    0    0  501    0  0.00000000000E+00  0.00000000000E+00  0.13349213508E+04  0.13349213508E+04  0.50400001928E-02 0. -1.
       -1   -1    0    0    0  501  0.00000000000E+00  0.00000000000E+00 -0.15378096299E+04  0.15378096299E+04  0.50400001928E-02 0.  1.
    10030    2    1    2    0    0  0.00000000000E+00  0.00000000000E+00 -0.20288827909E+03  0.28727309807E+04  0.28655574734E+04 0.  0.
        5    1    3    3  502    0  0.61439036455E+03  0.56844123759E+03 -0.12672102243E+04  0.15186983911E+04  0.46999998093E+01 0.  1.
       -5    1    3    3    0  502 -0.61439036455E+03 -0.56844123759E+03  0.10643219452E+04  0.13540325896E+04  0.46999998093E+01 0. -1.
</event>
<event>
 5   0  0.2848685E-06  0.3389586E+04  0.7818609E-02  0.8140467E-01
        2   -1    0    0  501    0  0.00000000000E+00  0.00000000000E+00  0.13748913967E+04  0.13748913967E+04  0.25500000920E-02 0. -1.
       -2   -1    0    0    0  501  0.00000000000E+00  0.00000000000E+00 -0.20891270191E+04  0.20891270191E+04  0.25500000920E-02 0.  1.
    10030    2    1    2    0    0  0.00000000000E+00  0.00000000000E+00 -0.71423562240E+03  0.34640184157E+04  0.33895856768E+04 0.  0.
        3    1    3    3  502    0 -0.10987432051E+04  0.72126584516E+03 -0.14505959141E+04  0.19574701956E+04  0.10100000352E+00 0.  1.
       -3    1    3    3    0  502  0.10987432051E+04 -0.72126584516E+03  0.73636029174E+03  0.15065482202E+04  0.10100000352E+00 0. -1.
</event>
<event>
 5   0  0.2664083E-06  0.3428267E+04  0.7818609E-02  0.8131003E-01
       -2   -1    0    0    0  501  0.00000000000E+00  0.00000000000E+00  0.13967352804E+04  0.13967352804E+04  0.25500000920E-02 0.  1.
        2   -1    0    0  501    0  0.00000000000E+00  0.00000000000E+00 -0.21036582043E+04  0.21036582043E+04  0.25500000920E-02 0. -1.
    10030    2    1    2    0    0  0.00000000000E+00  0.00000000000E+00 -0.70692292397E+03  0.35003934847E+04  0.34282669860E+04 0.  0.
        2    1    3    3  502    0  0.14662910581E+04  0.70691089532E+03 -0.90190390687E+03  0.18609575864E+04  0.25500000920E-02 0.  1.
       -2    1    3    3    0  502 -0.14662910581E+04 -0.70691089532E+03  0.19498098290E+03  0.16394358983E+04  0.25500000920E-02 0. -1.
</event>
<event>
 5   0  0.2767014E-06  0.3300605E+04  0.7818609E-02  0.8162742E-01
       -2   -1    0    0    0  501  0.00000000000E+00  0.00000000000E+00  0.17344582680E+04  0.17344582680E+04  0.25500000920E-02 0.  1.
        2   -1    0    0  501    0  0.00000000000E+00  0.00000000000E+00 -0.15702296981E+04  0.15702296981E+04  0.25500000920E-02 0. -1.
    10030    2    1    2    0    0  0.00000000000E+00  0.00000000000E+00  0.16422856992E+03  0.33046879662E+04  0.33006047220E+04 0.  0.
        1    1    3    3  502    0 -0.22949924575E+03 -0.16305746498E+04 -0.27813573333E+02  0.16468810483E+04  0.50400001928E-02 0.  1.
       -1    1    3    3    0  502  0.22949924575E+03  0.16305746498E+04  0.19204214325E+03  0.16578069179E+04  0.50400001928E-02 0. -1.
</event>
<event>
 5   0  0.9232963E-07  0.3326508E+04  0.7818609E-02  0.8156183E-01
       -1   -1    0    0    0  501  0.00000000000E+00  0.00000000000E+00  0.10324897495E+04  0.10324897495E+04  0.50400001928E-02 0. -1.
        1   -1    0    0  501    0  0.00000000000E+00  0.00000000000E+00 -0.26793618821E+04  0.26793618821E+04  0.50400001928E-02 0.  1.
    10030    2    1    2    0    0  0.00000000000E+00  0.00000000000E+00 -0.16468721326E+04  0.37118516316E+04  0.33265078857E+04 0.  0.
        3    1    3    3  502    0  0.11655258455E+04 -0.11439825948E+04 -0.11750001397E+04  0.20119075555E+04  0.10100000352E+00 0.  1.
       -3    1    3    3    0  502 -0.11655258455E+04  0.11439825948E+04 -0.47187199293E+03  0.16999440760E+04  0.10100000352E+00 0. -1.
</event>
<event>
 5   0  0.2856440E-06  0.3431531E+04  0.7818609E-02  0.8130211E-01
       -2   -1    0    0    0  501  0.00000000000E+00  0.00000000000E+00  0.16501346868E+04  0.16501346868E+04  0.25500000920E-02 0.  1.
        2   -1    0    0  501    0  0.00000000000E+00  0.00000000000E+00 -0.17840067950E+04  0.17840067950E+04  0.25500000920E-02 0. -1.
    10030    2    1    2    0    0  0.00000000000E+00  0.00000000000E+00 -0.13387210821E+03  0.34341414819E+04  0.34315311416E+04 0.  0.
        4    1    3    3  502    0  0.57590883844E+02 -0.12358769581E+04 -0.12565965374E+04  0.17634469190E+04  0.12699999809E+01 0. -1.
       -4    1    3    3    0  502 -0.57590883844E+02  0.12358769581E+04  0.11227244292E+04  0.16706945628E+04  0.12699999809E+01 0.  1.
</event>
<event>
 5   0  0.2856440E-06  0.3420247E+04  0.7818609E-02  0.8132955E-01
       -2   -1    0    0    0  501  0.00000000000E+00  0.00000000000E+00  0.25180387619E+04  0.25180387619E+04  0.25500000920E-02 0.  1.
        2   -1    0    0  501    0  0.00000000000E+00  0.00000000000E+00 -0.11614285643E+04  0.11614285643E+04  0.25500000920E-02 0. -1.
    10030    2    1    2    0    0  0.00000000000E+00  0.00000000000E+00  0.13566101976E+04  0.36794673262E+04  0.34202468590E+04 0.  0.
        4    1    3    3  502    0  0.53949384156E+03  0.10792571104E+04 -0.62543120809E+03  0.13590494194E+04  0.12699999809E+01 0.  1.
       -4    1    3    3    0  502 -0.53949384156E+03 -0.10792571104E+04  0.19820414057E+04  0.23204179068E+04  0.12699999809E+01 0. -1.
</event>
<event>
 5   0  0.2848685E-06  0.3377012E+04  0.7818609E-02  0.8143571E-01
        2   -1    0    0  501    0  0.00000000000E+00  0.00000000000E+00  0.22043201627E+04  0.22043201628E+04  0.25500000920E-02 0.  1.
       -2   -1    0    0    0  501  0.00000000000E+00  0.00000000000E+00 -0.12933930342E+04  0.12933930342E+04  0.25500000920E-02 0. -1.
    10030    2    1    2    0    0  0.00000000000E+00  0.00000000000E+00  0.91092712859E+03  0.34977131969E+04  0.33770119002E+04 0.  0.
        3    1    3    3  502    0  0.29811620002E+03  0.21865399449E+03  0.21618841732E+04  0.21932683435E+04  0.10100000352E+00 0.  1.
       -3    1    3    3    0  502 -0.29811620002E+03 -0.21865399449E+03 -0.12509570446E+04  0.13044448534E+04  0.10100000352E+00 0. -1.
</event>
<event>
 5   0  0.9714317E-07  0.2517194E+04  0.7818609E-02  0.8396885E-01
        1   -1    0    0  501    0  0.00000000000E+00  0.00000000000E+00  0.19893117019E+04  0.19893117019E+04  0.50400001928E-02 0. -1.
       -1   -1    0    0    0  501  0.00000000000E+00  0.00000000000E+00 -0.79628899339E+03  0.79628899341E+03  0.50400001928E-02 0.  1.
    10030    2    1    2    0    0  0.00000000000E+00  0.00000000000E+00  0.11930227085E+04  0.27856006953E+04  0.25171944801E+04 0.  0.
        4    1    3    3  502    0 -0.87170544752E+03  0.48986661687E+03  0.14423595437E+04  0.17550619237E+04  0.12699999809E+01 0. -1.
       -4    1    3    3    0  502  0.87170544752E+03 -0.48986661687E+03 -0.24933683525E+03  0.10305387716E+04  0.12699999809E+01 0.  1.
</event>
<event>
 5   0  0.1010551E-06  0.3566424E+04  0.7818609E-02  0.8098226E-01
        1   -1    0    0  501    0  0.00000000000E+00  0.00000000000E+00  0.18537081328E+04  0.18537081328E+04  0.50400001928E-02 0. -1.
       -1   -1    0    0    0  501  0.00000000000E+00  0.00000000000E+00 -0.17153967234E+04  0.17153967234E+04  0.50400001928E-02 0.  1.
    10030    2    1    2    0    0  0.00000000000E+00  0.00000000000E+00  0.13831140940E+03  0.35691048562E+04  0.35664238992E+04 0.  0.
        2    1    3    3  502    0 -0.65980283644E+03  0.97923959751E+03  0.14064217342E+04  0.18363747076E+04  0.25500000920E-02 0. -1.
       -2    1    3    3    0  502  0.65980283644E+03 -0.97923959751E+03 -0.12681103248E+04  0.17327301487E+04  0.25500000920E-02 0.  1.
</event>
<event>
 5   0  0.2848685E-06  0.3310185E+04  0.7818609E-02  0.8160309E-01
       -2   -1    0    0    0  501  0.00000000000E+00  0.00000000000E+00  0.84800151504E+03  0.84800151504E+03  0.25500000920E-02 0. -1.
        2   -1    0    0  501    0  0.00000000000E+00  0.00000000000E+00 -0.32303375364E+04  0.32303375364E+04  0.25500000920E-02 0.  1.
    10030    2    1    2    0    0  0.00000000000E+00  0.00000000000E+00 -0.23823360214E+04  0.40783390514E+04  0.33101849646E+04 0.  0.
        3    1    3    3  502    0  0.12329372789E+04 -0.95295626508E+03 -0.50400317833E+03  0.16377665251E+04  0.10100000352E+00 0. -1.
       -3    1    3    3    0  502 -0.12329372789E+04  0.95295626508E+03 -0.18783328430E+04  0.24405725263E+04  0.10100000352E+00 0.  1.
</event>
<event>
 5   0  0.2856440E-06  0.3376207E+04  0.7818609E-02  0.8143771E-01
        2   -1    0    0  501    0  0.00000000000E+00  0.00000000000E+00  0.21957735671E+04  0.21957735671E+04  0.25500000920E-02 0.  1.
       -2   -1    0    0    0  501  0.00000000000E+00  0.00000000000E+00 -0.12978084548E+04  0.12978084548E+04  0.25500000920E-02 0. -1.
    10030    2    1    2    0    0  0.00000000000E+00  0.00000000000E+00  0.89796511232E+03  0.34935820220E+04  0.33762070436E+04 0.  0.
        4    1    3    3  502    0  0.16667029657E+04 -0.26778588925E+03  0.43950843871E+03  0.17443558522E+04  0.12699999809E+01 0. -1.
       -4    1    3    3    0  502 -0.16667029657E+04  0.26778588925E+03  0.45845667361E+03  0.17492261698E+04  0.12699999809E+01 0.  1.
</event>
<event>
 5   0  0.2856440E-06  0.3419429E+04  0.7818609E-02  0.8133154E-01
       -2   -1    0    0    0  501  0.00000000000E+00  0.00000000000E+00  0.15204483713E+04  0.15204483714E+04  0.25500000920E-02 0. -1.
        2   -1    0    0  501    0  0.00000000000E+00  0.00000000000E+00 -0.19225405035E+04  0.19225405035E+04  0.25500000920E-02 0.  1.
    10030    2    1    2    0    0  0.00000000000E+00  0.00000000000E+00 -0.40209213217E+03  0.34429888749E+04  0.34194289450E+04 0.  0.
        4    1    3    3  502    0  0.14636371070E+04 -0.75031590873E+03 -0.67107546353E+03  0.17763871860E+04  0.12699999809E+01 0. -1.
       -4    1    3    3    0  502 -0.14636371070E+04  0.75031590873E+03  0.26898333136E+03  0.16666016889E+04  0.12699999809E+01 0.  1.
</event>
<event>
 5   0  0.9232963E-07  0.3389485E+04  0.7818609E-02  0.8140492E-01
       -1   -1    0    0    0  501  0.00000000000E+00  0.00000000000E+00  0.14508062152E+04  0.14508062152E+04  0.50400001928E-02 0.  1.
        1   -1    0    0  501    0  0.00000000000E+00  0.00000000000E+00 -0.19796942432E+04  0.19796942432E+04  0.50400001928E-02 0. -1.
    10030    2    1    2    0    0  0.00000000000E+00  0.00000000000E+00 -0.52888802800E+03  0.34305004584E+04  0.33894853369E+04 0.  0.
        3    1    3    3  502    0 -0.12050561437E+04  0.26601968055E+03  0.91117353531E+03  0.15340026081E+04  0.10100000352E+00 0.  1.
       -3    1    3    3    0  502  0.12050561437E+04 -0.26601968055E+03 -0.14400615633E+04  0.18964978503E+04  0.10100000352E+00 0. -1.
</event>
<event>
 5   0  0.1010855E-06  0.3439087E+04  0.7818609E-02  0.8128379E-01
        1   -1    0    0  501    0  0.00000000000E+00  0.00000000000E+00  0.21245508220E+04  0.21245508220E+04  0.50400001928E-02 0.  1.
       -1   -1    0    0    0  501  0.00000000000E+00  0.00000000000E+00 -0.13917435115E+04  0.13917435115E+04  0.50400001928E-02 0. -1.
    10030    2    1    2    0    0  0.00000000000E+00  0.00000000000E+00  0.73280731055E+03  0.35162943335E+04  0.34390869843E+04 0.  0.
        1    1    3    3  502    0 -0.16814895535E+04  0.12893537132E+03  0.23009042425E+02  0.16865825994E+04  0.50400001928E-02 0. -1.
       -1    1    3    3    0  502  0.16814895535E+04 -0.12893537132E+03  0.70979826812E+03  0.18297117341E+04  0.50400001928E-02 0.  1.
</event>
<event>
 5   0  0.9714317E-07  0.2421126E+04  0.7818609E-02  0.8431636E-01
        1   -1    0    0  501    0  0.00000000000E+00  0.00000000000E+00  0.21971704266E+04  0.21971704266E+04  0.50400001928E-02 0.  1.
       -1   -1    0    0    0  501  0.00000000000E+00  0.00000000000E+00 -0.66697745229E+03  0.66697745231E+03  0.50400001928E-02 0. -1.
    10030    2    1    2    0    0  0.00000000000E+00  0.00000000000E+00  0.15301929743E+04  0.28641478789E+04  0.24211262944E+04 0.  0.
        4    1    3    3  502    0 -0.81359193330E+03 -0.89026813633E+03  0.88889952253E+03  0.14982166608E+04  0.12699999809E+01 0. -1.
       -4    1    3    3    0  502  0.81359193330E+03  0.89026813633E+03  0.64129345175E+03  0.13659312181E+04  0.12699999809E+01 0.  1.
</event>
<event>
 5   0  0.2767014E-06  0.3327258E+04  0.7818609E-02  0.8155994E-01
       -2   -1    0    0    0  501  0.00000000000E+00  0.00000000000E+00  0.19701700622E+04  0.19701700622E+04  0.25500000920E-02 0.  1.
        2   -1    0    0  501    0  0.00000000000E+00  0.00000000000E+00 -0.14047833578E+04  0.14047833578E+04  0.25500000920E-02 0. -1.
    10030    2    1    2    0    0  0.00000000000E+00  0.00000000000E+00  0.56538670438E+03  0.33749534200E+04  0.33272584002E+04 0.  0.
        1    1    3    3  502    0  0.10272405043E+04 -0.27325317172E+03  0.15807927337E+04  0.19049398983E+04  0.50400001928E-02 0.  1.
       -1    1    3    3    0  502 -0.10272405043E+04  0.27325317172E+03 -0.10154060293E+04  0.14700135216E+04  0.50400001928E-02 0. -1.
</event>
<event>
 5   0  0.2856440E-06  0.2521373E+04  0.7818609E-02  0.8395411E-01
        2   -1    0    0  501    0  0.00000000000E+00  0.00000000000E+00  0.10803830309E+04  0.10803830309E+04  0.25500000920E-02 0.  1.
       -2   -1    0    0    0  501  0.00000000000E+00  0.00000000000E+00 -0.14710808732E+04  0.14710808732E+04  0.25500000920E-02 0. -1.
    10030    2    1    2    0    0  0.00000000000E+00  0.00000000000E+00 -0.39069784229E+03  0.25514639042E+04  0.25213732866E+04 0.  0.
        4    1    3    3  502    0  0.41983816316E+03 -0.41632221929E+03 -0.13220734540E+04  0.14482638241E+04  0.12699999809E+01 0. -1.
       -4    1    3    3    0  502 -0.41983816316E+03  0.41632221929E+03  0.93137561175E+03  0.11032000800E+04  0.12699999809E+01 0.  1.
</event>
<event>
 5   0  0.1163508E-06  0.2086451E+04  0.7818609E-02  0.8567235E-01
        1   -1    0    0  501    0  0.00000000000E+00  0.00000000000E+00  0.76856988792E+03  0.76856988793E+03  0.50400001928E-02 0. -1.
       -1   -1    0    0    0  501  0.00000000000E+00  0.00000000000E+00 -0.14160323166E+04  0.14160323166E+04  0.50400001928E-02 0.  1.
    10030    2    1    2    0    0  0.00000000000E+00  0.00000000000E+00 -0.64746242872E+03  0.21846022046E+04  0.20864513404E+04 0.  0.
        5    1    3    3  502    0 -0.10902489410E+03  0.13934640091E+03  0.75273484097E+03  0.77326300686E+03  0.46999998093E+01 0. -1.
       -5    1    3    3    0  502  0.10902489410E+03 -0.13934640091E+03 -0.14001972697E+04  0.14113391977E+04  0.46999998093E+01 0.  1.
</event>
<event>
 5   0  0.2767014E-06  0.3375209E+04  0.7818609E-02  0.8144018E-01
        2   -1    0    0  501    0  0.00000000000E+00  0.00000000000E+00  0.24421748645E+04  0.24421748645E+04  0.25500000920E-02 0. -1.
       -2   -1    0    0    0  501  0.00000000000E+00  0.00000000000E+00 -0.11661771345E+04  0.11661771345E+04  0.25500000920E-02 0.  1.
    10030    2    1    2    0    0  0.00000000000E+00  0.00000000000E+00  0.12759977300E+04  0.36083519990E+04  0.33752087256E+04 0.  0.
        1    1    3    3  502    0 -0.74174152232E+02 -0.79433241910E+03  0.22278480374E+04  0.23663838815E+04  0.50400001928E-02 0. -1.
       -1    1    3    3    0  502  0.74174152232E+02  0.79433241910E+03 -0.95185030744E+03  0.12419681174E+04  0.50400001928E-02 0.  1.
</event>
<event>
 5   0  0.9232963E-07  0.3454872E+04  0.7818609E-02  0.8124569E-01
       -1   -1    0    0    0  501  0.00000000000E+00  0.00000000000E+00  0.16352486677E+04  0.16352486677E+04  0.50400001928E-02 0.  1.
        1   -1    0    0  501    0  0.00000000000E+00  0.00000000000E+00 -0.18248209076E+04  0.18248209076E+04  0.50400001928E-02 0. -1.
    10030    2    1    2    0    0  0.00000000000E+00  0.00000000000E+00 -0.18957223996E+03  0.34600695753E+04  0.34548724769E+04 0.  0.
        3    1    3    3  502    0 -0.14839717318E+04 -0.74889941258E+03 -0.56561406080E+03  0.17558307740E+04  0.10100000352E+00 0.  1.
       -3    1    3    3    0  502  0.14839717318E+04  0.74889941258E+03  0.37604182084E+03  0.17042388013E+04  0.10100000352E+00 0. -1.
</event>
<event>
 5   0  0.9070500E-07  0.3414987E+04  0.7818609E-02  0.8134238E-01
       -3   -1    0    0    0  501  0.00000000000E+00  0.00000000000E+00  0.12761115607E+04  0.12761115647E+04  0.10100000352E+00 0. -1.
        3   -1    0    0  501    0  0.00000000000E+00  0.00000000000E+00 -0.22847017655E+04  0.22847017678E+04  0.10100000352E+00 0.  1.
    10030    2    1    2    0    0  0.00000000000E+00  0.00000000000E+00 -0.10085902049E+04  0.35608133325E+04  0.34149871723E+04 0.  0.
        1    1    3    3  502    0 -0.81225003958E+03 -0.11718942980E+04  0.47520545154E+03  0.15029659323E+04  0.50400001928E-02 0. -1.
       -1    1    3    3    0  502  0.81225003958E+03  0.11718942980E+04 -0.14837956564E+04  0.20578474002E+04  0.50400001928E-02 0.  1.
</event>
<event>
 5   0  0.1003191E-06  0.3351247E+04  0.7818609E-02  0.8149977E-01
        1   -1    0    0  501    0  0.00000000000E+00  0.00000000000E+00  0.18045491961E+04  0.18045491961E+04  0.50400001928E-02 0.  1.
       -1   -1    0    0    0  501  0.00000000000E+00  0.00000000000E+00 -0.15559089144E+04  0.15559089144E+04  0.50400001928E-02 0. -1.
    10030    2    1    2    0    0  0.00000000000E+00  0.00000000000E+00  0.24864028164E+03  0.33604581105E+04  0.33512470400E+04 0.  0.
        5    1    3    3  502    0  0.13256779320E+04 -0.10083378345E+04  0.30792151874E+03  0.16938137205E+04  0.46999998093E+01 0.  1.
       -5    1    3    3    0  502 -0.13256779320E+04  0.10083378345E+04 -0.59281237096E+02  0.16666443901E+04  0.46999998093E+01 0. -1.
</event>
<event>
 5   0  0.9070500E-07  0.3326866E+04  0.7818609E-02  0.8156093E-01
        4   -1    0    0  501    0  0.00000000000E+00  0.00000000000E+00  0.12584758145E+04  0.12584764553E+04  0.12699999809E+01 0.  1.
       -4   -1    0    0    0  501  0.00000000000E+00  0.00000000000E+00 -0.21986977335E+04  0.21986981003E+04  0.12699999809E+01 0. -1.
    10030    2    1    2    0    0  0.00000000000E+00  0.00000000000E+00 -0.94022191895E+03  0.34571745556E+04  0.33268661907E+04 0.  0.
        4    1    3    3  502    0 -0.13708152211E+04  0.48811045960E+03 -0.13076716559E+04  0.19563723990E+04  0.12699999809E+01 0. -1.
       -4    1    3    3    0  502  0.13708152211E+04 -0.48811045960E+03  0.36744973690E+03  0.15008021566E+04  0.12699999809E+01 0.  1.
</event>
<event>
 5   0  0.2906701E-06  0.3394313E+04  0.7818609E-02  0.8139303E-01
        2   -1    0    0  501    0  0.00000000000E+00  0.00000000000E+00  0.19548489013E+04  0.19548489013E+04  0.25500000920E-02 0.  1.
       -2   -1    0    0    0  501  0.00000000000E+00  0.00000000000E+00 -0.14734339224E+04  0.14734339224E+04  0.25500000920E-02 0. -1.
    10030    2    1    2    0    0  0.00000000000E+00  0.00000000000E+00  0.48141497891E+03  0.34282828237E+04  0.33943132940E+04 0.  0.
        5    1    3    3  502    0 -0.40911265723E+03 -0.79398995959E+03  0.16982454296E+04  0.19188154813E+04  0.46999998093E+01 0.  1.
       -5    1    3    3    0  502  0.40911265723E+03  0.79398995959E+03 -0.12168304507E+04  0.15094673424E+04  0.46999998093E+01 0. -1.
</event>
<event>
 5   0  0.2664083E-06  0.3403072E+04  0.7818609E-02  0.8137153E-01
       -2   -1    0    0    0  501  0.00000000000E+00  0.00000000000E+00  0.97411103657E+03  0.97411103657E+03  0.25500000920E-02 0.  1.
        2   -1    0    0  501    0  0.00000000000E+00  0.00000000000E+00 -0.29721716248E+04  0.29721716248E+04  0.25500000920E-02 0. -1.
    10030    2    1    2    0    0  0.00000000000E+00  0.00000000000E+00 -0.19980605883E+04  0.39462826614E+04  0.34030722486E+04 0.  0.
        2    1    3    3  502    0  0.20516835838E+01 -0.62064562583E+03 -0.28362267932E+04  0.29033407697E+04  0.25500000920E-02 0. -1.
       -2    1    3    3    0  502 -0.20516835838E+01  0.62064562583E+03  0.83816620499E+03  0.10429418917E+04  0.25500000920E-02 0.  1.
</event>
<event>
 5   0  0.1010855E-06  0.3396264E+04  0.7818609E-02  0.8138824E-01
       -1   -1    0    0    0  501  0.00000000000E+00  0.00000000000E+00  0.26793746001E+04  0.26793746001E+04  0.50400001928E-02 0.  1.
        1   -1    0    0  501    0  0.00000000000E+00  0.00000000000E+00 -0.10762410653E+04  0.10762410653E+04  0.50400001928E-02 0. -1.
    10030    2    1    2    0    0  0.00000000000E+00  0.00000000000E+00  0.16031335348E+04  0.37556156655E+04  0.33962644032E+04 0.  0.
        1    1    3    3  502    0 -0.85416397727E+03 -0.28838206241E+03  0.23928901458E+04  0.25570849739E+04  0.50400001928E-02 0.  1.
       -1    1    3    3    0  502  0.85416397727E+03  0.28838206241E+03 -0.78975661100E+03  0.11985306916E+04  0.50400001928E-02 0. -1.
</event>
<event>
 5   0  0.2906701E-06  0.3405267E+04  0.7818609E-02  0.8136615E-01
       -2   -1    0    0    0  501  0.00000000000E+00  0.00000000000E+00  0.20380220122E+04  0.20380220122E+04  0.25500000920E-02 0.  1.
        2   -1    0    0  501    0  0.00000000000E+00  0.00000000000E+00 -0.14224387464E+04  0.14224387464E+04  0.25500000920E-02 0. -1.
    10030    2    1    2    0    0  0.00000000000E+00  0.00000000000E+00  0.61558326573E+03  0.34604607586E+04  0.34052673764E+04 0.  0.
        5    1    3    3  502    0 -0.15371431216E+04  0.40591567978E+03  0.92706435588E+03  0.18403931443E+04  0.46999998093E+01 0.  1.
       -5    1    3    3    0  502  0.15371431216E+04 -0.40591567978E+03 -0.31148109015E+03  0.16200676143E+04  0.46999998093E+01 0. -1.
</event>
<event>
 5   0  0.1003191E-06  0.2338497E+04  0.7818609E-02  0.8462895E-01
       -1   -1    0    0    0  501  0.00000000000E+00  0.00000000000E+00  0.10897060435E+04  0.10897060435E+04  0.50400001928E-02 0. -1.
        1   -1    0    0  501    0  0.00000000000E+00  0.00000000000E+00 -0.12545975983E+04  0.12545975984E+04  0.50400001928E-02 0.  1.
    10030    2    1    2    0    0  0.00000000000E+00  0.00000000000E+00 -0.16489155482E+03  0.23443036419E+04  0.23384974536E+04 0.  0.
        5    1    3    3  502    0  0.51939802236E+03  0.34057413828E+03  0.91064769963E+03  0.11023004909E+04  0.46999998093E+01 0. -1.
       -5    1    3    3    0  502 -0.51939802236E+03 -0.34057413828E+03 -0.10755392545E+04  0.12420031510E+04  0.46999998093E+01 0.  1.
</event>
<event>
 5   0  0.2848685E-06  0.3400744E+04  0.7818609E-02  0.8137724E-01
        2   -1    0    0  501    0  0.00000000000E+00  0.00000000000E+00  0.15169331847E+04  0.15169331847E+04  0.25500000920E-02 0.  1.
       -2   -1    0    0    0  501  0.00000000000E+00  0.00000000000E+00 -0.19059940786E+04  0.19059940786E+04  0.25500000920E-02 0. -1.
    10030    2    1    2    0    0  0.00000000000E+00  0.00000000000E+00 -0.38906089390E+03  0.34229272632E+04  0.34007444288E+04 0.  0.
        3    1    3    3  502    0 -0.17300683040E+03  0.16513276056E+04  0.17453755452E+03  0.16695141785E+04  0.10100000352E+00 0. -1.
       -3    1    3    3    0  502  0.17300683040E+03 -0.16513276056E+04 -0.56359844842E+03  0.17534130847E+04  0.10100000352E+00 0.  1.
</event>
<event>
 5   0  0.2906701E-06  0.3442030E+04  0.7818609E-02  0.8127667E-01
       -2   -1    0    0    0  501  0.00000000000E+00  0.00000000000E+00  0.10431481122E+04  0.10431481122E+04  0.25500000920E-02 0. -1.
        2   -1    0    0  501    0  0.00000000000E+00  0.00000000000E+00 -0.28393791222E+04  0.28393791222E+04  0.25500000920E-02 0.  1.
    10030    2    1    2    0    0  0.00000000000E+00  0.00000000000E+00 -0.17962310100E+04  0.38825272344E+04  0.34420301980E+04 0.  0.
        5    1    3    3  502    0 -0.16785039415E+04 -0.34718766902E+03 -0.10727009736E+04  0.20220346752E+04  0.46999998093E+01 0.  1.
       -5    1    3    3    0  502  0.16785039415E+04  0.34718766902E+03 -0.72353003638E+03  0.18604925591E+04  0.46999998093E+01 0. -1.
</event>
<event>
 5   0  0.9714317E-07  0.3481011E+04  0.7818609E-02  0.8118305E-01
        1   -1    0    0  501    0  0.00000000000E+00  0.00000000000E+00  0.19017706320E+04  0.19017706320E+04  0.50400001928E-02 0. -1.
       -1   -1    0    0    0  501  0.00000000000E+00  0.00000000000E+00 -0.15929152031E+04  0.15929152031E+04  0.50400001928E-02 0.  1.
    10030    2    1    2    0    0  0.00000000000E+00  0.00000000000E+00  0.30885542887E+03  0.34946858351E+04  0.34810109753E+04 0.  0.
        4    1    3    3  502    0 -0.77835811542E+03  0.14484663444E+04 -0.41830586517E+03  0.16967255277E+04  0.12699999809E+01 0.  1.
       -4    1    3    3    0  502  0.77835811542E+03 -0.14484663444E+04  0.72716129403E+03  0.17979603074E+04  0.12699999809E+01 0. -1.
</event>
<event>
 5   0  0.2848685E-06  0.3284660E+04  0.7818609E-02  0.8166810E-01
        2   -1    0    0  501    0  0.00000000000E+00  0.00000000000E+00  0.15364531336E+04  0.15364531336E+04  0.25500000920E-02 0. -1.
       -2   -1    0    0    0  501  0.00000000000E+00  0.00000000000E+00 -0.17555026866E+04  0.17555026866E+04  0.25500000920E-02 0.  1.
    10030    2    1    2    0    0  0.00000000000E+00  0.00000000000E+00 -0.21904955304E+03  0.32919558202E+04  0.32846598630E+04 0.  0.
        3    1    3    3  502    0 -0.15551318690E+04 -0.19224289962E+03  0.38335528225E+03  0.16131812499E+04  0.10100000352E+00 0.  1.
       -3    1    3    3    0  502  0.15551318690E+04  0.19224289962E+03 -0.60240483530E+03  0.16787745704E+04  0.10100000352E+00 0. -1.
</event>
<event>
 5   0  0.2664083E-06  0.3472408E+04  0.7818609E-02  0.8120360E-01
        2   -1    0    0  501    0  0.00000000000E+00  0.00000000000E+00  0.15112631232E+04  0.15112631232E+04  0.25500000920E-02 0.  1.
       -2   -1    0    0    0  501  0.00000000000E+00  0.00000000000E+00 -0.19946253484E+04  0.19946253484E+04  0.25500000920E-02 0. -1.
    10030    2    1    2    0    0  0.00000000000E+00  0.00000000000E+00 -0.48336222525E+03  0.35058884716E+04  0.34724076568E+04 0.  0.
        2    1    3    3  502    0  0.64063601770E+03 -0.14176799033E+04 -0.10199395142E+04  0.18602439163E+04  0.25500000920E-02 0.  1.
       -2    1    3    3    0  502 -0.64063601770E+03  0.14176799033E+04  0.53657728897E+03  0.16456445553E+04  0.25500000920E-02 0. -1.
</event>
<event>
 5   0  0.2856440E-06  0.3421359E+04  0.7818609E-02  0.8132684E-01
        2   -1    0    0  501    0  0.00000000000E+00  0.00000000000E+00  0.15342315495E+04  0.15342315495E+04  0.25500000920E-02 0.  1.
       -2   -1    0    0    0  501  0.00000000000E+00  0.00000000000E+00 -0.19074199173E+04  0.19074199173E+04  0.25500000920E-02 0. -1.
    10030    2    1    2    0    0  0.00000000000E+00  0.00000000000E+00 -0.37318836778E+03  0.34416514667E+04  0.34213586864E+04 0.  0.
        4    1    3    3  502    0 -0.95978739596E+03  0.10436977058E+04  0.77612216108E+03  0.16164355751E+04  0.12699999809E+01 0.  1.
       -4    1    3    3    0  502  0.95978739596E+03 -0.10436977058E+04 -0.11493105289E+04  0.18252158917E+04  0.12699999809E+01 0. -1.
</event>
<event>
 5   0  0.2848685E-06  0.3414014E+04  0.7818609E-02  0.8134475E-01
        2   -1    0    0  501    0  0.00000000000E+00  0.00000000000E+00  0.11289096457E+04  0.11289096457E+04  0.25500000920E-02 0.  1.
       -2   -1    0    0    0  501  0.00000000000E+00  0.00000000000E+00 -0.25811389500E+04  0.25811389500E+04  0.25500000920E-02 0. -1.
    10030    2    1    2    0    0  0.00000000000E+00  0.00000000000E+00 -0.14522293043E+04  0.37100485957E+04  0.34140138591E+04 0.  0.
        3    1    3    3  502    0  0.45480666453E+03 -0.16446352596E+04 -0.67516180257E+03  0.18350797555E+04  0.10100000352E+00 0. -1.
       -3    1    3    3    0  502 -0.45480666453E+03  0.16446352596E+04 -0.77706750174E+03  0.18749688402E+04  0.10100000352E+00 0.  1.
</event>
<event>
 5   0  0.2767014E-06  0.3304485E+04  0.7818609E-02  0.8161755E-01
        2   -1    0    0  501    0  0.00000000000E+00  0.00000000000E+00  0.19278888757E+04  0.19278888757E+04  0.25500000920E-02 0. -1.
       -2   -1    0    0    0  501  0.00000000000E+00  0.00000000000E+00 -0.14160072852E+04  0.14160072852E+04  0.25500000920E-02 0.  1.
    10030    2    1    2    0    0  0.00000000000E+00  0.00000000000E+00  0.51188159047E+03  0.33438961609E+04  0.33044846454E+04 0.  0.
        1    1    3    3  502    0 -0.66222173874E+03  0.38046748244E+03 -0.12266652821E+04  0.14449916439E+04  0.50400001928E-02 0.  1.
       -1    1    3    3    0  502  0.66222173874E+03 -0.38046748244E+03  0.17385468726E+04  0.18989045170E+04  0.50400001928E-02 0. -1.
</event>
<event>
 5   0  0.2767014E-06  0.3405993E+04  0.7818609E-02  0.8136437E-01
        2   -1    0    0  501    0  0.00000000000E+00  0.00000000000E+00  0.16768401868E+04  0.16768401868E+04  0.25500000920E-02 0.  1.
       -2   -1    0    0    0  501  0.00000000000E+00  0.00000000000E+00 -0.17295606134E+04  0.17295606134E+04  0.25500000920E-02 0. -1.
    10030    2    1    2    0    0  0.00000000000E+00  0.00000000000E+00 -0.52720426578E+02  0.34064008001E+04  0.34059928021E+04 0.  0.
        1    1    3    3  502    0 -0.70952708507E+03  0.47555141197E+03  0.14471183148E+04  0.16803955626E+04  0.50400001928E-02 0.  1.
       -1    1    3    3    0  502  0.70952708507E+03 -0.47555141197E+03 -0.14998387414E+04  0.17260052375E+04  0.50400001928E-02 0. -1.
</event>
<event>
 5   0  0.1010855E-06  0.3473012E+04  0.7818609E-02  0.8120216E-01
       -1   -1    0    0    0  501  0.00000000000E+00  0.00000000000E+00  0.16272039224E+04  0.16272039224E+04  0.50400001928E-02 0. -1.
        1   -1    0    0  501    0  0.00000000000E+00  0.00000000000E+00 -0.18531502736E+04  0.18531502736E+04  0.50400001928E-02 0.  1.
    10030    2    1    2    0    0  0.00000000000E+00  0.00000000000E+00 -0.22594635114E+03  0.34803541960E+04  0.34730121762E+04 0.  0.
        1    1    3    3  502    0  0.15015761935E+04  0.72655877331E+03  0.37057636002E+03  0.17087848181E+04  0.50400001928E-02 0. -1.
       -1    1    3    3    0  502 -0.15015761935E+04 -0.72655877331E+03 -0.59652271116E+03  0.17715693779E+04  0.50400001928E-02 0.  1.
</event>
<event>
 5   0  0.1010551E-06  0.3412883E+04  0.7818609E-02  0.8134752E-01
        1   -1    0    0  501    0  0.00000000000E+00  0.00000000000E+00  0.13805794418E+04  0.13805794418E+04  0.50400001928E-02 0.  1.
       -1   -1    0    0    0  501  0.00000000000E+00  0.00000000000E+00 -0.21092177640E+04  0.21092177640E+04  0.50400001928E-02 0. -1.
    10030    2    1    2    0    0  0.00000000000E+00  0.00000000000E+00 -0.72863832214E+03  0.34897972058E+04  0.34128830530E+04 0.  0.
        2    1    3    3  502    0 -0.12796023106E+03 -0.14454649947E+04  0.55380228048E+03  0.15532030896E+04  0.25500000920E-02 0.  1.
       -2    1    3    3    0  502  0.12796023106E+03  0.14454649947E+04 -0.12824406026E+04  0.19365941162E+04  0.25500000920E-02 0. -1.
</event>
<event>
 5   0  0.2767014E-06  0.3913434E+04  0.7818609E-02  0.8022241E-01
       -2   -1    0    0    0  501  0.00000000000E+00  0.00000000000E+00  0.18007588766E+04  0.18007588766E+04  0.25500000920E-02 0. -1.
        2   -1    0    0  501    0  0.00000000000E+00  0.00000000000E+00 -0.21261816672E+04  0.21261816672E+04  0.25500000920E-02 0.  1.
    10030    2    1    2    0    0  0.00000000000E+00  0.00000000000E+00 -0.32542279065E+03  0.39269405438E+04  0.39134335362E+04 0.  0.
        1    1    3    3  502    0  0.42598414955E+03 -0.57667720437E+03  0.16642100788E+04  0.18120745791E+04  0.50400001928E-02 0. -1.
       -1    1    3    3    0  502 -0.42598414955E+03  0.57667720437E+03 -0.19896328694E+04  0.21148659648E+04  0.50400001928E-02 0.  1.
</event>
<event>
 5   0  0.1003191E-06  0.3391004E+04  0.7818609E-02  0.8140118E-01
        1   -1    0    0  501    0  0.00000000000E+00  0.00000000000E+00  0.15147470412E+04  0.15147470412E+04  0.50400001928E-02 0.  1.
       -1   -1    0    0    0  501  0.00000000000E+00  0.00000000000E+00 -0.18978262857E+04  0.18978262857E+04  0.50400001928E-02 0. -1.
    10030    2    1    2    0    0  0.00000000000E+00  0.00000000000E+00 -0.38307924449E+03  0.34125733270E+04  0.33910038343E+04 0.  0.
        5    1    3    3  502    0  0.16033090449E+03  0.43129651582E+03  0.14507049106E+04  0.15219361061E+04  0.46999998093E+01 0.  1.
       -5    1    3    3    0  502 -0.16033090449E+03 -0.43129651582E+03 -0.18337841551E+04  0.18906372209E+04  0.46999998093E+01 0. -1.
</event>
<event>
 5   0  0.2906701E-06  0.3423063E+04  0.7818609E-02  0.8132269E-01
       -2   -1    0    0    0  501  0.00000000000E+00  0.00000000000E+00  0.18629178699E+04  0.18629178699E+04  0.25500000920E-02 0.  1.
        2   -1    0    0  501    0  0.00000000000E+00  0.00000000000E+00 -0.15724476522E+04  0.15724476522E+04  0.25500000920E-02 0. -1.
    10030    2    1    2    0    0  0.00000000000E+00  0.00000000000E+00  0.29047021770E+03  0.34353655221E+04  0.34230634413E+04 0.  0.
        5    1    3    3  502    0 -0.78277309679E+03  0.28945992492E+03 -0.13543900538E+04  0.15908850609E+04  0.46999998093E+01 0. -1.
       -5    1    3    3    0  502  0.78277309679E+03 -0.28945992492E+03  0.16448602715E+04  0.18444804612E+04  0.46999998093E+01 0.  1.
</event>
<event>
 5   0  0.9232963E-07  0.3350961E+04  0.7818609E-02  0.8150048E-01
        1   -1    0    0  501    0  0.00000000000E+00  0.00000000000E+00  0.22920556745E+04  0.22920556745E+04  0.50400001928E-02 0. -1.
       -1   -1    0    0    0  501  0.00000000000E+00  0.00000000000E+00 -0.12247674348E+04  0.12247674348E+04  0.50400001928E-02 0.  1.
    10030    2    1    2    0    0  0.00000000000E+00  0.00000000000E+00  0.10672882397E+04  0.35168231094E+04  0.33509611451E+04 0.  0.
        3    1    3    3  502    0 -0.65424932505E+03  0.15139590511E+03 -0.10773496678E+04  0.12695058946E+04  0.10100000352E+00 0.  1.
       -3    1    3    3    0  502  0.65424932505E+03 -0.15139590511E+03  0.21446379075E+04  0.22473172148E+04  0.10100000352E+00 0. -1.
</event>
<event>
 5   0  0.2664083E-06  0.3404111E+04  0.7818609E-02  0.8136898E-01
        2   -1    0    0  501    0  0.00000000000E+00  0.00000000000E+00  0.16145360859E+04  0.16145360859E+04  0.25500000920E-02 0.  1.
       -2   -1    0    0    0  501  0.00000000000E+00  0.00000000000E+00 -0.17943187275E+04  0.17943187275E+04  0.25500000920E-02 0. -1.
    10030    2    1    2    0    0  0.00000000000E+00  0.00000000000E+00 -0.17978264158E+03  0.34088548133E+04  0.34041106533E+04 0.  0.
        2    1    3    3  502    0 -0.23443726833E+03 -0.43366019222E+03 -0.17212628111E+04  0.17904657662E+04  0.25500000920E-02 0. -1.
       -2    1    3    3    0  502  0.23443726833E+03  0.43366019222E+03  0.15414801695E+04  0.16183890472E+04  0.25500000920E-02 0.  1.
</event>
<event>
 5   0  0.9714317E-07  0.3333014E+04  0.7818609E-02  0.8154546E-01
        1   -1    0    0  501    0  0.00000000000E+00  0.00000000000E+00  0.22179197422E+04  0.22179197422E+04  0.50400001928E-02 0. -1.
       -1   -1    0    0    0  501  0.00000000000E+00  0.00000000000E+00 -0.12521845361E+04  0.12521845361E+04  0.50400001928E-02 0.  1.
    10030    2    1    2    0    0  0.00000000000E+00  0.00000000000E+00  0.96573520602E+03  0.34701042783E+04  0.33330135335E+04 0.  0.
        4    1    3    3  502    0  0.34341815977E+03 -0.16226290117E+04  0.65197451240E+03  0.17821148447E+04  0.12699999809E+01 0.  1.
       -4    1    3    3    0  502 -0.34341815977E+03  0.16226290117E+04  0.31376069362E+03  0.16879894336E+04  0.12699999809E+01 0. -1.
</event>
<event>
 5   0  0.1003191E-06  0.3423278E+04  0.7818609E-02  0.8132217E-01
        1   -1    0    0  501    0  0.00000000000E+00  0.00000000000E+00  0.21986061398E+04  0.21986061398E+04  0.50400001928E-02 0. -1.
       -1   -1    0    0    0  501  0.00000000000E+00  0.00000000000E+00 -0.13325294613E+04  0.13325294613E+04  0.50400001928E-02 0.  1.
    10030    2    1    2    0    0  0.00000000000E+00  0.00000000000E+00  0.86607667856E+03  0.35311356011E+04  0.34232776429E+04 0.  0.
        5    1    3    3  502    0  0.10649302946E+04  0.94082347942E+03 -0.55120551128E+03  0.15241636911E+04  0.46999998093E+01 0.  1.
       -5    1    3    3    0  502 -0.10649302946E+04 -0.94082347942E+03  0.14172821898E+04  0.20069719100E+04  0.46999998093E+01 0. -1.
</event>
<event>
 5   0  0.9232963E-07  0.3185034E+04  0.7818609E-02  0.8192781E-01
       -1   -1    0    0    0  501  0.00000000000E+00  0.00000000000E+00  0.14415148325E+04  0.14415148325E+04  0.50400001928E-02 0.  1.
        1   -1    0    0  501    0  0.00000000000E+00  0.00000000000E+00 -0.17593371542E+04  0.17593371542E+04  0.50400001928E-02 0. -1.
    10030    2    1    2    0    0  0.00000000000E+00  0.00000000000E+00 -0.31782232174E+03  0.32008519867E+04  0.31850341306E+04 0.  0.
        3    1    3    3  502    0  0.11567029732E+04 -0.50156692967E+02  0.93996935209E+03  0.14913148075E+04  0.10100000352E+00 0.  1.
       -3    1    3    3    0  502 -0.11567029732E+04  0.50156692967E+02 -0.12577916738E+04  0.17095371792E+04  0.10100000352E+00 0. -1.
</event>
<event>
 5   0  0.1010551E-06  0.3406472E+04  0.7818609E-02  0.8136320E-01
        1   -1    0    0  501    0  0.00000000000E+00  0.00000000000E+00  0.18008123404E+04  0.18008123404E+04  0.50400001928E-02 0.  1.
       -1   -1    0    0    0  501  0.00000000000E+00  0.00000000000E+00 -0.16109463436E+04  0.16109463436E+04  0.50400001928E-02 0. -1.
    10030    2    1    2    0    0  0.00000000000E+00  0.00000000000E+00  0.18986599680E+03  0.34117586839E+04  0.34064715206E+04 0.  0.
        2    1    3    3  502    0 -0.28653157586E+03  0.95968226513E+03 -0.12848560210E+04  0.16290934254E+04  0.25500000920E-02 0. -1.
       -2    1    3    3    0  502  0.28653157586E+03 -0.95968226513E+03  0.14747220178E+04  0.17826652585E+04  0.25500000920E-02 0.  1.
</event>
<event>
 5   0  0.2848685E-06  0.3281644E+04  0.7818609E-02  0.8167582E-01
       -2   -1    0    0    0  501  0.00000000000E+00  0.00000000000E+00  0.17629844140E+04  0.17629844140E+04  0.25500000920E-02 0. -1.
        2   -1    0    0  501    0  0.00000000000E+00  0.00000000000E+00 -0.15271248377E+04  0.15271248377E+04  0.25500000920E-02 0.  1.
    10030    2    1    2    0    0  0.00000000000E+00  0.00000000000E+00  0.23585957626E+03  0.32901092517E+04  0.32816442751E+04 0.  0.
        3    1    3    3  502    0 -0.13318965437E+03  0.86522585150E+03  0.15092926952E+04  0.17447978990E+04  0.10100000352E+00 0. -1.
       -3    1    3    3    0  502  0.13318965437E+03 -0.86522585150E+03 -0.12734331190E+04  0.15453113527E+04  0.10100000352E+00 0.  1.
</event>
<event>
 5   0  0.2767014E-06  0.3374153E+04  0.7818609E-02  0.8144279E-01
       -2   -1    0    0    0  501  0.00000000000E+00  0.00000000000E+00  0.13431672195E+04  0.13431672195E+04  0.25500000920E-02 0. -1.
        2   -1    0    0  501    0  0.00000000000E+00  0.00000000000E+00 -0.21190420297E+04  0.21190420297E+04  0.25500000920E-02 0.  1.
    10030    2    1    2    0    0  0.00000000000E+00  0.00000000000E+00 -0.77587481015E+03  0.34622092492E+04  0.33741533996E+04 0.  0.
        1    1    3    3  502    0 -0.56771322166E+03  0.15705378553E+04 -0.14222980040E+03  0.16760419963E+04  0.50400001928E-02 0. -1.
       -1    1    3    3    0  502  0.56771322166E+03 -0.15705378553E+04 -0.63364500976E+03  0.17861672529E+04  0.50400001928E-02 0.  1.
</event>
<event>
 5   0  0.1010551E-06  0.3324890E+04  0.7818609E-02  0.8156591E-01
       -1   -1    0    0    0  501  0.00000000000E+00  0.00000000000E+00  0.11799555041E+04  0.11799555041E+04  0.50400001928E-02 0.  1.
        1   -1    0    0  501    0  0.00000000000E+00  0.00000000000E+00 -0.23422272536E+04  0.23422272536E+04  0.50400001928E-02 0. -1.
    10030    2    1    2    0    0  0.00000000000E+00  0.00000000000E+00 -0.11622717495E+04  0.35221827577E+04  0.33248903379E+04 0.  0.
        2    1    3    3  502    0  0.14581430576E+04 -0.33302817791E+02 -0.14262417870E+04  0.20399646784E+04  0.25500000920E-02 0. -1.
       -2    1    3    3    0  502 -0.14581430576E+04  0.33302817791E+02  0.26397003742E+03  0.14822180794E+04  0.25500000920E-02 0.  1.
</event>
<event>
 5   0  0.9714317E-07  0.2949094E+04  0.7818609E-02  0.8258419E-01
       -1   -1    0    0    0  501  0.00000000000E+00  0.00000000000E+00  0.12102401244E+04  0.12102401244E+04  0.50400001928E-02 0. -1.
        1   -1    0    0  501    0  0.00000000000E+00  0.00000000000E+00 -0.17965761926E+04  0.17965761926E+04  0.50400001928E-02 0.  1.
    10030    2    1    2    0    0  0.00000000000E+00  0.00000000000E+00 -0.58633606821E+03  0.30068163171E+04  0.29490938235E+04 0.  0.
        4    1    3    3  502    0  0.71938434004E+03 -0.12681758921E+04 -0.51771277001E+03  0.15471948963E+04  0.12699999809E+01 0. -1.
       -4    1    3    3    0  502 -0.71938434004E+03  0.12681758921E+04 -0.68623298205E+02  0.14596214208E+04  0.12699999809E+01 0.  1.
</event>
<event>
 5   0  0.9232963E-07  0.3336808E+04  0.7818609E-02  0.8153592E-01
       -1   -1    0    0    0  501  0.00000000000E+00  0.00000000000E+00  0.19463539926E+04  0.19463539926E+04  0.50400001928E-02 0. -1.
        1   -1    0    0  501    0  0.00000000000E+00  0.00000000000E+00 -0.14301465279E+04  0.14301465279E+04  0.50400001928E-02 0.  1.
    10030    2    1    2    0    0  0.00000000000E+00  0.00000000000E+00  0.51620746471E+03  0.33765005205E+04  0.33368076987E+04 0.  0.
        3    1    3    3  502    0  0.50044490476E+03 -0.12397419811E+03  0.18637228164E+04  0.19337211410E+04  0.10100000352E+00 0. -1.
       -3    1    3    3    0  502 -0.50044490476E+03  0.12397419811E+03 -0.13475153517E+04  0.14427793795E+04  0.10100000352E+00 0.  1.
</event>
<event>
 5   0  0.9714317E-07  0.2359830E+04  0.7818609E-02  0.8454697E-01
        1   -1    0    0  501    0  0.00000000000E+00  0.00000000000E+00  0.10417164795E+04  0.10417164795E+04  0.50400001928E-02 0. -1.
       -1   -1    0    0    0  501  0.00000000000E+00  0.00000000000E+00 -0.13364478319E+04  0.13364478319E+04  0.50400001928E-02 0.  1.
    10030    2    1    2    0    0  0.00000000000E+00  0.00000000000E+00 -0.29473135248E+03  0.23781643114E+04  0.23598302740E+04 0.  0.
        4    1    3    3  502    0 -0.57509400029E+03 -0.67335706626E+03  0.63847158499E+03  0.10916915432E+04  0.12699999809E+01 0. -1.
       -4    1    3    3    0  502  0.57509400029E+03  0.67335706626E+03 -0.93320293747E+03  0.12864727682E+04  0.12699999809E+01 0.  1.
</event>
<event>
 5   0  0.2664083E-06  0.3462616E+04  0.7818609E-02  0.8122707E-01
        2   -1    0    0  501    0  0.00000000000E+00  0.00000000000E+00  0.18493918393E+04  0.18493918393E+04  0.25500000920E-02 0.  1.
       -2   -1    0    0    0  501  0.00000000000E+00  0.00000000000E+00 -0.16207634143E+04  0.16207634143E+04  0.25500000920E-02 0. -1.
    10030    2    1    2    0    0  0.00000000000E+00  0.00000000000E+00  0.22862842497E+03  0.34701552536E+04  0.34626155616E+04 0.  0.
        2    1    3    3  502    0 -0.17119932420E+04 -0.36260118453E+02 -0.14156698095E+03  0.17182190974E+04  0.25500000920E-02 0.  1.
       -2    1    3    3    0  502  0.17119932420E+04  0.36260118453E+02  0.37019540592E+03  0.17519361562E+04  0.25500000920E-02 0. -1.
</event>
<event>
 5   0  0.2767014E-06  0.3447149E+04  0.7818609E-02  0.8126430E-01
        2   -1    0    0  501    0  0.00000000000E+00  0.00000000000E+00  0.16787212965E+04  0.16787212965E+04  0.25500000920E-02 0. -1.
       -2   -1    0    0    0  501  0.00000000000E+00  0.00000000000E+00 -0.17696261472E+04  0.17696261472E+04  0.25500000920E-02 0.  1.
    10030    2    1    2    0    0  0.00000000000E+00  0.00000000000E+00 -0.90904850748E+02  0.34483474437E+04  0.34471490250E+04 0.  0.
        1    1    3    3  502    0  0.13534503651E+04 -0.41300390573E+02  0.10213026140E+04  0.16960520754E+04  0.50400001928E-02 0. -1.
       -1    1    3    3    0  502 -0.13534503651E+04  0.41300390573E+02 -0.11122074647E+04  0.17522953683E+04  0.50400001928E-02 0.  1.
</event>
<event>
 5   0  0.1010855E-06  0.3507837E+04  0.7818609E-02  0.8111935E-01
        1   -1    0    0  501    0  0.00000000000E+00  0.00000000000E+00  0.17028948781E+04  0.17028948781E+04  0.50400001928E-02 0. -1.
       -1   -1    0    0    0  501  0.00000000000E+00  0.00000000000E+00 -0.18064712723E+04  0.18064712723E+04  0.50400001928E-02 0.  1.
    10030    2    1    2    0    0  0.00000000000E+00  0.00000000000E+00 -0.10357639422E+03  0.35093661504E+04  0.35078373263E+04 0.  0.
        1    1    3    3  502    0  0.62941742430E+03  0.45474072018E+03 -0.16251386317E+04  0.18011193711E+04  0.50400001928E-02 0.  1.
       -1    1    3    3    0  502 -0.62941742430E+03 -0.45474072018E+03  0.15215622375E+04  0.17082467793E+04  0.50400001928E-02 0. -1.
</event>
<event>
 5   0  0.2664083E-06  0.3248510E+04  0.7818609E-02  0.8176122E-01
        2   -1    0    0  501    0  0.00000000000E+00  0.00000000000E+00  0.10328880946E+04  0.10328880946E+04  0.25500000920E-02 0.  1.
       -2   -1    0    0    0  501  0.00000000000E+00  0.00000000000E+00 -0.25542012404E+04  0.25542012404E+04  0.25500000920E-02 0. -1.
    10030    2    1    2    0    0  0.00000000000E+00  0.00000000000E+00 -0.15213131458E+04  0.35870893349E+04  0.32485098444E+04 0.  0.
        2    1    3    3  502    0  0.14967183483E+04 -0.13466548197E+03 -0.80052377190E+02  0.15048950094E+04  0.25500000920E-02 0. -1.
       -2    1    3    3    0  502 -0.14967183483E+04  0.13466548197E+03 -0.14412607686E+04  0.20821943255E+04  0.25500000920E-02 0.  1.
</event>
<event>
 5   0  0.9232963E-07  0.3377262E+04  0.7818609E-02  0.8143510E-01
        1   -1    0    0  501    0  0.00000000000E+00  0.00000000000E+00  0.30614319897E+04  0.30614319898E+04  0.50400001928E-02 0. -1.
       -1   -1    0    0    0  501  0.00000000000E+00  0.00000000000E+00 -0.93141854053E+03  0.93141854055E+03  0.50400001928E-02 0.  1.
    10030    2    1    2    0    0  0.00000000000E+00  0.00000000000E+00  0.21300134492E+04  0.39928505303E+04  0.33772619181E+04 0.  0.
        3    1    3    3  502    0 -0.25328337680E+03 -0.62556287826E+03 -0.76503542923E+03  0.10201767503E+04  0.10100000352E+00 0.  1.
       -3    1    3    3    0  502  0.25328337680E+03  0.62556287826E+03  0.28950488784E+04  0.29726737800E+04  0.10100000352E+00 0. -1.
</event>
<event>
 5   0  0.2767014E-06  0.3396947E+04  0.7818609E-02  0.8138656E-01
        2   -1    0    0  501    0  0.00000000000E+00  0.00000000000E+00  0.10191123264E+04  0.10191123264E+04  0.25500000920E-02 0. -1.
       -2   -1    0    0    0  501  0.00000000000E+00  0.00000000000E+00 -0.28307100258E+04  0.28307100258E+04  0.25500000920E-02 0.  1.
    10030    2    1    2    0    0  0.00000000000E+00  0.00000000000E+00 -0.18115976994E+04  0.38498223522E+04  0.33969465582E+04 0.  0.
        1    1    3    3  502    0 -0.16562274975E+03  0.22547462444E+03  0.99281974957E+03  0.10314847341E+04  0.50400001928E-02 0. -1.
       -1    1    3    3    0  502  0.16562274975E+03 -0.22547462444E+03 -0.28044174490E+04  0.28183376181E+04  0.50400001928E-02 0.  1.
</event>
<event>
 5   0  0.9232963E-07  0.2587647E+04  0.7818609E-02  0.8372410E-01
        1   -1    0    0  501    0  0.00000000000E+00  0.00000000000E+00  0.90418580230E+03  0.90418580232E+03  0.50400001928E-02 0.  1.
       -1   -1    0    0    0  501  0.00000000000E+00  0.00000000000E+00 -0.18513658357E+04  0.18513658357E+04  0.50400001928E-02 0. -1.
    10030    2    1    2    0    0  0.00000000000E+00  0.00000000000E+00 -0.94718003339E+03  0.27555516380E+04  0.25876465783E+04 0.  0.
        3    1    3    3  502    0 -0.34727179024E+03  0.12168662558E+04 -0.76055194226E+03  0.14764147276E+04  0.10100000352E+00 0. -1.
       -3    1    3    3    0  502  0.34727179024E+03 -0.12168662558E+04 -0.18662809113E+03  0.12791369104E+04  0.10100000352E+00 0.  1.
</event>
<event>
 5   0  0.2906701E-06  0.3392469E+04  0.7818609E-02  0.8139757E-01
        2   -1    0    0  501    0  0.00000000000E+00  0.00000000000E+00  0.17561781847E+04  0.17561781847E+04  0.25500000920E-02 0.  1.
       -2   -1    0    0    0  501  0.00000000000E+00  0.00000000000E+00 -0.16383370421E+04  0.16383370421E+04  0.25500000920E-02 0. -1.
    10030    2    1    2    0    0  0.00000000000E+00  0.00000000000E+00  0.11784114268E+03  0.33945152268E+04  0.33924691730E+04 0.  0.
        5    1    3    3  502    0 -0.14979004449E+04  0.27712263784E+03  0.80548515658E+03  0.17231747232E+04  0.46999998093E+01 0.  1.
       -5    1    3    3    0  502  0.14979004449E+04 -0.27712263784E+03 -0.68764401391E+03  0.16713405036E+04  0.46999998093E+01 0. -1.
</event>
<event>
 5   0  0.2767014E-06  0.3314601E+04  0.7818609E-02  0.8159190E-01
       -2   -1    0    0    0  501  0.00000000000E+00  0.00000000000E+00  0.11619358992E+04  0.11619358992E+04  0.25500000920E-02 0.  1.
        2   -1    0    0  501    0  0.00000000000E+00  0.00000000000E+00 -0.23638518817E+04  0.23638518817E+04  0.25500000920E-02 0. -1.
    10030    2    1    2    0    0  0.00000000000E+00  0.00000000000E+00 -0.12019159825E+04  0.35257877809E+04  0.33146006467E+04 0.  0.
        1    1    3    3  502    0 -0.73447820132E+03  0.14587563345E+04 -0.90034410913E+03  0.18649524891E+04  0.50400001928E-02 0. -1.
       -1    1    3    3    0  502  0.73447820132E+03 -0.14587563345E+04 -0.30157187336E+03  0.16608352918E+04  0.50400001928E-02 0.  1.
</event>
<event>
 5   0  0.1010551E-06  0.3361413E+04  0.7818609E-02  0.8147442E-01
        1   -1    0    0  501    0  0.00000000000E+00  0.00000000000E+00  0.28194104023E+04  0.28194104023E+04  0.50400001928E-02 0.  1.
       -1   -1    0    0    0  501  0.00000000000E+00  0.00000000000E+00 -0.10019025851E+04  0.10019025852E+04  0.50400001928E-02 0. -1.
    10030    2    1    2    0    0  0.00000000000E+00  0.00000000000E+00  0.18175078172E+04  0.38213129875E+04  0.33614131378E+04 0.  0.
        2    1    3    3  502    0  0.45656063647E+03  0.69950751519E+03 -0.74921398123E+03  0.11220873265E+04  0.25500000920E-02 0. -1.
       -2    1    3    3    0  502 -0.45656063647E+03 -0.69950751519E+03  0.25667217984E+04  0.26992256610E+04  0.25500000920E-02 0.  1.
</event>
<event>
 5   0  0.2664083E-06  0.2609461E+04  0.7818609E-02  0.8364995E-01
        2   -1    0    0  501    0  0.00000000000E+00  0.00000000000E+00  0.11504828546E+04  0.11504828546E+04  0.25500000920E-02 0. -1.
       -2   -1    0    0    0  501  0.00000000000E+00  0.00000000000E+00 -0.14796579906E+04  0.14796579906E+04  0.25500000920E-02 0.  1.
    10030    2    1    2    0    0  0.00000000000E+00  0.00000000000E+00 -0.32917513599E+03  0.26301408452E+04  0.26094605947E+04 0.  0.
        2    1    3    3  502    0 -0.49951098442E+02 -0.37082561449E+03 -0.14244191194E+04  0.14727445726E+04  0.25500000920E-02 0.  1.
       -2    1    3    3    0  502  0.49951098442E+02  0.37082561449E+03  0.10952439834E+04  0.11573962725E+04  0.25500000920E-02 0. -1.
</event>
<event>
 5   0  0.2767014E-06  0.3191775E+04  0.7818609E-02  0.8190993E-01
        2   -1    0    0  501    0  0.00000000000E+00  0.00000000000E+00  0.27374773954E+04  0.27374773954E+04  0.25500000920E-02 0. -1.
       -2   -1    0    0    0  501  0.00000000000E+00  0.00000000000E+00 -0.93036622592E+03  0.93036622592E+03  0.25500000920E-02 0.  1.
    10030    2    1    2    0    0  0.00000000000E+00  0.00000000000E+00  0.18071111695E+04  0.36678436213E+04  0.31917747495E+04 0.  0.
        1    1    3    3  502    0  0.92188536681E+03 -0.86650798258E+02 -0.59011396881E+03  0.10980052307E+04  0.50400001928E-02 0.  1.
       -1    1    3    3    0  502 -0.92188536681E+03  0.86650798258E+02  0.23972251383E+04  0.25698383907E+04  0.50400001928E-02 0. -1.
</event>
<event>
 5   0  0.1010551E-06  0.3415168E+04  0.7818609E-02  0.8134194E-01
        1   -1    0    0  501    0  0.00000000000E+00  0.00000000000E+00  0.15945151042E+04  0.15945151042E+04  0.50400001928E-02 0.  1.
       -1   -1    0    0    0  501  0.00000000000E+00  0.00000000000E+00 -0.18286704864E+04  0.18286704864E+04  0.50400001928E-02 0. -1.
    10030    2    1    2    0    0  0.00000000000E+00  0.00000000000E+00 -0.23415538225E+03  0.34231855906E+04  0.34151677623E+04 0.  0.
        2    1    3    3  502    0  0.82520658074E+03 -0.72349155078E+03 -0.14283679483E+04  0.18012886833E+04  0.25500000920E-02 0. -1.
       -2    1    3    3    0  502 -0.82520658074E+03  0.72349155078E+03  0.11942125661E+04  0.16218969073E+04  0.25500000920E-02 0.  1.
</event>
<event>
 5   0  0.9714317E-07  0.3348356E+04  0.7818609E-02  0.8150699E-01
        1   -1    0    0  501    0  0.00000000000E+00  0.00000000000E+00  0.23474968712E+04  0.23474968712E+04  0.50400001928E-02 0. -1.
       -1   -1    0    0    0  501  0.00000000000E+00  0.00000000000E+00 -0.11939832923E+04  0.11939832923E+04  0.50400001928E-02 0.  1.
    10030    2    1    2    0    0  0.00000000000E+00  0.00000000000E+00  0.11535135789E+04  0.35414801636E+04  0.33483560403E+04 0.  0.
        4    1    3    3  502    0 -0.58449566682E+03 -0.97013929097E+03  0.18807768185E+04  0.21954791008E+04  0.12699999809E+01 0. -1.
       -4    1    3    3    0  502  0.58449566682E+03  0.97013929097E+03 -0.72726323956E+03  0.13460010628E+04  0.12699999809E+01 0.  1.
</event>
<event>
 5   0  0.2906701E-06  0.3263470E+04  0.7818609E-02  0.8172253E-01
       -2   -1    0    0    0  501  0.00000000000E+00  0.00000000000E+00  0.31994084263E+04  0.31994084263E+04  0.25500000920E-02 0.  1.
        2   -1    0    0  501    0  0.00000000000E+00  0.00000000000E+00 -0.83220345290E+03  0.83220345290E+03  0.25500000920E-02 0. -1.
    10030    2    1    2    0    0  0.00000000000E+00  0.00000000000E+00  0.23672049734E+04  0.40316118792E+04  0.32634697729E+04 0.  0.
        5    1    3    3  502    0 -0.72045495712E+03  0.13186688318E+04  0.19693965478E+04  0.24771935100E+04  0.46999998093E+01 0.  1.
       -5    1    3    3    0  502  0.72045495712E+03 -0.13186688318E+04  0.39780842558E+03  0.15544183693E+04  0.46999998093E+01 0. -1.
</event>
<event>
 5   0  0.1003191E-06  0.3410730E+04  0.7818609E-02  0.8135278E-01
        1   -1    0    0  501    0  0.00000000000E+00  0.00000000000E+00  0.18481906012E+04  0.18481906012E+04  0.50400001928E-02 0.  1.
       -1   -1    0    0    0  501  0.00000000000E+00  0.00000000000E+00 -0.15735768506E+04  0.15735768506E+04  0.50400001928E-02 0. -1.
    10030    2    1    2    0    0  0.00000000000E+00  0.00000000000E+00  0.27461375052E+03  0.34217674518E+04  0.34107300952E+04 0.  0.
        5    1    3    3  502    0 -0.15440664169E+04 -0.91337181015E+02 -0.58318446651E+03  0.16530607346E+04  0.46999998093E+01 0. -1.
       -5    1    3    3    0  502  0.15440664169E+04  0.91337181015E+02  0.85779821703E+03  0.17687067172E+04  0.46999998093E+01 0.  1.
</event>
<event>
 5   0  0.9232963E-07  0.2189276E+04  0.7818609E-02  0.8522905E-01
       -1   -1    0    0    0  501  0.00000000000E+00  0.00000000000E+00  0.11253461979E+04  0.11253461979E+04  0.50400001928E-02 0. -1.
        1   -1    0    0  501    0  0.00000000000E+00  0.00000000000E+00 -0.10647675944E+04  0.10647675944E+04  0.50400001928E-02 0.  1.
    10030    2    1    2    0    0  0.00000000000E+00  0.00000000000E+00  0.60578603510E+02  0.21901137924E+04  0.21892758292E+04 0.  0.
        3    1    3    3  502    0  0.72522992832E+03  0.81959473618E+03  0.70818579709E+01  0.10944149777E+04  0.10100000352E+00 0.  1.
       -3    1    3    3    0  502 -0.72522992832E+03 -0.81959473618E+03  0.53496745539E+02  0.10956988147E+04  0.10100000352E+00 0. -1.
</event>
<event>
 5   0  0.2848685E-06  0.3406949E+04  0.7818609E-02  0.8136203E-01
       -2   -1    0    0    0  501  0.00000000000E+00  0.00000000000E+00  0.16167274855E+04  0.16167274855E+04  0.25500000920E-02 0. -1.
        2   -1    0    0  501    0  0.00000000000E+00  0.00000000000E+00 -0.17948760399E+04  0.17948760399E+04  0.25500000920E-02 0.  1.
    10030    2    1    2    0    0  0.00000000000E+00  0.00000000000E+00 -0.17814855444E+03  0.34116035254E+04  0.34069490321E+04 0.  0.
        3    1    3    3  502    0 -0.39335417909E+03 -0.13743920531E+04  0.83855212688E+03  0.16573625752E+04  0.10100000352E+00 0. -1.
       -3    1    3    3    0  502  0.39335417909E+03  0.13743920531E+04 -0.10167006813E+04  0.17542409502E+04  0.10100000352E+00 0.  1.
</event>
<event>
 5   0  0.2906701E-06  0.3378885E+04  0.7818609E-02  0.8143108E-01
       -2   -1    0    0    0  501  0.00000000000E+00  0.00000000000E+00  0.12441167818E+04  0.12441167818E+04  0.25500000920E-02 0. -1.
        2   -1    0    0  501    0  0.00000000000E+00  0.00000000000E+00 -0.22941708241E+04  0.22941708241E+04  0.25500000920E-02 0.  1.
    10030    2    1    2    0    0  0.00000000000E+00  0.00000000000E+00 -0.10500540423E+04  0.35382876059E+04  0.33788852733E+04 0.  0.
        5    1    3    3  502    0 -0.50129553633E+03 -0.10660360080E+04 -0.17931326773E+04  0.21454782389E+04  0.46999998093E+01 0.  1.
       -5    1    3    3    0  502  0.50129553633E+03  0.10660360080E+04  0.74307863500E+03  0.13928093670E+04  0.46999998093E+01 0. -1.
</event>
<event>
 5   0  0.1003191E-06  0.3377568E+04  0.7818609E-02  0.8143434E-01
        1   -1    0    0  501    0  0.00000000000E+00  0.00000000000E+00  0.16412492090E+04  0.16412492090E+04  0.50400001928E-02 0. -1.
       -1   -1    0    0    0  501  0.00000000000E+00  0.00000000000E+00 -0.17376956045E+04  0.17376956045E+04  0.50400001928E-02 0.  1.
    10030    2    1    2    0    0  0.00000000000E+00  0.00000000000E+00 -0.96446395445E+02  0.33789448135E+04  0.33775680816E+04 0.  0.
        5    1    3    3  502    0  0.60996653921E+03  0.41777985536E+03 -0.15671866696E+04  0.17328287087E+04  0.46999998093E+01 0.  1.
       -5    1    3    3    0  502 -0.60996653921E+03 -0.41777985536E+03  0.14707402741E+04  0.16461161048E+04  0.46999998093E+01 0. -1.
</event>
<event>
 5   0  0.1010551E-06  0.2549365E+04  0.7818609E-02  0.8385607E-01
        1   -1    0    0  501    0  0.00000000000E+00  0.00000000000E+00  0.13164993283E+04  0.13164993283E+04  0.50400001928E-02 0. -1.
       -1   -1    0    0    0  501  0.00000000000E+00  0.00000000000E+00 -0.12341937017E+04  0.12341937018E+04  0.50400001928E-02 0.  1.
    10030    2    1    2    0    0  0.00000000000E+00  0.00000000000E+00  0.82305626561E+02  0.25506930301E+04  0.25493647675E+04 0.  0.
        2    1    3    3  502    0 -0.29547156656E+03 -0.11229346528E+04  0.56728751716E+03  0.12923238016E+04  0.25500000920E-02 0. -1.
       -2    1    3    3    0  502  0.29547156656E+03  0.11229346528E+04 -0.48498189060E+03  0.12583692285E+04  0.25500000920E-02 0.  1.
</event>
<event>
 5   0  0.2856440E-06  0.3456433E+04  0.7818609E-02  0.8124193E-01
       -2   -1    0    0    0  501  0.00000000000E+00  0.00000000000E+00  0.14166113711E+04  0.14166113711E+04  0.25500000920E-02 0.  1.
        2   -1    0    0  501    0  0.00000000000E+00  0.00000000000E+00 -0.21083638287E+04  0.21083638287E+04  0.25500000920E-02 0. -1.
    10030    2    1    2    0    0  0.00000000000E+00  0.00000000000E+00 -0.69175245760E+03  0.35249751998E+04  0.34564329441E+04 0.  0.
        4    1    3    3  502    0  0.16546774862E+04 -0.32188252105E+03  0.42683978258E+02  0.16862352966E+04  0.12699999809E+01 0.  1.
       -4    1    3    3    0  502 -0.16546774862E+04  0.32188252105E+03 -0.73443643585E+03  0.18387399032E+04  0.12699999809E+01 0. -1.
</event>
<event>
 5   0  0.2906701E-06  0.3183865E+04  0.7818609E-02  0.8193091E-01
       -2   -1    0    0    0  501  0.00000000000E+00  0.00000000000E+00  0.10770786686E+04  0.10770786686E+04  0.25500000920E-02 0. -1.
        2   -1    0    0  501    0  0.00000000000E+00  0.00000000000E+00 -0.23528910785E+04  0.23528910785E+04  0.25500000920E-02 0.  1.
    10030    2    1    2    0    0  0.00000000000E+00  0.00000000000E+00 -0.12758124099E+04  0.34299697471E+04  0.31838648151E+04 0.  0.
        5    1    3    3  502    0 -0.52904133206E+03  0.11421928056E+04 -0.16877809232E+04  0.21054965378E+04  0.46999998093E+01 0.  1.
       -5    1    3    3    0  502  0.52904133206E+03 -0.11421928056E+04  0.41196851334E+03  0.13244732093E+04  0.46999998093E+01 0. -1.
</event>
<event>
 5   0  0.1010855E-06  0.2746883E+04  0.7818609E-02  0.8319951E-01
        1   -1    0    0  501    0  0.00000000000E+00  0.00000000000E+00  0.19621916636E+04  0.19621916636E+04  0.50400001928E-02 0.  1.
       -1   -1    0    0    0  501  0.00000000000E+00  0.00000000000E+00 -0.96134451087E+03  0.96134451089E+03  0.50400001928E-02 0. -1.
    10030    2    1    2    0    0  0.00000000000E+00  0.00000000000E+00  0.10008471527E+04  0.29235361745E+04  0.27468834596E+04 0.  0.
        1    1    3    3  502    0  0.11110715836E+04  0.80737890454E+03  0.49915273503E+03  0.14613330258E+04  0.50400001928E-02 0. -1.
       -1    1    3    3    0  502 -0.11110715836E+04 -0.80737890454E+03  0.50169441770E+03  0.14622031487E+04  0.50400001928E-02 0.  1.
</event>
<event>
 5   0  0.2664083E-06  0.3455963E+04  0.7818609E-02  0.8124306E-01
        2   -1    0    0  501    0  0.00000000000E+00  0.00000000000E+00  0.25270577750E+04  0.25270577750E+04  0.25500000920E-02 0. -1.
       -2   -1    0    0    0  501  0.00000000000E+00  0.00000000000E+00 -0.11815793218E+04  0.11815793218E+04  0.25500000920E-02 0.  1.
    10030    2    1    2    0    0  0.00000000000E+00  0.00000000000E+00  0.13454784531E+04  0.37086370968E+04  0.34559625067E+04 0.  0.
        2    1    3    3  502    0  0.58340235513E+03  0.29209977272E+03 -0.10443210405E+04  0.12313760680E+04  0.25500000920E-02 0.  1.
       -2    1    3    3    0  502 -0.58340235513E+03 -0.29209977272E+03  0.23897994936E+04  0.24772610288E+04  0.25500000920E-02 0. -1.
</event>
<event>
 5   0  0.1010551E-06  0.3575799E+04  0.7818609E-02  0.8096058E-01
        1   -1    0    0  501    0  0.00000000000E+00  0.00000000000E+00  0.12957374205E+04  0.12957374205E+04  0.50400001928E-02 0. -1.
       -1   -1    0    0    0  501  0.00000000000E+00  0.00000000000E+00 -0.24670001607E+04  0.24670001607E+04  0.50400001928E-02 0.  1.
    10030    2    1    2    0    0  0.00000000000E+00  0.00000000000E+00 -0.11712627402E+04  0.37627375811E+04  0.35757988895E+04 0.  0.
        2    1    3    3  502    0 -0.57287471274E+03  0.13820786118E+04  0.44445111896E+03  0.15607253195E+04  0.25500000920E-02 0. -1.
       -2    1    3    3    0  502  0.57287471274E+03 -0.13820786118E+04 -0.16157138591E+04  0.22020122616E+04  0.25500000920E-02 0.  1.
</event>
<event>
 5   0  0.2767014E-06  0.3389343E+04  0.7818609E-02  0.8140527E-01
        2   -1    0    0  501    0  0.00000000000E+00  0.00000000000E+00  0.18039814077E+04  0.18039814077E+04  0.25500000920E-02 0. -1.
       -2   -1    0    0    0  501  0.00000000000E+00  0.00000000000E+00 -0.15919854645E+04  0.15919854645E+04  0.25500000920E-02 0.  1.
    10030    2    1    2    0    0  0.00000000000E+00  0.00000000000E+00  0.21199594323E+03  0.33959668722E+04  0.33893434050E+04 0.  0.
        1    1    3    3  502    0 -0.76013889906E+00 -0.13337368879E+04 -0.94153904610E+03  0.16325901015E+04  0.50400001928E-02 0.  1.
       -1    1    3    3    0  502  0.76013889906E+00  0.13337368879E+04  0.11535349893E+04  0.17633767708E+04  0.50400001928E-02 0. -1.
</event>
<event>
 5   0  0.9232963E-07  0.2283816E+04  0.7818609E-02  0.8484330E-01
       -1   -1    0    0    0  501  0.00000000000E+00  0.00000000000E+00  0.97164336611E+03  0.97164336613E+03  0.50400001928E-02 0.  1.
        1   -1    0    0  501    0  0.00000000000E+00  0.00000000000E+00 -0.13420082316E+04  0.13420082316E+04  0.50400001928E-02 0. -1.
    10030    2    1    2    0    0  0.00000000000E+00  0.00000000000E+00 -0.37036486550E+03  0.23136515977E+04  0.22838155753E+04 0.  0.
        3    1    3    3  502    0  0.58177340287E+03 -0.87855052186E+02 -0.11766273359E+04  0.13155343782E+04  0.10100000352E+00 0. -1.
       -3    1    3    3    0  502 -0.58177340287E+03  0.87855052186E+02  0.80626247042E+03  0.99811721951E+03  0.10100000352E+00 0.  1.
</event>
<event>
 5   0  0.9232963E-07  0.3401660E+04  0.7818609E-02  0.8137499E-01
        1   -1    0    0  501    0  0.00000000000E+00  0.00000000000E+00  0.20820784627E+04  0.20820784627E+04  0.50400001928E-02 0. -1.
       -1   -1    0    0    0  501  0.00000000000E+00  0.00000000000E+00 -0.13893918758E+04  0.13893918758E+04  0.50400001928E-02 0.  1.
    10030    2    1    2    0    0  0.00000000000E+00  0.00000000000E+00  0.69268658690E+03  0.34714703385E+04  0.34016601246E+04 0.  0.
        3    1    3    3  502    0  0.12237344548E+04  0.11636315972E+04  0.13905316084E+03  0.16943731294E+04  0.10100000352E+00 0.  1.
       -3    1    3    3    0  502 -0.12237344548E+04 -0.11636315972E+04  0.55363342606E+03  0.17770972091E+04  0.10100000352E+00 0. -1.
</event>
<event>
 5   0  0.2856440E-06  0.3374660E+04  0.7818609E-02  0.8144154E-01
        2   -1    0    0  501    0  0.00000000000E+00  0.00000000000E+00  0.22684644385E+04  0.22684644385E+04  0.25500000920E-02 0.  1.
       -2   -1    0    0    0  501  0.00000000000E+00  0.00000000000E+00 -0.12550705887E+04  0.12550705887E+04  0.25500000920E-02 0. -1.
    10030    2    1    2    0    0  0.00000000000E+00  0.00000000000E+00  0.10133938498E+04  0.35235350272E+04  0.33746602782E+04 0.  0.
        4    1    3    3  502    0  0.13799086865E+04  0.94668632522E+03  0.28101720597E+03  0.16968604139E+04  0.12699999809E+01 0. -1.
       -4    1    3    3    0  502 -0.13799086865E+04 -0.94668632522E+03  0.73237664388E+03  0.18266746133E+04  0.12699999809E+01 0.  1.
</event>
<event>
 5   0  0.2767014E-06  0.3398314E+04  0.7818609E-02  0.8138320E-01
        2   -1    0    0  501    0  0.00000000000E+00  0.00000000000E+00  0.91212902641E+03  0.91212902641E+03  0.25500000920E-02 0. -1.
       -2   -1    0    0    0  501  0.00000000000E+00  0.00000000000E+00 -0.31652690703E+04  0.31652690703E+04  0.25500000920E-02 0.  1.
    10030    2    1    2    0    0  0.00000000000E+00  0.00000000000E+00 -0.22531400439E+04  0.40773980967E+04  0.33983135791E+04 0.  0.
        1    1    3    3  502    0 -0.12354839596E+04  0.19377017074E+03  0.25358185666E+03  0.12760373238E+04  0.50400001928E-02 0. -1.
       -1    1    3    3    0  502  0.12354839596E+04 -0.19377017074E+03 -0.25067219005E+04  0.28013607730E+04  0.50400001928E-02 0.  1.
</event>
<event>
 5   0  0.1010551E-06  0.3362688E+04  0.7818609E-02  0.8147125E-01
        1   -1    0    0  501    0  0.00000000000E+00  0.00000000000E+00  0.17257360223E+04  0.17257360223E+04  0.50400001928E-02 0. -1.
       -1   -1    0    0    0  501  0.00000000000E+00  0.00000000000E+00 -0.16380937647E+04  0.16380937647E+04  0.50400001928E-02 0.  1.
    10030    2    1    2    0    0  0.00000000000E+00  0.00000000000E+00  0.87642257584E+02  0.33638297870E+04  0.33626878640E+04 0.  0.
        2    1    3    3  502    0 -0.19250182507E+03  0.26890707754E+03  0.16928800870E+04  0.17248799836E+04  0.25500000920E-02 0. -1.
       -2    1    3    3    0  502  0.19250182507E+03 -0.26890707754E+03 -0.16052378294E+04  0.16389498034E+04  0.25500000920E-02 0.  1.
</event>
<event>
 5   0  0.9714317E-07  0.3376442E+04  0.7818609E-02  0.8143712E-01
       -1   -1    0    0    0  501  0.00000000000E+00  0.00000000000E+00  0.27091685473E+04  0.27091685473E+04  0.50400001928E-02 0. -1.
        1   -1    0    0  501    0  0.00000000000E+00  0.00000000000E+00 -0.10520166690E+04  0.10520166690E+04  0.50400001928E-02 0.  1.
    10030    2    1    2    0    0  0.00000000000E+00  0.00000000000E+00  0.16571518784E+04  0.37611852163E+04  0.33764421931E+04 0.  0.
        4    1    3    3  502    0  0.11336758954E+04  0.50870500233E+03 -0.44449165150E+03  0.13196879390E+04  0.12699999809E+01 0.  1.
       -4    1    3    3    0  502 -0.11336758954E+04 -0.50870500233E+03  0.21016435299E+04  0.24414972772E+04  0.12699999809E+01 0. -1.
</event>
<event>
 5   0  0.1003191E-06  0.3272809E+04  0.7818609E-02  0.8169849E-01
       -1   -1    0    0    0  501  0.00000000000E+00  0.00000000000E+00  0.18608000613E+04  0.18608000613E+04  0.50400001928E-02 0. -1.
        1   -1    0    0  501    0  0.00000000000E+00  0.00000000000E+00 -0.14390694339E+04  0.14390694339E+04  0.50400001928E-02 0.  1.
    10030    2    1    2    0    0  0.00000000000E+00  0.00000000000E+00  0.42173062746E+03  0.32998694952E+04  0.32728094908E+04 0.  0.
        5    1    3    3  502    0  0.19419709688E+03 -0.50776384516E+03  0.17670845487E+04  0.18488230113E+04  0.46999998093E+01 0. -1.
       -5    1    3    3    0  502 -0.19419709688E+03  0.50776384516E+03 -0.13453539213E+04  0.14510464839E+04  0.46999998093E+01 0.  1.
</event>
<event>
 5   0  0.2664083E-06  0.3350627E+04  0.7818609E-02  0.8150131E-01
       -2   -1    0    0    0  501  0.00000000000E+00  0.00000000000E+00  0.12756315599E+04  0.12756315599E+04  0.25500000920E-02 0.  1.
        2   -1    0    0  501    0  0.00000000000E+00  0.00000000000E+00 -0.22002242234E+04  0.22002242234E+04  0.25500000920E-02 0. -1.
    10030    2    1    2    0    0  0.00000000000E+00  0.00000000000E+00 -0.92459266354E+03  0.34758557833E+04  0.33506270806E+04 0.  0.
        2    1    3    3  502    0 -0.15168326612E+04  0.58225178436E+03 -0.88606992507E+03  0.18506534993E+04  0.25500000920E-02 0. -1.
       -2    1    3    3    0  502  0.15168326612E+04 -0.58225178436E+03 -0.38522738471E+02  0.16252022840E+04  0.25500000920E-02 0.  1.
</event>
<event>
 5   0  0.9714317E-07  0.3384067E+04  0.7818609E-02  0.8141828E-01
       -1   -1    0    0    0  501  0.00000000000E+00  0.00000000000E+00  0.18550002640E+04  0.18550002640E+04  0.50400001928E-02 0. -1.
        1   -1    0    0  501    0  0.00000000000E+00  0.00000000000E+00 -0.15433839927E+04  0.15433839927E+04  0.50400001928E-02 0.  1.
    10030    2    1    2    0    0  0.00000000000E+00  0.00000000000E+00  0.31161627128E+03  0.33983842567E+04  0.33840672061E+04 0.  0.
        4    1    3    3  502    0 -0.13369313318E+02 -0.10386062596E+04 -0.11855428070E+04  0.15761963905E+04  0.12699999809E+01 0.  1.
       -4    1    3    3    0  502  0.13369313318E+02  0.10386062596E+04  0.14971590783E+04  0.18221878662E+04  0.12699999809E+01 0. -1.
</event>
<event>
 5   0  0.2906701E-06  0.3339834E+04  0.7818609E-02  0.8152833E-01
        2   -1    0    0  501    0  0.00000000000E+00  0.00000000000E+00  0.11166637939E+04  0.11166637939E+04  0.25500000920E-02 0.  1.
       -2   -1    0    0    0  501  0.00000000000E+00  0.00000000000E+00 -0.24972809434E+04  0.24972809434E+04  0.25500000920E-02 0. -1.
    10030    2    1    2    0    0  0.00000000000E+00  0.00000000000E+00 -0.13806171494E+04  0.36139447373E+04  0.33398342550E+04 0.  0.
        5    1    3    3  502    0  0.45415959869E+03 -0.42919287359E+03 -0.23659970580E+04  0.24471272203E+04  0.46999998093E+01 0. -1.
       -5    1    3    3    0  502 -0.45415959869E+03  0.42919287359E+03  0.98537990857E+03  0.11668175170E+04  0.46999998093E+01 0.  1.
</event>
<event>
 5   0  0.1003191E-06  0.3437505E+04  0.7818609E-02  0.8128762E-01
        1   -1    0    0  501    0  0.00000000000E+00  0.00000000000E+00  0.14448403776E+04  0.14448403776E+04  0.50400001928E-02 0.  1.
       -1   -1    0    0    0  501  0.00000000000E+00  0.00000000000E+00 -0.20445928321E+04  0.20445928321E+04  0.50400001928E-02 0. -1.
    10030    2    1    2    0    0  0.00000000000E+00  0.00000000000E+00 -0.59975245453E+03  0.34894332097E+04  0.34375050717E+04 0.  0.
        5    1    3    3  502    0 -0.81971262218E+03  0.89650569651E+00  0.12336261517E+04  0.14811431932E+04  0.46999998093E+01 0.  1.
       -5    1    3    3    0  502  0.81971262218E+03 -0.89650569651E+00 -0.18333786062E+04  0.20082900165E+04  0.46999998093E+01 0. -1.
</event>
<event>
 5   0  0.1010855E-06  0.2935614E+04  0.7818609E-02  0.8262359E-01
        1   -1    0    0  501    0  0.00000000000E+00  0.00000000000E+00  0.13717088512E+04  0.13717088512E+04  0.50400001928E-02 0. -1.
       -1   -1    0    0    0  501  0.00000000000E+00  0.00000000000E+00 -0.15706376958E+04  0.15706376958E+04  0.50400001928E-02 0.  1.
    10030    2    1    2    0    0  0.00000000000E+00  0.00000000000E+00 -0.19892884456E+03  0.29423465470E+04  0.29356141636E+04 0.  0.
        1    1    3    3  502    0  0.12203452977E+04 -0.24942647752E+03 -0.87777693724E+03  0.15237941347E+04  0.50400001928E-02 0.  1.
       -1    1    3    3    0  502 -0.12203452977E+04  0.24942647752E+03  0.67884809268E+03  0.14185524123E+04  0.50400001928E-02 0. -1.
</event>
<event>
 5   0  0.2664083E-06  0.3345664E+04  0.7818609E-02  0.8151372E-01
       -2   -1    0    0    0  501  0.00000000000E+00  0.00000000000E+00  0.12524230514E+04  0.12524230514E+04  0.25500000920E-02 0. -1.
        2   -1    0    0  501    0  0.00000000000E+00  0.00000000000E+00 -0.22343621788E+04  0.22343621788E+04  0.25500000920E-02 0.  1.
    10030    2    1    2    0    0  0.00000000000E+00  0.00000000000E+00 -0.98193912738E+03  0.34867852302E+04  0.33456638791E+04 0.  0.
        2    1    3    3  502    0 -0.58227559222E+03  0.39665431297E+03 -0.20721969998E+04  0.21886936550E+04  0.25500000920E-02 0.  1.
       -2    1    3    3    0  502  0.58227559222E+03 -0.39665431297E+03  0.10902578724E+04  0.12980915752E+04  0.25500000920E-02 0. -1.
</event>
<event>
 5   0  0.1003191E-06  0.2904633E+04  0.7818609E-02  0.8271500E-01
       -1   -1    0    0    0  501  0.00000000000E+00  0.00000000000E+00  0.14508632339E+04  0.14508632339E+04  0.50400001928E-02 0. -1.
        1   -1    0    0  501    0  0.00000000000E+00  0.00000000000E+00 -0.14537708620E+04  0.14537708620E+04  0.50400001928E-02 0.  1.
    10030    2    1    2    0    0  0.00000000000E+00  0.00000000000E+00 -0.29076280594E+01  0.29046340960E+04  0.29046326406E+04 0.  0.
        5    1    3    3  502    0  0.91424116651E+03  0.10071617663E+04  0.50745593209E+03  0.14518076137E+04  0.46999998093E+01 0. -1.
       -5    1    3    3    0  502 -0.91424116651E+03 -0.10071617663E+04 -0.51036356014E+03  0.14528264823E+04  0.46999998093E+01 0.  1.
</event>
<event>
 5   0  0.2767014E-06  0.3374047E+04  0.7818609E-02  0.8144306E-01
       -2   -1    0    0    0  501  0.00000000000E+00  0.00000000000E+00  0.12411241803E+04  0.12411241803E+04  0.25500000920E-02 0.  1.
        2   -1    0    0  501    0  0.00000000000E+00  0.00000000000E+00 -0.22931213261E+04  0.22931213261E+04  0.25500000920E-02 0. -1.
    10030    2    1    2    0    0  0.00000000000E+00  0.00000000000E+00 -0.10519971459E+04  0.35342455064E+04  0.33740470217E+04 0.  0.
        1    1    3    3  502    0  0.15802193040E+04 -0.33821509051E+03 -0.10333138695E+04  0.19181293098E+04  0.50400001928E-02 0.  1.
       -1    1    3    3    0  502 -0.15802193040E+04  0.33821509051E+03 -0.18683276349E+02  0.16161161966E+04  0.50400001928E-02 0. -1.
</event>
<event>
 5   0  0.1010855E-06  0.2453456E+04  0.7818609E-02  0.8419757E-01
       -1   -1    0    0    0  501  0.00000000000E+00  0.00000000000E+00  0.12841455308E+04  0.12841455308E+04  0.50400001928E-02 0.  1.
        1   -1    0    0  501    0  0.00000000000E+00  0.00000000000E+00 -0.11718772887E+04  0.11718772887E+04  0.50400001928E-02 0. -1.
    10030    2    1    2    0    0  0.00000000000E+00  0.00000000000E+00  0.11226824216E+03  0.24560228195E+04  0.24534555084E+04 0.  0.
        1    1    3    3  502    0  0.92819354988E+03 -0.53750857885E+03  0.65207399222E+03  0.12552526557E+04  0.50400001928E-02 0.  1.
       -1    1    3    3    0  502 -0.92819354988E+03  0.53750857885E+03 -0.53980575005E+03  0.12007701638E+04  0.50400001928E-02 0. -1.
</event>
<event>
 5   0  0.1010551E-06  0.3421125E+04  0.7818609E-02  0.8132741E-01
       -1   -1    0    0    0  501  0.00000000000E+00  0.00000000000E+00  0.11386266062E+04  0.11386266062E+04  0.50400001928E-02 0. -1.
        1   -1    0    0  501    0  0.00000000000E+00  0.00000000000E+00 -0.25697832446E+04  0.25697832446E+04  0.50400001928E-02 0.  1.
    10030    2    1    2    0    0  0.00000000000E+00  0.00000000000E+00 -0.14311566384E+04  0.37084098508E+04  0.34211247124E+04 0.  0.
        2    1    3    3  502    0 -0.35108652690E+03 -0.16296944775E+03 -0.25216892152E+04  0.25512227046E+04  0.25500000920E-02 0.  1.
       -2    1    3    3    0  502  0.35108652690E+03  0.16296944775E+03  0.10905325768E+04  0.11571871462E+04  0.25500000920E-02 0. -1.
</event>
<event>
 5   0  0.2856440E-06  0.3398585E+04  0.7818609E-02  0.8138254E-01
        2   -1    0    0  501    0  0.00000000000E+00  0.00000000000E+00  0.19241568722E+04  0.19241568722E+04  0.25500000920E-02 0.  1.
       -2   -1    0    0    0  501  0.00000000000E+00  0.00000000000E+00 -0.15007065602E+04  0.15007065602E+04  0.25500000920E-02 0. -1.
    10030    2    1    2    0    0  0.00000000000E+00  0.00000000000E+00  0.42345031201E+03  0.34248634323E+04  0.33985849060E+04 0.  0.
        4    1    3    3  502    0  0.79145573787E+03 -0.84513125513E+03 -0.10416539744E+04  0.15574638483E+04  0.12699999809E+01 0. -1.
       -4    1    3    3    0  502 -0.79145573787E+03  0.84513125513E+03  0.14651042864E+04  0.18673995840E+04  0.12699999809E+01 0.  1.
</event>
<event>
 5   0  0.2664083E-06  0.3402383E+04  0.7818609E-02  0.8137322E-01
       -2   -1    0    0    0  501  0.00000000000E+00  0.00000000000E+00  0.28451725530E+04  0.28451725530E+04  0.25500000920E-02 0. -1.
        2   -1    0    0  501    0  0.00000000000E+00  0.00000000000E+00 -0.10171798449E+04  0.10171798449E+04  0.25500000920E-02 0.  1.
    10030    2    1    2    0    0  0.00000000000E+00  0.00000000000E+00  0.18279927081E+04  0.38623523978E+04  0.34023827980E+04 0.  0.
        2    1    3    3  502    0 -0.32543450640E+03 -0.99732109911E+03  0.24342597162E+04  0.26506937504E+04  0.25500000920E-02 0. -1.
       -2    1    3    3    0  502  0.32543450640E+03  0.99732109911E+03 -0.60626700811E+03  0.12116586474E+04  0.25500000920E-02 0.  1.
</event>
<event>
 5   0  0.2856440E-06  0.2367614E+04  0.7818609E-02  0.8451729E-01
       -2   -1    0    0    0  501  0.00000000000E+00  0.00000000000E+00  0.83095415789E+03  0.83095415789E+03  0.25500000920E-02 0. -1.
        2   -1    0    0  501    0  0.00000000000E+00  0.00000000000E+00 -0.16864931709E+04  0.16864931709E+04  0.25500000920E-02 0.  1.
    10030    2    1    2    0    0  0.00000000000E+00  0.00000000000E+00 -0.85553901298E+03  0.25174473288E+04  0.23676135771E+04 0.  0.
        4    1    3    3  502    0 -0.73565758552E+03  0.41230831395E+03 -0.13111323896E+04  0.15589291148E+04  0.12699999809E+01 0.  1.
       -4    1    3    3    0  502  0.73565758552E+03 -0.41230831395E+03  0.45559337661E+03  0.95851821401E+03  0.12699999809E+01 0. -1.
</event>
<event>
 5   0  0.1010551E-06  0.3398789E+04  0.7818609E-02  0.8138204E-01
        1   -1    0    0  501    0  0.00000000000E+00  0.00000000000E+00  0.11392675543E+04  0.11392675543E+04  0.50400001928E-02 0.  1.
       -1   -1    0    0    0  501  0.00000000000E+00  0.00000000000E+00 -0.25349102620E+04  0.25349102620E+04  0.50400001928E-02 0. -1.
    10030    2    1    2    0    0  0.00000000000E+00  0.00000000000E+00 -0.13956427078E+04  0.36741778163E+04  0.33987886163E+04 0.  0.
        2    1    3    3  502    0 -0.78705495365E+03  0.13972454722E+04 -0.13056910545E+04  0.20679892503E+04  0.25500000920E-02 0. -1.
       -2    1    3    3    0  502  0.78705495365E+03 -0.13972454722E+04 -0.89951653267E+02  0.16061885660E+04  0.25500000920E-02 0.  1.
</event>
<event>
 5   0  0.2767014E-06  0.3372410E+04  0.7818609E-02  0.8144711E-01
        2   -1    0    0  501    0  0.00000000000E+00  0.00000000000E+00  0.16924093529E+04  0.16924093529E+04  0.25500000920E-02 0.  1.
       -2   -1    0    0    0  501  0.00000000000E+00  0.00000000000E+00 -0.16800231699E+04  0.16800231699E+04  0.25500000920E-02 0. -1.
    10030    2    1    2    0    0  0.00000000000E+00  0.00000000000E+00  0.12386183080E+02  0.33724325228E+04  0.33724097769E+04 0.  0.
        1    1    3    3  502    0 -0.56326232312E+03  0.70685968942E+03  0.14297095808E+04  0.16914445160E+04  0.50400001928E-02 0.  1.
       -1    1    3    3    0  502  0.56326232312E+03 -0.70685968942E+03 -0.14173233977E+04  0.16809880068E+04  0.50400001928E-02 0. -1.
</event>
<event>
 5   0  0.9714317E-07  0.3467312E+04  0.7818609E-02  0.8121581E-01
       -1   -1    0    0    0  501  0.00000000000E+00  0.00000000000E+00  0.11441495280E+04  0.11441495280E+04  0.50400001928E-02 0.  1.
        1   -1    0    0  501    0  0.00000000000E+00  0.00000000000E+00 -0.26268973434E+04  0.26268973434E+04  0.50400001928E-02 0. -1.
    10030    2    1    2    0    0  0.00000000000E+00  0.00000000000E+00 -0.14827478154E+04  0.37710468715E+04  0.34673121323E+04 0.  0.
        4    1    3    3  502    0 -0.72711715155E+03  0.52399387946E+03  0.87263720717E+03  0.12509061700E+04  0.12699999809E+01 0.  1.
       -4    1    3    3    0  502  0.72711715155E+03 -0.52399387946E+03 -0.23553850226E+04  0.25201407015E+04  0.12699999809E+01 0. -1.
</event>
<event>
 5   0  0.1010551E-06  0.3370982E+04  0.7818609E-02  0.8145065E-01
        1   -1    0    0  501    0  0.00000000000E+00  0.00000000000E+00  0.21503989456E+04  0.21503989456E+04  0.50400001928E-02 0. -1.
       -1   -1    0    0    0  501  0.00000000000E+00  0.00000000000E+00 -0.13210941211E+04  0.13210941211E+04  0.50400001928E-02 0.  1.
    10030    2    1    2    0    0  0.00000000000E+00  0.00000000000E+00  0.82930482453E+03  0.34714930667E+04  0.33709816997E+04 0.  0.
        2    1    3    3  502    0  0.12953570427E+04 -0.54758507149E+03 -0.54206893754E+03  0.15071954126E+04  0.25500000920E-02 0.  1.
       -2    1    3    3    0  502 -0.12953570427E+04  0.54758507149E+03  0.13713737621E+04  0.19642976541E+04  0.25500000920E-02 0. -1.
</event>
<event>
 5   0  0.1010855E-06  0.3322302E+04  0.7818609E-02  0.8157244E-01
       -1   -1    0    0    0  501  0.00000000000E+00  0.00000000000E+00  0.21294054292E+04  0.21294054292E+04  0.50400001928E-02 0.  1.
        1   -1    0    0  501    0  0.00000000000E+00  0.00000000000E+00 -0.12958651969E+04  0.12958651969E+04  0.50400001928E-02 0. -1.
    10030    2    1    2    0    0  0.00000000000E+00  0.00000000000E+00  0.83354023225E+03  0.34252706261E+04  0.33223018441E+04 0.  0.
        1    1    3    3  502    0 -0.39311354566E+03  0.13230353321E+04  0.13697902748E+04  0.19445529427E+04  0.50400001928E-02 0.  1.
       -1    1    3    3    0  502  0.39311354566E+03 -0.13230353321E+04 -0.53625004254E+03  0.14807176834E+04  0.50400001928E-02 0. -1.
</event>
<event>
 5   0  0.2767014E-06  0.3311115E+04  0.7818609E-02  0.8160073E-01
       -2   -1    0    0    0  501  0.00000000000E+00  0.00000000000E+00  0.11782983526E+04  0.11782983526E+04  0.25500000920E-02 0. -1.
        2   -1    0    0  501    0  0.00000000000E+00  0.00000000000E+00 -0.23261256773E+04  0.23261256773E+04  0.25500000920E-02 0.  1.
    10030    2    1    2    0    0  0.00000000000E+00  0.00000000000E+00 -0.11478273247E+04  0.35044240300E+04  0.33111146483E+04 0.  0.
        1    1    3    3  502    0 -0.72670440759E+03  0.10796670360E+04  0.50910117298E+03  0.13974849584E+04  0.50400001928E-02 0. -1.
       -1    1    3    3    0  502  0.72670440759E+03 -0.10796670360E+04 -0.16569284976E+04  0.21069390715E+04  0.50400001928E-02 0.  1.
</event>
<event>
 5   0  0.9232963E-07  0.3373805E+04  0.7818609E-02  0.8144366E-01
        1   -1    0    0  501    0  0.00000000000E+00  0.00000000000E+00  0.18785085039E+04  0.18785085039E+04  0.50400001928E-02 0. -1.
       -1   -1    0    0    0  501  0.00000000000E+00  0.00000000000E+00 -0.15148397282E+04  0.15148397282E+04  0.50400001928E-02 0.  1.
    10030    2    1    2    0    0  0.00000000000E+00  0.00000000000E+00  0.36366877575E+03  0.33933482321E+04  0.33738045654E+04 0.  0.
        3    1    3    3  502    0  0.86153050281E+03 -0.31175378904E+03  0.16064481792E+04  0.18493515066E+04  0.10100000352E+00 0. -1.
       -3    1    3    3    0  502 -0.86153050281E+03  0.31175378904E+03 -0.12427794035E+04  0.15439967254E+04  0.10100000352E+00 0.  1.
</event>
<event>
 5   0  0.1003191E-06  0.3447612E+04  0.7818609E-02  0.8126319E-01
       -1   -1    0    0    0  501  0.00000000000E+00  0.00000000000E+00  0.11976296490E+04  0.11976296490E+04  0.50400001928E-02 0. -1.
        1   -1    0    0  501    0  0.00000000000E+00  0.00000000000E+00 -0.24811569602E+04  0.24811569602E+04  0.50400001928E-02 0.  1.
    10030    2    1    2    0    0  0.00000000000E+00  0.00000000000E+00 -0.12835273112E+04  0.36787866092E+04  0.34476120079E+04 0.  0.
        5    1    3    3  502    0 -0.14471335866E+04  0.70669813002E+03  0.14163787124E+02  0.16105404582E+04  0.46999998093E+01 0. -1.
       -5    1    3    3    0  502  0.14471335866E+04 -0.70669813002E+03 -0.12976910983E+04  0.20682461510E+04  0.46999998093E+01 0.  1.
</event>
<event>
 5   0  0.9232963E-07  0.3129757E+04  0.7818609E-02  0.8207618E-01
       -1   -1    0    0    0  501  0.00000000000E+00  0.00000000000E+00  0.11700514489E+04  0.11700514489E+04  0.50400001928E-02 0. -1.
        1   -1    0    0  501    0  0.00000000000E+00  0.00000000000E+00 -0.20929376867E+04  0.20929376867E+04  0.50400001928E-02 0.  1.
    10030    2    1    2    0    0  0.00000000000E+00  0.00000000000E+00 -0.92288623783E+03  0.32629891356E+04  0.31297570339E+04 0.  0.
        3    1    3    3  502    0  0.14450844768E+04  0.52826708390E+02 -0.10850573849E+04  0.18078742614E+04  0.10100000352E+00 0.  1.
       -3    1    3    3    0  502 -0.14450844768E+04 -0.52826708390E+02  0.16217114704E+03  0.14551148743E+04  0.10100000352E+00 0. -1.
</event>
<event>
 5   0  0.2664083E-06  0.3380693E+04  0.7818609E-02  0.8142661E-01
       -2   -1    0    0    0  501  0.00000000000E+00  0.00000000000E+00  0.13540586023E+04  0.13540586023E+04  0.25500000920E-02 0.  1.
        2   -1    0    0  501    0  0.00000000000E+00  0.00000000000E+00 -0.21101537263E+04  0.21101537263E+04  0.25500000920E-02 0. -1.
    10030    2    1    2    0    0  0.00000000000E+00  0.00000000000E+00 -0.75609512408E+03  0.34642123286E+04  0.33806933048E+04 0.  0.
        2    1    3    3  502    0  0.11729848454E+04 -0.40213148833E+03 -0.15551958490E+04  0.19890292382E+04  0.25500000920E-02 0. -1.
       -2    1    3    3    0  502 -0.11729848454E+04  0.40213148833E+03  0.79910072497E+03  0.14751830904E+04  0.25500000920E-02 0.  1.
</event>
<event>
 5   0  0.2664083E-06  0.3393826E+04  0.7818609E-02  0.8139423E-01
       -2   -1    0    0    0  501  0.00000000000E+00  0.00000000000E+00  0.11974048890E+04  0.11974048890E+04  0.25500000920E-02 0. -1.
        2   -1    0    0  501    0  0.00000000000E+00  0.00000000000E+00 -0.24047958710E+04  0.24047958710E+04  0.25500000920E-02 0.  1.
    10030    2    1    2    0    0  0.00000000000E+00  0.00000000000E+00 -0.12073909820E+04  0.36022007601E+04  0.33938263557E+04 0.  0.
        2    1    3    3  502    0  0.24826255818E+03 -0.56606640407E+02  0.11770115636E+04  0.12042403540E+04  0.25500000920E-02 0. -1.
       -2    1    3    3    0  502 -0.24826255818E+03  0.56606640407E+02 -0.23844025456E+04  0.23979604060E+04  0.25500000920E-02 0.  1.
</event>
<event>
 5   0  0.2856440E-06  0.3265701E+04  0.7818609E-02  0.8171678E-01
        2   -1    0    0  501    0  0.00000000000E+00  0.00000000000E+00  0.15109997705E+04  0.15109997705E+04  0.25500000920E-02 0. -1.
       -2   -1    0    0    0  501  0.00000000000E+00  0.00000000000E+00 -0.17645275406E+04  0.17645275406E+04  0.25500000920E-02 0.  1.
    10030    2    1    2    0    0  0.00000000000E+00  0.00000000000E+00 -0.25352777013E+03  0.32755273111E+04  0.32657009716E+04 0.  0.
        4    1    3    3  502    0 -0.11559576591E+04  0.29628421439E+03 -0.12446472415E+04  0.17242884950E+04  0.12699999809E+01 0.  1.
       -4    1    3    3    0  502  0.11559576591E+04 -0.29628421439E+03  0.99111947134E+03  0.15512388161E+04  0.12699999809E+01 0. -1.
</event>
<event>
 5   0  0.9232963E-07  0.3299459E+04  0.7818609E-02  0.8163033E-01
       -1   -1    0    0    0  501  0.00000000000E+00  0.00000000000E+00  0.17231424558E+04  0.17231424558E+04  0.50400001928E-02 0.  1.
        1   -1    0    0  501    0  0.00000000000E+00  0.00000000000E+00 -0.15794439397E+04  0.15794439397E+04  0.50400001928E-02 0. -1.
    10030    2    1    2    0    0  0.00000000000E+00  0.00000000000E+00  0.14369851614E+03  0.33025863955E+04  0.32994586884E+04 0.  0.
        3    1    3    3  502    0  0.63557534792E+03 -0.12696817925E+04 -0.76892260082E+03  0.16147104550E+04  0.10100000352E+00 0. -1.
       -3    1    3    3    0  502 -0.63557534792E+03  0.12696817925E+04  0.91262111696E+03  0.16878759405E+04  0.10100000352E+00 0.  1.
</event>
<event>
 5   0  0.9714317E-07  0.2917069E+04  0.7818609E-02  0.8267817E-01
        1   -1    0    0  501    0  0.00000000000E+00  0.00000000000E+00  0.13997360344E+04  0.13997360344E+04  0.50400001928E-02 0.  1.
       -1   -1    0    0    0  501  0.00000000000E+00  0.00000000000E+00 -0.15198025805E+04  0.15198025805E+04  0.50400001928E-02 0. -1.
    10030    2    1    2    0    0  0.00000000000E+00  0.00000000000E+00 -0.12006654614E+03  0.29195386149E+04  0.29170686911E+04 0.  0.
        4    1    3    3  502    0 -0.88259565055E+03 -0.73999549491E+01  0.11021092241E+04  0.14119759900E+04  0.12699999809E+01 0.  1.
       -4    1    3    3    0  502  0.88259565055E+03  0.73999549491E+01 -0.12221757702E+04  0.15075626249E+04  0.12699999809E+01 0. -1.
</event>
<event>
 5   0  0.2906701E-06  0.2363357E+04  0.7818609E-02  0.8453351E-01
       -2   -1    0    0    0  501  0.00000000000E+00  0.00000000000E+00  0.64722986008E+03  0.64722986009E+03  0.25500000920E-02 0.  1.
        2   -1    0    0  501    0  0.00000000000E+00  0.00000000000E+00 -0.21574475792E+04  0.21574475792E+04  0.25500000920E-02 0. -1.
    10030    2    1    2    0    0  0.00000000000E+00  0.00000000000E+00 -0.15102177191E+04  0.28046774393E+04  0.23633573533E+04 0.  0.
        5    1    3    3  502    0  0.23450511894E+03 -0.95605728739E+03  0.20641733322E+02  0.98462498381E+03  0.46999998093E+01 0.  1.
       -5    1    3    3    0  502 -0.23450511894E+03  0.95605728739E+03 -0.15308594525E+04  0.18200524555E+04  0.46999998093E+01 0. -1.
</event>
<event>
 5   0  0.1003191E-06  0.3047712E+04  0.7818609E-02  0.8230236E-01
        1   -1    0    0  501    0  0.00000000000E+00  0.00000000000E+00  0.14528320070E+04  0.14528320070E+04  0.50400001928E-02 0. -1.
       -1   -1    0    0    0  501  0.00000000000E+00  0.00000000000E+00 -0.15983524275E+04  0.15983524275E+04  0.50400001928E-02 0.  1.
    10030    2    1    2    0    0  0.00000000000E+00  0.00000000000E+00 -0.14552042050E+03  0.30511844345E+04  0.30477122995E+04 0.  0.
        5    1    3    3  502    0  0.82959205020E+03 -0.12185760070E+04  0.31363936740E+03  0.15071636266E+04  0.46999998093E+01 0. -1.
       -5    1    3    3    0  502 -0.82959205020E+03  0.12185760070E+04 -0.45915978790E+03  0.15440208079E+04  0.46999998093E+01 0.  1.
</event>
<event>
 5   0  0.1010551E-06  0.3310692E+04  0.7818609E-02  0.8160180E-01
       -1   -1    0    0    0  501  0.00000000000E+00  0.00000000000E+00  0.17883969820E+04  0.17883969820E+04  0.50400001928E-02 0.  1.
        1   -1    0    0  501    0  0.00000000000E+00  0.00000000000E+00 -0.15321937332E+04  0.15321937332E+04  0.50400001928E-02 0. -1.
    10030    2    1    2    0    0  0.00000000000E+00  0.00000000000E+00  0.25620324878E+03  0.33205907152E+04  0.33106921622E+04 0.  0.
        2    1    3    3  502    0  0.55218398299E+03  0.13084168744E+04  0.98112005934E+03  0.17261107841E+04  0.25500000920E-02 0.  1.
       -2    1    3    3    0  502 -0.55218398299E+03 -0.13084168744E+04 -0.72491681056E+03  0.15944799310E+04  0.25500000920E-02 0. -1.
</event>
<event>
 5   0  0.2848685E-06  0.3394652E+04  0.7818609E-02  0.8139220E-01
        2   -1    0    0  501    0  0.00000000000E+00  0.00000000000E+00  0.19766586777E+04  0.19766586777E+04  0.25500000920E-02 0. -1.
       -2   -1    0    0    0  501  0.00000000000E+00  0.00000000000E+00 -0.14574675962E+04  0.14574675962E+04  0.25500000920E-02 0.  1.
    10030    2    1    2    0    0  0.00000000000E+00  0.00000000000E+00  0.51919108148E+03  0.34341262738E+04  0.33946522481E+04 0.  0.
        3    1    3    3  502    0 -0.12560312987E+04 -0.81496855183E+03  0.10683463986E+04  0.18393347714E+04  0.10100000352E+00 0. -1.
       -3    1    3    3    0  502  0.12560312987E+04  0.81496855183E+03 -0.54915531714E+03  0.15947915024E+04  0.10100000352E+00 0.  1.
</event>
<event>
 5   0  0.9232963E-07  0.3094460E+04  0.7818609E-02  0.8217260E-01
        1   -1    0    0  501    0  0.00000000000E+00  0.00000000000E+00  0.10664538497E+04  0.10664538497E+04  0.50400001928E-02 0.  1.
       -1   -1    0    0    0  501  0.00000000000E+00  0.00000000000E+00 -0.22447484942E+04  0.22447484942E+04  0.50400001928E-02 0. -1.
    10030    2    1    2    0    0  0.00000000000E+00  0.00000000000E+00 -0.11782946444E+04  0.33112023439E+04  0.30944600003E+04 0.  0.
        3    1    3    3  502    0 -0.11930736104E+04 -0.92186691395E+03 -0.96083473847E+03  0.17878665084E+04  0.10100000352E+00 0. -1.
       -3    1    3    3    0  502  0.11930736104E+04  0.92186691395E+03 -0.21745990596E+03  0.15233358355E+04  0.10100000352E+00 0.  1.
</event>
<event>
 5   0  0.9232963E-07  0.3085005E+04  0.7818609E-02  0.8219865E-01
       -1   -1    0    0    0  501  0.00000000000E+00  0.00000000000E+00  0.14689977689E+04  0.14689977689E+04  0.50400001928E-02 0.  1.
        1   -1    0    0  501    0  0.00000000000E+00  0.00000000000E+00 -0.16196853330E+04  0.16196853330E+04  0.50400001928E-02 0. -1.
    10030    2    1    2    0    0  0.00000000000E+00  0.00000000000E+00 -0.15068756404E+03  0.30886831019E+04  0.30850051154E+04 0.  0.
        3    1    3    3  502    0  0.14253229336E+04  0.41274519042E+03 -0.49704669495E+03  0.15649151684E+04  0.10100000352E+00 0. -1.
       -3    1    3    3    0  502 -0.14253229336E+04 -0.41274519042E+03  0.34635913091E+03  0.15237679334E+04  0.10100000352E+00 0.  1.
</event>
<event>
 5   0  0.9232963E-07  0.3204303E+04  0.7818609E-02  0.8187682E-01
        1   -1    0    0  501    0  0.00000000000E+00  0.00000000000E+00  0.26505130186E+04  0.26505130186E+04  0.50400001928E-02 0. -1.
       -1   -1    0    0    0  501  0.00000000000E+00  0.00000000000E+00 -0.96844995516E+03  0.96844995517E+03  0.50400001928E-02 0.  1.
    10030    2    1    2    0    0  0.00000000000E+00  0.00000000000E+00  0.16820630635E+04  0.36189629738E+04  0.32043028659E+04 0.  0.
        3    1    3    3  502    0 -0.61345733348E+03 -0.63772032783E+03  0.23494868016E+04  0.25105986055E+04  0.10100000352E+00 0. -1.
       -3    1    3    3    0  502  0.61345733348E+03  0.63772032783E+03 -0.66742373817E+03  0.11083643683E+04  0.10100000352E+00 0.  1.
</event>
<event>
 5   0  0.1010551E-06  0.3431019E+04  0.7818609E-02  0.8130335E-01
       -1   -1    0    0    0  501  0.00000000000E+00  0.00000000000E+00  0.12053604402E+04  0.12053604402E+04  0.50400001928E-02 0. -1.
        1   -1    0    0  501    0  0.00000000000E+00  0.00000000000E+00 -0.24415708258E+04  0.24415708258E+04  0.50400001928E-02 0.  1.
    10030    2    1    2    0    0  0.00000000000E+00  0.00000000000E+00 -0.12362103857E+04  0.36469312660E+04  0.34310190237E+04 0.  0.
        2    1    3    3  502    0 -0.15696746897E+03  0.11612539017E+04 -0.19498771374E+04  0.22749000553E+04  0.25500000920E-02 0.  1.
       -2    1    3    3    0  502  0.15696746897E+03 -0.11612539017E+04  0.71366675178E+03  0.13720312107E+04  0.25500000920E-02 0. -1.
</event>
<event>
 5   0  0.9714317E-07  0.2895314E+04  0.7818609E-02  0.8274273E-01
        1   -1    0    0  501    0  0.00000000000E+00  0.00000000000E+00  0.14336871715E+04  0.14336871716E+04  0.50400001928E-02 0. -1.
       -1   -1    0    0    0  501  0.00000000000E+00  0.00000000000E+00 -0.14617633089E+04  0.14617633089E+04  0.50400001928E-02 0.  1.
    10030    2    1    2    0    0  0.00000000000E+00  0.00000000000E+00 -0.28076137390E+02  0.28954504805E+04  0.28953143552E+04 0.  0.
        4    1    3    3  502    0 -0.53123606860E+03  0.42577415619E+03  0.12636034230E+04  0.14353364122E+04  0.12699999809E+01 0. -1.
       -4    1    3    3    0  502  0.53123606860E+03 -0.42577415619E+03 -0.12916795604E+04  0.14601140683E+04  0.12699999809E+01 0.  1.
</event>
<event>
 5   0  0.9714317E-07  0.2600085E+04  0.7818609E-02  0.8368172E-01
       -1   -1    0    0    0  501  0.00000000000E+00  0.00000000000E+00  0.60980416090E+03  0.60980416092E+03  0.50400001928E-02 0.  1.
        1   -1    0    0  501    0  0.00000000000E+00  0.00000000000E+00 -0.27715619269E+04  0.27715619270E+04  0.50400001928E-02 0. -1.
    10030    2    1    2    0    0  0.00000000000E+00  0.00000000000E+00 -0.21617577660E+04  0.33813660879E+04  0.26000846104E+04 0.  0.
        4    1    3    3  502    0 -0.68887398521E+03 -0.74709247223E+03 -0.21353243826E+04  0.23648057767E+04  0.12699999809E+01 0. -1.
       -4    1    3    3    0  502  0.68887398521E+03  0.74709247223E+03 -0.26433383396E+02  0.10165603112E+04  0.12699999809E+01 0.  1.
</event>
<event>
 5   0  0.2848685E-06  0.3451061E+04  0.7818609E-02  0.8125487E-01
       -2   -1    0    0    0  501  0.00000000000E+00  0.00000000000E+00  0.23980130005E+04  0.23980130005E+04  0.25500000920E-02 0. -1.
        2   -1    0    0  501    0  0.00000000000E+00  0.00000000000E+00 -0.12416343485E+04  0.12416343485E+04  0.25500000920E-02 0.  1.
    10030    2    1    2    0    0  0.00000000000E+00  0.00000000000E+00  0.11563786520E+04  0.36396473490E+04  0.34510608859E+04 0.  0.
        3    1    3    3  502    0 -0.51624853593E+03 -0.77059289443E+02 -0.11563761171E+04  0.12687223571E+04  0.10100000352E+00 0.  1.
       -3    1    3    3    0  502  0.51624853593E+03  0.77059289443E+02  0.23127547691E+04  0.23709249919E+04  0.10100000352E+00 0. -1.
</event>
<event>
 5   0  0.2856440E-06  0.3466275E+04  0.7818609E-02  0.8121829E-01
        2   -1    0    0  501    0  0.00000000000E+00  0.00000000000E+00  0.20307115019E+04  0.20307115019E+04  0.25500000920E-02 0.  1.
       -2   -1    0    0    0  501  0.00000000000E+00  0.00000000000E+00 -0.14791686322E+04  0.14791686322E+04  0.25500000920E-02 0. -1.
    10030    2    1    2    0    0  0.00000000000E+00  0.00000000000E+00  0.55154286967E+03  0.35098801342E+04  0.34662745158E+04 0.  0.
        4    1    3    3  502    0  0.10188448702E+04 -0.12171968680E+04 -0.42879074102E+03  0.16442251055E+04  0.12699999809E+01 0.  1.
       -4    1    3    3    0  502 -0.10188448702E+04  0.12171968680E+04  0.98033361069E+03  0.18656550287E+04  0.12699999809E+01 0. -1.
</event>
<event>
 5   0  0.2856440E-06  0.3362437E+04  0.7818609E-02  0.8147188E-01
        2   -1    0    0  501    0  0.00000000000E+00  0.00000000000E+00  0.20408831470E+04  0.20408831470E+04  0.25500000920E-02 0.  1.
       -2   -1    0    0    0  501  0.00000000000E+00  0.00000000000E+00 -0.13849372922E+04  0.13849372922E+04  0.25500000920E-02 0. -1.
    10030    2    1    2    0    0  0.00000000000E+00  0.00000000000E+00  0.65594585478E+03  0.34258204392E+04  0.33624367231E+04 0.  0.
        4    1    3    3  502    0  0.93809560510E+03 -0.10237293745E+04 -0.63775999815E+03  0.15280002044E+04  0.12699999809E+01 0. -1.
       -4    1    3    3    0  502 -0.93809560510E+03  0.10237293745E+04  0.12937058529E+04  0.18978202347E+04  0.12699999809E+01 0.  1.
</event>
<event>
 5   0  0.1003191E-06  0.3440407E+04  0.7818609E-02  0.8128060E-01
       -1   -1    0    0    0  501  0.00000000000E+00  0.00000000000E+00  0.13975214437E+04  0.13975214437E+04  0.50400001928E-02 0. -1.
        1   -1    0    0  501    0  0.00000000000E+00  0.00000000000E+00 -0.21173919233E+04  0.21173919233E+04  0.50400001928E-02 0.  1.
    10030    2    1    2    0    0  0.00000000000E+00  0.00000000000E+00 -0.71987047954E+03  0.35149133670E+04  0.34404073117E+04 0.  0.
        5    1    3    3  502    0  0.71727401595E+03 -0.95912691598E+03  0.90158140783E+03  0.14990922519E+04  0.46999998093E+01 0. -1.
       -5    1    3    3    0  502 -0.71727401595E+03  0.95912691598E+03 -0.16214518874E+04  0.20158211151E+04  0.46999998093E+01 0.  1.
</event>
<event>
 5   0  0.9232963E-07  0.2532312E+04  0.7818609E-02  0.8391564E-01
       -1   -1    0    0    0  501  0.00000000000E+00  0.00000000000E+00  0.94015874742E+03  0.94015874744E+03  0.50400001928E-02 0.  1.
        1   -1    0    0  501    0  0.00000000000E+00  0.00000000000E+00 -0.17051923732E+04  0.17051923732E+04  0.50400001928E-02 0. -1.
    10030    2    1    2    0    0  0.00000000000E+00  0.00000000000E+00 -0.76503362574E+03  0.26453511206E+04  0.25323124023E+04 0.  0.
        3    1    3    3  502    0  0.84003149544E+03  0.15903946165E+03  0.59309116158E+03  0.10405304416E+04  0.10100000352E+00 0.  1.
       -3    1    3    3    0  502 -0.84003149544E+03 -0.15903946165E+03 -0.13581247873E+04  0.16048206790E+04  0.10100000352E+00 0. -1.
</event>
<event>
 5   0  0.2856440E-06  0.3424787E+04  0.7818609E-02  0.8131850E-01
        2   -1    0    0  501    0  0.00000000000E+00  0.00000000000E+00  0.13775603336E+04  0.13775603336E+04  0.25500000920E-02 0.  1.
       -2   -1    0    0    0  501  0.00000000000E+00  0.00000000000E+00 -0.21286114305E+04  0.21286114305E+04  0.25500000920E-02 0. -1.
    10030    2    1    2    0    0  0.00000000000E+00  0.00000000000E+00 -0.75105109694E+03  0.35061717642E+04  0.34247865174E+04 0.  0.
        4    1    3    3  502    0  0.11829083106E+04  0.13696904370E+03 -0.16353191602E+04  0.20229441314E+04  0.12699999809E+01 0. -1.
       -4    1    3    3    0  502 -0.11829083106E+04 -0.13696904370E+03  0.88426806322E+03  0.14832276328E+04  0.12699999809E+01 0.  1.
</event>
<event>
 5   0  0.2906701E-06  0.2604024E+04  0.7818609E-02  0.8366836E-01
       -2   -1    0    0    0  501  0.00000000000E+00  0.00000000000E+00  0.92150585010E+03  0.92150585010E+03  0.25500000920E-02 0. -1.
        2   -1    0    0  501    0  0.00000000000E+00  0.00000000000E+00 -0.18396354948E+04  0.18396354948E+04  0.25500000920E-02 0.  1.
    10030    2    1    2    0    0  0.00000000000E+00  0.00000000000E+00 -0.91812964471E+03  0.27611413449E+04  0.26040237100E+04 0.  0.
        5    1    3    3  502    0  0.10394641678E+04  0.32669008755E+03 -0.12148107613E+04  0.16318699229E+04  0.46999998093E+01 0.  1.
       -5    1    3    3    0  502 -0.10394641678E+04 -0.32669008755E+03  0.29668111662E+03  0.11292714220E+04  0.46999998093E+01 0. -1.
</event>
<event>
 5   0  0.1003191E-06  0.2982672E+04  0.7818609E-02  0.8248696E-01
        1   -1    0    0  501    0  0.00000000000E+00  0.00000000000E+00  0.16584082233E+04  0.16584082233E+04  0.50400001928E-02 0.  1.
       -1   -1    0    0    0  501  0.00000000000E+00  0.00000000000E+00 -0.13410952373E+04  0.13410952373E+04  0.50400001928E-02 0. -1.
    10030    2    1    2    0    0  0.00000000000E+00  0.00000000000E+00  0.31731298596E+03  0.29995034606E+04  0.29826722045E+04 0.  0.
        5    1    3    3  502    0  0.32996555280E+03 -0.11304743500E+04  0.10788125722E+04  0.15970936660E+04  0.46999998093E+01 0.  1.
       -5    1    3    3    0  502 -0.32996555280E+03  0.11304743500E+04 -0.76149958627E+03  0.14024097946E+04  0.46999998093E+01 0. -1.
</event>
<event>
 5   0  0.9232963E-07  0.2104536E+04  0.7818609E-02  0.8559248E-01
        1   -1    0    0  501    0  0.00000000000E+00  0.00000000000E+00  0.12710556980E+04  0.12710556980E+04  0.50400001928E-02 0. -1.
       -1   -1    0    0    0  501  0.00000000000E+00  0.00000000000E+00 -0.87114032607E+03  0.87114032609E+03  0.50400001928E-02 0.  1.
    10030    2    1    2    0    0  0.00000000000E+00  0.00000000000E+00  0.39991537193E+03  0.21421960241E+04  0.21045359348E+04 0.  0.
        3    1    3    3  502    0  0.79616825905E+03 -0.66130565830E+03  0.39324727633E+03  0.11071822348E+04  0.10100000352E+00 0. -1.
       -3    1    3    3    0  502 -0.79616825905E+03  0.66130565830E+03  0.66680955926E+01  0.10350137893E+04  0.10100000352E+00 0.  1.
</event>
<event>
 5   0  0.2664083E-06  0.3424738E+04  0.7818609E-02  0.8131861E-01
        2   -1    0    0  501    0  0.00000000000E+00  0.00000000000E+00  0.20719402653E+04  0.20719402653E+04  0.25500000920E-02 0. -1.
       -2   -1    0    0    0  501  0.00000000000E+00  0.00000000000E+00 -0.14151987420E+04  0.14151987420E+04  0.25500000920E-02 0.  1.
    10030    2    1    2    0    0  0.00000000000E+00  0.00000000000E+00  0.65674152335E+03  0.34871390073E+04  0.34247378043E+04 0.  0.
        2    1    3    3  502    0 -0.68774644080E+03  0.98092812152E+03 -0.91743888068E+03  0.15089430891E+04  0.25500000920E-02 0.  1.
       -2    1    3    3    0  502  0.68774644080E+03 -0.98092812152E+03  0.15741804040E+04  0.19781959182E+04  0.25500000920E-02 0. -1.
</event>
<event>
 5   0  0.2906701E-06  0.3399765E+04  0.7818609E-02  0.8137964E-01
        2   -1    0    0  501    0  0.00000000000E+00  0.00000000000E+00  0.13821031126E+04  0.13821031126E+04  0.25500000920E-02 0.  1.
       -2   -1    0    0    0  501  0.00000000000E+00  0.00000000000E+00 -0.20907272302E+04  0.20907272302E+04  0.25500000920E-02 0. -1.
    10030    2    1    2    0    0  0.00000000000E+00  0.00000000000E+00 -0.70862411756E+03  0.34728303428E+04  0.33997650581E+04 0.  0.
        5    1    3    3  502    0 -0.16176383748E+04  0.38854941071E+03 -0.71089001923E+03  0.18091741944E+04  0.46999998093E+01 0. -1.
       -5    1    3    3    0  502  0.16176383748E+04 -0.38854941071E+03  0.22659016728E+01  0.16636561485E+04  0.46999998093E+01 0.  1.
</event>
<event>
 5   0  0.2767014E-06  0.3387390E+04  0.7818609E-02  0.8141008E-01
        2   -1    0    0  501    0  0.00000000000E+00  0.00000000000E+00  0.11737764940E+04  0.11737764940E+04  0.25500000920E-02 0.  1.
       -2   -1    0    0    0  501  0.00000000000E+00  0.00000000000E+00 -0.24439085577E+04  0.24439085577E+04  0.25500000920E-02 0. -1.
    10030    2    1    2    0    0  0.00000000000E+00  0.00000000000E+00 -0.12701320637E+04  0.36176850517E+04  0.33873898025E+04 0.  0.
        1    1    3    3  502    0 -0.16465091437E+04 -0.38147704620E+03 -0.51765884491E+03  0.17676220684E+04  0.50400001928E-02 0.  1.
       -1    1    3    3    0  502  0.16465091437E+04  0.38147704620E+03 -0.75247321883E+03  0.18500629833E+04  0.50400001928E-02 0. -1.
</event>
<event>
 5   0  0.2856440E-06  0.3326310E+04  0.7818609E-02  0.8156233E-01
       -2   -1    0    0    0  501  0.00000000000E+00  0.00000000000E+00  0.96063827056E+03  0.96063827056E+03  0.25500000920E-02 0.  1.
        2   -1    0    0  501    0  0.00000000000E+00  0.00000000000E+00 -0.28794229417E+04  0.28794229417E+04  0.25500000920E-02 0. -1.
    10030    2    1    2    0    0  0.00000000000E+00  0.00000000000E+00 -0.19187846711E+04  0.38400612122E+04  0.33263095917E+04 0.  0.
        4    1    3    3  502    0 -0.69571292782E+03  0.11033032982E+04  0.23186880431E+03  0.13247865493E+04  0.12699999809E+01 0. -1.
       -4    1    3    3    0  502  0.69571292782E+03 -0.11033032982E+04 -0.21506534754E+04  0.25152746629E+04  0.12699999809E+01 0.  1.
</event>
<event>
 5   0  0.2906701E-06  0.3492105E+04  0.7818609E-02  0.8115664E-01
        2   -1    0    0  501    0  0.00000000000E+00  0.00000000000E+00  0.13905663228E+04  0.13905663228E+04  0.25500000920E-02 0.  1.
       -2   -1    0    0    0  501  0.00000000000E+00  0.00000000000E+00 -0.21924152970E+04  0.21924152970E+04  0.25500000920E-02 0. -1.
    10030    2    1    2    0    0  0.00000000000E+00  0.00000000000E+00 -0.80184897423E+03  0.35829816198E+04  0.34921047393E+04 0.  0.
        5    1    3    3  502    0 -0.27701404408E+03  0.15080497646E+04  0.45611285681E+03  0.15996911894E+04  0.46999998093E+01 0.  1.
       -5    1    3    3    0  502  0.27701404408E+03 -0.15080497646E+04 -0.12579618310E+04  0.19832904304E+04  0.46999998093E+01 0. -1.
</event>
<event>
 5   0  0.2848685E-06  0.3498915E+04  0.7818609E-02  0.8114047E-01
       -2   -1    0    0    0  501  0.00000000000E+00  0.00000000000E+00  0.12726540498E+04  0.12726540498E+04  0.25500000920E-02 0. -1.
        2   -1    0    0  501    0  0.00000000000E+00  0.00000000000E+00 -0.24048960332E+04  0.24048960332E+04  0.25500000920E-02 0.  1.
    10030    2    1    2    0    0  0.00000000000E+00  0.00000000000E+00 -0.11322419834E+04  0.36775500831E+04  0.34989145037E+04 0.  0.
        3    1    3    3  502    0 -0.15461481311E+04  0.68114209541E+03 -0.10432489112E+04  0.19856729082E+04  0.10100000352E+00 0.  1.
       -3    1    3    3    0  502  0.15461481311E+04 -0.68114209541E+03 -0.88993072210E+02  0.16918771748E+04  0.10100000352E+00 0. -1.
</event>
<event>
 5   0  0.9714317E-07  0.3405145E+04  0.7818609E-02  0.8136645E-01
       -1   -1    0    0    0  501  0.00000000000E+00  0.00000000000E+00  0.25525948818E+04  0.25525948818E+04  0.50400001928E-02 0. -1.
        1   -1    0    0  501    0  0.00000000000E+00  0.00000000000E+00 -0.11356106118E+04  0.11356106118E+04  0.50400001928E-02 0.  1.
    10030    2    1    2    0    0  0.00000000000E+00  0.00000000000E+00  0.14169842700E+04  0.36882054936E+04  0.34051454215E+04 0.  0.
        4    1    3    3  502    0 -0.24463688810E+03  0.42534424639E+03  0.24743506193E+04  0.25225339513E+04  0.12699999809E+01 0. -1.
       -4    1    3    3    0  502  0.24463688810E+03 -0.42534424639E+03 -0.10573663493E+04  0.11656715423E+04  0.12699999809E+01 0.  1.
</event>
<event>
 5   0  0.2906701E-06  0.3488534E+04  0.7818609E-02  0.8116513E-01
       -2   -1    0    0    0  501  0.00000000000E+00  0.00000000000E+00  0.18630056786E+04  0.18630056786E+04  0.25500000920E-02 0. -1.
        2   -1    0    0  501    0  0.00000000000E+00  0.00000000000E+00 -0.16330962161E+04  0.16330962161E+04  0.25500000920E-02 0.  1.
    10030    2    1    2    0    0  0.00000000000E+00  0.00000000000E+00  0.22990946251E+03  0.34961018947E+04  0.34885340900E+04 0.  0.
        5    1    3    3  502    0 -0.99921057792E+03 -0.10129573573E+04 -0.89616462447E+03  0.16815580605E+04  0.46999998093E+01 0.  1.
       -5    1    3    3    0  502  0.99921057792E+03  0.10129573573E+04  0.11260740870E+04  0.18145438342E+04  0.46999998093E+01 0. -1.
</event>
<event>
 5   0  0.1003191E-06  0.3368440E+04  0.7818609E-02  0.8145696E-01
       -1   -1    0    0    0  501  0.00000000000E+00  0.00000000000E+00  0.11659536355E+04  0.11659536355E+04  0.50400001928E-02 0. -1.
        1   -1    0    0  501    0  0.00000000000E+00  0.00000000000E+00 -0.24328554203E+04  0.24328554203E+04  0.50400001928E-02 0.  1.
    10030    2    1    2    0    0  0.00000000000E+00  0.00000000000E+00 -0.12669017848E+04  0.35988090559E+04  0.33684397706E+04 0.  0.
        5    1    3    3  502    0  0.61026847790E+03  0.10762921388E+03  0.10397191989E+04  0.12103924014E+04  0.46999998093E+01 0. -1.
       -5    1    3    3    0  502 -0.61026847790E+03 -0.10762921388E+03 -0.23066209837E+04  0.23884166545E+04  0.46999998093E+01 0.  1.
</event>
<event>
 5   0  0.1003191E-06  0.3229612E+04  0.7818609E-02  0.8181040E-01
       -1   -1    0    0    0  501  0.00000000000E+00  0.00000000000E+00  0.20491710966E+04  0.20491710966E+04  0.50400001928E-02 0. -1.
        1   -1    0    0  501    0  0.00000000000E+00  0.00000000000E+00 -0.12725136469E+04  0.12725136469E+04  0.50400001928E-02 0.  1.
    10030    2    1    2    0    0  0.00000000000E+00  0.00000000000E+00  0.77665744974E+03  0.33216847435E+04  0.32296118561E+04 0.  0.
        5    1    3    3  502    0 -0.13462601773E+04 -0.83484637835E+03  0.66040628430E+02  0.15854868006E+04  0.46999998093E+01 0.  1.
       -5    1    3    3    0  502  0.13462601773E+04  0.83484637835E+03  0.71061682131E+03  0.17361979429E+04  0.46999998093E+01 0. -1.
</event>
<event>
 5   0  0.1003191E-06  0.3358529E+04  0.7818609E-02  0.8148160E-01
       -1   -1    0    0    0  501  0.00000000000E+00  0.00000000000E+00  0.18518864176E+04  0.18518864177E+04  0.50400001928E-02 0.  1.
        1   -1    0    0  501    0  0.00000000000E+00  0.00000000000E+00 -0.15227331020E+04  0.15227331020E+04  0.50400001928E-02 0. -1.
    10030    2    1    2    0    0  0.00000000000E+00  0.00000000000E+00  0.32915331569E+03  0.33746195196E+04  0.33585286953E+04 0.  0.
        5    1    3    3  502    0 -0.61182032989E+01  0.15722389063E+04 -0.42810872433E+03  0.16295004697E+04  0.46999998093E+01 0. -1.
       -5    1    3    3    0  502  0.61182032989E+01 -0.15722389063E+04  0.75726204002E+03  0.17451190499E+04  0.46999998093E+01 0.  1.
</event>
<event>
 5   0  0.1010855E-06  0.3396921E+04  0.7818609E-02  0.8138662E-01
        1   -1    0    0  501    0  0.00000000000E+00  0.00000000000E+00  0.31788153717E+04  0.31788153717E+04  0.50400001928E-02 0. -1.
       -1   -1    0    0    0  501  0.00000000000E+00  0.00000000000E+00 -0.90749806547E+03  0.90749806548E+03  0.50400001928E-02 0.  1.
    10030    2    1    2    0    0  0.00000000000E+00  0.00000000000E+00  0.22713173063E+04  0.40863134372E+04  0.33969214300E+04 0.  0.
        1    1    3    3  502    0  0.14464615070E+04 -0.84035076438E+03  0.78221248633E+03  0.18466988580E+04  0.50400001928E-02 0. -1.
       -1    1    3    3    0  502 -0.14464615070E+04  0.84035076438E+03  0.14891048199E+04  0.22396145792E+04  0.50400001928E-02 0.  1.
</event>
<event>
 5   0  0.2848685E-06  0.3397308E+04  0.7818609E-02  0.8138567E-01
       -2   -1    0    0    0  501  0.00000000000E+00  0.00000000000E+00  0.20742986555E+04  0.20742986555E+04  0.25500000920E-02 0.  1.
        2   -1    0    0  501    0  0.00000000000E+00  0.00000000000E+00 -0.13910364846E+04  0.13910364846E+04  0.25500000920E-02 0. -1.
    10030    2    1    2    0    0  0.00000000000E+00  0.00000000000E+00  0.68326217096E+03  0.34653351401E+04  0.33973078222E+04 0.  0.
        3    1    3    3  502    0  0.12244328596E+04  0.10465872160E+04 -0.20846778074E+03  0.16242042525E+04  0.10100000352E+00 0.  1.
       -3    1    3    3    0  502 -0.12244328596E+04 -0.10465872160E+04  0.89172995170E+03  0.18411308876E+04  0.10100000352E+00 0. -1.
</event>
<event>
 5   0  0.1010551E-06  0.3396745E+04  0.7818609E-02  0.8138706E-01
       -1   -1    0    0    0  501  0.00000000000E+00  0.00000000000E+00  0.16174044140E+04  0.16174044140E+04  0.50400001928E-02 0. -1.
        1   -1    0    0  501    0  0.00000000000E+00  0.00000000000E+00 -0.17833940354E+04  0.17833940354E+04  0.50400001928E-02 0.  1.
    10030    2    1    2    0    0  0.00000000000E+00  0.00000000000E+00 -0.16598962138E+03  0.34007984494E+04  0.33967451389E+04 0.  0.
        2    1    3    3  502    0  0.95442248516E+03 -0.82483967600E+03 -0.12215354356E+04  0.17559702707E+04  0.25500000920E-02 0.  1.
       -2    1    3    3    0  502 -0.95442248516E+03  0.82483967600E+03  0.10555458142E+04  0.16448281786E+04  0.25500000920E-02 0. -1.
</event>
<event>
 5   0  0.9714317E-07  0.3344248E+04  0.7818609E-02  0.8151727E-01
        1   -1    0    0  501    0  0.00000000000E+00  0.00000000000E+00  0.23558549870E+04  0.23558549870E+04  0.50400001928E-02 0. -1.
       -1   -1    0    0    0  501  0.00000000000E+00  0.00000000000E+00 -0.11868296931E+04  0.11868296931E+04  0.50400001928E-02 0.  1.
    10030    2    1    2    0    0  0.00000000000E+00  0.00000000000E+00  0.11690252938E+04  0.35426846801E+04  0.33442479880E+04 0.  0.
        4    1    3    3  502    0  0.31579639786E+03  0.47959165538E+03 -0.10791052663E+04  0.12223769098E+04  0.12699999809E+01 0.  1.
       -4    1    3    3    0  502 -0.31579639786E+03 -0.47959165538E+03  0.22481305601E+04  0.23203077704E+04  0.12699999809E+01 0. -1.
</event>
<event>
 5   0  0.2664083E-06  0.3541822E+04  0.7818609E-02  0.8103950E-01
        2   -1    0    0  501    0  0.00000000000E+00  0.00000000000E+00  0.29012605418E+04  0.29012605418E+04  0.25500000920E-02 0.  1.
       -2   -1    0    0    0  501  0.00000000000E+00  0.00000000000E+00 -0.10809527259E+04  0.10809527259E+04  0.25500000920E-02 0. -1.
    10030    2    1    2    0    0  0.00000000000E+00  0.00000000000E+00  0.18203078158E+04  0.39822132677E+04  0.35418218427E+04 0.  0.
        2    1    3    3  502    0 -0.11571467479E+04  0.63247389544E+03 -0.41881149033E+03  0.13836238250E+04  0.25500000920E-02 0. -1.
       -2    1    3    3    0  502  0.11571467479E+04 -0.63247389544E+03  0.22391193061E+04  0.25985894427E+04  0.25500000920E-02 0.  1.
</event>
<event>
 5   0  0.2664083E-06  0.3377279E+04  0.7818609E-02  0.8143506E-01
        2   -1    0    0  501    0  0.00000000000E+00  0.00000000000E+00  0.17792691002E+04  0.17792691002E+04  0.25500000920E-02 0.  1.
       -2   -1    0    0    0  501  0.00000000000E+00  0.00000000000E+00 -0.16026258556E+04  0.16026258556E+04  0.25500000920E-02 0. -1.
    10030    2    1    2    0    0  0.00000000000E+00  0.00000000000E+00  0.17664324457E+03  0.33818949558E+04  0.33772785873E+04 0.  0.
        2    1    3    3  502    0 -0.15627748245E+04  0.10009039202E+03 -0.54438016327E+03  0.16579001782E+04  0.25500000920E-02 0. -1.
       -2    1    3    3    0  502  0.15627748245E+04 -0.10009039202E+03  0.72102340785E+03  0.17239947776E+04  0.25500000920E-02 0.  1.
</event>
<event>
 5   0  0.1010855E-06  0.3406971E+04  0.7818609E-02  0.8136197E-01
       -1   -1    0    0    0  501  0.00000000000E+00  0.00000000000E+00  0.16412594321E+04  0.16412594322E+04  0.50400001928E-02 0. -1.
        1   -1    0    0  501    0  0.00000000000E+00  0.00000000000E+00 -0.17680709122E+04  0.17680709122E+04  0.50400001928E-02 0.  1.
    10030    2    1    2    0    0  0.00000000000E+00  0.00000000000E+00 -0.12681148009E+03  0.34093303444E+04  0.34069711249E+04 0.  0.
        1    1    3    3  502    0  0.19697816392E+03 -0.28145715604E+03 -0.17330468143E+04  0.17667681762E+04  0.50400001928E-02 0.  1.
       -1    1    3    3    0  502 -0.19697816392E+03  0.28145715604E+03  0.16062353342E+04  0.16425621683E+04  0.50400001928E-02 0. -1.
</event>
<event>
 5   0  0.2906701E-06  0.3322415E+04  0.7818609E-02  0.8157215E-01
        2   -1    0    0  501    0  0.00000000000E+00  0.00000000000E+00  0.20735581624E+04  0.20735581624E+04  0.25500000920E-02 0. -1.
       -2   -1    0    0    0  501  0.00000000000E+00  0.00000000000E+00 -0.13308571168E+04  0.13308571168E+04  0.25500000920E-02 0.  1.
    10030    2    1    2    0    0  0.00000000000E+00  0.00000000000E+00  0.74270104558E+03  0.34044152793E+04  0.33224145663E+04 0.  0.
        5    1    3    3  502    0  0.16601999360E+04  0.57651706382E+02  0.37131916748E+03  0.17022007992E+04  0.46999998093E+01 0. -1.
       -5    1    3    3    0  502 -0.16601999360E+04 -0.57651706382E+02  0.37138187811E+03  0.17022144800E+04  0.46999998093E+01 0.  1.
</event>
<event>
 5   0  0.9232963E-07  0.3166345E+04  0.7818609E-02  0.8197762E-01
        1   -1    0    0  501    0  0.00000000000E+00  0.00000000000E+00  0.10773986131E+04  0.10773986131E+04  0.50400001928E-02 0.  1.
       -1   -1    0    0    0  501  0.00000000000E+00  0.00000000000E+00 -0.23263764121E+04  0.23263764121E+04  0.50400001928E-02 0. -1.
    10030    2    1    2    0    0  0.00000000000E+00  0.00000000000E+00 -0.12489777990E+04  0.34037750252E+04  0.31663447190E+04 0.  0.
        3    1    3    3  502    0  0.32055713651E+03 -0.76998157529E+03  0.82207838816E+03  0.11710855607E+04  0.10100000352E+00 0.  1.
       -3    1    3    3    0  502 -0.32055713651E+03  0.76998157529E+03 -0.20710561872E+04  0.22326894645E+04  0.10100000352E+00 0. -1.
</event>
<event>
 5   0  0.2856440E-06  0.2635028E+04  0.7818609E-02  0.8356400E-01
        2   -1    0    0  501    0  0.00000000000E+00  0.00000000000E+00  0.22660673208E+04  0.22660673208E+04  0.25500000920E-02 0.  1.
       -2   -1    0    0    0  501  0.00000000000E+00  0.00000000000E+00 -0.76601549152E+03  0.76601549152E+03  0.25500000920E-02 0. -1.
    10030    2    1    2    0    0  0.00000000000E+00  0.00000000000E+00  0.15000518292E+04  0.30320828123E+04  0.26350276450E+04 0.  0.
        4    1    3    3  502    0 -0.26359801616E+03 -0.10236821309E+04 -0.15487676367E+03  0.10683620379E+04  0.12699999809E+01 0. -1.
       -4    1    3    3    0  502  0.26359801616E+03  0.10236821309E+04  0.16549285929E+04  0.19637207744E+04  0.12699999809E+01 0.  1.
</event>
<event>
 5   0  0.1010551E-06  0.3377766E+04  0.7818609E-02  0.8143385E-01
       -1   -1    0    0    0  501  0.00000000000E+00  0.00000000000E+00  0.19318798348E+04  0.19318798349E+04  0.50400001928E-02 0. -1.
        1   -1    0    0  501    0  0.00000000000E+00  0.00000000000E+00 -0.14764508628E+04  0.14764508628E+04  0.50400001928E-02 0.  1.
    10030    2    1    2    0    0  0.00000000000E+00  0.00000000000E+00  0.45542897205E+03  0.34083306977E+04  0.33777659179E+04 0.  0.
        2    1    3    3  502    0 -0.89551469399E+03 -0.12034319852E+03 -0.12120452864E+04  0.15117813429E+04  0.25500000920E-02 0.  1.
       -2    1    3    3    0  502  0.89551469399E+03  0.12034319852E+03  0.16674742584E+04  0.18965493548E+04  0.25500000920E-02 0. -1.
</event>
<event>
 5   0  0.9232963E-07  0.3346847E+04  0.7818609E-02  0.8151076E-01
        1   -1    0    0  501    0  0.00000000000E+00  0.00000000000E+00  0.21367461746E+04  0.21367461746E+04  0.50400001928E-02 0. -1.
       -1   -1    0    0    0  501  0.00000000000E+00  0.00000000000E+00 -0.13105657731E+04  0.13105657731E+04  0.50400001928E-02 0.  1.
    10030    2    1    2    0    0  0.00000000000E+00  0.00000000000E+00  0.82618040151E+03  0.34473119476E+04  0.33468471146E+04 0.  0.
        3    1    3    3  502    0 -0.11867119164E+04  0.41220264263E+03  0.15517841220E+04  0.19965545729E+04  0.10100000352E+00 0. -1.
       -3    1    3    3    0  502  0.11867119164E+04 -0.41220264263E+03 -0.72560372047E+03  0.14507573748E+04  0.10100000352E+00 0.  1.
</event>
<event>
 5   0  0.1010855E-06  0.3553144E+04  0.7818609E-02  0.8101310E-01
        1   -1    0    0  501    0  0.00000000000E+00  0.00000000000E+00  0.17963451350E+04  0.17963451350E+04  0.50400001928E-02 0. -1.
       -1   -1    0    0    0  501  0.00000000000E+00  0.00000000000E+00 -0.17570163327E+04  0.17570163327E+04  0.50400001928E-02 0.  1.
    10030    2    1    2    0    0  0.00000000000E+00  0.00000000000E+00  0.39328802291E+02  0.35533614677E+04  0.35531438143E+04 0.  0.
        1    1    3    3  502    0 -0.52395602307E+03  0.13269103642E+04  0.10784958572E+04  0.17883999393E+04  0.50400001928E-02 0. -1.
       -1    1    3    3    0  502  0.52395602307E+03 -0.13269103642E+04 -0.10391670549E+04  0.17649615284E+04  0.50400001928E-02 0.  1.
</event>
<event>
 5   0  0.9232963E-07  0.3426167E+04  0.7818609E-02  0.8131514E-01
       -1   -1    0    0    0  501  0.00000000000E+00  0.00000000000E+00  0.16989548937E+04  0.16989548937E+04  0.50400001928E-02 0. -1.
        1   -1    0    0  501    0  0.00000000000E+00  0.00000000000E+00 -0.17273300274E+04  0.17273300274E+04  0.50400001928E-02 0.  1.
    10030    2    1    2    0    0  0.00000000000E+00  0.00000000000E+00 -0.28375133735E+02  0.34262849211E+04  0.34261674232E+04 0.  0.
        3    1    3    3  502    0  0.44655805774E+03  0.55075452152E+03 -0.15736996556E+04  0.17260577215E+04  0.10100000352E+00 0.  1.
       -3    1    3    3    0  502 -0.44655805774E+03 -0.55075452152E+03  0.15453245219E+04  0.17002271995E+04  0.10100000352E+00 0. -1.
</event>
<event>
 5   0  0.2856440E-06  0.2106137E+04  0.7818609E-02  0.8558545E-01
       -2   -1    0    0    0  501  0.00000000000E+00  0.00000000000E+00  0.76472325677E+03  0.76472325677E+03  0.25500000920E-02 0.  1.
        2   -1    0    0  501    0  0.00000000000E+00  0.00000000000E+00 -0.14501367165E+04  0.14501367165E+04  0.25500000920E-02 0. -1.
    10030    2    1    2    0    0  0.00000000000E+00  0.00000000000E+00 -0.68541345975E+03  0.22148599733E+04  0.21061370066E+04 0.  0.
        4    1    3    3  502    0  0.46853183979E+03  0.78920752279E+03 -0.88567481292E+03  0.12754575987E+04  0.12699999809E+01 0. -1.
       -4    1    3    3    0  502 -0.46853183979E+03 -0.78920752279E+03  0.20026135318E+03  0.93940237460E+03  0.12699999809E+01 0.  1.
</event>
<event>
 5   0  0.2767014E-06  0.2824915E+04  0.7818609E-02  0.8295575E-01
        2   -1    0    0  501    0  0.00000000000E+00  0.00000000000E+00  0.14571761767E+04  0.14571761767E+04  0.25500000920E-02 0.  1.
       -2   -1    0    0    0  501  0.00000000000E+00  0.00000000000E+00 -0.13691107246E+04  0.13691107246E+04  0.25500000920E-02 0. -1.
    10030    2    1    2    0    0  0.00000000000E+00  0.00000000000E+00  0.88065452099E+02  0.28262869014E+04  0.28249145341E+04 0.  0.
        1    1    3    3  502    0 -0.24692753616E+03 -0.10649395181E+04 -0.85081005082E+03  0.13852606715E+04  0.50400001928E-02 0. -1.
       -1    1    3    3    0  502  0.24692753616E+03  0.10649395181E+04  0.93887550292E+03  0.14410262299E+04  0.50400001928E-02 0.  1.
</event>
<event>
 5   0  0.1010551E-06  0.3378164E+04  0.7818609E-02  0.8143286E-01
       -1   -1    0    0    0  501  0.00000000000E+00  0.00000000000E+00  0.22213416156E+04  0.22213416156E+04  0.50400001928E-02 0.  1.
        1   -1    0    0  501    0  0.00000000000E+00  0.00000000000E+00 -0.12843583275E+04  0.12843583275E+04  0.50400001928E-02 0. -1.
    10030    2    1    2    0    0  0.00000000000E+00  0.00000000000E+00  0.93698328812E+03  0.35056999431E+04  0.33781643549E+04 0.  0.
        2    1    3    3  502    0  0.47599346495E+02  0.85917610725E+03  0.19768252073E+04  0.21559886784E+04  0.25500000920E-02 0.  1.
       -2    1    3    3    0  502 -0.47599346495E+02 -0.85917610725E+03 -0.10398419192E+04  0.13497112647E+04  0.25500000920E-02 0. -1.
</event>
<event>
 5   0  0.1010551E-06  0.2268335E+04  0.7818609E-02  0.8490512E-01
        1   -1    0    0  501    0  0.00000000000E+00  0.00000000000E+00  0.75685508057E+03  0.75685508058E+03  0.50400001928E-02 0. -1.
       -1   -1    0    0    0  501  0.00000000000E+00  0.00000000000E+00 -0.16995797939E+04  0.16995797939E+04  0.50400001928E-02 0.  1.
    10030    2    1    2    0    0  0.00000000000E+00  0.00000000000E+00 -0.94272471333E+03  0.24564348745E+04  0.22683347212E+04 0.  0.
        2    1    3    3  502    0  0.42743256326E+02  0.39378303865E+01  0.75597514213E+03  0.75719278126E+03  0.25500000920E-02 0. -1.
       -2    1    3    3    0  502 -0.42743256326E+02 -0.39378303865E+01 -0.16986998555E+04  0.16992420932E+04  0.25500000920E-02 0.  1.
</event>
<event>
 5   0  0.9070500E-07  0.3350736E+04  0.7818609E-02  0.8150104E-01
        3   -1    0    0  501    0  0.00000000000E+00  0.00000000000E+00  0.14481201471E+04  0.14481201506E+04  0.10100000352E+00 0.  1.
       -3   -1    0    0    0  501  0.00000000000E+00  0.00000000000E+00 -0.19382769221E+04  0.19382769247E+04  0.10100000352E+00 0. -1.
    10030    2    1    2    0    0  0.00000000000E+00  0.00000000000E+00 -0.49015677495E+03  0.33863970753E+04  0.33507359621E+04 0.  0.
        3    1    3    3  502    0 -0.67388877984E+03  0.14772603743E+04 -0.66230810356E+03  0.17535895572E+04  0.10100000352E+00 0.  1.
       -3    1    3    3    0  502  0.67388877984E+03 -0.14772603743E+04  0.17215132860E+03  0.16328075181E+04  0.10100000352E+00 0. -1.
</event>
<event>
 5   0  0.2856440E-06  0.3392513E+04  0.7818609E-02  0.8139746E-01
        2   -1    0    0  501    0  0.00000000000E+00  0.00000000000E+00  0.19394017096E+04  0.19394017096E+04  0.25500000920E-02 0.  1.
       -2   -1    0    0    0  501  0.00000000000E+00  0.00000000000E+00 -0.14835949959E+04  0.14835949959E+04  0.25500000920E-02 0. -1.
    10030    2    1    2    0    0  0.00000000000E+00  0.00000000000E+00  0.45580671364E+03  0.34229967055E+04  0.33925133287E+04 0.  0.
        4    1    3    3  502    0  0.11919967746E+04 -0.42707514950E+01  0.14455655457E+04  0.18736424178E+04  0.12699999809E+01 0.  1.
       -4    1    3    3    0  502 -0.11919967746E+04  0.42707514950E+01 -0.98975883210E+03  0.15493542876E+04  0.12699999809E+01 0. -1.
</event>
<event>
 5   0  0.9232963E-07  0.2894107E+04  0.7818609E-02  0.8274633E-01
        1   -1    0    0  501    0  0.00000000000E+00  0.00000000000E+00  0.16499773548E+04  0.16499773548E+04  0.50400001928E-02 0.  1.
       -1   -1    0    0    0  501  0.00000000000E+00  0.00000000000E+00 -0.12690868123E+04  0.12690868123E+04  0.50400001928E-02 0. -1.
    10030    2    1    2    0    0  0.00000000000E+00  0.00000000000E+00  0.38089054250E+03  0.29190641671E+04  0.28941074629E+04 0.  0.
        3    1    3    3  502    0 -0.49866060968E+03  0.13316811114E+03 -0.11730881957E+04  0.12816130752E+04  0.10100000352E+00 0. -1.
       -3    1    3    3    0  502  0.49866060968E+03 -0.13316811114E+03  0.15539787382E+04  0.16374510919E+04  0.10100000352E+00 0.  1.
</event>
<event>
 5   0  0.2856440E-06  0.3441203E+04  0.7818609E-02  0.8127867E-01
       -2   -1    0    0    0  501  0.00000000000E+00  0.00000000000E+00  0.11654012264E+04  0.11654012264E+04  0.25500000920E-02 0. -1.
        2   -1    0    0  501    0  0.00000000000E+00  0.00000000000E+00 -0.25403012281E+04  0.25403012281E+04  0.25500000920E-02 0.  1.
    10030    2    1    2    0    0  0.00000000000E+00  0.00000000000E+00 -0.13749000017E+04  0.37057024545E+04  0.34412033748E+04 0.  0.
        4    1    3    3  502    0  0.42697716156E+03 -0.68909236100E+03 -0.23217676649E+04  0.24592202994E+04  0.12699999809E+01 0.  1.
       -4    1    3    3    0  502 -0.42697716156E+03  0.68909236100E+03  0.94686766317E+03  0.12464821551E+04  0.12699999809E+01 0. -1.
</event>
<event>
 5   0  0.9232963E-07  0.2817151E+04  0.7818609E-02  0.8297963E-01
        1   -1    0    0  501    0  0.00000000000E+00  0.00000000000E+00  0.16740482804E+04  0.16740482804E+04  0.50400001928E-02 0. -1.
       -1   -1    0    0    0  501  0.00000000000E+00  0.00000000000E+00 -0.11852017271E+04  0.11852017271E+04  0.50400001928E-02 0.  1.
    10030    2    1    2    0    0  0.00000000000E+00  0.00000000000E+00  0.48884655328E+03  0.28592500075E+04  0.28171509815E+04 0.  0.
        3    1    3    3  502    0 -0.12611172200E+04 -0.56180853595E+03 -0.39106744690E+02  0.13811498185E+04  0.10100000352E+00 0.  1.
       -3    1    3    3    0  502  0.12611172200E+04  0.56180853595E+03  0.52795329797E+03  0.14781001890E+04  0.10100000352E+00 0. -1.
</event>
<event>
 5   0  0.9232963E-07  0.3603780E+04  0.7818609E-02  0.8089626E-01
        1   -1    0    0  501    0  0.00000000000E+00  0.00000000000E+00  0.13898957905E+04  0.13898957905E+04  0.50400001928E-02 0.  1.
       -1   -1    0    0    0  501  0.00000000000E+00  0.00000000000E+00 -0.23360077033E+04  0.23360077033E+04  0.50400001928E-02 0. -1.
    10030    2    1    2    0    0  0.00000000000E+00  0.00000000000E+00 -0.94611191287E+03  0.37259034938E+04  0.36037798342E+04 0.  0.
        3    1    3    3  502    0  0.37649747226E+03 -0.17400715441E+04 -0.76033525249E+03  0.19359000572E+04  0.10100000352E+00 0. -1.
       -3    1    3    3    0  502 -0.37649747226E+03  0.17400715441E+04 -0.18577666039E+03  0.17900034366E+04  0.10100000352E+00 0.  1.
</event>
<event>
 5   0  0.2856440E-06  0.3339063E+04  0.7818609E-02  0.8153026E-01
        2   -1    0    0  501    0  0.00000000000E+00  0.00000000000E+00  0.15897893095E+04  0.15897893095E+04  0.25500000920E-02 0. -1.
       -2   -1    0    0    0  501  0.00000000000E+00  0.00000000000E+00 -0.17532734234E+04  0.17532734234E+04  0.25500000920E-02 0.  1.
    10030    2    1    2    0    0  0.00000000000E+00  0.00000000000E+00 -0.16348411388E+03  0.33430627328E+04  0.33390629494E+04 0.  0.
        4    1    3    3  502    0 -0.52175260831E+03 -0.56645837751E+03 -0.15648107812E+04  0.17440571296E+04  0.12699999809E+01 0.  1.
       -4    1    3    3    0  502  0.52175260831E+03  0.56645837751E+03  0.14013266673E+04  0.15990056032E+04  0.12699999809E+01 0. -1.
</event>
<event>
 5   0  0.2767014E-06  0.3300481E+04  0.7818609E-02  0.8162773E-01
        2   -1    0    0  501    0  0.00000000000E+00  0.00000000000E+00  0.27214554929E+04  0.27214554929E+04  0.25500000920E-02 0.  1.
       -2   -1    0    0    0  501  0.00000000000E+00  0.00000000000E+00 -0.10006756809E+04  0.10006756809E+04  0.25500000920E-02 0. -1.
    10030    2    1    2    0    0  0.00000000000E+00  0.00000000000E+00  0.17207798120E+04  0.37221311738E+04  0.33004813760E+04 0.  0.
        1    1    3    3  502    0 -0.11703266061E+04  0.45036665909E+03  0.20701918651E+04  0.24203695691E+04  0.50400001928E-02 0.  1.
       -1    1    3    3    0  502  0.11703266061E+04 -0.45036665909E+03 -0.34941205305E+03  0.13017616047E+04  0.50400001928E-02 0. -1.
</event>
<event>
 5   0  0.2664083E-06  0.3515897E+04  0.7818609E-02  0.8110033E-01
        2   -1    0    0  501    0  0.00000000000E+00  0.00000000000E+00  0.15399860346E+04  0.15399860346E+04  0.25500000920E-02 0.  1.
       -2   -1    0    0    0  501  0.00000000000E+00  0.00000000000E+00 -0.20067606321E+04  0.20067606321E+04  0.25500000920E-02 0. -1.
    10030    2    1    2    0    0  0.00000000000E+00  0.00000000000E+00 -0.46677459751E+03  0.35467466667E+04  0.35158972387E+04 0.  0.
        2    1    3    3  502    0  0.10504418068E+03 -0.50223989763E+03 -0.19295398127E+04  0.19965978773E+04  0.25500000920E-02 0. -1.
       -2    1    3    3    0  502 -0.10504418068E+03  0.50223989763E+03  0.14627652152E+04  0.15501487895E+04  0.25500000920E-02 0.  1.
</event>
<event>
 5   0  0.2856440E-06  0.3415382E+04  0.7818609E-02  0.8134141E-01
        2   -1    0    0  501    0  0.00000000000E+00  0.00000000000E+00  0.16172510226E+04  0.16172510226E+04  0.25500000920E-02 0.  1.
       -2   -1    0    0    0  501  0.00000000000E+00  0.00000000000E+00 -0.18031885053E+04  0.18031885053E+04  0.25500000920E-02 0. -1.
    10030    2    1    2    0    0  0.00000000000E+00  0.00000000000E+00 -0.18593748276E+03  0.34204395279E+04  0.34153819430E+04 0.  0.
        4    1    3    3  502    0  0.64080976832E+03  0.14856810711E+04  0.45402816458E+03  0.16804846299E+04  0.12699999809E+01 0.  1.
       -4    1    3    3    0  502 -0.64080976832E+03 -0.14856810711E+04 -0.63996564733E+03  0.17399548980E+04  0.12699999809E+01 0. -1.
</event>
<event>
 5   0  0.1010855E-06  0.3417435E+04  0.7818609E-02  0.8133640E-01
        1   -1    0    0  501    0  0.00000000000E+00  0.00000000000E+00  0.16718774954E+04  0.16718774955E+04  0.50400001928E-02 0. -1.
       -1   -1    0    0    0  501  0.00000000000E+00  0.00000000000E+00 -0.17463689373E+04  0.17463689373E+04  0.50400001928E-02 0.  1.
    10030    2    1    2    0    0  0.00000000000E+00  0.00000000000E+00 -0.74491441883E+02  0.34182464328E+04  0.34174346666E+04 0.  0.
        1    1    3    3  502    0  0.26759838845E+03  0.13208070533E+04 -0.10880069197E+04  0.17320217166E+04  0.50400001928E-02 0.  1.
       -1    1    3    3    0  502 -0.26759838845E+03 -0.13208070533E+04  0.10135154778E+04  0.16862247162E+04  0.50400001928E-02 0. -1.
</event>
<event>
 5   0  0.9232963E-07  0.3310549E+04  0.7818609E-02  0.8160216E-01
       -1   -1    0    0    0  501  0.00000000000E+00  0.00000000000E+00  0.13445997609E+04  0.13445997609E+04  0.50400001928E-02 0.  1.
        1   -1    0    0  501    0  0.00000000000E+00  0.00000000000E+00 -0.20377323102E+04  0.20377323102E+04  0.50400001928E-02 0. -1.
    10030    2    1    2    0    0  0.00000000000E+00  0.00000000000E+00 -0.69313254934E+03  0.33823320712E+04  0.33105494270E+04 0.  0.
        3    1    3    3  502    0 -0.14768766425E+04 -0.36076690995E+03 -0.10154503502E+04  0.18282387164E+04  0.10100000352E+00 0.  1.
       -3    1    3    3    0  502  0.14768766425E+04  0.36076690995E+03  0.32231780082E+03  0.15540933547E+04  0.10100000352E+00 0. -1.
</event>
<event>
 5   0  0.2664083E-06  0.3429165E+04  0.7818609E-02  0.8130785E-01
       -2   -1    0    0    0  501  0.00000000000E+00  0.00000000000E+00  0.21358598580E+04  0.21358598580E+04  0.25500000920E-02 0. -1.
        2   -1    0    0  501    0  0.00000000000E+00  0.00000000000E+00 -0.13763982285E+04  0.13763982285E+04  0.25500000920E-02 0.  1.
    10030    2    1    2    0    0  0.00000000000E+00  0.00000000000E+00  0.75946162954E+03  0.35122580865E+04  0.34291653356E+04 0.  0.
        2    1    3    3  502    0  0.16695910395E+04 -0.21776526766E+03  0.71136316674E+03  0.18278384792E+04  0.25500000920E-02 0. -1.
       -2    1    3    3    0  502 -0.16695910395E+04  0.21776526766E+03  0.48098462797E+02  0.16844196072E+04  0.25500000920E-02 0.  1.
</event>
<event>
 5   0  0.1010551E-06  0.3281413E+04  0.7818609E-02  0.8167641E-01
       -1   -1    0    0    0  501  0.00000000000E+00  0.00000000000E+00  0.14206012311E+04  0.14206012311E+04  0.50400001928E-02 0. -1.
        1   -1    0    0  501    0  0.00000000000E+00  0.00000000000E+00 -0.18949139300E+04  0.18949139300E+04  0.50400001928E-02 0.  1.
    10030    2    1    2    0    0  0.00000000000E+00  0.00000000000E+00 -0.47431269891E+03  0.33155151611E+04  0.32814125384E+04 0.  0.
        2    1    3    3  502    0 -0.15160193044E+04 -0.25240185929E+03  0.34317843089E+03  0.15747357446E+04  0.25500000920E-02 0. -1.
       -2    1    3    3    0  502  0.15160193044E+04  0.25240185929E+03 -0.81749112980E+03  0.17407794166E+04  0.25500000920E-02 0.  1.
</event>
<event>
 5   0  0.9714317E-07  0.3350689E+04  0.7818609E-02  0.8150116E-01
       -1   -1    0    0    0  501  0.00000000000E+00  0.00000000000E+00  0.16737841397E+04  0.16737841397E+04  0.50400001928E-02 0. -1.
        1   -1    0    0  501    0  0.00000000000E+00  0.00000000000E+00 -0.16769067203E+04  0.16769067204E+04  0.50400001928E-02 0.  1.
    10030    2    1    2    0    0  0.00000000000E+00  0.00000000000E+00 -0.31225806335E+01  0.33506908601E+04  0.33506894051E+04 0.  0.
        4    1    3    3  502    0  0.12809893750E+04  0.84633378809E+03  0.66893404154E+03  0.16747205811E+04  0.12699999809E+01 0. -1.
       -4    1    3    3    0  502 -0.12809893750E+04 -0.84633378809E+03 -0.67205662217E+03  0.16759702790E+04  0.12699999809E+01 0.  1.
</event>
<event>
 5   0  0.9714317E-07  0.3451632E+04  0.7818609E-02  0.8125349E-01
        1   -1    0    0  501    0  0.00000000000E+00  0.00000000000E+00  0.17524440214E+04  0.17524440214E+04  0.50400001928E-02 0.  1.
       -1   -1    0    0    0  501  0.00000000000E+00  0.00000000000E+00 -0.16995930706E+04  0.16995930706E+04  0.50400001928E-02 0. -1.
    10030    2    1    2    0    0  0.00000000000E+00  0.00000000000E+00  0.52850950833E+02  0.34520370920E+04  0.34516324922E+04 0.  0.
        4    1    3    3  502    0  0.11780693413E+04 -0.67569805656E+03 -0.10386053889E+04  0.17097128423E+04  0.12699999809E+01 0. -1.
       -4    1    3    3    0  502 -0.11780693413E+04  0.67569805656E+03  0.10914563397E+04  0.17423242497E+04  0.12699999809E+01 0.  1.
</event>
<event>
 5   0  0.2664083E-06  0.3429334E+04  0.7818609E-02  0.8130744E-01
       -2   -1    0    0    0  501  0.00000000000E+00  0.00000000000E+00  0.17956875385E+04  0.17956875385E+04  0.25500000920E-02 0. -1.
        2   -1    0    0  501    0  0.00000000000E+00  0.00000000000E+00 -0.16373021697E+04  0.16373021697E+04  0.25500000920E-02 0.  1.
    10030    2    1    2    0    0  0.00000000000E+00  0.00000000000E+00  0.15838536879E+03  0.34329897083E+04  0.34293341062E+04 0.  0.
        2    1    3    3  502    0 -0.41079654403E+03 -0.14858569690E+04  0.83069816985E+03  0.17511665204E+04  0.25500000920E-02 0.  1.
       -2    1    3    3    0  502  0.41079654403E+03  0.14858569690E+04 -0.67231280105E+03  0.16818231879E+04  0.25500000920E-02 0. -1.
</event>
<event>
 5   0  0.1010855E-06  0.3411516E+04  0.7818609E-02  0.8135086E-01
        1   -1    0    0  501    0  0.00000000000E+00  0.00000000000E+00  0.18777683124E+04  0.18777683124E+04  0.50400001928E-02 0.  1.
       -1   -1    0    0    0  501  0.00000000000E+00  0.00000000000E+00 -0.15495046975E+04  0.15495046975E+04  0.50400001928E-02 0. -1.
    10030    2    1    2    0    0  0.00000000000E+00  0.00000000000E+00  0.32826361488E+03  0.34272730099E+04  0.34115162733E+04 0.  0.
        1    1    3    3  502    0 -0.94638131657E+02  0.12833969246E+04  0.12889220137E+04  0.18213687159E+04  0.50400001928E-02 0.  1.
       -1    1    3    3    0  502  0.94638131657E+02 -0.12833969246E+04 -0.96065839878E+03  0.16059042939E+04  0.50400001928E-02 0. -1.
</event>
<event>
 5   0  0.2664083E-06  0.2098571E+04  0.7818609E-02  0.8561873E-01
        2   -1    0    0  501    0  0.00000000000E+00  0.00000000000E+00  0.88621131145E+03  0.88621131145E+03  0.25500000920E-02 0.  1.
       -2   -1    0    0    0  501  0.00000000000E+00  0.00000000000E+00 -0.12423669973E+04  0.12423669973E+04  0.25500000920E-02 0. -1.
    10030    2    1    2    0    0  0.00000000000E+00  0.00000000000E+00 -0.35615568585E+03  0.21285783088E+04  0.20985706431E+04 0.  0.
        2    1    3    3  502    0 -0.61802530052E+03 -0.19926995927E+03  0.65792609080E+03  0.92440820513E+03  0.25500000920E-02 0.  1.
       -2    1    3    3    0  502  0.61802530052E+03  0.19926995927E+03 -0.10140817766E+04  0.12041701036E+04  0.25500000920E-02 0. -1.
</event>
<event>
 5   0  0.2664083E-06  0.3355663E+04  0.7818609E-02  0.8148875E-01
       -2   -1    0    0    0  501  0.00000000000E+00  0.00000000000E+00  0.10835511954E+04  0.10835511954E+04  0.25500000920E-02 0.  1.
        2   -1    0    0  501    0  0.00000000000E+00  0.00000000000E+00 -0.25980479162E+04  0.25980479162E+04  0.25500000920E-02 0. -1.
    10030    2    1    2    0    0  0.00000000000E+00  0.00000000000E+00 -0.15144967209E+04  0.36815991116E+04  0.33556626322E+04 0.  0.
        2    1    3    3  502    0 -0.31970340384E+03  0.25543134698E+03  0.10279624818E+04  0.11064186836E+04  0.25500000920E-02 0.  1.
       -2    1    3    3    0  502  0.31970340384E+03 -0.25543134698E+03 -0.25424592027E+04  0.25751804280E+04  0.25500000920E-02 0. -1.
</event>
<event>
 5   0  0.2664083E-06  0.2768684E+04  0.7818609E-02  0.8313057E-01
        2   -1    0    0  501    0  0.00000000000E+00  0.00000000000E+00  0.20874819501E+04  0.20874819501E+04  0.25500000920E-02 0.  1.
       -2   -1    0    0    0  501  0.00000000000E+00  0.00000000000E+00 -0.91804525121E+03  0.91804525121E+03  0.25500000920E-02 0. -1.
    10030    2    1    2    0    0  0.00000000000E+00  0.00000000000E+00  0.11694366989E+04  0.30055272014E+04  0.27686840855E+04 0.  0.
        2    1    3    3  502    0  0.62523528510E+03 -0.59365643061E+03  0.17604456127E+04  0.19602336275E+04  0.25500000920E-02 0.  1.
       -2    1    3    3    0  502 -0.62523528510E+03  0.59365643061E+03 -0.59100891374E+03  0.10452935738E+04  0.25500000920E-02 0. -1.
</event>
<event>
 5   0  0.2767014E-06  0.3431682E+04  0.7818609E-02  0.8130174E-01
        2   -1    0    0  501    0  0.00000000000E+00  0.00000000000E+00  0.16878444985E+04  0.16878444985E+04  0.25500000920E-02 0.  1.
       -2   -1    0    0    0  501  0.00000000000E+00  0.00000000000E+00 -0.17443015040E+04  0.17443015040E+04  0.25500000920E-02 0. -1.
    10030    2    1    2    0    0  0.00000000000E+00  0.00000000000E+00 -0.56457005479E+02  0.34321460026E+04  0.34316816271E+04 0.  0.
        1    1    3    3  502    0  0.16577039985E+04 -0.76243126503E+02 -0.46453762092E+03  0.17232500579E+04  0.50400001928E-02 0. -1.
       -1    1    3    3    0  502 -0.16577039985E+04  0.76243126503E+02  0.40808061544E+03  0.17088959446E+04  0.50400001928E-02 0.  1.
</event>
<event>
 5   0  0.1010551E-06  0.3367954E+04  0.7818609E-02  0.8145816E-01
       -1   -1    0    0    0  501  0.00000000000E+00  0.00000000000E+00  0.19282221529E+04  0.19282221529E+04  0.50400001928E-02 0. -1.
        1   -1    0    0  501    0  0.00000000000E+00  0.00000000000E+00 -0.14706703230E+04  0.14706703230E+04  0.50400001928E-02 0.  1.
    10030    2    1    2    0    0  0.00000000000E+00  0.00000000000E+00  0.45755182986E+03  0.33988924759E+04  0.33679543325E+04 0.  0.
        2    1    3    3  502    0 -0.69859842627E+03  0.78791794002E+03  0.15549725655E+04  0.18779760704E+04  0.25500000920E-02 0. -1.
       -2    1    3    3    0  502  0.69859842627E+03 -0.78791794002E+03 -0.10974207357E+04  0.15209164055E+04  0.25500000920E-02 0.  1.
</event>
<event>
 5   0  0.2856440E-06  0.2363030E+04  0.7818609E-02  0.8453476E-01
        2   -1    0    0  501    0  0.00000000000E+00  0.00000000000E+00  0.99774269172E+03  0.99774269172E+03  0.25500000920E-02 0.  1.
       -2   -1    0    0    0  501  0.00000000000E+00  0.00000000000E+00 -0.13991357248E+04  0.13991357249E+04  0.25500000920E-02 0. -1.
    10030    2    1    2    0    0  0.00000000000E+00  0.00000000000E+00 -0.40139303313E+03  0.23968784166E+04  0.23630297875E+04 0.  0.
        4    1    3    3  502    0  0.11330375514E+04  0.14108024372E+03 -0.50885433917E+03  0.12500448309E+04  0.12699999809E+01 0.  1.
       -4    1    3    3    0  502 -0.11330375514E+04 -0.14108024372E+03  0.10746130603E+03  0.11468335856E+04  0.12699999809E+01 0. -1.
</event>
<event>
 5   0  0.2906701E-06  0.3359451E+04  0.7818609E-02  0.8147931E-01
        2   -1    0    0  501    0  0.00000000000E+00  0.00000000000E+00  0.25648172067E+04  0.25648172067E+04  0.25500000920E-02 0.  1.
       -2   -1    0    0    0  501  0.00000000000E+00  0.00000000000E+00 -0.11000699518E+04  0.11000699518E+04  0.25500000920E-02 0. -1.
    10030    2    1    2    0    0  0.00000000000E+00  0.00000000000E+00  0.14647472549E+04  0.36648871585E+04  0.33594513486E+04 0.  0.
        5    1    3    3  502    0 -0.97491232733E+03 -0.13454266057E+04  0.10014336715E+04  0.19399789395E+04  0.46999998093E+01 0. -1.
       -5    1    3    3    0  502  0.97491232733E+03  0.13454266057E+04  0.46331358345E+03  0.17249082190E+04  0.46999998093E+01 0.  1.
</event>
<event>
 5   0  0.1003191E-06  0.3394070E+04  0.7818609E-02  0.8139363E-01
       -1   -1    0    0    0  501  0.00000000000E+00  0.00000000000E+00  0.10727463383E+04  0.10727463383E+04  0.50400001928E-02 0.  1.
        1   -1    0    0  501    0  0.00000000000E+00  0.00000000000E+00 -0.26846305730E+04  0.26846305730E+04  0.50400001928E-02 0. -1.
    10030    2    1    2    0    0  0.00000000000E+00  0.00000000000E+00 -0.16118842347E+04  0.37573769113E+04  0.33940698973E+04 0.  0.
        5    1    3    3  502    0 -0.15685940869E+04  0.19318473551E+03 -0.14902495151E+04  0.21722507818E+04  0.46999998093E+01 0. -1.
       -5    1    3    3    0  502  0.15685940869E+04 -0.19318473551E+03 -0.12163471961E+03  0.15851261296E+04  0.46999998093E+01 0.  1.
</event>
<event>
 5   0  0.2906701E-06  0.3366480E+04  0.7818609E-02  0.8146182E-01
        2   -1    0    0  501    0  0.00000000000E+00  0.00000000000E+00  0.27653760177E+04  0.27653760177E+04  0.25500000920E-02 0.  1.
       -2   -1    0    0    0  501  0.00000000000E+00  0.00000000000E+00 -0.10245614658E+04  0.10245614658E+04  0.25500000920E-02 0. -1.
    10030    2    1    2    0    0  0.00000000000E+00  0.00000000000E+00  0.17408145519E+04  0.37899374835E+04  0.33664804804E+04 0.  0.
        5    1    3    3  502    0  0.96476310945E+03 -0.86186015948E+03 -0.34194735972E+03  0.13381034634E+04  0.46999998093E+01 0. -1.
       -5    1    3    3    0  502 -0.96476310945E+03  0.86186015948E+03  0.20827619116E+04  0.24518340201E+04  0.46999998093E+01 0.  1.
</event>
<event>
 5   0  0.1003191E-06  0.3350425E+04  0.7818609E-02  0.8150182E-01
        1   -1    0    0  501    0  0.00000000000E+00  0.00000000000E+00  0.21307685531E+04  0.21307685531E+04  0.50400001928E-02 0. -1.
       -1   -1    0    0    0  501  0.00000000000E+00  0.00000000000E+00 -0.13170535354E+04  0.13170535354E+04  0.50400001928E-02 0.  1.
    10030    2    1    2    0    0  0.00000000000E+00  0.00000000000E+00  0.81371501772E+03  0.34478220885E+04  0.33504246036E+04 0.  0.
        5    1    3    3  502    0  0.71371399550E+03  0.11054141905E+04 -0.66009821041E+03  0.14721005188E+04  0.46999998093E+01 0.  1.
       -5    1    3    3    0  502 -0.71371399550E+03 -0.11054141905E+04  0.14738132281E+04  0.19757215698E+04  0.46999998093E+01 0. -1.
</event>
<event>
 5   0  0.2906701E-06  0.3226942E+04  0.7818609E-02  0.8181738E-01
        2   -1    0    0  501    0  0.00000000000E+00  0.00000000000E+00  0.29819528946E+04  0.29819528946E+04  0.25500000920E-02 0. -1.
       -2   -1    0    0    0  501  0.00000000000E+00  0.00000000000E+00 -0.87301481180E+03  0.87301481180E+03  0.25500000920E-02 0.  1.
    10030    2    1    2    0    0  0.00000000000E+00  0.00000000000E+00  0.21089380828E+04  0.38549677064E+04  0.32269422338E+04 0.  0.
        5    1    3    3  502    0  0.15452299738E+04  0.33713122515E+03  0.14357638124E+04  0.21360788726E+04  0.46999998093E+01 0. -1.
       -5    1    3    3    0  502 -0.15452299738E+04 -0.33713122515E+03  0.67317427037E+03  0.17188888338E+04  0.46999998093E+01 0.  1.
</event>
<event>
 5   0  0.2664083E-06  0.3422611E+04  0.7818609E-02  0.8132379E-01
       -2   -1    0    0    0  501  0.00000000000E+00  0.00000000000E+00  0.11785632193E+04  0.11785632193E+04  0.25500000920E-02 0.  1.
        2   -1    0    0  501    0  0.00000000000E+00  0.00000000000E+00 -0.24848610611E+04  0.24848610611E+04  0.25500000920E-02 0. -1.
    10030    2    1    2    0    0  0.00000000000E+00  0.00000000000E+00 -0.13062978417E+04  0.36634242804E+04  0.34226106128E+04 0.  0.
        2    1    3    3  502    0  0.17069414527E+04  0.11647986536E+03 -0.69246434858E+03  0.18457311712E+04  0.25500000920E-02 0. -1.
       -2    1    3    3    0  502 -0.17069414527E+04 -0.11647986536E+03 -0.61383349315E+03  0.18176931093E+04  0.25500000920E-02 0.  1.
</event>
<event>
 5   0  0.1010855E-06  0.3386610E+04  0.7818609E-02  0.8141200E-01
        1   -1    0    0  501    0  0.00000000000E+00  0.00000000000E+00  0.18285381803E+04  0.18285381803E+04  0.50400001928E-02 0.  1.
       -1   -1    0    0    0  501  0.00000000000E+00  0.00000000000E+00 -0.15680736959E+04  0.15680736959E+04  0.50400001928E-02 0. -1.
    10030    2    1    2    0    0  0.00000000000E+00  0.00000000000E+00  0.26046448442E+03  0.33966118763E+04  0.33866104722E+04 0.  0.
        1    1    3    3  502    0  0.91178573025E+03 -0.12461093755E+04 -0.56690381656E+03  0.16448470236E+04  0.50400001928E-02 0. -1.
       -1    1    3    3    0  502 -0.91178573025E+03  0.12461093755E+04  0.82736830099E+03  0.17517648527E+04  0.50400001928E-02 0.  1.
</event>
<event>
 5   0  0.9232963E-07  0.2179246E+04  0.7818609E-02  0.8527116E-01
        1   -1    0    0  501    0  0.00000000000E+00  0.00000000000E+00  0.16849901739E+04  0.16849901739E+04  0.50400001928E-02 0.  1.
       -1   -1    0    0    0  501  0.00000000000E+00  0.00000000000E+00 -0.70462039680E+03  0.70462039682E+03  0.50400001928E-02 0. -1.
    10030    2    1    2    0    0  0.00000000000E+00  0.00000000000E+00  0.98036977707E+03  0.23896105707E+04  0.21792461494E+04 0.  0.
        3    1    3    3  502    0  0.13427747677E+03 -0.14931348668E+03 -0.68415481567E+03  0.71301667588E+03  0.10100000352E+00 0. -1.
       -3    1    3    3    0  502 -0.13427747677E+03  0.14931348668E+03  0.16645245927E+04  0.16765938948E+04  0.10100000352E+00 0.  1.
</event>
<event>
 5   0  0.2856440E-06  0.3378282E+04  0.7818609E-02  0.8143257E-01
       -2   -1    0    0    0  501  0.00000000000E+00  0.00000000000E+00  0.19244330048E+04  0.19244330048E+04  0.25500000920E-02 0. -1.
        2   -1    0    0  501    0  0.00000000000E+00  0.00000000000E+00 -0.14826169547E+04  0.14826169547E+04  0.25500000920E-02 0.  1.
    10030    2    1    2    0    0  0.00000000000E+00  0.00000000000E+00  0.44181605007E+03  0.34070499595E+04  0.33782818124E+04 0.  0.
        4    1    3    3  502    0  0.65733538892E+03  0.18868753473E+03 -0.13367516355E+04  0.15015323331E+04  0.12699999809E+01 0.  1.
       -4    1    3    3    0  502 -0.65733538892E+03 -0.18868753473E+03  0.17785676856E+04  0.19055176264E+04  0.12699999809E+01 0. -1.
</event>
<event>
 5   0  0.2856440E-06  0.3344704E+04  0.7818609E-02  0.8151613E-01
        2   -1    0    0  501    0  0.00000000000E+00  0.00000000000E+00  0.19666522056E+04  0.19666522056E+04  0.25500000920E-02 0. -1.
       -2   -1    0    0    0  501  0.00000000000E+00  0.00000000000E+00 -0.14220920135E+04  0.14220920135E+04  0.25500000920E-02 0.  1.
    10030    2    1    2    0    0  0.00000000000E+00  0.00000000000E+00  0.54456019207E+03  0.33887442191E+04  0.33447035115E+04 0.  0.
        4    1    3    3  502    0  0.18187122882E+03 -0.88779076575E+02 -0.14096386253E+04  0.14240932326E+04  0.12699999809E+01 0.  1.
       -4    1    3    3    0  502 -0.18187122882E+03  0.88779076575E+02  0.19541988173E+04  0.19646509865E+04  0.12699999809E+01 0. -1.
</event>
<event>
 5   0  0.2767014E-06  0.3376528E+04  0.7818609E-02  0.8143691E-01
       -2   -1    0    0    0  501  0.00000000000E+00  0.00000000000E+00  0.20568329623E+04  0.20568329623E+04  0.25500000920E-02 0.  1.
        2   -1    0    0  501    0  0.00000000000E+00  0.00000000000E+00 -0.13857397587E+04  0.13857397587E+04  0.25500000920E-02 0. -1.
    10030    2    1    2    0    0  0.00000000000E+00  0.00000000000E+00  0.67109320367E+03  0.34425727210E+04  0.33765279284E+04 0.  0.
        1    1    3    3  502    0  0.15438748316E+04 -0.48933298892E+03 -0.15047341630E+03  0.16265418896E+04  0.50400001928E-02 0.  1.
       -1    1    3    3    0  502 -0.15438748316E+04  0.48933298892E+03  0.82156661997E+03  0.18160308314E+04  0.50400001928E-02 0. -1.
</event>
<event>
 5   0  0.2906701E-06  0.3363122E+04  0.7818609E-02  0.8147017E-01
       -2   -1    0    0    0  501  0.00000000000E+00  0.00000000000E+00  0.12663206289E+04  0.12663206289E+04  0.25500000920E-02 0. -1.
        2   -1    0    0  501    0  0.00000000000E+00  0.00000000000E+00 -0.22329637576E+04  0.22329637576E+04  0.25500000920E-02 0.  1.
    10030    2    1    2    0    0  0.00000000000E+00  0.00000000000E+00 -0.96664312867E+03  0.34992843865E+04  0.33631224003E+04 0.  0.
        5    1    3    3  502    0 -0.51389603000E+03  0.12522985063E+04 -0.15213526525E+04  0.20363881413E+04  0.46999998093E+01 0.  1.
       -5    1    3    3    0  502  0.51389603000E+03 -0.12522985063E+04  0.55470952382E+03  0.14628962453E+04  0.46999998093E+01 0. -1.
</event>
<event>
 5   0  0.9232963E-07  0.3455284E+04  0.7818609E-02  0.8124470E-01
       -1   -1    0    0    0  501  0.00000000000E+00  0.00000000000E+00  0.23837226733E+04  0.23837226733E+04  0.50400001928E-02 0. -1.
        1   -1    0    0  501    0  0.00000000000E+00  0.00000000000E+00 -0.12521368851E+04  0.12521368851E+04  0.50400001928E-02 0.  1.
    10030    2    1    2    0    0  0.00000000000E+00  0.00000000000E+00  0.11315857882E+04  0.36358595584E+04  0.34552841175E+04 0.  0.
        3    1    3    3  502    0  0.68331563953E+03 -0.76737971312E+03 -0.89565859662E+03  0.13630833501E+04  0.10100000352E+00 0.  1.
       -3    1    3    3    0  502 -0.68331563953E+03  0.76737971312E+03  0.20272443848E+04  0.22727762083E+04  0.10100000352E+00 0. -1.
</event>
<event>
 5   0  0.1010855E-06  0.3392019E+04  0.7818609E-02  0.8139868E-01
        1   -1    0    0  501    0  0.00000000000E+00  0.00000000000E+00  0.86134071040E+03  0.86134071041E+03  0.50400001928E-02 0. -1.
       -1   -1    0    0    0  501  0.00000000000E+00  0.00000000000E+00 -0.33395004680E+04  0.33395004680E+04  0.50400001928E-02 0.  1.
    10030    2    1    2    0    0  0.00000000000E+00  0.00000000000E+00 -0.24781597576E+04  0.42008411784E+04  0.33920186942E+04 0.  0.
        1    1    3    3  502    0 -0.46912645439E+03  0.16298279777E+04 -0.12324292507E+04  0.20964972514E+04  0.50400001928E-02 0.  1.
       -1    1    3    3    0  502  0.46912645439E+03 -0.16298279777E+04 -0.12457305068E+04  0.21043439269E+04  0.50400001928E-02 0. -1.
</event>
<event>
 5   0  0.2664083E-06  0.3540887E+04  0.7818609E-02  0.8104168E-01
        2   -1    0    0  501    0  0.00000000000E+00  0.00000000000E+00  0.14530352510E+04  0.14530352510E+04  0.25500000920E-02 0. -1.
       -2   -1    0    0    0  501  0.00000000000E+00  0.00000000000E+00 -0.21571880016E+04  0.21571880016E+04  0.25500000920E-02 0.  1.
    10030    2    1    2    0    0  0.00000000000E+00  0.00000000000E+00 -0.70415275062E+03  0.36102232527E+04  0.35408870128E+04 0.  0.
        2    1    3    3  502    0  0.89030347351E+03 -0.21541574100E+03  0.11926573833E+04  0.15038204183E+04  0.25500000920E-02 0. -1.
       -2    1    3    3    0  502 -0.89030347351E+03  0.21541574100E+03 -0.18968101339E+04  0.21064028344E+04  0.25500000920E-02 0.  1.
</event>
<event>
 5   0  0.1003191E-06  0.3295629E+04  0.7818609E-02  0.8164009E-01
       -1   -1    0    0    0  501  0.00000000000E+00  0.00000000000E+00  0.10569736831E+04  0.10569736831E+04  0.50400001928E-02 0. -1.
        1   -1    0    0  501    0  0.00000000000E+00  0.00000000000E+00 -0.25689309201E+04  0.25689309201E+04  0.50400001928E-02 0.  1.
    10030    2    1    2    0    0  0.00000000000E+00  0.00000000000E+00 -0.15119572370E+04  0.36259046031E+04  0.32956288481E+04 0.  0.
        5    1    3    3  502    0  0.15562513422E+04 -0.18170986708E+03 -0.19461641911E+03  0.15788712286E+04  0.46999998093E+01 0. -1.
       -5    1    3    3    0  502 -0.15562513422E+04  0.18170986708E+03 -0.13173408179E+04  0.20470333745E+04  0.46999998093E+01 0.  1.
</event>
<event>
 5   0  0.9232963E-07  0.2935635E+04  0.7818609E-02  0.8262353E-01
        1   -1    0    0  501    0  0.00000000000E+00  0.00000000000E+00  0.71309752415E+03  0.71309752417E+03  0.50400001928E-02 0.  1.
       -1   -1    0    0    0  501  0.00000000000E+00  0.00000000000E+00 -0.30213091045E+04  0.30213091045E+04  0.50400001928E-02 0. -1.
    10030    2    1    2    0    0  0.00000000000E+00  0.00000000000E+00 -0.23082115803E+04  0.37344066286E+04  0.29356348834E+04 0.  0.
        3    1    3    3  502    0  0.69975838914E+03 -0.11375768852E+04 -0.19286696891E+04  0.23459560424E+04  0.10100000352E+00 0. -1.
       -3    1    3    3    0  502 -0.69975838914E+03  0.11375768852E+04 -0.37954189117E+03  0.13884505862E+04  0.10100000352E+00 0.  1.
</event>
<event>
 5   0  0.1010551E-06  0.3366770E+04  0.7818609E-02  0.8146111E-01
       -1   -1    0    0    0  501  0.00000000000E+00  0.00000000000E+00  0.18884319261E+04  0.18884319261E+04  0.50400001928E-02 0. -1.
        1   -1    0    0  501    0  0.00000000000E+00  0.00000000000E+00 -0.15006022435E+04  0.15006022436E+04  0.50400001928E-02 0.  1.
    10030    2    1    2    0    0  0.00000000000E+00  0.00000000000E+00  0.38782968255E+03  0.33890341697E+04  0.33667700754E+04 0.  0.
        2    1    3    3  502    0  0.11553230501E+04  0.38876175181E+03  0.13625738290E+04  0.18282544925E+04  0.25500000920E-02 0. -1.
       -2    1    3    3    0  502 -0.11553230501E+04 -0.38876175181E+03 -0.97474414645E+03  0.15607796772E+04  0.25500000920E-02 0.  1.
</event>
<event>
 5   0  0.2664083E-06  0.3405285E+04  0.7818609E-02  0.8136610E-01
        2   -1    0    0  501    0  0.00000000000E+00  0.00000000000E+00  0.15296138390E+04  0.15296138390E+04  0.25500000920E-02 0. -1.
       -2   -1    0    0    0  501  0.00000000000E+00  0.00000000000E+00 -0.18952443065E+04  0.18952443065E+04  0.25500000920E-02 0.  1.
    10030    2    1    2    0    0  0.00000000000E+00  0.00000000000E+00 -0.36563046755E+03  0.34248581455E+04  0.34052852565E+04 0.  0.
        2    1    3    3  502    0 -0.15701411269E+04 -0.25379450690E+03 -0.79395671315E+03  0.17776732187E+04  0.25500000920E-02 0.  1.
       -2    1    3    3    0  502  0.15701411269E+04  0.25379450690E+03  0.42832624560E+03  0.16471849268E+04  0.25500000920E-02 0. -1.
</event>
<event>
 5   0  0.2848685E-06  0.3187932E+04  0.7818609E-02  0.8192012E-01
       -2   -1    0    0    0  501  0.00000000000E+00  0.00000000000E+00  0.14125495011E+04  0.14125495011E+04  0.25500000920E-02 0.  1.
        2   -1    0    0  501    0  0.00000000000E+00  0.00000000000E+00 -0.17986816218E+04  0.17986816218E+04  0.25500000920E-02 0. -1.
    10030    2    1    2    0    0  0.00000000000E+00  0.00000000000E+00 -0.38613212070E+03  0.32112311228E+04  0.31879315096E+04 0.  0.
        3    1    3    3  502    0  0.80365179959E+03  0.94347570406E+03 -0.12027513129E+04  0.17270244208E+04  0.10100000352E+00 0. -1.
       -3    1    3    3    0  502 -0.80365179959E+03 -0.94347570406E+03  0.81661919218E+03  0.14842067020E+04  0.10100000352E+00 0.  1.
</event>
<event>
 5   0  0.1003191E-06  0.3447618E+04  0.7818609E-02  0.8126317E-01
        1   -1    0    0  501    0  0.00000000000E+00  0.00000000000E+00  0.26802360234E+04  0.26802360234E+04  0.50400001928E-02 0.  1.
       -1   -1    0    0    0  501  0.00000000000E+00  0.00000000000E+00 -0.11086775689E+04  0.11086775689E+04  0.50400001928E-02 0. -1.
    10030    2    1    2    0    0  0.00000000000E+00  0.00000000000E+00  0.15715584545E+04  0.37889135923E+04  0.34476180523E+04 0.  0.
        5    1    3    3  502    0  0.89093724554E+03 -0.30717739789E+03  0.23720546119E+04  0.25524091171E+04  0.46999998093E+01 0.  1.
       -5    1    3    3    0  502 -0.89093724554E+03  0.30717739789E+03 -0.80049615741E+03  0.12365044752E+04  0.46999998093E+01 0. -1.
</event>
<event>
 5   0  0.1010855E-06  0.3288681E+04  0.7818609E-02  0.8165782E-01
       -1   -1    0    0    0  501  0.00000000000E+00  0.00000000000E+00  0.14692185086E+04  0.14692185086E+04  0.50400001928E-02 0.  1.
        1   -1    0    0  501    0  0.00000000000E+00  0.00000000000E+00 -0.18403355359E+04  0.18403355359E+04  0.50400001928E-02 0. -1.
    10030    2    1    2    0    0  0.00000000000E+00  0.00000000000E+00 -0.37111702732E+03  0.33095540446E+04  0.32886806057E+04 0.  0.
        1    1    3    3  502    0  0.10004584590E+04 -0.24141046095E+03  0.11050237701E+04  0.15100575059E+04  0.50400001928E-02 0.  1.
       -1    1    3    3    0  502 -0.10004584590E+04  0.24141046095E+03 -0.14761407974E+04  0.17994965386E+04  0.50400001928E-02 0. -1.
</event>
<event>
 5   0  0.1003191E-06  0.3416341E+04  0.7818609E-02  0.8133907E-01
        1   -1    0    0  501    0  0.00000000000E+00  0.00000000000E+00  0.18267545233E+04  0.18267545233E+04  0.50400001928E-02 0. -1.
       -1   -1    0    0    0  501  0.00000000000E+00  0.00000000000E+00 -0.15972845500E+04  0.15972845500E+04  0.50400001928E-02 0.  1.
    10030    2    1    2    0    0  0.00000000000E+00  0.00000000000E+00  0.22946997327E+03  0.34240390733E+04  0.34163411872E+04 0.  0.
        5    1    3    3  502    0 -0.11372865063E+04  0.35422663991E+03  0.13418006401E+04  0.17942542065E+04  0.46999998093E+01 0. -1.
       -5    1    3    3    0  502  0.11372865063E+04 -0.35422663991E+03 -0.11123306668E+04  0.16297848668E+04  0.46999998093E+01 0.  1.
</event>
<event>
 5   0  0.2906701E-06  0.3427421E+04  0.7818609E-02  0.8131209E-01
        2   -1    0    0  501    0  0.00000000000E+00  0.00000000000E+00  0.26275797038E+04  0.26275797038E+04  0.25500000920E-02 0. -1.
       -2   -1    0    0    0  501  0.00000000000E+00  0.00000000000E+00 -0.11176839487E+04  0.11176839487E+04  0.25500000920E-02 0.  1.
    10030    2    1    2    0    0  0.00000000000E+00  0.00000000000E+00  0.15098957551E+04  0.37452636525E+04  0.34274209890E+04 0.  0.
        5    1    3    3  502    0  0.10140639296E+04  0.11602506638E+04  0.15743348704E+04  0.22029660983E+04  0.46999998093E+01 0. -1.
       -5    1    3    3    0  502 -0.10140639296E+04 -0.11602506638E+04 -0.64439115296E+02  0.15422975542E+04  0.46999998093E+01 0.  1.
</event>
<event>
 5   0  0.2664083E-06  0.3391085E+04  0.7818609E-02  0.8140098E-01
       -2   -1    0    0    0  501  0.00000000000E+00  0.00000000000E+00  0.13120408699E+04  0.13120408699E+04  0.25500000920E-02 0.  1.
        2   -1    0    0  501    0  0.00000000000E+00  0.00000000000E+00 -0.21911388870E+04  0.21911388870E+04  0.25500000920E-02 0. -1.
    10030    2    1    2    0    0  0.00000000000E+00  0.00000000000E+00 -0.87909801710E+03  0.35031797569E+04  0.33910846473E+04 0.  0.
        2    1    3    3  502    0 -0.82525564649E+03 -0.51044658658E+03 -0.18759280387E+04  0.21120389689E+04  0.25500000920E-02 0. -1.
       -2    1    3    3    0  502  0.82525564649E+03  0.51044658658E+03  0.99683002162E+03  0.13911407879E+04  0.25500000920E-02 0.  1.
</event>
<event>
 5   0  0.2664083E-06  0.3397196E+04  0.7818609E-02  0.8138595E-01
       -2   -1    0    0    0  501  0.00000000000E+00  0.00000000000E+00  0.17189555429E+04  0.17189555429E+04  0.25500000920E-02 0.  1.
        2   -1    0    0  501    0  0.00000000000E+00  0.00000000000E+00 -0.16784815570E+04  0.16784815570E+04  0.25500000920E-02 0. -1.
    10030    2    1    2    0    0  0.00000000000E+00  0.00000000000E+00  0.40473985889E+02  0.33974370999E+04  0.33971960062E+04 0.  0.
        2    1    3    3  502    0  0.64188485809E+03 -0.57907645961E+03  0.14824930975E+04  0.17161385437E+04  0.25500000920E-02 0.  1.
       -2    1    3    3    0  502 -0.64188485809E+03  0.57907645961E+03 -0.14420191116E+04  0.16812985562E+04  0.25500000920E-02 0. -1.
</event>
<event>
 5   0  0.2906701E-06  0.3396551E+04  0.7818609E-02  0.8138753E-01
       -2   -1    0    0    0  501  0.00000000000E+00  0.00000000000E+00  0.10845450880E+04  0.10845450880E+04  0.25500000920E-02 0. -1.
        2   -1    0    0  501    0  0.00000000000E+00  0.00000000000E+00 -0.26593085585E+04  0.26593085585E+04  0.25500000920E-02 0.  1.
    10030    2    1    2    0    0  0.00000000000E+00  0.00000000000E+00 -0.15747634705E+04  0.37438536465E+04  0.33965512123E+04 0.  0.
        5    1    3    3  502    0  0.68675378127E+03  0.29448705523E+03  0.89360222865E+03  0.11648606847E+04  0.46999998093E+01 0. -1.
       -5    1    3    3    0  502 -0.68675378127E+03 -0.29448705523E+03 -0.24683656992E+04  0.25789929617E+04  0.46999998093E+01 0.  1.
</event>
<event>
 5   0  0.2767014E-06  0.3286958E+04  0.7818609E-02  0.8166222E-01
       -2   -1    0    0    0  501  0.00000000000E+00  0.00000000000E+00  0.11287579364E+04  0.11287579364E+04  0.25500000920E-02 0.  1.
        2   -1    0    0  501    0  0.00000000000E+00  0.00000000000E+00 -0.23929161796E+04  0.23929161796E+04  0.25500000920E-02 0. -1.
    10030    2    1    2    0    0  0.00000000000E+00  0.00000000000E+00 -0.12641582432E+04  0.35216741160E+04  0.32869579424E+04 0.  0.
        1    1    3    3  502    0 -0.55623924965E+03 -0.58561204231E+03 -0.21656082712E+04  0.23113205643E+04  0.50400001928E-02 0. -1.
       -1    1    3    3    0  502  0.55623924965E+03  0.58561204231E+03  0.90145002801E+03  0.12103535516E+04  0.50400001928E-02 0.  1.
</event>
<event>
 5   0  0.2664083E-06  0.3347511E+04  0.7818609E-02  0.8150910E-01
       -2   -1    0    0    0  501  0.00000000000E+00  0.00000000000E+00  0.11926935350E+04  0.11926935350E+04  0.25500000920E-02 0. -1.
        2   -1    0    0  501    0  0.00000000000E+00  0.00000000000E+00 -0.23488490064E+04  0.23488490064E+04  0.25500000920E-02 0.  1.
    10030    2    1    2    0    0  0.00000000000E+00  0.00000000000E+00 -0.11561554713E+04  0.35415425414E+04  0.33475107317E+04 0.  0.
        2    1    3    3  502    0 -0.37082775157E+03  0.15017476289E+04 -0.12544280063E+04  0.19915694277E+04  0.25500000920E-02 0.  1.
       -2    1    3    3    0  502  0.37082775157E+03 -0.15017476289E+04  0.98272535008E+02  0.15499731137E+04  0.25500000920E-02 0. -1.
</event>
<event>
 5   0  0.2767014E-06  0.3403884E+04  0.7818609E-02  0.8136954E-01
       -2   -1    0    0    0  501  0.00000000000E+00  0.00000000000E+00  0.18277860937E+04  0.18277860937E+04  0.25500000920E-02 0. -1.
        2   -1    0    0  501    0  0.00000000000E+00  0.00000000000E+00 -0.15847624500E+04  0.15847624500E+04  0.25500000920E-02 0.  1.
    10030    2    1    2    0    0  0.00000000000E+00  0.00000000000E+00  0.24302364362E+03  0.34125485437E+04  0.34038841155E+04 0.  0.
        1    1    3    3  502    0 -0.51013210837E+03  0.10702076447E+04  0.13456964241E+04  0.17934542192E+04  0.50400001928E-02 0. -1.
       -1    1    3    3    0  502  0.51013210837E+03 -0.10702076447E+04 -0.11026727804E+04  0.16190943245E+04  0.50400001928E-02 0.  1.
</event>
<event>
 5   0  0.9714317E-07  0.3366657E+04  0.7818609E-02  0.8146139E-01
       -1   -1    0    0    0  501  0.00000000000E+00  0.00000000000E+00  0.13319114991E+04  0.13319114991E+04  0.50400001928E-02 0. -1.
        1   -1    0    0  501    0  0.00000000000E+00  0.00000000000E+00 -0.21274651946E+04  0.21274651946E+04  0.50400001928E-02 0.  1.
    10030    2    1    2    0    0  0.00000000000E+00  0.00000000000E+00 -0.79555369546E+03  0.34593766937E+04  0.33666573075E+04 0.  0.
        4    1    3    3  502    0 -0.18104084626E+03 -0.38948046647E+03  0.12746610442E+04  0.13450774001E+04  0.12699999809E+01 0. -1.
       -4    1    3    3    0  502  0.18104084626E+03  0.38948046647E+03 -0.20702147396E+04  0.21142992936E+04  0.12699999809E+01 0.  1.
</event>
<event>
 5   0  0.1010855E-06  0.3320504E+04  0.7818609E-02  0.8157698E-01
        1   -1    0    0  501    0  0.00000000000E+00  0.00000000000E+00  0.25109990429E+04  0.25109990429E+04  0.50400001928E-02 0. -1.
       -1   -1    0    0    0  501  0.00000000000E+00  0.00000000000E+00 -0.10977450719E+04  0.10977450719E+04  0.50400001928E-02 0.  1.
    10030    2    1    2    0    0  0.00000000000E+00  0.00000000000E+00  0.14132539710E+04  0.36087441148E+04  0.33205040731E+04 0.  0.
        1    1    3    3  502    0 -0.77238688865E+03 -0.61601051091E+03  0.21567645466E+04  0.23722739650E+04  0.50400001928E-02 0. -1.
       -1    1    3    3    0  502  0.77238688865E+03  0.61601051091E+03 -0.74351057559E+03  0.12364701498E+04  0.50400001928E-02 0.  1.
</event>
<event>
 5   0  0.9714317E-07  0.3432411E+04  0.7818609E-02  0.8129997E-01
        1   -1    0    0  501    0  0.00000000000E+00  0.00000000000E+00  0.19338830584E+04  0.19338830584E+04  0.50400001928E-02 0. -1.
       -1   -1    0    0    0  501  0.00000000000E+00  0.00000000000E+00 -0.15230294978E+04  0.15230294978E+04  0.50400001928E-02 0.  1.
    10030    2    1    2    0    0  0.00000000000E+00  0.00000000000E+00  0.41085356061E+03  0.34569125562E+04  0.34324107814E+04 0.  0.
        4    1    3    3  502    0  0.10525172138E+02 -0.29108791837E+03  0.19088060428E+04  0.19309026587E+04  0.12699999809E+01 0. -1.
       -4    1    3    3    0  502 -0.10525172138E+02  0.29108791837E+03 -0.14979524822E+04  0.15260098975E+04  0.12699999809E+01 0.  1.
</event>
<event>
 5   0  0.2856440E-06  0.3398914E+04  0.7818609E-02  0.8138173E-01
        2   -1    0    0  501    0  0.00000000000E+00  0.00000000000E+00  0.26028784143E+04  0.26028784143E+04  0.25500000920E-02 0. -1.
       -2   -1    0    0    0  501  0.00000000000E+00  0.00000000000E+00 -0.11095999900E+04  0.11095999900E+04  0.25500000920E-02 0.  1.
    10030    2    1    2    0    0  0.00000000000E+00  0.00000000000E+00  0.14932784243E+04  0.37124784043E+04  0.33989138633E+04 0.  0.
        4    1    3    3  502    0 -0.41284305008E+03  0.14142062887E+04 -0.17870937761E+03  0.14840341861E+04  0.12699999809E+01 0.  1.
       -4    1    3    3    0  502  0.41284305008E+03 -0.14142062887E+04  0.16719878019E+04  0.22284442182E+04  0.12699999809E+01 0. -1.
</event>
<event>
 5   0  0.1003191E-06  0.3413022E+04  0.7818609E-02  0.8134718E-01
        1   -1    0    0  501    0  0.00000000000E+00  0.00000000000E+00  0.22395856851E+04  0.22395856851E+04  0.50400001928E-02 0.  1.
       -1   -1    0    0    0  501  0.00000000000E+00  0.00000000000E+00 -0.13003208174E+04  0.13003208174E+04  0.50400001928E-02 0. -1.
    10030    2    1    2    0    0  0.00000000000E+00  0.00000000000E+00  0.93926486775E+03  0.35399065025E+04  0.34130220560E+04 0.  0.
        5    1    3    3  502    0  0.12605832569E+04  0.91513523670E+03  0.11924002571E+04  0.19617296226E+04  0.46999998093E+01 0.  1.
       -5    1    3    3    0  502 -0.12605832569E+04 -0.91513523670E+03 -0.25313538930E+03  0.15781768799E+04  0.46999998093E+01 0. -1.
</event>
<event>
 5   0  0.1010551E-06  0.3414135E+04  0.7818609E-02  0.8134446E-01
        1   -1    0    0  501    0  0.00000000000E+00  0.00000000000E+00  0.14628343217E+04  0.14628343217E+04  0.50400001928E-02 0.  1.
       -1   -1    0    0    0  501  0.00000000000E+00  0.00000000000E+00 -0.19920778913E+04  0.19920778913E+04  0.50400001928E-02 0. -1.
    10030    2    1    2    0    0  0.00000000000E+00  0.00000000000E+00 -0.52924356956E+03  0.34549122130E+04  0.34141352702E+04 0.  0.
        2    1    3    3  502    0 -0.10267224330E+03 -0.16626502623E+04 -0.64208138216E+03  0.17852775654E+04  0.25500000920E-02 0. -1.
       -2    1    3    3    0  502  0.10267224330E+03  0.16626502623E+04  0.11283781259E+03  0.16696346475E+04  0.25500000920E-02 0.  1.
</event>
<event>
 5   0  0.9714317E-07  0.3415967E+04  0.7818609E-02  0.8133999E-01
        1   -1    0    0  501    0  0.00000000000E+00  0.00000000000E+00  0.11285068251E+04  0.11285068251E+04  0.50400001928E-02 0.  1.
       -1   -1    0    0    0  501  0.00000000000E+00  0.00000000000E+00 -0.25850148385E+04  0.25850148385E+04  0.50400001928E-02 0. -1.
    10030    2    1    2    0    0  0.00000000000E+00  0.00000000000E+00 -0.14565080134E+04  0.37135216636E+04  0.34159665621E+04 0.  0.
        4    1    3    3  502    0  0.13501075082E+03  0.26483874690E+03  0.11001677276E+04  0.11396219138E+04  0.12699999809E+01 0.  1.
       -4    1    3    3    0  502 -0.13501075082E+03 -0.26483874690E+03 -0.25566757410E+04  0.25738997498E+04  0.12699999809E+01 0. -1.
</event>
<event>
 5   0  0.9714317E-07  0.3418965E+04  0.7818609E-02  0.8133267E-01
       -1   -1    0    0    0  501  0.00000000000E+00  0.00000000000E+00  0.18771732908E+04  0.18771732908E+04  0.50400001928E-02 0.  1.
        1   -1    0    0  501    0  0.00000000000E+00  0.00000000000E+00 -0.15567713559E+04  0.15567713559E+04  0.50400001928E-02 0. -1.
    10030    2    1    2    0    0  0.00000000000E+00  0.00000000000E+00  0.32040193493E+03  0.34339446467E+04  0.34189645270E+04 0.  0.
        4    1    3    3  502    0 -0.38066122554E+03 -0.32972937445E+03  0.18009753377E+04  0.18700636912E+04  0.12699999809E+01 0.  1.
       -4    1    3    3    0  502  0.38066122554E+03  0.32972937445E+03 -0.14805734028E+04  0.15638809555E+04  0.12699999809E+01 0. -1.
</event>
<event>
 5   0  0.2848685E-06  0.3453677E+04  0.7818609E-02  0.8124856E-01
        2   -1    0    0  501    0  0.00000000000E+00  0.00000000000E+00  0.21544860280E+04  0.21544860280E+04  0.25500000920E-02 0.  1.
       -2   -1    0    0    0  501  0.00000000000E+00  0.00000000000E+00 -0.13840757163E+04  0.13840757163E+04  0.25500000920E-02 0. -1.
    10030    2    1    2    0    0  0.00000000000E+00  0.00000000000E+00  0.77041031173E+03  0.35385617443E+04  0.34536773401E+04 0.  0.
        3    1    3    3  502    0  0.15879516788E+04  0.25824238854E+01 -0.30998031070E+03  0.16179261437E+04  0.10100000352E+00 0. -1.
       -3    1    3    3    0  502 -0.15879516788E+04 -0.25824238854E+01  0.10803906224E+04  0.19206356006E+04  0.10100000352E+00 0.  1.
</event>
<event>
 5   0  0.1010551E-06  0.3380229E+04  0.7818609E-02  0.8142776E-01
        1   -1    0    0  501    0  0.00000000000E+00  0.00000000000E+00  0.18760801130E+04  0.18760801130E+04  0.50400001928E-02 0.  1.
       -1   -1    0    0    0  501  0.00000000000E+00  0.00000000000E+00 -0.15225826939E+04  0.15225826939E+04  0.50400001928E-02 0. -1.
    10030    2    1    2    0    0  0.00000000000E+00  0.00000000000E+00  0.35349741904E+03  0.33986628069E+04  0.33802290529E+04 0.  0.
        2    1    3    3  502    0 -0.14022391193E+04  0.41292474775E+03 -0.67623242331E+03  0.16106122083E+04  0.25500000920E-02 0.  1.
       -2    1    3    3    0  502  0.14022391193E+04 -0.41292474775E+03  0.10297298424E+04  0.17880505986E+04  0.25500000920E-02 0. -1.
</event>
<event>
 5   0  0.2848685E-06  0.3375489E+04  0.7818609E-02  0.8143949E-01
        2   -1    0    0  501    0  0.00000000000E+00  0.00000000000E+00  0.23872259458E+04  0.23872259458E+04  0.25500000920E-02 0.  1.
       -2   -1    0    0    0  501  0.00000000000E+00  0.00000000000E+00 -0.11932178830E+04  0.11932178830E+04  0.25500000920E-02 0. -1.
    10030    2    1    2    0    0  0.00000000000E+00  0.00000000000E+00  0.11940080628E+04  0.35804438288E+04  0.33754885213E+04 0.  0.
        3    1    3    3  502    0  0.14313833860E+04  0.60045673517E+03  0.12998644473E+04  0.20246121307E+04  0.10100000352E+00 0.  1.
       -3    1    3    3    0  502 -0.14313833860E+04 -0.60045673517E+03 -0.10585638451E+03  0.15558316981E+04  0.10100000352E+00 0. -1.
</event>
<event>
 5   0  0.9070500E-07  0.3199033E+04  0.7818609E-02  0.8189073E-01
        3   -1    0    0  501    0  0.00000000000E+00  0.00000000000E+00  0.13140354513E+04  0.13140354552E+04  0.10100000352E+00 0.  1.
       -3   -1    0    0    0  501  0.00000000000E+00  0.00000000000E+00 -0.19470192576E+04  0.19470192602E+04  0.10100000352E+00 0. -1.
    10030    2    1    2    0    0  0.00000000000E+00  0.00000000000E+00 -0.63298380631E+03  0.32610547154E+04  0.31990325659E+04 0.  0.
        2    1    3    3  502    0  0.56074937002E+03 -0.31118948278E+03  0.11772411900E+04  0.13405877702E+04  0.25500000920E-02 0.  1.
       -2    1    3    3    0  502 -0.56074937002E+03  0.31118948278E+03 -0.18102249963E+04  0.19204669452E+04  0.25500000920E-02 0. -1.
</event>
<event>
 5   0  0.2848685E-06  0.3522129E+04  0.7818609E-02  0.8108566E-01
        2   -1    0    0  501    0  0.00000000000E+00  0.00000000000E+00  0.27061708163E+04  0.27061708163E+04  0.25500000920E-02 0.  1.
       -2   -1    0    0    0  501  0.00000000000E+00  0.00000000000E+00 -0.11460279401E+04  0.11460279401E+04  0.25500000920E-02 0. -1.
    10030    2    1    2    0    0  0.00000000000E+00  0.00000000000E+00  0.15601428762E+04  0.38521987564E+04  0.35221285417E+04 0.  0.
        3    1    3    3  502    0  0.32002255870E+03 -0.17311494179E+04  0.73049580449E+03  0.19060212159E+04  0.10100000352E+00 0. -1.
       -3    1    3    3    0  502 -0.32002255870E+03  0.17311494179E+04  0.82964707171E+03  0.19461775404E+04  0.10100000352E+00 0.  1.
</event>
<event>
 5   0  0.9232963E-07  0.2561466E+04  0.7818609E-02  0.8381409E-01
        1   -1    0    0  501    0  0.00000000000E+00  0.00000000000E+00  0.87429870981E+03  0.87429870983E+03  0.50400001928E-02 0.  1.
       -1   -1    0    0    0  501  0.00000000000E+00  0.00000000000E+00 -0.18761058257E+04  0.18761058258E+04  0.50400001928E-02 0. -1.
    10030    2    1    2    0    0  0.00000000000E+00  0.00000000000E+00 -0.10018071159E+04  0.27504045356E+04  0.25614659107E+04 0.  0.
        3    1    3    3  502    0 -0.13332657047E+03 -0.10463507656E+04 -0.12808798017E+04  0.16593007490E+04  0.10100000352E+00 0. -1.
       -3    1    3    3    0  502  0.13332657047E+03  0.10463507656E+04  0.27907268573E+03  0.10911037866E+04  0.10100000352E+00 0.  1.
</event>
<event>
 5   0  0.1003191E-06  0.3436511E+04  0.7818609E-02  0.8129003E-01
       -1   -1    0    0    0  501  0.00000000000E+00  0.00000000000E+00  0.18899591625E+04  0.18899591625E+04  0.50400001928E-02 0.  1.
        1   -1    0    0  501    0  0.00000000000E+00  0.00000000000E+00 -0.15621512607E+04  0.15621512607E+04  0.50400001928E-02 0. -1.
    10030    2    1    2    0    0  0.00000000000E+00  0.00000000000E+00  0.32780790173E+03  0.34521104232E+04  0.34365110728E+04 0.  0.
        5    1    3    3  502    0  0.12703798448E+04 -0.10077799083E+04  0.73472160055E+03  0.17802593109E+04  0.46999998093E+01 0. -1.
       -5    1    3    3    0  502 -0.12703798448E+04  0.10077799083E+04 -0.40691369882E+03  0.16718511123E+04  0.46999998093E+01 0.  1.
</event>
<event>
 5   0  0.2906701E-06  0.3390237E+04  0.7818609E-02  0.8140307E-01
        2   -1    0    0  501    0  0.00000000000E+00  0.00000000000E+00  0.17830845516E+04  0.17830845517E+04  0.25500000920E-02 0.  1.
       -2   -1    0    0    0  501  0.00000000000E+00  0.00000000000E+00 -0.16114916597E+04  0.16114916597E+04  0.25500000920E-02 0. -1.
    10030    2    1    2    0    0  0.00000000000E+00  0.00000000000E+00  0.17159289194E+03  0.33945762114E+04  0.33902365012E+04 0.  0.
        5    1    3    3  502    0  0.15455999089E+03 -0.70089336509E+03  0.16234260505E+04  0.17750139525E+04  0.46999998093E+01 0.  1.
       -5    1    3    3    0  502 -0.15455999089E+03  0.70089336509E+03 -0.14518331586E+04  0.16195622589E+04  0.46999998093E+01 0. -1.
</event>
<event>
 5   0  0.9232963E-07  0.3393591E+04  0.7818609E-02  0.8139481E-01
       -1   -1    0    0    0  501  0.00000000000E+00  0.00000000000E+00  0.14121779193E+04  0.14121779194E+04  0.50400001928E-02 0.  1.
        1   -1    0    0  501    0  0.00000000000E+00  0.00000000000E+00 -0.20387766502E+04  0.20387766503E+04  0.50400001928E-02 0. -1.
    10030    2    1    2    0    0  0.00000000000E+00  0.00000000000E+00 -0.62659873090E+03  0.34509545696E+04  0.33935912352E+04 0.  0.
        3    1    3    3  502    0  0.63651851693E+03  0.51916911564E+03  0.11965275940E+04  0.14513341057E+04  0.10100000352E+00 0.  1.
       -3    1    3    3    0  502 -0.63651851693E+03 -0.51916911564E+03 -0.18231263249E+04  0.19996204639E+04  0.10100000352E+00 0. -1.
</event>
<event>
 5   0  0.1010551E-06  0.2990888E+04  0.7818609E-02  0.8246338E-01
       -1   -1    0    0    0  501  0.00000000000E+00  0.00000000000E+00  0.98040021168E+03  0.98040021170E+03  0.50400001928E-02 0.  1.
        1   -1    0    0  501    0  0.00000000000E+00  0.00000000000E+00 -0.22810607227E+04  0.22810607227E+04  0.50400001928E-02 0. -1.
    10030    2    1    2    0    0  0.00000000000E+00  0.00000000000E+00 -0.13006605110E+04  0.32614609344E+04  0.29908877715E+04 0.  0.
        2    1    3    3  502    0 -0.40115106980E+03 -0.83285203124E+03  0.63150652703E+03  0.11195379317E+04  0.25500000920E-02 0.  1.
       -2    1    3    3    0  502  0.40115106980E+03  0.83285203124E+03 -0.19321670380E+04  0.21419230027E+04  0.25500000920E-02 0. -1.
</event>
<event>
 5   0  0.2664083E-06  0.3438709E+04  0.7818609E-02  0.8128471E-01
       -2   -1    0    0    0  501  0.00000000000E+00  0.00000000000E+00  0.26988489086E+04  0.26988489086E+04  0.25500000920E-02 0.  1.
        2   -1    0    0  501    0  0.00000000000E+00  0.00000000000E+00 -0.10953484515E+04  0.10953484515E+04  0.25500000920E-02 0. -1.
    10030    2    1    2    0    0  0.00000000000E+00  0.00000000000E+00  0.16035004572E+04  0.37941973601E+04  0.34387090443E+04 0.  0.
        2    1    3    3  502    0 -0.16455666196E+02  0.58393807310E+03 -0.98249337137E+03  0.11430431693E+04  0.25500000920E-02 0. -1.
       -2    1    3    3    0  502  0.16455666196E+02 -0.58393807310E+03  0.25859938285E+04  0.26511541908E+04  0.25500000920E-02 0.  1.
</event>
<event>
 5   0  0.2664083E-06  0.3316962E+04  0.7818609E-02  0.8158593E-01
        2   -1    0    0  501    0  0.00000000000E+00  0.00000000000E+00  0.24052385978E+04  0.24052385978E+04  0.25500000920E-02 0. -1.
       -2   -1    0    0    0  501  0.00000000000E+00  0.00000000000E+00 -0.11435704842E+04  0.11435704842E+04  0.25500000920E-02 0.  1.
    10030    2    1    2    0    0  0.00000000000E+00  0.00000000000E+00  0.12616681136E+04  0.35488090820E+04  0.33169623862E+04 0.  0.
        2    1    3    3  502    0  0.52534556584E+03 -0.11520805873E+04 -0.51514642717E+03  0.13669870096E+04  0.25500000920E-02 0.  1.
       -2    1    3    3    0  502 -0.52534556584E+03  0.11520805873E+04  0.17768145407E+04  0.21818220723E+04  0.25500000920E-02 0. -1.
</event>
<event>
 5   0  0.2856440E-06  0.3375435E+04  0.7818609E-02  0.8143962E-01
        2   -1    0    0  501    0  0.00000000000E+00  0.00000000000E+00  0.21312748577E+04  0.21312748577E+04  0.25500000920E-02 0.  1.
       -2   -1    0    0    0  501  0.00000000000E+00  0.00000000000E+00 -0.13364721698E+04  0.13364721698E+04  0.25500000920E-02 0. -1.
    10030    2    1    2    0    0  0.00000000000E+00  0.00000000000E+00  0.79480268790E+03  0.34677470275E+04  0.33754345104E+04 0.  0.
        4    1    3    3  502    0  0.14858172677E+03  0.45397034070E+03 -0.12655777625E+04  0.13527210671E+04  0.12699999809E+01 0. -1.
       -4    1    3    3    0  502 -0.14858172677E+03 -0.45397034070E+03  0.20603804504E+04  0.21150259603E+04  0.12699999809E+01 0.  1.
</event>
<event>
 5   0  0.2767014E-06  0.3384673E+04  0.7818609E-02  0.8141678E-01
       -2   -1    0    0    0  501  0.00000000000E+00  0.00000000000E+00  0.16404951428E+04  0.16404951428E+04  0.25500000920E-02 0.  1.
        2   -1    0    0  501    0  0.00000000000E+00  0.00000000000E+00 -0.17458166015E+04  0.17458166015E+04  0.25500000920E-02 0. -1.
    10030    2    1    2    0    0  0.00000000000E+00  0.00000000000E+00 -0.10532145875E+03  0.33863117443E+04  0.33846734880E+04 0.  0.
        1    1    3    3  502    0 -0.12558786803E+04  0.11314827206E+04  0.28120213912E+02  0.16906434139E+04  0.50400001928E-02 0.  1.
       -1    1    3    3    0  502  0.12558786803E+04 -0.11314827206E+04 -0.13344167266E+03  0.16956683304E+04  0.50400001928E-02 0. -1.
</event>
<event>
 5   0  0.1010551E-06  0.3336621E+04  0.7818609E-02  0.8153639E-01
       -1   -1    0    0    0  501  0.00000000000E+00  0.00000000000E+00  0.10201190317E+04  0.10201190317E+04  0.50400001928E-02 0.  1.
        1   -1    0    0  501    0  0.00000000000E+00  0.00000000000E+00 -0.27283678530E+04  0.27283678530E+04  0.50400001928E-02 0. -1.
    10030    2    1    2    0    0  0.00000000000E+00  0.00000000000E+00 -0.17082488213E+04  0.37484868848E+04  0.33366210288E+04 0.  0.
        2    1    3    3  502    0 -0.14175330409E+04  0.12608492470E+03  0.12395251558E+03  0.14285172580E+04  0.25500000920E-02 0.  1.
       -2    1    3    3    0  502  0.14175330409E+04 -0.12608492470E+03 -0.18322013369E+04  0.23199696268E+04  0.25500000920E-02 0. -1.
</event>
<event>
 5   0  0.2664083E-06  0.3340795E+04  0.7818609E-02  0.8152592E-01
        2   -1    0    0  501    0  0.00000000000E+00  0.00000000000E+00  0.10830762295E+04  0.10830762295E+04  0.25500000920E-02 0. -1.
       -2   -1    0    0    0  501  0.00000000000E+00  0.00000000000E+00 -0.25762059452E+04  0.25762059452E+04  0.25500000920E-02 0.  1.
    10030    2    1    2    0    0  0.00000000000E+00  0.00000000000E+00 -0.14931297157E+04  0.36592821747E+04  0.33407947687E+04 0.  0.
        2    1    3    3  502    0 -0.50083837678E+03  0.73192431016E+03  0.80389225872E+03  0.11969941684E+04  0.25500000920E-02 0. -1.
       -2    1    3    3    0  502  0.50083837678E+03 -0.73192431016E+03 -0.22970219744E+04  0.24622880064E+04  0.25500000920E-02 0.  1.
</event>
<event>
 5   0  0.2767014E-06  0.3407605E+04  0.7818609E-02  0.8136042E-01
        2   -1    0    0  501    0  0.00000000000E+00  0.00000000000E+00  0.22251400059E+04  0.22251400059E+04  0.25500000920E-02 0. -1.
       -2   -1    0    0    0  501  0.00000000000E+00  0.00000000000E+00 -0.13046113049E+04  0.13046113049E+04  0.25500000920E-02 0.  1.
    10030    2    1    2    0    0  0.00000000000E+00  0.00000000000E+00  0.92052870101E+03  0.35297513108E+04  0.34076049106E+04 0.  0.
        1    1    3    3  502    0 -0.50482493359E+03 -0.45094242777E+03 -0.11593503210E+04  0.13424941168E+04  0.50400001928E-02 0.  1.
       -1    1    3    3    0  502  0.50482493359E+03  0.45094242777E+03  0.20798790220E+04  0.21872571940E+04  0.50400001928E-02 0. -1.
</event>
<event>
 5   0  0.9232963E-07  0.3138459E+04  0.7818609E-02  0.8205262E-01
       -1   -1    0    0    0  501  0.00000000000E+00  0.00000000000E+00  0.79223821721E+03  0.79223821723E+03  0.50400001928E-02 0. -1.
        1   -1    0    0  501    0  0.00000000000E+00  0.00000000000E+00 -0.31082588917E+04  0.31082588917E+04  0.50400001928E-02 0.  1.
    10030    2    1    2    0    0  0.00000000000E+00  0.00000000000E+00 -0.23160206745E+04  0.39004971089E+04  0.31384591653E+04 0.  0.
        3    1    3    3  502    0 -0.45153668858E+03 -0.49940615441E+02 -0.30247460916E+04  0.30586710145E+04  0.10100000352E+00 0.  1.
       -3    1    3    3    0  502  0.45153668858E+03  0.49940615441E+02  0.70872541710E+03  0.84182609442E+03  0.10100000352E+00 0. -1.
</event>
<event>
 5   0  0.2906701E-06  0.3410405E+04  0.7818609E-02  0.8135357E-01
        2   -1    0    0  501    0  0.00000000000E+00  0.00000000000E+00  0.19887690065E+04  0.19887690065E+04  0.25500000920E-02 0. -1.
       -2   -1    0    0    0  501  0.00000000000E+00  0.00000000000E+00 -0.14620679231E+04  0.14620679231E+04  0.25500000920E-02 0.  1.
    10030    2    1    2    0    0  0.00000000000E+00  0.00000000000E+00  0.52670108339E+03  0.34508369295E+04  0.34104048855E+04 0.  0.
        5    1    3    3  502    0 -0.15019017053E+04  0.10364114451E+03 -0.54691959847E+03  0.16017469702E+04  0.46999998093E+01 0.  1.
       -5    1    3    3    0  502  0.15019017053E+04 -0.10364114451E+03  0.10736206819E+04  0.18490899594E+04  0.46999998093E+01 0. -1.
</event>
<event>
 5   0  0.9714317E-07  0.3406236E+04  0.7818609E-02  0.8136377E-01
       -1   -1    0    0    0  501  0.00000000000E+00  0.00000000000E+00  0.25149706466E+04  0.25149706466E+04  0.50400001928E-02 0.  1.
        1   -1    0    0  501    0  0.00000000000E+00  0.00000000000E+00 -0.11533380849E+04  0.11533380849E+04  0.50400001928E-02 0. -1.
    10030    2    1    2    0    0  0.00000000000E+00  0.00000000000E+00  0.13616325617E+04  0.36683087316E+04  0.34062362979E+04 0.  0.
        4    1    3    3  502    0 -0.16115277341E+02 -0.15008745313E+04 -0.18591942904E+03  0.15124323813E+04  0.12699999809E+01 0. -1.
       -4    1    3    3    0  502  0.16115277341E+02  0.15008745313E+04  0.15475519907E+04  0.21558763503E+04  0.12699999809E+01 0.  1.
</event>
<event>
 5   0  0.2767014E-06  0.3418372E+04  0.7818609E-02  0.8133412E-01
        2   -1    0    0  501    0  0.00000000000E+00  0.00000000000E+00  0.19753952304E+04  0.19753952304E+04  0.25500000920E-02 0.  1.
       -2   -1    0    0    0  501  0.00000000000E+00  0.00000000000E+00 -0.14788521297E+04  0.14788521297E+04  0.25500000920E-02 0. -1.
    10030    2    1    2    0    0  0.00000000000E+00  0.00000000000E+00  0.49654310076E+03  0.34542473601E+04  0.34183723866E+04 0.  0.
        1    1    3    3  502    0  0.62199808029E+03  0.10870369234E+04  0.14235714592E+04  0.18960713552E+04  0.50400001928E-02 0.  1.
       -1    1    3    3    0  502 -0.62199808029E+03 -0.10870369234E+04 -0.92702835843E+03  0.15581760048E+04  0.50400001928E-02 0. -1.
</event>
<event>
 5   0  0.2664083E-06  0.3426712E+04  0.7818609E-02  0.8131381E-01
        2   -1    0    0  501    0  0.00000000000E+00  0.00000000000E+00  0.23908356817E+04  0.23908356817E+04  0.25500000920E-02 0.  1.
       -2   -1    0    0    0  501  0.00000000000E+00  0.00000000000E+00 -0.12278506372E+04  0.12278506372E+04  0.25500000920E-02 0. -1.
    10030    2    1    2    0    0  0.00000000000E+00  0.00000000000E+00  0.11629850445E+04  0.36186863189E+04  0.34267121940E+04 0.  0.
        2    1    3    3  502    0  0.11606284135E+04  0.32910916807E+03 -0.70330929620E+03  0.13964294199E+04  0.25500000920E-02 0. -1.
       -2    1    3    3    0  502 -0.11606284135E+04 -0.32910916807E+03  0.18662943407E+04  0.22222568990E+04  0.25500000920E-02 0.  1.
</event>
<event>
 5   0  0.1003191E-06  0.3368947E+04  0.7818609E-02  0.8145570E-01
        1   -1    0    0  501    0  0.00000000000E+00  0.00000000000E+00  0.22359388899E+04  0.22359388899E+04  0.50400001928E-02 0. -1.
       -1   -1    0    0    0  501  0.00000000000E+00  0.00000000000E+00 -0.12690200242E+04  0.12690200242E+04  0.50400001928E-02 0.  1.
    10030    2    1    2    0    0  0.00000000000E+00  0.00000000000E+00  0.96691886568E+03  0.35049589141E+04  0.33689471496E+04 0.  0.
        5    1    3    3  502    0  0.63702758094E+03 -0.78452689280E+03 -0.91859120764E+03  0.13656934067E+04  0.46999998093E+01 0.  1.
       -5    1    3    3    0  502 -0.63702758094E+03  0.78452689280E+03  0.18855100733E+04  0.21392655074E+04  0.46999998093E+01 0. -1.
</event>
<event>
 5   0  0.2664083E-06  0.2494199E+04  0.7818609E-02  0.8405055E-01
       -2   -1    0    0    0  501  0.00000000000E+00  0.00000000000E+00  0.12945343909E+04  0.12945343909E+04  0.25500000920E-02 0. -1.
        2   -1    0    0  501    0  0.00000000000E+00  0.00000000000E+00 -0.12014024268E+04  0.12014024268E+04  0.25500000920E-02 0.  1.
    10030    2    1    2    0    0  0.00000000000E+00  0.00000000000E+00  0.93131964109E+02  0.24959368177E+04  0.24941986759E+04 0.  0.
        2    1    3    3  502    0  0.74837408112E+03 -0.49343120098E+02  0.10436328737E+04  0.12851723946E+04  0.25500000920E-02 0. -1.
       -2    1    3    3    0  502 -0.74837408112E+03  0.49343120098E+02 -0.95050090963E+03  0.12107644230E+04  0.25500000920E-02 0.  1.
</event>
<event>
 5   0  0.2906701E-06  0.3421975E+04  0.7818609E-02  0.8132534E-01
        2   -1    0    0  501    0  0.00000000000E+00  0.00000000000E+00  0.19142152421E+04  0.19142152421E+04  0.25500000920E-02 0.  1.
       -2   -1    0    0    0  501  0.00000000000E+00  0.00000000000E+00 -0.15293363591E+04  0.15293363591E+04  0.25500000920E-02 0. -1.
    10030    2    1    2    0    0  0.00000000000E+00  0.00000000000E+00  0.38487888301E+03  0.34435516012E+04  0.34219754346E+04 0.  0.
        5    1    3    3  502    0  0.40308068097E+03 -0.67297737977E+03  0.17225807475E+04  0.18927966375E+04  0.46999998093E+01 0.  1.
       -5    1    3    3    0  502 -0.40308068097E+03  0.67297737977E+03 -0.13377018645E+04  0.15507549637E+04  0.46999998093E+01 0. -1.
</event>
<event>
 5   0  0.9714317E-07  0.3523387E+04  0.7818609E-02  0.8108270E-01
        1   -1    0    0  501    0  0.00000000000E+00  0.00000000000E+00  0.27771165354E+04  0.27771165354E+04  0.50400001928E-02 0. -1.
       -1   -1    0    0    0  501  0.00000000000E+00  0.00000000000E+00 -0.11175491424E+04  0.11175491424E+04  0.50400001928E-02 0.  1.
    10030    2    1    2    0    0  0.00000000000E+00  0.00000000000E+00  0.16595673930E+04  0.38946656778E+04  0.35233871218E+04 0.  0.
        4    1    3    3  502    0 -0.94105926609E+03  0.25365642889E+03 -0.79238199493E+03  0.12561070675E+04  0.12699999809E+01 0.  1.
       -4    1    3    3    0  502  0.94105926609E+03 -0.25365642889E+03  0.24519493880E+04  0.26385586104E+04  0.12699999809E+01 0. -1.
</event>
<event>
 5   0  0.2767014E-06  0.3193003E+04  0.7818609E-02  0.8190668E-01
        2   -1    0    0  501    0  0.00000000000E+00  0.00000000000E+00  0.23441538056E+04  0.23441538056E+04  0.25500000920E-02 0. -1.
       -2   -1    0    0    0  501  0.00000000000E+00  0.00000000000E+00 -0.10873077549E+04  0.10873077549E+04  0.25500000920E-02 0.  1.
    10030    2    1    2    0    0  0.00000000000E+00  0.00000000000E+00  0.12568460507E+04  0.34314615605E+04  0.31930027319E+04 0.  0.
        1    1    3    3  502    0  0.11719295692E+04  0.87003672374E+03 -0.66750501143E+02  0.14611086357E+04  0.50400001928E-02 0.  1.
       -1    1    3    3    0  502 -0.11719295692E+04 -0.87003672374E+03  0.13235965519E+04  0.19703529248E+04  0.50400001928E-02 0. -1.
</event>
<event>
 5   0  0.9070500E-07  0.3374982E+04  0.7818609E-02  0.8144074E-01
        3   -1    0    0  501    0  0.00000000000E+00  0.00000000000E+00  0.14235882208E+04  0.14235882244E+04  0.10100000352E+00 0. -1.
       -3   -1    0    0    0  501  0.00000000000E+00  0.00000000000E+00 -0.20003159985E+04  0.20003160010E+04  0.10100000352E+00 0.  1.
    10030    2    1    2    0    0  0.00000000000E+00  0.00000000000E+00 -0.57672777772E+03  0.34239042254E+04  0.33749822541E+04 0.  0.
        1    1    3    3  502    0  0.12902231812E+04  0.43605240463E+03  0.72247725773E+03  0.15416844505E+04  0.50400001928E-02 0. -1.
       -1    1    3    3    0  502 -0.12902231812E+04 -0.43605240463E+03 -0.12992050354E+04  0.18822197749E+04  0.50400001928E-02 0.  1.
</event>
<event>
 5   0  0.9232963E-07  0.3522235E+04  0.7818609E-02  0.8108541E-01
        1   -1    0    0  501    0  0.00000000000E+00  0.00000000000E+00  0.24320303950E+04  0.24320303950E+04  0.50400001928E-02 0.  1.
       -1   -1    0    0    0  501  0.00000000000E+00  0.00000000000E+00 -0.12752860453E+04  0.12752860453E+04  0.50400001928E-02 0. -1.
    10030    2    1    2    0    0  0.00000000000E+00  0.00000000000E+00  0.11567443497E+04  0.37073164403E+04  0.35222347591E+04 0.  0.
        3    1    3    3  502    0  0.76616078739E+03  0.22701573470E+02  0.22472534339E+04  0.23743769119E+04  0.10100000352E+00 0.  1.
       -3    1    3    3    0  502 -0.76616078739E+03 -0.22701573470E+02 -0.10905090841E+04  0.13329395284E+04  0.10100000352E+00 0. -1.
</event>
<event>
 5   0  0.9232963E-07  0.3393188E+04  0.7818609E-02  0.8139580E-01
        1   -1    0    0  501    0  0.00000000000E+00  0.00000000000E+00  0.21367408162E+04  0.21367408162E+04  0.50400001928E-02 0.  1.
       -1   -1    0    0    0  501  0.00000000000E+00  0.00000000000E+00 -0.13471132147E+04  0.13471132147E+04  0.50400001928E-02 0. -1.
    10030    2    1    2    0    0  0.00000000000E+00  0.00000000000E+00  0.78962760146E+03  0.34838540309E+04  0.33931883472E+04 0.  0.
        3    1    3    3  502    0 -0.29042576134E+03  0.61839483452E+03  0.19892646924E+04  0.21033148411E+04  0.10100000352E+00 0.  1.
       -3    1    3    3    0  502  0.29042576134E+03 -0.61839483452E+03 -0.11996370910E+04  0.13805391897E+04  0.10100000352E+00 0. -1.
</event>
<event>
 5   0  0.1010855E-06  0.3280777E+04  0.7818609E-02  0.8167804E-01
       -1   -1    0    0    0  501  0.00000000000E+00  0.00000000000E+00  0.14288763046E+04  0.14288763046E+04  0.50400001928E-02 0.  1.
        1   -1    0    0  501    0  0.00000000000E+00  0.00000000000E+00 -0.18832100600E+04  0.18832100600E+04  0.50400001928E-02 0. -1.
    10030    2    1    2    0    0  0.00000000000E+00  0.00000000000E+00 -0.45433375539E+03  0.33120863646E+04  0.32807768783E+04 0.  0.
        1    1    3    3  502    0 -0.10764035052E+03  0.97615322602E+03 -0.15536363636E+04  0.18380009565E+04  0.50400001928E-02 0. -1.
       -1    1    3    3    0  502  0.10764035052E+03 -0.97615322602E+03  0.10993026083E+04  0.14740854081E+04  0.50400001928E-02 0.  1.
</event>
<event>
 5   0  0.2848685E-06  0.3289848E+04  0.7818609E-02  0.8165483E-01
        2   -1    0    0  501    0  0.00000000000E+00  0.00000000000E+00  0.21145362500E+04  0.21145362500E+04  0.25500000920E-02 0.  1.
       -2   -1    0    0    0  501  0.00000000000E+00  0.00000000000E+00 -0.12796067274E+04  0.12796067274E+04  0.25500000920E-02 0. -1.
    10030    2    1    2    0    0  0.00000000000E+00  0.00000000000E+00  0.83492952258E+03  0.33941429774E+04  0.32898479058E+04 0.  0.
        3    1    3    3  502    0  0.66165541834E+03  0.14782574300E+04  0.71423271451E+03  0.17700738128E+04  0.10100000352E+00 0. -1.
       -3    1    3    3    0  502 -0.66165541834E+03 -0.14782574300E+04  0.12069680808E+03  0.16240691647E+04  0.10100000352E+00 0.  1.
</event>
<event>
 5   0  0.2848685E-06  0.3069314E+04  0.7818609E-02  0.8224210E-01
       -2   -1    0    0    0  501  0.00000000000E+00  0.00000000000E+00  0.92289992911E+03  0.92289992911E+03  0.25500000920E-02 0.  1.
        2   -1    0    0  501    0  0.00000000000E+00  0.00000000000E+00 -0.25519249621E+04  0.25519249621E+04  0.25500000920E-02 0. -1.
    10030    2    1    2    0    0  0.00000000000E+00  0.00000000000E+00 -0.16290250330E+04  0.34748248912E+04  0.30693135171E+04 0.  0.
        3    1    3    3  502    0  0.13667640806E+04 -0.19085033170E+03 -0.54471350322E+02  0.13810992141E+04  0.10100000352E+00 0.  1.
       -3    1    3    3    0  502 -0.13667640806E+04  0.19085033170E+03 -0.15745536827E+04  0.20937256771E+04  0.10100000352E+00 0. -1.
</event>
<event>
 5   0  0.2906701E-06  0.2869454E+04  0.7818609E-02  0.8282024E-01
        2   -1    0    0  501    0  0.00000000000E+00  0.00000000000E+00  0.17548253573E+04  0.17548253573E+04  0.25500000920E-02 0.  1.
       -2   -1    0    0    0  501  0.00000000000E+00  0.00000000000E+00 -0.11730181178E+04  0.11730181178E+04  0.25500000920E-02 0. -1.
    10030    2    1    2    0    0  0.00000000000E+00  0.00000000000E+00  0.58180723958E+03  0.29278434751E+04  0.28694542601E+04 0.  0.
        5    1    3    3  502    0  0.79996132724E+03  0.11784917094E+04  0.46656667081E+03  0.14988286701E+04  0.46999998093E+01 0.  1.
       -5    1    3    3    0  502 -0.79996132724E+03 -0.11784917094E+04  0.11524056877E+03  0.14290148050E+04  0.46999998093E+01 0. -1.
</event>
<event>
 5   0  0.9714317E-07  0.3366867E+04  0.7818609E-02  0.8146087E-01
       -1   -1    0    0    0  501  0.00000000000E+00  0.00000000000E+00  0.83475179072E+03  0.83475179074E+03  0.50400001928E-02 0.  1.
        1   -1    0    0  501    0  0.00000000000E+00  0.00000000000E+00 -0.33949585887E+04  0.33949585887E+04  0.50400001928E-02 0. -1.
    10030    2    1    2    0    0  0.00000000000E+00  0.00000000000E+00 -0.25602067979E+04  0.42297103794E+04  0.33668666510E+04 0.  0.
        4    1    3    3  502    0 -0.68530626385E+03  0.34275223516E+03 -0.31631847633E+04  0.32546679139E+04  0.12699999809E+01 0. -1.
       -4    1    3    3    0  502  0.68530626385E+03 -0.34275223516E+03  0.60297796535E+03  0.97504246553E+03  0.12699999809E+01 0.  1.
</event>
<event>
 5   0  0.9714317E-07  0.2965307E+04  0.7818609E-02  0.8253708E-01
       -1   -1    0    0    0  501  0.00000000000E+00  0.00000000000E+00  0.14718149837E+04  0.14718149838E+04  0.50400001928E-02 0. -1.
        1   -1    0    0  501    0  0.00000000000E+00  0.00000000000E+00 -0.14935722063E+04  0.14935722063E+04  0.50400001928E-02 0.  1.
    10030    2    1    2    0    0  0.00000000000E+00  0.00000000000E+00 -0.21757222536E+02  0.29653871900E+04  0.29653073720E+04 0.  0.
        4    1    3    3  502    0  0.13706160126E+04 -0.50573743745E+03  0.24191610838E+03  0.14808388251E+04  0.12699999809E+01 0. -1.
       -4    1    3    3    0  502 -0.13706160126E+04  0.50573743745E+03 -0.26367333092E+03  0.14845483649E+04  0.12699999809E+01 0.  1.
</event>
<event>
 5   0  0.2664083E-06  0.3430872E+04  0.7818609E-02  0.8130371E-01
       -2   -1    0    0    0  501  0.00000000000E+00  0.00000000000E+00  0.12772774301E+04  0.12772774301E+04  0.25500000920E-02 0. -1.
        2   -1    0    0  501    0  0.00000000000E+00  0.00000000000E+00 -0.23039011853E+04  0.23039011853E+04  0.25500000920E-02 0.  1.
    10030    2    1    2    0    0  0.00000000000E+00  0.00000000000E+00 -0.10266237552E+04  0.35811786155E+04  0.34308721837E+04 0.  0.
        2    1    3    3  502    0 -0.11861568095E+04  0.99880823694E+03  0.25240304240E+03  0.15710802547E+04  0.25500000920E-02 0. -1.
       -2    1    3    3    0  502  0.11861568095E+04 -0.99880823694E+03 -0.12790267976E+04  0.20100983608E+04  0.25500000920E-02 0.  1.
</event>
<event>
 5   0  0.2848685E-06  0.3193055E+04  0.7818609E-02  0.8190654E-01
        2   -1    0    0  501    0  0.00000000000E+00  0.00000000000E+00  0.21407467609E+04  0.21407467610E+04  0.25500000920E-02 0. -1.
       -2   -1    0    0    0  501  0.00000000000E+00  0.00000000000E+00 -0.11906596265E+04  0.11906596265E+04  0.25500000920E-02 0.  1.
    10030    2    1    2    0    0  0.00000000000E+00  0.00000000000E+00  0.95008713441E+03  0.33314063875E+04  0.31930554263E+04 0.  0.
        3    1    3    3  502    0  0.19088138784E+03 -0.33692387410E+03  0.20910069407E+04  0.21265614117E+04  0.10100000352E+00 0. -1.
       -3    1    3    3    0  502 -0.19088138784E+03  0.33692387410E+03 -0.11409198063E+04  0.12048449758E+04  0.10100000352E+00 0.  1.
</event>
<event>
 5   0  0.1010855E-06  0.3288952E+04  0.7818609E-02  0.8165712E-01
        1   -1    0    0  501    0  0.00000000000E+00  0.00000000000E+00  0.16004913944E+04  0.16004913945E+04  0.50400001928E-02 0. -1.
       -1   -1    0    0    0  501  0.00000000000E+00  0.00000000000E+00 -0.16896696021E+04  0.16896696021E+04  0.50400001928E-02 0.  1.
    10030    2    1    2    0    0  0.00000000000E+00  0.00000000000E+00 -0.89178207695E+02  0.32901609966E+04  0.32889522087E+04 0.  0.
        1    1    3    3  502    0  0.61658687174E+03  0.87077542526E+03 -0.12963972629E+04  0.16790101474E+04  0.50400001928E-02 0.  1.
       -1    1    3    3    0  502 -0.61658687174E+03 -0.87077542526E+03  0.12072190552E+04  0.16111508492E+04  0.50400001928E-02 0. -1.
</event>
<event>
 5   0  0.2906701E-06  0.3398239E+04  0.7818609E-02  0.8138339E-01
        2   -1    0    0  501    0  0.00000000000E+00  0.00000000000E+00  0.20287615299E+04  0.20287615299E+04  0.25500000920E-02 0.  1.
       -2   -1    0    0    0  501  0.00000000000E+00  0.00000000000E+00 -0.14230390836E+04  0.14230390836E+04  0.25500000920E-02 0. -1.
    10030    2    1    2    0    0  0.00000000000E+00  0.00000000000E+00  0.60572244634E+03  0.34518006135E+04  0.33982389253E+04 0.  0.
        5    1    3    3  502    0 -0.38769445221E+03 -0.65536038885E+03 -0.12400203417E+04  0.14551552376E+04  0.46999998093E+01 0. -1.
       -5    1    3    3    0  502  0.38769445221E+03  0.65536038885E+03  0.18457427881E+04  0.19966453759E+04  0.46999998093E+01 0.  1.
</event>
<event>
 5   0  0.9714317E-07  0.2644929E+04  0.7818609E-02  0.8353098E-01
       -1   -1    0    0    0  501  0.00000000000E+00  0.00000000000E+00  0.15701171724E+04  0.15701171724E+04  0.50400001928E-02 0.  1.
        1   -1    0    0  501    0  0.00000000000E+00  0.00000000000E+00 -0.11138740482E+04  0.11138740482E+04  0.50400001928E-02 0. -1.
    10030    2    1    2    0    0  0.00000000000E+00  0.00000000000E+00  0.45624312420E+03  0.26839912206E+04  0.26449293155E+04 0.  0.
        4    1    3    3  502    0 -0.65508552950E+03 -0.91911886483E+03 -0.47125547004E+03  0.12231107348E+04  0.12699999809E+01 0. -1.
       -4    1    3    3    0  502  0.65508552950E+03  0.91911886483E+03  0.92749859424E+03  0.14608804858E+04  0.12699999809E+01 0.  1.
</event>
<event>
 5   0  0.1003191E-06  0.3377598E+04  0.7818609E-02  0.8143426E-01
       -1   -1    0    0    0  501  0.00000000000E+00  0.00000000000E+00  0.17156122380E+04  0.17156122381E+04  0.50400001928E-02 0.  1.
        1   -1    0    0  501    0  0.00000000000E+00  0.00000000000E+00 -0.16624050799E+04  0.16624050799E+04  0.50400001928E-02 0. -1.
    10030    2    1    2    0    0  0.00000000000E+00  0.00000000000E+00  0.53207158196E+02  0.33780173179E+04  0.33775982589E+04 0.  0.
        5    1    3    3  502    0 -0.11403928462E+04  0.11991600653E+04 -0.31039475822E+03  0.16837005974E+04  0.46999998093E+01 0.  1.
       -5    1    3    3    0  502  0.11403928462E+04 -0.11991600653E+04  0.36360191641E+03  0.16943167205E+04  0.46999998093E+01 0. -1.
</event>
<event>
 5   0  0.2664083E-06  0.3380952E+04  0.7818609E-02  0.8142597E-01
       -2   -1    0    0    0  501  0.00000000000E+00  0.00000000000E+00  0.14595733374E+04  0.14595733374E+04  0.25500000920E-02 0.  1.
        2   -1    0    0  501    0  0.00000000000E+00  0.00000000000E+00 -0.19579072356E+04  0.19579072356E+04  0.25500000920E-02 0. -1.
    10030    2    1    2    0    0  0.00000000000E+00  0.00000000000E+00 -0.49833389823E+03  0.34174805730E+04  0.33809520542E+04 0.  0.
        2    1    3    3  502    0  0.82387332235E+03 -0.12473523132E+04  0.54869901727E+03  0.15923961995E+04  0.25500000920E-02 0.  1.
       -2    1    3    3    0  502 -0.82387332235E+03  0.12473523132E+04 -0.10470329155E+04  0.18250843736E+04  0.25500000920E-02 0. -1.
</event>
<event>
 5   0  0.1010855E-06  0.3463411E+04  0.7818609E-02  0.8122516E-01
        1   -1    0    0  501    0  0.00000000000E+00  0.00000000000E+00  0.26566904599E+04  0.26566904599E+04  0.50400001928E-02 0. -1.
       -1   -1    0    0    0  501  0.00000000000E+00  0.00000000000E+00 -0.11287744171E+04  0.11287744171E+04  0.50400001928E-02 0.  1.
    10030    2    1    2    0    0  0.00000000000E+00  0.00000000000E+00  0.15279160428E+04  0.37854648770E+04  0.34634111655E+04 0.  0.
        1    1    3    3  502    0 -0.43813762563E+03  0.13517150487E+03  0.25891384876E+04  0.26294246562E+04  0.50400001928E-02 0. -1.
       -1    1    3    3    0  502  0.43813762563E+03 -0.13517150487E+03 -0.10612224448E+04  0.11560402208E+04  0.50400001928E-02 0.  1.
</event>
<event>
 5   0  0.1010551E-06  0.3379230E+04  0.7818609E-02  0.8143023E-01
       -1   -1    0    0    0  501  0.00000000000E+00  0.00000000000E+00  0.11739773986E+04  0.11739773986E+04  0.50400001928E-02 0.  1.
        1   -1    0    0  501    0  0.00000000000E+00  0.00000000000E+00 -0.24317319538E+04  0.24317319538E+04  0.50400001928E-02 0. -1.
    10030    2    1    2    0    0  0.00000000000E+00  0.00000000000E+00 -0.12577545552E+04  0.36057093525E+04  0.33792297071E+04 0.  0.
        2    1    3    3  502    0  0.55855938679E+02  0.16871808550E+04 -0.55268248360E+03  0.17762761753E+04  0.25500000920E-02 0.  1.
       -2    1    3    3    0  502 -0.55855938679E+02 -0.16871808550E+04 -0.70507207160E+03  0.18294331771E+04  0.25500000920E-02 0. -1.
</event>
<event>
 5   0  0.2906701E-06  0.3420235E+04  0.7818609E-02  0.8132958E-01
       -2   -1    0    0    0  501  0.00000000000E+00  0.00000000000E+00  0.20186390389E+04  0.20186390389E+04  0.25500000920E-02 0.  1.
        2   -1    0    0  501    0  0.00000000000E+00  0.00000000000E+00 -0.14487489486E+04  0.14487489486E+04  0.25500000920E-02 0. -1.
    10030    2    1    2    0    0  0.00000000000E+00  0.00000000000E+00  0.56989009032E+03  0.34673879875E+04  0.34202346031E+04 0.  0.
        5    1    3    3  502    0  0.12004841196E+04 -0.92781403993E+03 -0.51490500337E+03  0.16022329002E+04  0.46999998093E+01 0. -1.
       -5    1    3    3    0  502 -0.12004841196E+04  0.92781403993E+03  0.10847950937E+04  0.18651550872E+04  0.46999998093E+01 0.  1.
</event>
<event>
 5   0  0.2856440E-06  0.3355847E+04  0.7818609E-02  0.8148829E-01
        2   -1    0    0  501    0  0.00000000000E+00  0.00000000000E+00  0.18990311198E+04  0.18990311198E+04  0.25500000920E-02 0.  1.
       -2   -1    0    0    0  501  0.00000000000E+00  0.00000000000E+00 -0.14825596753E+04  0.14825596753E+04  0.25500000920E-02 0. -1.
    10030    2    1    2    0    0  0.00000000000E+00  0.00000000000E+00  0.41647144454E+03  0.33815907951E+04  0.33558468144E+04 0.  0.
        4    1    3    3  502    0  0.12918484197E+04  0.50171874568E+03 -0.74497629692E+03  0.15733992930E+04  0.12699999809E+01 0. -1.
       -4    1    3    3    0  502 -0.12918484197E+04 -0.50171874568E+03  0.11614477415E+04  0.18081915021E+04  0.12699999809E+01 0.  1.
</event>
<event>
 5   0  0.1010551E-06  0.3305726E+04  0.7818609E-02  0.8161440E-01
       -1   -1    0    0    0  501  0.00000000000E+00  0.00000000000E+00  0.23916523731E+04  0.23916523731E+04  0.50400001928E-02 0. -1.
        1   -1    0    0  501    0  0.00000000000E+00  0.00000000000E+00 -0.11422883712E+04  0.11422883712E+04  0.50400001928E-02 0.  1.
    10030    2    1    2    0    0  0.00000000000E+00  0.00000000000E+00  0.12493640019E+04  0.35339407443E+04  0.33057263612E+04 0.  0.
        2    1    3    3  502    0  0.13027857323E+04  0.14182530254E+03 -0.45212531150E+03  0.13862836571E+04  0.25500000920E-02 0.  1.
       -2    1    3    3    0  502 -0.13027857323E+04 -0.14182530254E+03  0.17014893134E+04  0.21476570872E+04  0.25500000920E-02 0. -1.
</event>
<event>
 5   0  0.9232963E-07  0.3349392E+04  0.7818609E-02  0.8150440E-01
        1   -1    0    0  501    0  0.00000000000E+00  0.00000000000E+00  0.86838928881E+03  0.86838928882E+03  0.50400001928E-02 0.  1.
       -1   -1    0    0    0  501  0.00000000000E+00  0.00000000000E+00 -0.32296658428E+04  0.32296658428E+04  0.50400001928E-02 0. -1.
    10030    2    1    2    0    0  0.00000000000E+00  0.00000000000E+00 -0.23612765540E+04  0.40980551316E+04  0.33493923176E+04 0.  0.
        3    1    3    3  502    0 -0.11933195411E+04  0.87398626796E+03 -0.21976938264E+03  0.14953802578E+04  0.10100000352E+00 0.  1.
       -3    1    3    3    0  502  0.11933195411E+04 -0.87398626796E+03 -0.21415071713E+04  0.26026748738E+04  0.10100000352E+00 0. -1.
</event>
<event>
 5   0  0.1010551E-06  0.3376955E+04  0.7818609E-02  0.8143586E-01
       -1   -1    0    0    0  501  0.00000000000E+00  0.00000000000E+00  0.27023200490E+04  0.27023200491E+04  0.50400001928E-02 0. -1.
        1   -1    0    0  501    0  0.00000000000E+00  0.00000000000E+00 -0.10550028816E+04  0.10550028816E+04  0.50400001928E-02 0.  1.
    10030    2    1    2    0    0  0.00000000000E+00  0.00000000000E+00  0.16473171674E+04  0.37573229307E+04  0.33769545089E+04 0.  0.
        2    1    3    3  502    0 -0.66138340289E+03 -0.10220786166E+04 -0.47811794142E+03  0.13079256363E+04  0.25500000920E-02 0.  1.
       -2    1    3    3    0  502  0.66138340289E+03  0.10220786166E+04  0.21254351088E+04  0.24493972944E+04  0.25500000920E-02 0. -1.
</event>
<event>
 5   0  0.2848685E-06  0.3386471E+04  0.7818609E-02  0.8141235E-01
        2   -1    0    0  501    0  0.00000000000E+00  0.00000000000E+00  0.14483159964E+04  0.14483159965E+04  0.25500000920E-02 0.  1.
       -2   -1    0    0    0  501  0.00000000000E+00  0.00000000000E+00 -0.19795724424E+04  0.19795724424E+04  0.25500000920E-02 0. -1.
    10030    2    1    2    0    0  0.00000000000E+00  0.00000000000E+00 -0.53125644598E+03  0.34278884389E+04  0.33864709859E+04 0.  0.
        3    1    3    3  502    0 -0.12654173818E+04 -0.38912740572E+03 -0.13341642786E+04  0.18795466530E+04  0.10100000352E+00 0. -1.
       -3    1    3    3    0  502  0.12654173818E+04  0.38912740572E+03  0.80290783263E+03  0.15483417859E+04  0.10100000352E+00 0.  1.
</event>
<event>
 5   0  0.9070500E-07  0.3449908E+04  0.7818609E-02  0.8125765E-01
        3   -1    0    0  501    0  0.00000000000E+00  0.00000000000E+00  0.24254308618E+04  0.24254308639E+04  0.10100000352E+00 0. -1.
       -3   -1    0    0    0  501  0.00000000000E+00  0.00000000000E+00 -0.12267785998E+04  0.12267786040E+04  0.10100000352E+00 0.  1.
    10030    2    1    2    0    0  0.00000000000E+00  0.00000000000E+00  0.11986522620E+04  0.36522094679E+04  0.34499082237E+04 0.  0.
        3    1    3    3  502    0  0.11424615215E+04 -0.11421135998E+04 -0.40975712767E+02  0.16159581747E+04  0.10100000352E+00 0.  1.
       -3    1    3    3    0  502 -0.11424615215E+04  0.11421135998E+04  0.12396279748E+04  0.20362512932E+04  0.10100000352E+00 0. -1.
</event>
<event>
 5   0  0.9714317E-07  0.3094714E+04  0.7818609E-02  0.8217190E-01
       -1   -1    0    0    0  501  0.00000000000E+00  0.00000000000E+00  0.10508757552E+04  0.10508757552E+04  0.50400001928E-02 0.  1.
        1   -1    0    0  501    0  0.00000000000E+00  0.00000000000E+00 -0.22783979112E+04  0.22783979112E+04  0.50400001928E-02 0. -1.
    10030    2    1    2    0    0  0.00000000000E+00  0.00000000000E+00 -0.12275221559E+04  0.33292736664E+04  0.30947136382E+04 0.  0.
        4    1    3    3  502    0  0.77036607573E+03 -0.80055788508E+03 -0.17724038062E+04  0.20918350038E+04  0.12699999809E+01 0. -1.
       -4    1    3    3    0  502 -0.77036607573E+03  0.80055788508E+03  0.54488165028E+03  0.12374386626E+04  0.12699999809E+01 0.  1.
</event>
<event>
 5   0  0.9232963E-07  0.3360396E+04  0.7818609E-02  0.8147696E-01
       -1   -1    0    0    0  501  0.00000000000E+00  0.00000000000E+00  0.25065298967E+04  0.25065298967E+04  0.50400001928E-02 0. -1.
        1   -1    0    0  501    0  0.00000000000E+00  0.00000000000E+00 -0.11262839926E+04  0.11262839926E+04  0.50400001928E-02 0.  1.
    10030    2    1    2    0    0  0.00000000000E+00  0.00000000000E+00  0.13802459040E+04  0.36328138893E+04  0.33603955122E+04 0.  0.
        3    1    3    3  502    0  0.14333648573E+04  0.23429206557E+03  0.16033765739E+04  0.21633871670E+04  0.10100000352E+00 0. -1.
       -3    1    3    3    0  502 -0.14333648573E+04 -0.23429206557E+03 -0.22313066988E+03  0.14694267223E+04  0.10100000352E+00 0.  1.
</event>
<event>
 5   0  0.2767014E-06  0.3455189E+04  0.7818609E-02  0.8124492E-01
       -2   -1    0    0    0  501  0.00000000000E+00  0.00000000000E+00  0.16324397006E+04  0.16324397006E+04  0.25500000920E-02 0.  1.
        2   -1    0    0  501    0  0.00000000000E+00  0.00000000000E+00 -0.18282963373E+04  0.18282963373E+04  0.25500000920E-02 0. -1.
    10030    2    1    2    0    0  0.00000000000E+00  0.00000000000E+00 -0.19585663674E+03  0.34607360379E+04  0.34551894451E+04 0.  0.
        1    1    3    3  502    0  0.17102634514E+04  0.23181982284E+03 -0.21372500345E+02  0.17260354247E+04  0.50400001928E-02 0. -1.
       -1    1    3    3    0  502 -0.17102634514E+04 -0.23181982284E+03 -0.17448413639E+03  0.17347006132E+04  0.50400001928E-02 0.  1.
</event>
<event>
 5   0  0.1010855E-06  0.3531178E+04  0.7818609E-02  0.8106441E-01
        1   -1    0    0  501    0  0.00000000000E+00  0.00000000000E+00  0.17178615878E+04  0.17178615878E+04  0.50400001928E-02 0.  1.
       -1   -1    0    0    0  501  0.00000000000E+00  0.00000000000E+00 -0.18146428534E+04  0.18146428535E+04  0.50400001928E-02 0. -1.
    10030    2    1    2    0    0  0.00000000000E+00  0.00000000000E+00 -0.96781265672E+02  0.35325044412E+04  0.35311784172E+04 0.  0.
        1    1    3    3  502    0  0.51863779599E+03  0.15801802607E+04 -0.64136142536E+03  0.17824980498E+04  0.50400001928E-02 0. -1.
       -1    1    3    3    0  502 -0.51863779599E+03 -0.15801802607E+04  0.54458015969E+03  0.17500063914E+04  0.50400001928E-02 0.  1.
</event>
<event>
 5   0  0.2848685E-06  0.3357209E+04  0.7818609E-02  0.8148489E-01
        2   -1    0    0  501    0  0.00000000000E+00  0.00000000000E+00  0.18623701039E+04  0.18623701039E+04  0.25500000920E-02 0. -1.
       -2   -1    0    0    0  501  0.00000000000E+00  0.00000000000E+00 -0.15129711565E+04  0.15129711565E+04  0.25500000920E-02 0.  1.
    10030    2    1    2    0    0  0.00000000000E+00  0.00000000000E+00  0.34939894739E+03  0.33753412603E+04  0.33572085129E+04 0.  0.
        3    1    3    3  502    0  0.60402872942E+02  0.26107061241E+03  0.18407270866E+04  0.18601297237E+04  0.10100000352E+00 0. -1.
       -3    1    3    3    0  502 -0.60402872942E+02 -0.26107061241E+03 -0.14913281392E+04  0.15152115366E+04  0.10100000352E+00 0.  1.
</event>
<event>
 5   0  0.2848685E-06  0.3403095E+04  0.7818609E-02  0.8137147E-01
        2   -1    0    0  501    0  0.00000000000E+00  0.00000000000E+00  0.24576303271E+04  0.24576303271E+04  0.25500000920E-02 0.  1.
       -2   -1    0    0    0  501  0.00000000000E+00  0.00000000000E+00 -0.11780712898E+04  0.11780712898E+04  0.25500000920E-02 0. -1.
    10030    2    1    2    0    0  0.00000000000E+00  0.00000000000E+00  0.12795590374E+04  0.36357016169E+04  0.34030949027E+04 0.  0.
        3    1    3    3  502    0 -0.11856914050E+04 -0.97640083850E+02 -0.65986737377E+03  0.13604494312E+04  0.10100000352E+00 0. -1.
       -3    1    3    3    0  502  0.11856914050E+04  0.97640083850E+02  0.19394264111E+04  0.22752521856E+04  0.10100000352E+00 0.  1.
</event>
<event>
 5   0  0.2856440E-06  0.3379364E+04  0.7818609E-02  0.8142990E-01
        2   -1    0    0  501    0  0.00000000000E+00  0.00000000000E+00  0.20632903452E+04  0.20632903452E+04  0.25500000920E-02 0. -1.
       -2   -1    0    0    0  501  0.00000000000E+00  0.00000000000E+00 -0.13837248169E+04  0.13837248169E+04  0.25500000920E-02 0.  1.
    10030    2    1    2    0    0  0.00000000000E+00  0.00000000000E+00  0.67956552824E+03  0.34470151621E+04  0.33793644699E+04 0.  0.
        4    1    3    3  502    0  0.14581809962E+04 -0.59664639909E+03 -0.28296830325E+03  0.16007346490E+04  0.12699999809E+01 0.  1.
       -4    1    3    3    0  502 -0.14581809962E+04  0.59664639909E+03  0.96253383149E+03  0.18462805130E+04  0.12699999809E+01 0. -1.
</event>
<event>
 5   0  0.1003191E-06  0.3519551E+04  0.7818609E-02  0.8109172E-01
       -1   -1    0    0    0  501  0.00000000000E+00  0.00000000000E+00  0.12103569175E+04  0.12103569175E+04  0.50400001928E-02 0.  1.
        1   -1    0    0  501    0  0.00000000000E+00  0.00000000000E+00 -0.25585927274E+04  0.25585927274E+04  0.50400001928E-02 0. -1.
    10030    2    1    2    0    0  0.00000000000E+00  0.00000000000E+00 -0.13482358099E+04  0.37689496449E+04  0.35195513388E+04 0.  0.
        5    1    3    3  502    0 -0.17635785794E+03  0.54377143584E+03 -0.24563851467E+04  0.25220308379E+04  0.46999998093E+01 0. -1.
       -5    1    3    3    0  502  0.17635785794E+03 -0.54377143584E+03  0.11081493368E+04  0.12469188070E+04  0.46999998093E+01 0.  1.
</event>
<event>
 5   0  0.2856440E-06  0.3413615E+04  0.7818609E-02  0.8134573E-01
       -2   -1    0    0    0  501  0.00000000000E+00  0.00000000000E+00  0.16151092768E+04  0.16151092768E+04  0.25500000920E-02 0. -1.
        2   -1    0    0  501    0  0.00000000000E+00  0.00000000000E+00 -0.18037113846E+04  0.18037113846E+04  0.25500000920E-02 0.  1.
    10030    2    1    2    0    0  0.00000000000E+00  0.00000000000E+00 -0.18860210783E+03  0.34188206614E+04  0.34136145007E+04 0.  0.
        4    1    3    3  502    0  0.42838677441E+03  0.14388627811E+04 -0.90754194375E+03  0.17542734461E+04  0.12699999809E+01 0. -1.
       -4    1    3    3    0  502 -0.42838677441E+03 -0.14388627811E+04  0.71893983593E+03  0.16645472153E+04  0.12699999809E+01 0.  1.
</event>
<event>
 5   0  0.1003191E-06  0.3412129E+04  0.7818609E-02  0.8134936E-01
       -1   -1    0    0    0  501  0.00000000000E+00  0.00000000000E+00  0.12549220936E+04  0.12549220936E+04  0.50400001928E-02 0. -1.
        1   -1    0    0  501    0  0.00000000000E+00  0.00000000000E+00 -0.23193913521E+04  0.23193913521E+04  0.50400001928E-02 0.  1.
    10030    2    1    2    0    0  0.00000000000E+00  0.00000000000E+00 -0.10644692585E+04  0.35743134457E+04  0.34121286327E+04 0.  0.
        5    1    3    3  502    0  0.14161515033E+04  0.10551669129E+03 -0.15227005182E+04  0.20821281926E+04  0.46999998093E+01 0.  1.
       -5    1    3    3    0  502 -0.14161515033E+04 -0.10551669129E+03  0.45823125969E+03  0.14921852531E+04  0.46999998093E+01 0. -1.
</event>
<event>
 5   0  0.2767014E-06  0.3203207E+04  0.7818609E-02  0.8187971E-01
        2   -1    0    0  501    0  0.00000000000E+00  0.00000000000E+00  0.20393243978E+04  0.20393243978E+04  0.25500000920E-02 0. -1.
       -2   -1    0    0    0  501  0.00000000000E+00  0.00000000000E+00 -0.12578354280E+04  0.12578354280E+04  0.25500000920E-02 0.  1.
    10030    2    1    2    0    0  0.00000000000E+00  0.00000000000E+00  0.78148896974E+03  0.32971598258E+04  0.32032074405E+04 0.  0.
        1    1    3    3  502    0  0.52685361901E+03  0.15124620545E+04  0.39514476414E+03  0.16496228620E+04  0.50400001928E-02 0. -1.
       -1    1    3    3    0  502 -0.52685361901E+03 -0.15124620545E+04  0.38634420560E+03  0.16475369639E+04  0.50400001928E-02 0.  1.
</event>
<event>
 5   0  0.1010551E-06  0.3439949E+04  0.7818609E-02  0.8128170E-01
        1   -1    0    0  501    0  0.00000000000E+00  0.00000000000E+00  0.13644658553E+04  0.13644658553E+04  0.50400001928E-02 0. -1.
       -1   -1    0    0    0  501  0.00000000000E+00  0.00000000000E+00 -0.21681105454E+04  0.21681105454E+04  0.50400001928E-02 0.  1.
    10030    2    1    2    0    0  0.00000000000E+00  0.00000000000E+00 -0.80364469009E+03  0.35325764008E+04  0.34399493077E+04 0.  0.
        2    1    3    3  502    0 -0.77114259005E+03  0.96817052124E+03 -0.16282575834E+04  0.20452965091E+04  0.25500000920E-02 0. -1.
       -2    1    3    3    0  502  0.77114259005E+03 -0.96817052124E+03  0.82461289326E+03  0.14872798917E+04  0.25500000920E-02 0.  1.
</event>
<event>
 5   0  0.2906701E-06  0.2305131E+04  0.7818609E-02  0.8475901E-01
       -2   -1    0    0    0  501  0.00000000000E+00  0.00000000000E+00  0.68425002682E+03  0.68425002683E+03  0.25500000920E-02 0.  1.
        2   -1    0    0  501    0  0.00000000000E+00  0.00000000000E+00 -0.19414062441E+04  0.19414062441E+04  0.25500000920E-02 0. -1.
    10030    2    1    2    0    0  0.00000000000E+00  0.00000000000E+00 -0.12571562173E+04  0.26256562710E+04  0.23051310372E+04 0.  0.
        5    1    3    3  502    0  0.10649486629E+03  0.18214645029E+03 -0.19192094883E+04  0.19307785051E+04  0.46999998093E+01 0. -1.
       -5    1    3    3    0  502 -0.10649486629E+03 -0.18214645029E+03  0.66205327096E+03  0.69487776586E+03  0.46999998093E+01 0.  1.
</event>
<event>
 5   0  0.9232963E-07  0.3033305E+04  0.7818609E-02  0.8234284E-01
        1   -1    0    0  501    0  0.00000000000E+00  0.00000000000E+00  0.26468522753E+04  0.26468522753E+04  0.50400001928E-02 0.  1.
       -1   -1    0    0    0  501  0.00000000000E+00  0.00000000000E+00 -0.86904550613E+03  0.86904550615E+03  0.50400001928E-02 0. -1.
    10030    2    1    2    0    0  0.00000000000E+00  0.00000000000E+00  0.17778067692E+04  0.35158977815E+04  0.30333051777E+04 0.  0.
        3    1    3    3  502    0  0.14320371843E+03  0.12051558000E+04 -0.16538349149E+03  0.12248508141E+04  0.10100000352E+00 0. -1.
       -3    1    3    3    0  502 -0.14320371843E+03 -0.12051558000E+04  0.19431902607E+04  0.22910469674E+04  0.10100000352E+00 0.  1.
</event>
<event>
 5   0  0.9232963E-07  0.3489414E+04  0.7818609E-02  0.8116303E-01
        1   -1    0    0  501    0  0.00000000000E+00  0.00000000000E+00  0.21970278291E+04  0.21970278291E+04  0.50400001928E-02 0. -1.
       -1   -1    0    0    0  501  0.00000000000E+00  0.00000000000E+00 -0.13855092519E+04  0.13855092520E+04  0.50400001928E-02 0.  1.
    10030    2    1    2    0    0  0.00000000000E+00  0.00000000000E+00  0.81151857715E+03  0.35825370810E+04  0.34894139244E+04 0.  0.
        3    1    3    3  502    0  0.87845608736E+02  0.13242719722E+04 -0.75697908353E+03  0.15278843053E+04  0.10100000352E+00 0.  1.
       -3    1    3    3    0  502 -0.87845608736E+02 -0.13242719722E+04  0.15684976607E+04  0.20546527758E+04  0.10100000352E+00 0. -1.
</event>
<event>
 5   0  0.9232963E-07  0.3325506E+04  0.7818609E-02  0.8156436E-01
       -1   -1    0    0    0  501  0.00000000000E+00  0.00000000000E+00  0.17071676254E+04  0.17071676254E+04  0.50400001928E-02 0.  1.
        1   -1    0    0  501    0  0.00000000000E+00  0.00000000000E+00 -0.16194937271E+04  0.16194937271E+04  0.50400001928E-02 0. -1.
    10030    2    1    2    0    0  0.00000000000E+00  0.00000000000E+00  0.87673898306E+02  0.33266613525E+04  0.33255058325E+04 0.  0.
        3    1    3    3  502    0  0.11767362012E+04 -0.10375685819E+04 -0.50725428325E+03  0.16488067102E+04  0.10100000352E+00 0. -1.
       -3    1    3    3    0  502 -0.11767362012E+04  0.10375685819E+04  0.59492818156E+03  0.16778546423E+04  0.10100000352E+00 0.  1.
</event>
<event>
 5   0  0.9714317E-07  0.2433336E+04  0.7818609E-02  0.8427127E-01
       -1   -1    0    0    0  501  0.00000000000E+00  0.00000000000E+00  0.91545002369E+03  0.91545002370E+03  0.50400001928E-02 0.  1.
        1   -1    0    0  501    0  0.00000000000E+00  0.00000000000E+00 -0.16169986093E+04  0.16169986093E+04  0.50400001928E-02 0. -1.
    10030    2    1    2    0    0  0.00000000000E+00  0.00000000000E+00 -0.70154858558E+03  0.25324486330E+04  0.24333363230E+04 0.  0.
        4    1    3    3  502    0  0.10425409178E+04  0.58288195819E+03 -0.59180378050E+03  0.13329952251E+04  0.12699999809E+01 0. -1.
       -4    1    3    3    0  502 -0.10425409178E+04 -0.58288195819E+03 -0.10974480508E+03  0.11994534079E+04  0.12699999809E+01 0.  1.
</event>
<event>
 5   0  0.1003191E-06  0.3527160E+04  0.7818609E-02  0.8107383E-01
       -1   -1    0    0    0  501  0.00000000000E+00  0.00000000000E+00  0.13619400588E+04  0.13619400589E+04  0.50400001928E-02 0. -1.
        1   -1    0    0  501    0  0.00000000000E+00  0.00000000000E+00 -0.22836640911E+04  0.22836640911E+04  0.50400001928E-02 0.  1.
    10030    2    1    2    0    0  0.00000000000E+00  0.00000000000E+00 -0.92172403221E+03  0.36456041499E+04  0.35271595408E+04 0.  0.
        5    1    3    3  502    0  0.55593933519E+03  0.11624694535E+04 -0.17053669350E+04  0.21374522796E+04  0.46999998093E+01 0.  1.
       -5    1    3    3    0  502 -0.55593933519E+03 -0.11624694535E+04  0.78364290279E+03  0.15081518703E+04  0.46999998093E+01 0. -1.
</event>
<event>
 5   0  0.2906701E-06  0.3119005E+04  0.7818609E-02  0.8210541E-01
        2   -1    0    0  501    0  0.00000000000E+00  0.00000000000E+00  0.19845420552E+04  0.19845420552E+04  0.25500000920E-02 0. -1.
       -2   -1    0    0    0  501  0.00000000000E+00  0.00000000000E+00 -0.12254960394E+04  0.12254960394E+04  0.25500000920E-02 0.  1.
    10030    2    1    2    0    0  0.00000000000E+00  0.00000000000E+00  0.75904601580E+03  0.32100380946E+04  0.31190052444E+04 0.  0.
        5    1    3    3  502    0  0.74239686037E+03 -0.27465058288E+03 -0.10033606589E+04  0.12780221997E+04  0.46999998093E+01 0.  1.
       -5    1    3    3    0  502 -0.74239686037E+03  0.27465058288E+03  0.17624066747E+04  0.19320158949E+04  0.46999998093E+01 0. -1.
</event>
<event>
 5   0  0.9070500E-07  0.3454908E+04  0.7818609E-02  0.8124560E-01
        3   -1    0    0  501    0  0.00000000000E+00  0.00000000000E+00  0.25722951783E+04  0.25722951803E+04  0.10100000352E+00 0.  1.
       -3   -1    0    0    0  501  0.00000000000E+00  0.00000000000E+00 -0.11600914449E+04  0.11600914493E+04  0.10100000352E+00 0. -1.
    10030    2    1    2    0    0  0.00000000000E+00  0.00000000000E+00  0.14122037334E+04  0.37323866296E+04  0.34549081852E+04 0.  0.
        1    1    3    3  502    0  0.94503169242E+03  0.13935683297E+04  0.11230808600E+04  0.20239634896E+04  0.50400001928E-02 0.  1.
       -1    1    3    3    0  502 -0.94503169242E+03 -0.13935683297E+04  0.28912287343E+03  0.17084231400E+04  0.50400001928E-02 0. -1.
</event>
<event>
 5   0  0.2767014E-06  0.3336071E+04  0.7818609E-02  0.8153777E-01
       -2   -1    0    0    0  501  0.00000000000E+00  0.00000000000E+00  0.13083756547E+04  0.13083756547E+04  0.25500000920E-02 0. -1.
        2   -1    0    0  501    0  0.00000000000E+00  0.00000000000E+00 -0.21265623843E+04  0.21265623843E+04  0.25500000920E-02 0.  1.
    10030    2    1    2    0    0  0.00000000000E+00  0.00000000000E+00 -0.81818672962E+03  0.34349380390E+04  0.33360710135E+04 0.  0.
        1    1    3    3  502    0  0.10075475895E+04 -0.13175418123E+04 -0.59117850311E+03  0.17608408772E+04  0.50400001928E-02 0.  1.
       -1    1    3    3    0  502 -0.10075475895E+04  0.13175418123E+04 -0.22700822651E+03  0.16740971618E+04  0.50400001928E-02 0. -1.
</event>
<event>
 5   0  0.1010855E-06  0.3387551E+04  0.7818609E-02  0.8140968E-01
        1   -1    0    0  501    0  0.00000000000E+00  0.00000000000E+00  0.10985656132E+04  0.10985656133E+04  0.50400001928E-02 0. -1.
       -1   -1    0    0    0  501  0.00000000000E+00  0.00000000000E+00 -0.26114745128E+04  0.26114745128E+04  0.50400001928E-02 0.  1.
    10030    2    1    2    0    0  0.00000000000E+00  0.00000000000E+00 -0.15129088996E+04  0.37100401261E+04  0.33875513869E+04 0.  0.
        1    1    3    3  502    0 -0.13371222331E+04  0.10143186231E+04 -0.10065291459E+04  0.19569974596E+04  0.50400001928E-02 0.  1.
       -1    1    3    3    0  502  0.13371222331E+04 -0.10143186231E+04 -0.50637975369E+03  0.17530426665E+04  0.50400001928E-02 0. -1.
</event>
<event>
 5   0  0.2856440E-06  0.2119362E+04  0.7818609E-02  0.8552762E-01
       -2   -1    0    0    0  501  0.00000000000E+00  0.00000000000E+00  0.50259017471E+03  0.50259017472E+03  0.25500000920E-02 0.  1.
        2   -1    0    0  501    0  0.00000000000E+00  0.00000000000E+00 -0.22342735580E+04  0.22342735580E+04  0.25500000920E-02 0. -1.
    10030    2    1    2    0    0  0.00000000000E+00  0.00000000000E+00 -0.17316833833E+04  0.27368637327E+04  0.21193621096E+04 0.  0.
        4    1    3    3  502    0  0.59005311136E+03 -0.83627953009E+03 -0.51125475394E+03  0.11440756806E+04  0.12699999809E+01 0.  1.
       -4    1    3    3    0  502 -0.59005311136E+03  0.83627953009E+03 -0.12204286293E+04  0.15927880521E+04  0.12699999809E+01 0. -1.
</event>
<event>
 5   0  0.2848685E-06  0.3386606E+04  0.7818609E-02  0.8141201E-01
        2   -1    0    0  501    0  0.00000000000E+00  0.00000000000E+00  0.20628018293E+04  0.20628018293E+04  0.25500000920E-02 0.  1.
       -2   -1    0    0    0  501  0.00000000000E+00  0.00000000000E+00 -0.13899905947E+04  0.13899905947E+04  0.25500000920E-02 0. -1.
    10030    2    1    2    0    0  0.00000000000E+00  0.00000000000E+00  0.67281123465E+03  0.34527924240E+04  0.33866060541E+04 0.  0.
        3    1    3    3  502    0  0.37595734273E+03 -0.11366765425E+04 -0.88445157336E+03  0.14884999434E+04  0.10100000352E+00 0. -1.
       -3    1    3    3    0  502 -0.37595734273E+03  0.11366765425E+04  0.15572628080E+04  0.19642924806E+04  0.10100000352E+00 0.  1.
</event>
<event>
 5   0  0.9232963E-07  0.2256328E+04  0.7818609E-02  0.8495342E-01
        1   -1    0    0  501    0  0.00000000000E+00  0.00000000000E+00  0.13630716825E+04  0.13630716826E+04  0.50400001928E-02 0.  1.
       -1   -1    0    0    0  501  0.00000000000E+00  0.00000000000E+00 -0.93373971255E+03  0.93373971256E+03  0.50400001928E-02 0. -1.
    10030    2    1    2    0    0  0.00000000000E+00  0.00000000000E+00  0.42933197000E+03  0.22968113951E+04  0.22563281331E+04 0.  0.
        3    1    3    3  502    0  0.66503991707E+03  0.23753432766E+03 -0.68092263365E+03  0.98099760006E+03  0.10100000352E+00 0. -1.
       -3    1    3    3    0  502 -0.66503991707E+03 -0.23753432766E+03  0.11102546036E+04  0.13158137950E+04  0.10100000352E+00 0.  1.
</event>
<event>
 5   0  0.1003191E-06  0.3522424E+04  0.7818609E-02  0.8108496E-01
        1   -1    0    0  501    0  0.00000000000E+00  0.00000000000E+00  0.12612523182E+04  0.12612523183E+04  0.50400001928E-02 0. -1.
       -1   -1    0    0    0  501  0.00000000000E+00  0.00000000000E+00 -0.24593549503E+04  0.24593549503E+04  0.50400001928E-02 0.  1.
    10030    2    1    2    0    0  0.00000000000E+00  0.00000000000E+00 -0.11981026321E+04  0.37206072686E+04  0.35224236727E+04 0.  0.
        5    1    3    3  502    0 -0.14178381491E+04  0.84586827878E+03 -0.12468146041E+04  0.20688950938E+04  0.46999998093E+01 0.  1.
       -5    1    3    3    0  502  0.14178381491E+04 -0.84586827878E+03  0.48711972071E+02  0.16517121748E+04  0.46999998093E+01 0. -1.
</event>
<event>
 5   0  0.9714317E-07  0.2993423E+04  0.7818609E-02  0.8245611E-01
        1   -1    0    0  501    0  0.00000000000E+00  0.00000000000E+00  0.16142562582E+04  0.16142562582E+04  0.50400001928E-02 0.  1.
       -1   -1    0    0    0  501  0.00000000000E+00  0.00000000000E+00 -0.13877260278E+04  0.13877260278E+04  0.50400001928E-02 0. -1.
    10030    2    1    2    0    0  0.00000000000E+00  0.00000000000E+00  0.22653023039E+03  0.30019822860E+04  0.29934230740E+04 0.  0.
        4    1    3    3  502    0  0.44804992418E+03 -0.11836161924E+04  0.91457908861E+03  0.15614584681E+04  0.12699999809E+01 0.  1.
       -4    1    3    3    0  502 -0.44804992418E+03  0.11836161924E+04 -0.68804885822E+03  0.14405238178E+04  0.12699999809E+01 0. -1.
</event>
<event>
 5   0  0.2848685E-06  0.3375400E+04  0.7818609E-02  0.8143970E-01
       -2   -1    0    0    0  501  0.00000000000E+00  0.00000000000E+00  0.14344669686E+04  0.14344669686E+04  0.25500000920E-02 0.  1.
        2   -1    0    0  501    0  0.00000000000E+00  0.00000000000E+00 -0.19856379327E+04  0.19856379327E+04  0.25500000920E-02 0. -1.
    10030    2    1    2    0    0  0.00000000000E+00  0.00000000000E+00 -0.55117096405E+03  0.34201049013E+04  0.33754004362E+04 0.  0.
        3    1    3    3  502    0 -0.10937190046E+04  0.21541200067E+03 -0.15595335785E+04  0.19169685923E+04  0.10100000352E+00 0. -1.
       -3    1    3    3    0  502  0.10937190046E+04 -0.21541200067E+03  0.10083626145E+04  0.15031363090E+04  0.10100000352E+00 0.  1.
</event>
<event>
 5   0  0.2664083E-06  0.3439057E+04  0.7818609E-02  0.8128386E-01
       -2   -1    0    0    0  501  0.00000000000E+00  0.00000000000E+00  0.13654242032E+04  0.13654242032E+04  0.25500000920E-02 0. -1.
        2   -1    0    0  501    0  0.00000000000E+00  0.00000000000E+00 -0.21654653871E+04  0.21654653872E+04  0.25500000920E-02 0.  1.
    10030    2    1    2    0    0  0.00000000000E+00  0.00000000000E+00 -0.80004118396E+03  0.35308895903E+04  0.34390573422E+04 0.  0.
        2    1    3    3  502    0  0.60181845781E+03 -0.16391655079E+03  0.12451803697E+04  0.13926694672E+04  0.25500000920E-02 0. -1.
       -2    1    3    3    0  502 -0.60181845781E+03  0.16391655079E+03 -0.20452215536E+04  0.21382201232E+04  0.25500000920E-02 0.  1.
</event>
<event>
 5   0  0.2848685E-06  0.3422275E+04  0.7818609E-02  0.8132461E-01
        2   -1    0    0  501    0  0.00000000000E+00  0.00000000000E+00  0.24935519563E+04  0.24935519563E+04  0.25500000920E-02 0.  1.
       -2   -1    0    0    0  501  0.00000000000E+00  0.00000000000E+00 -0.11742248849E+04  0.11742248849E+04  0.25500000920E-02 0. -1.
    10030    2    1    2    0    0  0.00000000000E+00  0.00000000000E+00  0.13193270714E+04  0.36677768411E+04  0.34222745412E+04 0.  0.
        3    1    3    3  502    0 -0.49034042271E+03 -0.14965232294E+04  0.13769870442E+04  0.20919151121E+04  0.10100000352E+00 0.  1.
       -3    1    3    3    0  502  0.49034042271E+03  0.14965232294E+04 -0.57659972778E+02  0.15758617290E+04  0.10100000352E+00 0. -1.
</event>
<event>
 5   0  0.2664083E-06  0.3389019E+04  0.7818609E-02  0.8140607E-01
       -2   -1    0    0    0  501  0.00000000000E+00  0.00000000000E+00  0.16713412004E+04  0.16713412004E+04  0.25500000920E-02 0.  1.
        2   -1    0    0  501    0  0.00000000000E+00  0.00000000000E+00 -0.17179986401E+04  0.17179986401E+04  0.25500000920E-02 0. -1.
    10030    2    1    2    0    0  0.00000000000E+00  0.00000000000E+00 -0.46657439676E+02  0.33893398404E+04  0.33890186835E+04 0.  0.
        2    1    3    3  502    0 -0.55683489814E+03 -0.11363800094E+04 -0.11503504498E+04  0.17101844307E+04  0.25500000920E-02 0. -1.
       -2    1    3    3    0  502  0.55683489814E+03  0.11363800094E+04  0.11036930101E+04  0.16791554098E+04  0.25500000920E-02 0.  1.
</event>
<event>
 5   0  0.2848685E-06  0.3393905E+04  0.7818609E-02  0.8139404E-01
       -2   -1    0    0    0  501  0.00000000000E+00  0.00000000000E+00  0.97430470875E+03  0.97430470875E+03  0.25500000920E-02 0.  1.
        2   -1    0    0  501    0  0.00000000000E+00  0.00000000000E+00 -0.29555923263E+04  0.29555923263E+04  0.25500000920E-02 0. -1.
    10030    2    1    2    0    0  0.00000000000E+00  0.00000000000E+00 -0.19812876176E+04  0.39298970351E+04  0.33939048429E+04 0.  0.
        3    1    3    3  502    0 -0.56049114084E+03 -0.88408496371E+03 -0.25371998566E+04  0.27446565659E+04  0.10100000352E+00 0. -1.
       -3    1    3    3    0  502  0.56049114084E+03  0.88408496371E+03  0.55591223906E+03  0.11852404692E+04  0.10100000352E+00 0.  1.
</event>
<event>
 5   0  0.2906701E-06  0.3381039E+04  0.7818609E-02  0.8142576E-01
        2   -1    0    0  501    0  0.00000000000E+00  0.00000000000E+00  0.24932047957E+04  0.24932047957E+04  0.25500000920E-02 0.  1.
       -2   -1    0    0    0  501  0.00000000000E+00  0.00000000000E+00 -0.11462580693E+04  0.11462580693E+04  0.25500000920E-02 0. -1.
    10030    2    1    2    0    0  0.00000000000E+00  0.00000000000E+00  0.13469467264E+04  0.36394628651E+04  0.33810389620E+04 0.  0.
        5    1    3    3  502    0 -0.76642544171E+03  0.55730445075E+03 -0.83347088005E+03  0.12620190198E+04  0.46999998093E+01 0. -1.
       -5    1    3    3    0  502  0.76642544171E+03 -0.55730445075E+03  0.21804176065E+04  0.23774438452E+04  0.46999998093E+01 0.  1.
</event>
<event>
 5   0  0.2856440E-06  0.3378369E+04  0.7818609E-02  0.8143236E-01
       -2   -1    0    0    0  501  0.00000000000E+00  0.00000000000E+00  0.15309823993E+04  0.15309823993E+04  0.25500000920E-02 0. -1.
        2   -1    0    0  501    0  0.00000000000E+00  0.00000000000E+00 -0.18637340047E+04  0.18637340047E+04  0.25500000920E-02 0.  1.
    10030    2    1    2    0    0  0.00000000000E+00  0.00000000000E+00 -0.33275160545E+03  0.33947164040E+04  0.33783688124E+04 0.  0.
        4    1    3    3  502    0  0.59909157190E+03  0.60335268341E+03 -0.16330266192E+04  0.18411199646E+04  0.12699999809E+01 0.  1.
       -4    1    3    3    0  502 -0.59909157190E+03 -0.60335268341E+03  0.13002750138E+04  0.15535964394E+04  0.12699999809E+01 0. -1.
</event>
<event>
 5   0  0.2856440E-06  0.3395446E+04  0.7818609E-02  0.8139025E-01
       -2   -1    0    0    0  501  0.00000000000E+00  0.00000000000E+00  0.20706312135E+04  0.20706312135E+04  0.25500000920E-02 0.  1.
        2   -1    0    0  501    0  0.00000000000E+00  0.00000000000E+00 -0.13919735780E+04  0.13919735780E+04  0.25500000920E-02 0. -1.
    10030    2    1    2    0    0  0.00000000000E+00  0.00000000000E+00  0.67865763542E+03  0.34626047915E+04  0.33954463265E+04 0.  0.
        4    1    3    3  502    0 -0.26533016054E+03  0.10266334624E+04  0.16914057563E+04  0.19963044371E+04  0.12699999809E+01 0.  1.
       -4    1    3    3    0  502  0.26533016054E+03 -0.10266334624E+04 -0.10127481209E+04  0.14663003544E+04  0.12699999809E+01 0. -1.
</event>
<event>
 5   0  0.1010855E-06  0.3402214E+04  0.7818609E-02  0.8137363E-01
        1   -1    0    0  501    0  0.00000000000E+00  0.00000000000E+00  0.22177194714E+04  0.22177194714E+04  0.50400001928E-02 0.  1.
       -1   -1    0    0    0  501  0.00000000000E+00  0.00000000000E+00 -0.13048380176E+04  0.13048380176E+04  0.50400001928E-02 0. -1.
    10030    2    1    2    0    0  0.00000000000E+00  0.00000000000E+00  0.91288145377E+03  0.35225574890E+04  0.34022137962E+04 0.  0.
        1    1    3    3  502    0  0.11447323144E+04  0.93061999378E+03 -0.42045228952E+03  0.15340292606E+04  0.50400001928E-02 0. -1.
       -1    1    3    3    0  502 -0.11447323144E+04 -0.93061999378E+03  0.13333337433E+04  0.19885282285E+04  0.50400001928E-02 0.  1.
</event>
<event>
 5   0  0.2664083E-06  0.3503007E+04  0.7818609E-02  0.8113078E-01
       -2   -1    0    0    0  501  0.00000000000E+00  0.00000000000E+00  0.16970601891E+04  0.16970601891E+04  0.25500000920E-02 0.  1.
        2   -1    0    0  501    0  0.00000000000E+00  0.00000000000E+00 -0.18076932254E+04  0.18076932254E+04  0.25500000920E-02 0. -1.
    10030    2    1    2    0    0  0.00000000000E+00  0.00000000000E+00 -0.11063303629E+03  0.35047534144E+04  0.35030068266E+04 0.  0.
        2    1    3    3  502    0  0.64498654961E+03  0.89925409710E+03  0.13029680657E+04  0.17095003248E+04  0.25500000920E-02 0.  1.
       -2    1    3    3    0  502 -0.64498654961E+03 -0.89925409710E+03 -0.14136011020E+04  0.17952530896E+04  0.25500000920E-02 0. -1.
</event>
<event>
 5   0  0.1003191E-06  0.3360432E+04  0.7818609E-02  0.8147686E-01
        1   -1    0    0  501    0  0.00000000000E+00  0.00000000000E+00  0.16435191579E+04  0.16435191579E+04  0.50400001928E-02 0. -1.
       -1   -1    0    0    0  501  0.00000000000E+00  0.00000000000E+00 -0.17177326475E+04  0.17177326475E+04  0.50400001928E-02 0.  1.
    10030    2    1    2    0    0  0.00000000000E+00  0.00000000000E+00 -0.74213489599E+02  0.33612518054E+04  0.33604324211E+04 0.  0.
        5    1    3    3  502    0  0.28478687474E+03 -0.62032365242E+03 -0.15727984757E+04  0.17145326282E+04  0.46999998093E+01 0.  1.
       -5    1    3    3    0  502 -0.28478687474E+03  0.62032365242E+03  0.14985849861E+04  0.16467191772E+04  0.46999998093E+01 0. -1.
</event>
<event>
 5   0  0.1010855E-06  0.3409203E+04  0.7818609E-02  0.8135651E-01
       -1   -1    0    0    0  501  0.00000000000E+00  0.00000000000E+00  0.14865829534E+04  0.14865829534E+04  0.50400001928E-02 0. -1.
        1   -1    0    0  501    0  0.00000000000E+00  0.00000000000E+00 -0.19545940686E+04  0.19545940686E+04  0.50400001928E-02 0.  1.
    10030    2    1    2    0    0  0.00000000000E+00  0.00000000000E+00 -0.46801111522E+03  0.34411770220E+04  0.34092029703E+04 0.  0.
        1    1    3    3  502    0  0.98176923759E+03  0.98698979341E+03 -0.12269216033E+04  0.18556282788E+04  0.50400001928E-02 0.  1.
       -1    1    3    3    0  502 -0.98176923759E+03 -0.98698979341E+03  0.75891048812E+03  0.15855487432E+04  0.50400001928E-02 0. -1.
</event>
<event>
 5   0  0.1003191E-06  0.2543875E+04  0.7818609E-02  0.8387520E-01
       -1   -1    0    0    0  501  0.00000000000E+00  0.00000000000E+00  0.11187837170E+04  0.11187837171E+04  0.50400001928E-02 0. -1.
        1   -1    0    0  501    0  0.00000000000E+00  0.00000000000E+00 -0.14460567406E+04  0.14460567406E+04  0.50400001928E-02 0.  1.
    10030    2    1    2    0    0  0.00000000000E+00  0.00000000000E+00 -0.32727302358E+03  0.25648404577E+04  0.25438747889E+04 0.  0.
        5    1    3    3  502    0  0.80459962066E+03 -0.84004088765E+03  0.35514608625E+03  0.12162236945E+04  0.46999998093E+01 0. -1.
       -5    1    3    3    0  502 -0.80459962066E+03  0.84004088765E+03 -0.68241910983E+03  0.13486167632E+04  0.46999998093E+01 0.  1.
</event>
<event>
 5   0  0.2767014E-06  0.3331097E+04  0.7818609E-02  0.8155028E-01
        2   -1    0    0  501    0  0.00000000000E+00  0.00000000000E+00  0.20042064269E+04  0.20042064269E+04  0.25500000920E-02 0. -1.
       -2   -1    0    0    0  501  0.00000000000E+00  0.00000000000E+00 -0.13841144403E+04  0.13841144403E+04  0.25500000920E-02 0.  1.
    10030    2    1    2    0    0  0.00000000000E+00  0.00000000000E+00  0.62009198656E+03  0.33883208673E+04  0.33310965503E+04 0.  0.
        1    1    3    3  502    0 -0.58182819400E+02  0.20660826782E+03 -0.13699869911E+04  0.13866998856E+04  0.50400001928E-02 0.  1.
       -1    1    3    3    0  502  0.58182819400E+02 -0.20660826782E+03  0.19900789777E+04  0.20016209817E+04  0.50400001928E-02 0. -1.
</event>
<event>
 5   0  0.2848685E-06  0.3103338E+04  0.7818609E-02  0.8214822E-01
        2   -1    0    0  501    0  0.00000000000E+00  0.00000000000E+00  0.17192573857E+04  0.17192573857E+04  0.25500000920E-02 0.  1.
       -2   -1    0    0    0  501  0.00000000000E+00  0.00000000000E+00 -0.14004169502E+04  0.14004169502E+04  0.25500000920E-02 0. -1.
    10030    2    1    2    0    0  0.00000000000E+00  0.00000000000E+00  0.31884043549E+03  0.31196743358E+04  0.31033383216E+04 0.  0.
        3    1    3    3  502    0 -0.74155115148E+03 -0.10744198783E+04 -0.68368470144E+03  0.14736692187E+04  0.10100000352E+00 0. -1.
       -3    1    3    3    0  502  0.74155115148E+03  0.10744198783E+04  0.10025251369E+04  0.16460051171E+04  0.10100000352E+00 0.  1.
</event>
<event>
 5   0  0.2906701E-06  0.2129219E+04  0.7818609E-02  0.8548480E-01
       -2   -1    0    0    0  501  0.00000000000E+00  0.00000000000E+00  0.11933878484E+04  0.11933878484E+04  0.25500000920E-02 0.  1.
        2   -1    0    0  501    0  0.00000000000E+00  0.00000000000E+00 -0.94972792922E+03  0.94972792922E+03  0.25500000920E-02 0. -1.
    10030    2    1    2    0    0  0.00000000000E+00  0.00000000000E+00  0.24365991922E+03  0.21431157777E+04  0.21292193593E+04 0.  0.
        5    1    3    3  502    0  0.16387349411E+03  0.17713591165E+03 -0.92182692589E+03  0.95290011258E+03  0.46999998093E+01 0. -1.
       -5    1    3    3    0  502 -0.16387349411E+03 -0.17713591165E+03  0.11654868451E+04  0.11902156651E+04  0.46999998093E+01 0.  1.
</event>
<event>
 5   0  0.1003191E-06  0.3328373E+04  0.7818609E-02  0.8155713E-01
        1   -1    0    0  501    0  0.00000000000E+00  0.00000000000E+00  0.17379267835E+04  0.17379267835E+04  0.50400001928E-02 0. -1.
       -1   -1    0    0    0  501  0.00000000000E+00  0.00000000000E+00 -0.15935746261E+04  0.15935746261E+04  0.50400001928E-02 0.  1.
    10030    2    1    2    0    0  0.00000000000E+00  0.00000000000E+00  0.14435215735E+03  0.33315014096E+04  0.33283725899E+04 0.  0.
        5    1    3    3  502    0  0.60778181414E+02 -0.14575222429E+04 -0.72946933491E+03  0.16310158419E+04  0.46999998093E+01 0.  1.
       -5    1    3    3    0  502 -0.60778181414E+02  0.14575222429E+04  0.87382149225E+03  0.17004855678E+04  0.46999998093E+01 0. -1.
</event>
<event>
 5   0  0.2848685E-06  0.3411386E+04  0.7818609E-02  0.8135118E-01
        2   -1    0    0  501    0  0.00000000000E+00  0.00000000000E+00  0.17656004232E+04  0.17656004232E+04  0.25500000920E-02 0. -1.
       -2   -1    0    0    0  501  0.00000000000E+00  0.00000000000E+00 -0.16478179092E+04  0.16478179092E+04  0.25500000920E-02 0.  1.
    10030    2    1    2    0    0  0.00000000000E+00  0.00000000000E+00  0.11778251402E+03  0.34134183323E+04  0.34113856409E+04 0.  0.
        3    1    3    3  502    0  0.13557173957E+04  0.13536331146E+03  0.10857069476E+04  0.17421401980E+04  0.10100000352E+00 0. -1.
       -3    1    3    3    0  502 -0.13557173957E+04 -0.13536331146E+03 -0.96792443359E+03  0.16712781344E+04  0.10100000352E+00 0.  1.
</event>
<event>
 5   0  0.2856440E-06  0.3357447E+04  0.7818609E-02  0.8148430E-01
        2   -1    0    0  501    0  0.00000000000E+00  0.00000000000E+00  0.18883331711E+04  0.18883331711E+04  0.25500000920E-02 0. -1.
       -2   -1    0    0    0  501  0.00000000000E+00  0.00000000000E+00 -0.14923813721E+04  0.14923813721E+04  0.25500000920E-02 0.  1.
    10030    2    1    2    0    0  0.00000000000E+00  0.00000000000E+00  0.39595179897E+03  0.33807145432E+04  0.33574473928E+04 0.  0.
        4    1    3    3  502    0 -0.16309525035E+04  0.32556930347E+03 -0.31882637746E+02  0.16634360689E+04  0.12699999809E+01 0.  1.
       -4    1    3    3    0  502  0.16309525035E+04 -0.32556930347E+03  0.42783443671E+03  0.17172784742E+04  0.12699999809E+01 0. -1.
</event>
<event>
 5   0  0.2906701E-06  0.3348901E+04  0.7818609E-02  0.8150563E-01
        2   -1    0    0  501    0  0.00000000000E+00  0.00000000000E+00  0.19668315944E+04  0.19668315944E+04  0.25500000920E-02 0.  1.
       -2   -1    0    0    0  501  0.00000000000E+00  0.00000000000E+00 -0.14255336360E+04  0.14255336360E+04  0.25500000920E-02 0. -1.
    10030    2    1    2    0    0  0.00000000000E+00  0.00000000000E+00  0.54129795846E+03  0.33923652304E+04  0.33489010700E+04 0.  0.
        5    1    3    3  502    0 -0.15457301241E+04 -0.36721136634E+03  0.80631903441E+03  0.17816560497E+04  0.46999998093E+01 0.  1.
       -5    1    3    3    0  502  0.15457301241E+04  0.36721136634E+03 -0.26502107595E+03  0.16107091807E+04  0.46999998093E+01 0. -1.
</event>
<event>
 5   0  0.1003191E-06  0.3406298E+04  0.7818609E-02  0.8136362E-01
        1   -1    0    0  501    0  0.00000000000E+00  0.00000000000E+00  0.18505407567E+04  0.18505407567E+04  0.50400001928E-02 0.  1.
       -1   -1    0    0    0  501  0.00000000000E+00  0.00000000000E+00 -0.15674970757E+04  0.15674970757E+04  0.50400001928E-02 0. -1.
    10030    2    1    2    0    0  0.00000000000E+00  0.00000000000E+00  0.28304368101E+03  0.34180378324E+04  0.34062984159E+04 0.  0.
        5    1    3    3  502    0 -0.73232685709E+03 -0.24839280002E+03 -0.13811707792E+04  0.15829265365E+04  0.46999998093E+01 0. -1.
       -5    1    3    3    0  502  0.73232685709E+03  0.24839280002E+03  0.16642144602E+04  0.18351112959E+04  0.46999998093E+01 0.  1.
</event>
<event>
 5   0  0.2848685E-06  0.3477646E+04  0.7818609E-02  0.8119108E-01
       -2   -1    0    0    0  501  0.00000000000E+00  0.00000000000E+00  0.11621627194E+04  0.11621627194E+04  0.25500000920E-02 0. -1.
        2   -1    0    0  501    0  0.00000000000E+00  0.00000000000E+00 -0.26016190381E+04  0.26016190381E+04  0.25500000920E-02 0.  1.
    10030    2    1    2    0    0  0.00000000000E+00  0.00000000000E+00 -0.14394563187E+04  0.37637817575E+04  0.34776455576E+04 0.  0.
        3    1    3    3  502    0  0.68427915097E+03 -0.66795556030E+02  0.10088051379E+04  0.12208142444E+04  0.10100000352E+00 0. -1.
       -3    1    3    3    0  502 -0.68427915097E+03  0.66795556030E+02 -0.24482614566E+04  0.25429675131E+04  0.10100000352E+00 0.  1.
</event>
<event>
 5   0  0.2767014E-06  0.3416807E+04  0.7818609E-02  0.8133794E-01
       -2   -1    0    0    0  501  0.00000000000E+00  0.00000000000E+00  0.30201959505E+04  0.30201959505E+04  0.25500000920E-02 0.  1.
        2   -1    0    0  501    0  0.00000000000E+00  0.00000000000E+00 -0.96637506850E+03  0.96637506850E+03  0.25500000920E-02 0. -1.
    10030    2    1    2    0    0  0.00000000000E+00  0.00000000000E+00  0.20538208820E+04  0.39865710190E+04  0.34168067364E+04 0.  0.
        1    1    3    3  502    0 -0.26117623976E+03 -0.87179663258E+03 -0.66000671432E+03  0.11242113946E+04  0.50400001928E-02 0. -1.
       -1    1    3    3    0  502  0.26117623976E+03  0.87179663258E+03  0.27138275963E+04  0.28623596244E+04  0.50400001928E-02 0.  1.
</event>
<event>
 5   0  0.2856440E-06  0.3404375E+04  0.7818609E-02  0.8136833E-01
        2   -1    0    0  501    0  0.00000000000E+00  0.00000000000E+00  0.17575982233E+04  0.17575982233E+04  0.25500000920E-02 0. -1.
       -2   -1    0    0    0  501  0.00000000000E+00  0.00000000000E+00 -0.16485238269E+04  0.16485238269E+04  0.25500000920E-02 0.  1.
    10030    2    1    2    0    0  0.00000000000E+00  0.00000000000E+00  0.10907439636E+03  0.34061220502E+04  0.34043751552E+04 0.  0.
        4    1    3    3  502    0  0.45245148941E+03  0.11825278158E+02  0.16962901536E+04  0.17556349523E+04  0.12699999809E+01 0. -1.
       -4    1    3    3    0  502 -0.45245148941E+03 -0.11825278158E+02 -0.15872157573E+04  0.16504870980E+04  0.12699999809E+01 0.  1.
</event>
<event>
 5   0  0.2767014E-06  0.3348175E+04  0.7818609E-02  0.8150744E-01
       -2   -1    0    0    0  501  0.00000000000E+00  0.00000000000E+00  0.18323998667E+04  0.18323998667E+04  0.25500000920E-02 0. -1.
        2   -1    0    0  501    0  0.00000000000E+00  0.00000000000E+00 -0.15294530081E+04  0.15294530081E+04  0.25500000920E-02 0.  1.
    10030    2    1    2    0    0  0.00000000000E+00  0.00000000000E+00  0.30294685866E+03  0.33618528748E+04  0.33481753169E+04 0.  0.
        1    1    3    3  502    0 -0.71202793309E+03  0.64232383815E+03  0.15293056661E+04  0.18050871200E+04  0.50400001928E-02 0. -1.
       -1    1    3    3    0  502  0.71202793309E+03 -0.64232383815E+03 -0.12263588074E+04  0.15567657547E+04  0.50400001928E-02 0.  1.
</event>
<event>
 5   0  0.2848685E-06  0.3274776E+04  0.7818609E-02  0.8169343E-01
        2   -1    0    0  501    0  0.00000000000E+00  0.00000000000E+00  0.82511644228E+03  0.82511644228E+03  0.25500000920E-02 0.  1.
       -2   -1    0    0    0  501  0.00000000000E+00  0.00000000000E+00 -0.32492866187E+04  0.32492866187E+04  0.25500000920E-02 0. -1.
    10030    2    1    2    0    0  0.00000000000E+00  0.00000000000E+00 -0.24241701764E+04  0.40744030609E+04  0.32747762151E+04 0.  0.
        3    1    3    3  502    0  0.34770154604E+03  0.12509757223E+04 -0.24532750082E+04  0.27756791779E+04  0.10100000352E+00 0. -1.
       -3    1    3    3    0  502 -0.34770154604E+03 -0.12509757223E+04  0.29104831821E+02  0.12987238830E+04  0.10100000352E+00 0.  1.
</event>
<event>
 5   0  0.2664083E-06  0.3474324E+04  0.7818609E-02  0.8119902E-01
        2   -1    0    0  501    0  0.00000000000E+00  0.00000000000E+00  0.15282728379E+04  0.15282728379E+04  0.25500000920E-02 0. -1.
       -2   -1    0    0    0  501  0.00000000000E+00  0.00000000000E+00 -0.19746027620E+04  0.19746027620E+04  0.25500000920E-02 0.  1.
    10030    2    1    2    0    0  0.00000000000E+00  0.00000000000E+00 -0.44632992414E+03  0.35028755999E+04  0.34743239727E+04 0.  0.
        2    1    3    3  502    0 -0.13697194939E+03 -0.13016525801E+04  0.92844366023E+03  0.16047019612E+04  0.25500000920E-02 0. -1.
       -2    1    3    3    0  502  0.13697194939E+03  0.13016525801E+04 -0.13747735844E+04  0.18981736386E+04  0.25500000920E-02 0.  1.
</event>
<event>
 5   0  0.2767014E-06  0.2678493E+04  0.7818609E-02  0.8342017E-01
        2   -1    0    0  501    0  0.00000000000E+00  0.00000000000E+00  0.15475355648E+04  0.15475355648E+04  0.25500000920E-02 0.  1.
       -2   -1    0    0    0  501  0.00000000000E+00  0.00000000000E+00 -0.11589920494E+04  0.11589920494E+04  0.25500000920E-02 0. -1.
    10030    2    1    2    0    0  0.00000000000E+00  0.00000000000E+00  0.38854351541E+03  0.27065276142E+04  0.26784931703E+04 0.  0.
        1    1    3    3  502    0  0.17247875249E+02 -0.86056503495E+03 -0.84248447231E+03  0.12044292236E+04  0.50400001928E-02 0. -1.
       -1    1    3    3    0  502 -0.17247875249E+02  0.86056503495E+03  0.12310279877E+04  0.15020983906E+04  0.50400001928E-02 0.  1.
</event>
<event>
 5   0  0.2664083E-06  0.3403062E+04  0.7818609E-02  0.8137155E-01
        2   -1    0    0  501    0  0.00000000000E+00  0.00000000000E+00  0.15282969805E+04  0.15282969805E+04  0.25500000920E-02 0.  1.
       -2   -1    0    0    0  501  0.00000000000E+00  0.00000000000E+00 -0.18944014842E+04  0.18944014842E+04  0.25500000920E-02 0. -1.
    10030    2    1    2    0    0  0.00000000000E+00  0.00000000000E+00 -0.36610450377E+03  0.34226984647E+04  0.34030621905E+04 0.  0.
        2    1    3    3  502    0  0.71996119707E+03 -0.11859988591E+04  0.80765467888E+03  0.16053795499E+04  0.25500000920E-02 0.  1.
       -2    1    3    3    0  502 -0.71996119707E+03  0.11859988591E+04 -0.11737591827E+04  0.18173189148E+04  0.25500000920E-02 0. -1.
</event>
<event>
 5   0  0.1010855E-06  0.3479847E+04  0.7818609E-02  0.8118582E-01
        1   -1    0    0  501    0  0.00000000000E+00  0.00000000000E+00  0.27410282533E+04  0.27410282533E+04  0.50400001928E-02 0.  1.
       -1   -1    0    0    0  501  0.00000000000E+00  0.00000000000E+00 -0.11044521893E+04  0.11044521893E+04  0.50400001928E-02 0. -1.
    10030    2    1    2    0    0  0.00000000000E+00  0.00000000000E+00  0.16365760640E+04  0.38454804426E+04  0.34798474996E+04 0.  0.
        1    1    3    3  502    0 -0.63023703725E+03  0.11994654107E+04 -0.38792104979E+03  0.14093965856E+04  0.50400001928E-02 0. -1.
       -1    1    3    3    0  502  0.63023703725E+03 -0.11994654107E+04  0.20244971138E+04  0.24360838570E+04  0.50400001928E-02 0.  1.
</event>
<event>
 5   0  0.1010551E-06  0.2333332E+04  0.7818609E-02  0.8464894E-01
       -1   -1    0    0    0  501  0.00000000000E+00  0.00000000000E+00  0.84497660645E+03  0.84497660646E+03  0.50400001928E-02 0.  1.
        1   -1    0    0  501    0  0.00000000000E+00  0.00000000000E+00 -0.16108252347E+04  0.16108252347E+04  0.50400001928E-02 0. -1.
    10030    2    1    2    0    0  0.00000000000E+00  0.00000000000E+00 -0.76584862822E+03  0.24558018411E+04  0.23333320727E+04 0.  0.
        2    1    3    3  502    0 -0.41863282163E+03  0.70472927619E+03 -0.12566869160E+04  0.15003862159E+04  0.25500000920E-02 0. -1.
       -2    1    3    3    0  502  0.41863282163E+03 -0.70472927619E+03  0.49083828781E+03  0.95541562519E+03  0.25500000920E-02 0.  1.
</event>
<event>
 5   0  0.9714317E-07  0.3359737E+04  0.7818609E-02  0.8147859E-01
       -1   -1    0    0    0  501  0.00000000000E+00  0.00000000000E+00  0.23180469678E+04  0.23180469678E+04  0.50400001928E-02 0.  1.
        1   -1    0    0  501    0  0.00000000000E+00  0.00000000000E+00 -0.12173864062E+04  0.12173864062E+04  0.50400001928E-02 0. -1.
    10030    2    1    2    0    0  0.00000000000E+00  0.00000000000E+00  0.11006605616E+04  0.35354333741E+04  0.33597374109E+04 0.  0.
        4    1    3    3  502    0 -0.63289822873E+03  0.10922192944E+04  0.17166477727E+04  0.21308177640E+04  0.12699999809E+01 0. -1.
       -4    1    3    3    0  502  0.63289822873E+03 -0.10922192944E+04 -0.61598721110E+03  0.14046156101E+04  0.12699999809E+01 0.  1.
</event>
<event>
 5   0  0.9070500E-07  0.3342916E+04  0.7818609E-02  0.8152060E-01
        3   -1    0    0  501    0  0.00000000000E+00  0.00000000000E+00  0.17933911814E+04  0.17933911842E+04  0.10100000352E+00 0.  1.
       -3   -1    0    0    0  501  0.00000000000E+00  0.00000000000E+00 -0.15578152455E+04  0.15578152488E+04  0.10100000352E+00 0. -1.
    10030    2    1    2    0    0  0.00000000000E+00  0.00000000000E+00  0.23557593581E+03  0.33512064330E+04  0.33429161723E+04 0.  0.
        4    1    3    3  502    0 -0.19527040718E+03  0.16437623253E+04 -0.11448775460E+03  0.16592751950E+04  0.12699999809E+01 0.  1.
       -4    1    3    3    0  502  0.19527040718E+03 -0.16437623253E+04  0.35006369041E+03  0.16919312380E+04  0.12699999809E+01 0. -1.
</event>
<event>
 5   0  0.2848685E-06  0.3331801E+04  0.7818609E-02  0.8154851E-01
       -2   -1    0    0    0  501  0.00000000000E+00  0.00000000000E+00  0.27298840918E+04  0.27298840918E+04  0.25500000920E-02 0.  1.
        2   -1    0    0  501    0  0.00000000000E+00  0.00000000000E+00 -0.10166087111E+04  0.10166087111E+04  0.25500000920E-02 0. -1.
    10030    2    1    2    0    0  0.00000000000E+00  0.00000000000E+00  0.17132753807E+04  0.37464928029E+04  0.33318006831E+04 0.  0.
        3    1    3    3  502    0  0.90128636914E+03  0.47803722915E+03 -0.62423908757E+03  0.11960397821E+04  0.10100000352E+00 0. -1.
       -3    1    3    3    0  502 -0.90128636914E+03 -0.47803722915E+03  0.23375144683E+04  0.25504530208E+04  0.10100000352E+00 0.  1.
</event>
<event>
 5   0  0.2848685E-06  0.3447864E+04  0.7818609E-02  0.8126258E-01
        2   -1    0    0  501    0  0.00000000000E+00  0.00000000000E+00  0.17330110592E+04  0.17330110592E+04  0.25500000920E-02 0.  1.
       -2   -1    0    0    0  501  0.00000000000E+00  0.00000000000E+00 -0.17149007737E+04  0.17149007737E+04  0.25500000920E-02 0. -1.
    10030    2    1    2    0    0  0.00000000000E+00  0.00000000000E+00  0.18110285559E+02  0.34479118329E+04  0.34478642701E+04 0.  0.
        3    1    3    3  502    0 -0.35422841472E+03 -0.21295112872E+03  0.16827317321E+04  0.17327469652E+04  0.10100000352E+00 0.  1.
       -3    1    3    3    0  502  0.35422841472E+03  0.21295112872E+03 -0.16646214465E+04  0.17151648677E+04  0.10100000352E+00 0. -1.
</event>
<event>
 5   0  0.9232963E-07  0.3369368E+04  0.7818609E-02  0.8145466E-01
       -1   -1    0    0    0  501  0.00000000000E+00  0.00000000000E+00  0.18111382284E+04  0.18111382284E+04  0.50400001928E-02 0. -1.
        1   -1    0    0  501    0  0.00000000000E+00  0.00000000000E+00 -0.15670589283E+04  0.15670589283E+04  0.50400001928E-02 0.  1.
    10030    2    1    2    0    0  0.00000000000E+00  0.00000000000E+00  0.24407930015E+03  0.33781971567E+04  0.33693680898E+04 0.  0.
        3    1    3    3  502    0 -0.28907615209E+03  0.10372133361E+04  0.14211137307E+04  0.17829584325E+04  0.10100000352E+00 0. -1.
       -3    1    3    3    0  502  0.28907615209E+03 -0.10372133361E+04 -0.11770344306E+04  0.15952387242E+04  0.10100000352E+00 0.  1.
</event>
<event>
 5   0  0.9714317E-07  0.3266371E+04  0.7818609E-02  0.8171505E-01
        1   -1    0    0  501    0  0.00000000000E+00  0.00000000000E+00  0.27658812265E+04  0.27658812265E+04  0.50400001928E-02 0. -1.
       -1   -1    0    0    0  501  0.00000000000E+00  0.00000000000E+00 -0.96435623528E+03  0.96435623529E+03  0.50400001928E-02 0.  1.
    10030    2    1    2    0    0  0.00000000000E+00  0.00000000000E+00  0.18015249912E+04  0.37302374618E+04  0.32663709568E+04 0.  0.
        4    1    3    3  502    0 -0.56671164326E+03  0.14859860712E+04  0.13249653060E+04  0.20699882525E+04  0.12699999809E+01 0. -1.
       -4    1    3    3    0  502  0.56671164326E+03 -0.14859860712E+04  0.47655968517E+03  0.16602492093E+04  0.12699999809E+01 0.  1.
</event>
<event>
 5   0  0.1003191E-06  0.3452974E+04  0.7818609E-02  0.8125026E-01
       -1   -1    0    0    0  501  0.00000000000E+00  0.00000000000E+00  0.24085796281E+04  0.24085796281E+04  0.50400001928E-02 0. -1.
        1   -1    0    0  501    0  0.00000000000E+00  0.00000000000E+00 -0.12375584776E+04  0.12375584776E+04  0.50400001928E-02 0.  1.
    10030    2    1    2    0    0  0.00000000000E+00  0.00000000000E+00  0.11710211506E+04  0.36461381057E+04  0.34529744498E+04 0.  0.
        5    1    3    3  502    0 -0.11808474188E+04  0.26743428538E+03 -0.71411859722E+03  0.14056703683E+04  0.46999998093E+01 0.  1.
       -5    1    3    3    0  502  0.11808474188E+04 -0.26743428538E+03  0.18851397478E+04  0.22404677374E+04  0.46999998093E+01 0. -1.
</event>
<event>
 5   0  0.2856440E-06  0.3428804E+04  0.7818609E-02  0.8130873E-01
       -2   -1    0    0    0  501  0.00000000000E+00  0.00000000000E+00  0.16122240851E+04  0.16122240852E+04  0.25500000920E-02 0.  1.
        2   -1    0    0  501    0  0.00000000000E+00  0.00000000000E+00 -0.18230559613E+04  0.18230559613E+04  0.25500000920E-02 0. -1.
    10030    2    1    2    0    0  0.00000000000E+00  0.00000000000E+00 -0.21083187615E+03  0.34352800465E+04  0.34288042985E+04 0.  0.
        4    1    3    3  502    0  0.54213424835E+03  0.78419634149E+03 -0.15329928674E+04  0.18052540513E+04  0.12699999809E+01 0. -1.
       -4    1    3    3    0  502 -0.54213424835E+03 -0.78419634149E+03  0.13221609913E+04  0.16300259952E+04  0.12699999809E+01 0.  1.
</event>
<event>
 5   0  0.2856440E-06  0.3271682E+04  0.7818609E-02  0.8170138E-01
       -2   -1    0    0    0  501  0.00000000000E+00  0.00000000000E+00  0.10674681692E+04  0.10674681692E+04  0.25500000920E-02 0.  1.
        2   -1    0    0  501    0  0.00000000000E+00  0.00000000000E+00 -0.25068436266E+04  0.25068436266E+04  0.25500000920E-02 0. -1.
    10030    2    1    2    0    0  0.00000000000E+00  0.00000000000E+00 -0.14393754574E+04  0.35743117959E+04  0.32716819996E+04 0.  0.
        4    1    3    3  502    0 -0.13496536975E+04  0.87947513756E+03 -0.10304891120E+04  0.19123156234E+04  0.12699999809E+01 0. -1.
       -4    1    3    3    0  502  0.13496536975E+04 -0.87947513756E+03 -0.40888634539E+03  0.16619961724E+04  0.12699999809E+01 0.  1.
</event>
<event>
 5   0  0.2848685E-06  0.2306428E+04  0.7818609E-02  0.8475391E-01
        2   -1    0    0  501    0  0.00000000000E+00  0.00000000000E+00  0.21499623895E+04  0.21499623895E+04  0.25500000920E-02 0. -1.
       -2   -1    0    0    0  501  0.00000000000E+00  0.00000000000E+00 -0.61857039031E+03  0.61857039031E+03  0.25500000920E-02 0.  1.
    10030    2    1    2    0    0  0.00000000000E+00  0.00000000000E+00  0.15313919992E+04  0.27685327798E+04  0.23064284723E+04 0.  0.
        3    1    3    3  502    0 -0.26052726380E+03  0.64853577351E+03 -0.33538346986E+03  0.77521299444E+03  0.10100000352E+00 0.  1.
       -3    1    3    3    0  502  0.26052726380E+03 -0.64853577351E+03  0.18667754690E+04  0.19933197853E+04  0.10100000352E+00 0. -1.
</event>
<event>
 5   0  0.1010855E-06  0.3385029E+04  0.7818609E-02  0.8141590E-01
       -1   -1    0    0    0  501  0.00000000000E+00  0.00000000000E+00  0.11489923004E+04  0.11489923004E+04  0.50400001928E-02 0.  1.
        1   -1    0    0  501    0  0.00000000000E+00  0.00000000000E+00 -0.24931463300E+04  0.24931463300E+04  0.50400001928E-02 0. -1.
    10030    2    1    2    0    0  0.00000000000E+00  0.00000000000E+00 -0.13441540295E+04  0.36421386304E+04  0.33850293570E+04 0.  0.
        1    1    3    3  502    0 -0.11134451317E+04  0.11819199284E+04 -0.15841573779E+03  0.16314994099E+04  0.50400001928E-02 0.  1.
       -1    1    3    3    0  502  0.11134451317E+04 -0.11819199284E+04 -0.11857382917E+04  0.20106392205E+04  0.50400001928E-02 0. -1.
</event>
<event>
 5   0  0.2856440E-06  0.3425536E+04  0.7818609E-02  0.8131667E-01
       -2   -1    0    0    0  501  0.00000000000E+00  0.00000000000E+00  0.22822617127E+04  0.22822617127E+04  0.25500000920E-02 0.  1.
        2   -1    0    0  501    0  0.00000000000E+00  0.00000000000E+00 -0.12853800511E+04  0.12853800511E+04  0.25500000920E-02 0. -1.
    10030    2    1    2    0    0  0.00000000000E+00  0.00000000000E+00  0.99688166165E+03  0.35676417638E+04  0.34255356818E+04 0.  0.
        4    1    3    3  502    0 -0.74600606731E+03 -0.15685423231E+03 -0.10989543448E+04  0.13374717072E+04  0.12699999809E+01 0. -1.
       -4    1    3    3    0  502  0.74600606731E+03  0.15685423231E+03  0.20958360064E+04  0.22301700566E+04  0.12699999809E+01 0.  1.
</event>
<event>
 5   0  0.9714317E-07  0.3393524E+04  0.7818609E-02  0.8139498E-01
       -1   -1    0    0    0  501  0.00000000000E+00  0.00000000000E+00  0.97566971987E+03  0.97566971989E+03  0.50400001928E-02 0. -1.
        1   -1    0    0  501    0  0.00000000000E+00  0.00000000000E+00 -0.29507944264E+04  0.29507944264E+04  0.50400001928E-02 0.  1.
    10030    2    1    2    0    0  0.00000000000E+00  0.00000000000E+00 -0.19751247065E+04  0.39264641463E+04  0.33935236975E+04 0.  0.
        4    1    3    3  502    0  0.69688054819E+03 -0.13900977351E+04 -0.20197565371E+03  0.15680593066E+04  0.12699999809E+01 0. -1.
       -4    1    3    3    0  502 -0.69688054819E+03  0.13900977351E+04 -0.17731490528E+04  0.23584048397E+04  0.12699999809E+01 0.  1.
</event>
<event>
 5   0  0.2767014E-06  0.3335664E+04  0.7818609E-02  0.8153880E-01
       -2   -1    0    0    0  501  0.00000000000E+00  0.00000000000E+00  0.21756943823E+04  0.21756943823E+04  0.25500000920E-02 0. -1.
        2   -1    0    0  501    0  0.00000000000E+00  0.00000000000E+00 -0.12785176358E+04  0.12785176358E+04  0.25500000920E-02 0.  1.
    10030    2    1    2    0    0  0.00000000000E+00  0.00000000000E+00  0.89717674656E+03  0.34542120181E+04  0.33356640345E+04 0.  0.
        1    1    3    3  502    0 -0.14172138505E+04 -0.56936458217E+03  0.11424713578E+04  0.19073311010E+04  0.50400001928E-02 0.  1.
       -1    1    3    3    0  502  0.14172138505E+04  0.56936458217E+03 -0.24529461123E+03  0.15468809171E+04  0.50400001928E-02 0. -1.
</event>
<event>
 5   0  0.2906701E-06  0.3424163E+04  0.7818609E-02  0.8132001E-01
       -2   -1    0    0    0  501  0.00000000000E+00  0.00000000000E+00  0.24174480074E+04  0.24174480074E+04  0.25500000920E-02 0. -1.
        2   -1    0    0  501    0  0.00000000000E+00  0.00000000000E+00 -0.12125275913E+04  0.12125275913E+04  0.25500000920E-02 0.  1.
    10030    2    1    2    0    0  0.00000000000E+00  0.00000000000E+00  0.12049204161E+04  0.36299755987E+04  0.34241626185E+04 0.  0.
        5    1    3    3  502    0  0.82108804145E+03  0.13868731680E+04 -0.98348567482E+01  0.16117448837E+04  0.46999998093E+01 0.  1.
       -5    1    3    3    0  502 -0.82108804145E+03 -0.13868731680E+04  0.12147552728E+04  0.20182307149E+04  0.46999998093E+01 0. -1.
</event>
<event>
 5   0  0.1010855E-06  0.3378138E+04  0.7818609E-02  0.8143293E-01
        1   -1    0    0  501    0  0.00000000000E+00  0.00000000000E+00  0.10283466143E+04  0.10283466143E+04  0.50400001928E-02 0. -1.
       -1   -1    0    0    0  501  0.00000000000E+00  0.00000000000E+00 -0.27743119976E+04  0.27743119976E+04  0.50400001928E-02 0.  1.
    10030    2    1    2    0    0  0.00000000000E+00  0.00000000000E+00 -0.17459653833E+04  0.38026586119E+04  0.33781381557E+04 0.  0.
        1    1    3    3  502    0  0.11539699921E+04 -0.55815077574E+03 -0.21111014140E+04  0.24698032739E+04  0.50400001928E-02 0.  1.
       -1    1    3    3    0  502 -0.11539699921E+04  0.55815077574E+03  0.36513603078E+03  0.13328553381E+04  0.50400001928E-02 0. -1.
</event>
<event>
 5   0  0.1010855E-06  0.2665637E+04  0.7818609E-02  0.8346242E-01
       -1   -1    0    0    0  501  0.00000000000E+00  0.00000000000E+00  0.13132542624E+04  0.13132542624E+04  0.50400001928E-02 0.  1.
        1   -1    0    0  501    0  0.00000000000E+00  0.00000000000E+00 -0.13526739211E+04  0.13526739211E+04  0.50400001928E-02 0. -1.
    10030    2    1    2    0    0  0.00000000000E+00  0.00000000000E+00 -0.39419658670E+02  0.26659281835E+04  0.26656367288E+04 0.  0.
        1    1    3    3  502    0  0.99114976480E+03 -0.85727242104E+03  0.22344415298E+03  0.13293687034E+04  0.50400001928E-02 0.  1.
       -1    1    3    3    0  502 -0.99114976480E+03  0.85727242104E+03 -0.26286381165E+03  0.13365594800E+04  0.50400001928E-02 0. -1.
</event>
<event>
 5   0  0.9714317E-07  0.3441797E+04  0.7818609E-02  0.8127723E-01
       -1   -1    0    0    0  501  0.00000000000E+00  0.00000000000E+00  0.18669955590E+04  0.18669955590E+04  0.50400001928E-02 0.  1.
        1   -1    0    0  501    0  0.00000000000E+00  0.00000000000E+00 -0.15862340018E+04  0.15862340018E+04  0.50400001928E-02 0. -1.
    10030    2    1    2    0    0  0.00000000000E+00  0.00000000000E+00  0.28076155720E+03  0.34532295607E+04  0.34417971101E+04 0.  0.
        4    1    3    3  502    0  0.57600919925E+02 -0.16750204491E+04 -0.25140168479E+03  0.16947612784E+04  0.12699999809E+01 0.  1.
       -4    1    3    3    0  502 -0.57600919925E+02  0.16750204491E+04  0.53216324199E+03  0.17584682823E+04  0.12699999809E+01 0. -1.
</event>
<event>
 5   0  0.2856440E-06  0.3342397E+04  0.7818609E-02  0.8152190E-01
       -2   -1    0    0    0  501  0.00000000000E+00  0.00000000000E+00  0.10890668581E+04  0.10890668581E+04  0.25500000920E-02 0.  1.
        2   -1    0    0  501    0  0.00000000000E+00  0.00000000000E+00 -0.25644932275E+04  0.25644932275E+04  0.25500000920E-02 0. -1.
    10030    2    1    2    0    0  0.00000000000E+00  0.00000000000E+00 -0.14754263694E+04  0.36535600856E+04  0.33423970930E+04 0.  0.
        4    1    3    3  502    0  0.16503456560E+04  0.32226191866E+02 -0.10232260661E+04  0.19420794286E+04  0.12699999809E+01 0.  1.
       -4    1    3    3    0  502 -0.16503456560E+04 -0.32226191866E+02 -0.45220030337E+03  0.17114806570E+04  0.12699999809E+01 0. -1.
</event>
<event>
 5   0  0.1010855E-06  0.2970939E+04  0.7818609E-02  0.8252079E-01
       -1   -1    0    0    0  501  0.00000000000E+00  0.00000000000E+00  0.22518089197E+04  0.22518089197E+04  0.50400001928E-02 0.  1.
        1   -1    0    0  501    0  0.00000000000E+00  0.00000000000E+00 -0.97993183584E+03  0.97993183585E+03  0.50400001928E-02 0. -1.
    10030    2    1    2    0    0  0.00000000000E+00  0.00000000000E+00  0.12718770839E+04  0.32317407556E+04  0.29709387397E+04 0.  0.
        1    1    3    3  502    0 -0.25547935496E+03 -0.12229588454E+04  0.15100470440E+04  0.19598826785E+04  0.50400001928E-02 0.  1.
       -1    1    3    3    0  502  0.25547935496E+03  0.12229588454E+04 -0.23816996010E+03  0.12718580771E+04  0.50400001928E-02 0. -1.
</event>
<event>
 5   0  0.2767014E-06  0.3373908E+04  0.7818609E-02  0.8144340E-01
        2   -1    0    0  501    0  0.00000000000E+00  0.00000000000E+00  0.21055073767E+04  0.21055073767E+04  0.25500000920E-02 0.  1.
       -2   -1    0    0    0  501  0.00000000000E+00  0.00000000000E+00 -0.13516050947E+04  0.13516050947E+04  0.25500000920E-02 0. -1.
    10030    2    1    2    0    0  0.00000000000E+00  0.00000000000E+00  0.75390228203E+03  0.34571124714E+04  0.33739084145E+04 0.  0.
        1    1    3    3  502    0  0.10304653736E+04 -0.10907027215E+04  0.11668865028E+04  0.19008196714E+04  0.50400001928E-02 0.  1.
       -1    1    3    3    0  502 -0.10304653736E+04  0.10907027215E+04 -0.41298422080E+03  0.15562928000E+04  0.50400001928E-02 0. -1.
</event>
<event>
 5   0  0.9070500E-07  0.3378800E+04  0.7818609E-02  0.8143129E-01
       -3   -1    0    0    0  501  0.00000000000E+00  0.00000000000E+00  0.25458484418E+04  0.25458484438E+04  0.10100000352E+00 0. -1.
        3   -1    0    0  501    0  0.00000000000E+00  0.00000000000E+00 -0.11210694950E+04  0.11210694996E+04  0.10100000352E+00 0.  1.
    10030    2    1    2    0    0  0.00000000000E+00  0.00000000000E+00  0.14247789467E+04  0.36669179434E+04  0.33788004020E+04 0.  0.
        4    1    3    3  502    0  0.83235144397E+03  0.40250324144E+03 -0.82213070001E+03  0.12372220037E+04  0.12699999809E+01 0.  1.
       -4    1    3    3    0  502 -0.83235144397E+03 -0.40250324144E+03  0.22469096467E+04  0.24296959396E+04  0.12699999809E+01 0. -1.
</event>
<event>
 5   0  0.2848685E-06  0.3339642E+04  0.7818609E-02  0.8152881E-01
        2   -1    0    0  501    0  0.00000000000E+00  0.00000000000E+00  0.18911386068E+04  0.18911386068E+04  0.25500000920E-02 0.  1.
       -2   -1    0    0    0  501  0.00000000000E+00  0.00000000000E+00 -0.14744041187E+04  0.14744041187E+04  0.25500000920E-02 0. -1.
    10030    2    1    2    0    0  0.00000000000E+00  0.00000000000E+00  0.41673448809E+03  0.33655427256E+04  0.33396422269E+04 0.  0.
        3    1    3    3  502    0  0.43650156731E+03  0.12562046134E+04  0.12260101214E+04  0.18087798310E+04  0.10100000352E+00 0.  1.
       -3    1    3    3    0  502 -0.43650156731E+03 -0.12562046134E+04 -0.80927563328E+03  0.15567628946E+04  0.10100000352E+00 0. -1.
</event>
<event>
 5   0  0.1010855E-06  0.3185870E+04  0.7818609E-02  0.8192559E-01
       -1   -1    0    0    0  501  0.00000000000E+00  0.00000000000E+00  0.14912290865E+04  0.14912290865E+04  0.50400001928E-02 0.  1.
        1   -1    0    0  501    0  0.00000000000E+00  0.00000000000E+00 -0.17015778003E+04  0.17015778003E+04  0.50400001928E-02 0. -1.
    10030    2    1    2    0    0  0.00000000000E+00  0.00000000000E+00 -0.21034871384E+03  0.31928068868E+04  0.31858702477E+04 0.  0.
        1    1    3    3  502    0 -0.96022023878E+03 -0.86380668054E+03  0.82919539517E+03  0.15348452338E+04  0.50400001928E-02 0.  1.
       -1    1    3    3    0  502  0.96022023878E+03  0.86380668054E+03 -0.10395441090E+04  0.16579616530E+04  0.50400001928E-02 0. -1.
</event>
<event>
 5   0  0.9070500E-07  0.2874155E+04  0.7818609E-02  0.8280609E-01
        3   -1    0    0  501    0  0.00000000000E+00  0.00000000000E+00  0.20462256018E+04  0.20462256042E+04  0.10100000352E+00 0.  1.
       -3   -1    0    0    0  501  0.00000000000E+00  0.00000000000E+00 -0.10092690261E+04  0.10092690312E+04  0.10100000352E+00 0. -1.
    10030    2    1    2    0    0  0.00000000000E+00  0.00000000000E+00  0.10369565756E+04  0.30554946354E+04  0.28741552720E+04 0.  0.
        4    1    3    3  502    0 -0.24912304458E+02 -0.10932024410E+03 -0.10046113703E+04  0.10108497202E+04  0.12699999809E+01 0. -1.
       -4    1    3    3    0  502  0.24912304458E+02  0.10932024410E+03  0.20415679459E+04  0.20446449152E+04  0.12699999809E+01 0.  1.
</event>
<event>
 5   0  0.2906701E-06  0.3354844E+04  0.7818609E-02  0.8149079E-01
       -2   -1    0    0    0  501  0.00000000000E+00  0.00000000000E+00  0.11466436915E+04  0.11466436915E+04  0.25500000920E-02 0. -1.
        2   -1    0    0  501    0  0.00000000000E+00  0.00000000000E+00 -0.24538967206E+04  0.24538967206E+04  0.25500000920E-02 0.  1.
    10030    2    1    2    0    0  0.00000000000E+00  0.00000000000E+00 -0.13072530290E+04  0.36005404121E+04  0.33548443745E+04 0.  0.
        5    1    3    3  502    0 -0.56651283280E+03 -0.14093535169E+04  0.11018972080E+03  0.15229504227E+04  0.46999998093E+01 0.  1.
       -5    1    3    3    0  502  0.56651283280E+03  0.14093535169E+04 -0.14174427498E+04  0.20775899895E+04  0.46999998093E+01 0. -1.
</event>
<event>
 5   0  0.1010855E-06  0.3160497E+04  0.7818609E-02  0.8199328E-01
        1   -1    0    0  501    0  0.00000000000E+00  0.00000000000E+00  0.15653647719E+04  0.15653647719E+04  0.50400001928E-02 0. -1.
       -1   -1    0    0    0  501  0.00000000000E+00  0.00000000000E+00 -0.15952740864E+04  0.15952740864E+04  0.50400001928E-02 0.  1.
    10030    2    1    2    0    0  0.00000000000E+00  0.00000000000E+00 -0.29909314486E+02  0.31606388584E+04  0.31604973384E+04 0.  0.
        1    1    3    3  502    0  0.77561243472E+03  0.11838559581E+03  0.13568195842E+04  0.15673382475E+04  0.50400001928E-02 0. -1.
       -1    1    3    3    0  502 -0.77561243472E+03 -0.11838559581E+03 -0.13867288986E+04  0.15933006109E+04  0.50400001928E-02 0.  1.
</event>
<event>
 5   0  0.1003191E-06  0.3363594E+04  0.7818609E-02  0.8146900E-01
       -1   -1    0    0    0  501  0.00000000000E+00  0.00000000000E+00  0.17222691030E+04  0.17222691030E+04  0.50400001928E-02 0.  1.
        1   -1    0    0  501    0  0.00000000000E+00  0.00000000000E+00 -0.16422758824E+04  0.16422758824E+04  0.50400001928E-02 0. -1.
    10030    2    1    2    0    0  0.00000000000E+00  0.00000000000E+00  0.79993220594E+02  0.33645449854E+04  0.33635939177E+04 0.  0.
        5    1    3    3  502    0  0.14533441914E+04 -0.32507755572E+03 -0.74159118066E+03  0.16636899727E+04  0.46999998093E+01 0. -1.
       -5    1    3    3    0  502 -0.14533441914E+04  0.32507755572E+03  0.82158440125E+03  0.17008550127E+04  0.46999998093E+01 0.  1.
</event>
<event>
 5   0  0.9232963E-07  0.3263382E+04  0.7818609E-02  0.8172276E-01
        1   -1    0    0  501    0  0.00000000000E+00  0.00000000000E+00  0.15314703556E+04  0.15314703556E+04  0.50400001928E-02 0.  1.
       -1   -1    0    0    0  501  0.00000000000E+00  0.00000000000E+00 -0.17384698068E+04  0.17384698068E+04  0.50400001928E-02 0. -1.
    10030    2    1    2    0    0  0.00000000000E+00  0.00000000000E+00 -0.20699945120E+03  0.32699401624E+04  0.32633816652E+04 0.  0.
        3    1    3    3  502    0  0.45087412508E+03 -0.49392776115E+03  0.13878337492E+04  0.15405630904E+04  0.10100000352E+00 0.  1.
       -3    1    3    3    0  502 -0.45087412508E+03  0.49392776115E+03 -0.15948332004E+04  0.17293770720E+04  0.10100000352E+00 0. -1.
</event>
<event>
 5   0  0.2856440E-06  0.2862176E+04  0.7818609E-02  0.8284221E-01
        2   -1    0    0  501    0  0.00000000000E+00  0.00000000000E+00  0.13865689599E+04  0.13865689599E+04  0.25500000920E-02 0.  1.
       -2   -1    0    0    0  501  0.00000000000E+00  0.00000000000E+00 -0.14770360423E+04  0.14770360423E+04  0.25500000920E-02 0. -1.
    10030    2    1    2    0    0  0.00000000000E+00  0.00000000000E+00 -0.90467082394E+02  0.28636050021E+04  0.28621756262E+04 0.  0.
        4    1    3    3  502    0  0.72659880631E+03  0.64400430780E+03 -0.10971021732E+04  0.14650331618E+04  0.12699999809E+01 0. -1.
       -4    1    3    3    0  502 -0.72659880631E+03 -0.64400430780E+03  0.10066350908E+04  0.13985718404E+04  0.12699999809E+01 0.  1.
</event>
<event>
 5   0  0.1010551E-06  0.3341980E+04  0.7818609E-02  0.8152295E-01
       -1   -1    0    0    0  501  0.00000000000E+00  0.00000000000E+00  0.18356753441E+04  0.18356753441E+04  0.50400001928E-02 0. -1.
        1   -1    0    0  501    0  0.00000000000E+00  0.00000000000E+00 -0.15210788479E+04  0.15210788479E+04  0.50400001928E-02 0.  1.
    10030    2    1    2    0    0  0.00000000000E+00  0.00000000000E+00  0.31459649616E+03  0.33567541920E+04  0.33419796154E+04 0.  0.
        2    1    3    3  502    0 -0.11589332938E+03 -0.16027685573E+04  0.61748158171E+03  0.17215056827E+04  0.25500000920E-02 0. -1.
       -2    1    3    3    0  502  0.11589332938E+03  0.16027685573E+04 -0.30288508554E+03  0.16352485092E+04  0.25500000920E-02 0.  1.
</event>
<event>
 5   0  0.2767014E-06  0.2243658E+04  0.7818609E-02  0.8500473E-01
       -2   -1    0    0    0  501  0.00000000000E+00  0.00000000000E+00  0.77239044763E+03  0.77239044763E+03  0.25500000920E-02 0. -1.
        2   -1    0    0  501    0  0.00000000000E+00  0.00000000000E+00 -0.16293583494E+04  0.16293583494E+04  0.25500000920E-02 0.  1.
    10030    2    1    2    0    0  0.00000000000E+00  0.00000000000E+00 -0.85696790176E+03  0.24017487970E+04  0.22436584632E+04 0.  0.
        1    1    3    3  502    0 -0.51261774086E+03 -0.52131748193E+03  0.48232168215E+03  0.87588987339E+03  0.50400001928E-02 0. -1.
       -1    1    3    3    0  502  0.51261774086E+03  0.52131748193E+03 -0.13392895839E+04  0.15258589236E+04  0.50400001928E-02 0.  1.
</event>
<event>
 5   0  0.2856440E-06  0.3378120E+04  0.7818609E-02  0.8143297E-01
       -2   -1    0    0    0  501  0.00000000000E+00  0.00000000000E+00  0.17111223571E+04  0.17111223571E+04  0.25500000920E-02 0. -1.
        2   -1    0    0  501    0  0.00000000000E+00  0.00000000000E+00 -0.16672816714E+04  0.16672816714E+04  0.25500000920E-02 0.  1.
    10030    2    1    2    0    0  0.00000000000E+00  0.00000000000E+00  0.43840685702E+02  0.33784040285E+04  0.33781195618E+04 0.  0.
        4    1    3    3  502    0  0.92165523543E+03 -0.12720196708E+04  0.64280989179E+03  0.16972591392E+04  0.12699999809E+01 0. -1.
       -4    1    3    3    0  502 -0.92165523543E+03  0.12720196708E+04 -0.59896920608E+03  0.16811448892E+04  0.12699999809E+01 0.  1.
</event>
<event>
 5   0  0.2856440E-06  0.2639260E+04  0.7818609E-02  0.8354986E-01
        2   -1    0    0  501    0  0.00000000000E+00  0.00000000000E+00  0.14714259160E+04  0.14714259160E+04  0.25500000920E-02 0. -1.
       -2   -1    0    0    0  501  0.00000000000E+00  0.00000000000E+00 -0.11834938199E+04  0.11834938199E+04  0.25500000920E-02 0.  1.
    10030    2    1    2    0    0  0.00000000000E+00  0.00000000000E+00  0.28793209606E+03  0.26549197359E+04  0.26392601070E+04 0.  0.
        4    1    3    3  502    0 -0.17291426509E+00  0.10169422101E+04  0.98993767265E+03  0.14192074187E+04  0.12699999809E+01 0. -1.
       -4    1    3    3    0  502  0.17291426509E+00 -0.10169422101E+04 -0.70200557658E+03  0.12357123173E+04  0.12699999809E+01 0.  1.
</event>
<event>
 5   0  0.2664083E-06  0.2513404E+04  0.7818609E-02  0.8398226E-01
       -2   -1    0    0    0  501  0.00000000000E+00  0.00000000000E+00  0.85756023794E+03  0.85756023794E+03  0.25500000920E-02 0. -1.
        2   -1    0    0  501    0  0.00000000000E+00  0.00000000000E+00 -0.18416198347E+04  0.18416198347E+04  0.25500000920E-02 0.  1.
    10030    2    1    2    0    0  0.00000000000E+00  0.00000000000E+00 -0.98405959672E+03  0.26991800726E+04  0.25134040213E+04 0.  0.
        2    1    3    3  502    0  0.64949028784E+03  0.15413071929E+03  0.65142705513E+03  0.93271170294E+03  0.25500000920E-02 0. -1.
       -2    1    3    3    0  502 -0.64949028784E+03 -0.15413071929E+03 -0.16354866519E+04  0.17664683697E+04  0.25500000920E-02 0.  1.
</event>
<event>
 5   0  0.2848685E-06  0.3387403E+04  0.7818609E-02  0.8141005E-01
       -2   -1    0    0    0  501  0.00000000000E+00  0.00000000000E+00  0.12677736478E+04  0.12677736478E+04  0.25500000920E-02 0.  1.
        2   -1    0    0  501    0  0.00000000000E+00  0.00000000000E+00 -0.22627268610E+04  0.22627268610E+04  0.25500000920E-02 0. -1.
    10030    2    1    2    0    0  0.00000000000E+00  0.00000000000E+00 -0.99495321319E+03  0.35305005087E+04  0.33874034224E+04 0.  0.
        3    1    3    3  502    0  0.78631796727E+03 -0.59542911176E+02 -0.20597248116E+04  0.22055175387E+04  0.10100000352E+00 0. -1.
       -3    1    3    3    0  502 -0.78631796727E+03  0.59542911176E+02  0.10647715984E+04  0.13249829700E+04  0.10100000352E+00 0.  1.
</event>
<event>
 5   0  0.9232963E-07  0.3309333E+04  0.7818609E-02  0.8160525E-01
       -1   -1    0    0    0  501  0.00000000000E+00  0.00000000000E+00  0.18121093528E+04  0.18121093528E+04  0.50400001928E-02 0.  1.
        1   -1    0    0  501    0  0.00000000000E+00  0.00000000000E+00 -0.15109026869E+04  0.15109026869E+04  0.50400001928E-02 0. -1.
    10030    2    1    2    0    0  0.00000000000E+00  0.00000000000E+00  0.30120666594E+03  0.33230120397E+04  0.33093327968E+04 0.  0.
        3    1    3    3  502    0  0.66574473894E+03 -0.11431145495E+04 -0.84748416075E+03  0.15710367098E+04  0.10100000352E+00 0. -1.
       -3    1    3    3    0  502 -0.66574473894E+03  0.11431145495E+04  0.11486908267E+04  0.17519753298E+04  0.10100000352E+00 0.  1.
</event>
<event>
 5   0  0.9714317E-07  0.3449892E+04  0.7818609E-02  0.8125769E-01
        1   -1    0    0  501    0  0.00000000000E+00  0.00000000000E+00  0.23539602363E+04  0.23539602363E+04  0.50400001928E-02 0. -1.
       -1   -1    0    0    0  501  0.00000000000E+00  0.00000000000E+00 -0.12640138372E+04  0.12640138372E+04  0.50400001928E-02 0.  1.
    10030    2    1    2    0    0  0.00000000000E+00  0.00000000000E+00  0.10899463991E+04  0.36179740735E+04  0.34498917728E+04 0.  0.
        4    1    3    3  502    0  0.12961887782E+04  0.10761431663E+04  0.15645462972E+03  0.16919424125E+04  0.12699999809E+01 0.  1.
       -4    1    3    3    0  502 -0.12961887782E+04 -0.10761431663E+04  0.93349176939E+03  0.19260316611E+04  0.12699999809E+01 0. -1.
</event>
<event>
 5   0  0.2848685E-06  0.3460560E+04  0.7818609E-02  0.8123201E-01
        2   -1    0    0  501    0  0.00000000000E+00  0.00000000000E+00  0.18994282279E+04  0.18994282279E+04  0.25500000920E-02 0.  1.
       -2   -1    0    0    0  501  0.00000000000E+00  0.00000000000E+00 -0.15761944098E+04  0.15761944098E+04  0.25500000920E-02 0. -1.
    10030    2    1    2    0    0  0.00000000000E+00  0.00000000000E+00  0.32323381814E+03  0.34756226378E+04  0.34605595818E+04 0.  0.
        3    1    3    3  502    0 -0.72204143860E+02 -0.71142125506E+03 -0.14208474333E+04  0.15906417194E+04  0.10100000352E+00 0. -1.
       -3    1    3    3    0  502  0.72204143860E+02  0.71142125506E+03  0.17440812515E+04  0.18849809183E+04  0.10100000352E+00 0.  1.
</event>
<event>
 5   0  0.2664083E-06  0.3063407E+04  0.7818609E-02  0.8225853E-01
       -2   -1    0    0    0  501  0.00000000000E+00  0.00000000000E+00  0.77046777155E+03  0.77046777155E+03  0.25500000920E-02 0.  1.
        2   -1    0    0  501    0  0.00000000000E+00  0.00000000000E+00 -0.30450534942E+04  0.30450534942E+04  0.25500000920E-02 0. -1.
    10030    2    1    2    0    0  0.00000000000E+00  0.00000000000E+00 -0.22745857227E+04  0.38155212658E+04  0.30634069791E+04 0.  0.
        2    1    3    3  502    0 -0.76924593967E+03  0.76577220566E+03  0.20876855237E+03  0.11053192729E+04  0.25500000920E-02 0.  1.
       -2    1    3    3    0  502  0.76924593967E+03 -0.76577220566E+03 -0.24833542750E+04  0.27102019928E+04  0.25500000920E-02 0. -1.
</event>
<event>
 5   0  0.1010855E-06  0.2565698E+04  0.7818609E-02  0.8379947E-01
        1   -1    0    0  501    0  0.00000000000E+00  0.00000000000E+00  0.19600532007E+04  0.19600532007E+04  0.50400001928E-02 0.  1.
       -1   -1    0    0    0  501  0.00000000000E+00  0.00000000000E+00 -0.83962103657E+03  0.83962103659E+03  0.50400001928E-02 0. -1.
    10030    2    1    2    0    0  0.00000000000E+00  0.00000000000E+00  0.11204321641E+04  0.27996742373E+04  0.25656982676E+04 0.  0.
        1    1    3    3  502    0 -0.67955455307E+03 -0.84778252779E+03 -0.18401677621E+03  0.11019944551E+04  0.50400001928E-02 0. -1.
       -1    1    3    3    0  502  0.67955455307E+03  0.84778252779E+03  0.13044489404E+04  0.16976797823E+04  0.50400001928E-02 0.  1.
</event>
<event>
 5   0  0.2767014E-06  0.3342638E+04  0.7818609E-02  0.8152130E-01
       -2   -1    0    0    0  501  0.00000000000E+00  0.00000000000E+00  0.13132065079E+04  0.13132065079E+04  0.25500000920E-02 0. -1.
        2   -1    0    0  501    0  0.00000000000E+00  0.00000000000E+00 -0.21270885218E+04  0.21270885218E+04  0.25500000920E-02 0.  1.
    10030    2    1    2    0    0  0.00000000000E+00  0.00000000000E+00 -0.81388201395E+03  0.34402950297E+04  0.33426375751E+04 0.  0.
        1    1    3    3  502    0  0.57110271421E+03 -0.27478755532E+03  0.11847336428E+04  0.13435997600E+04  0.50400001928E-02 0. -1.
       -1    1    3    3    0  502 -0.57110271421E+03  0.27478755532E+03 -0.19986156567E+04  0.20966952697E+04  0.50400001928E-02 0.  1.
</event>
<event>
 5   0  0.1010551E-06  0.3292909E+04  0.7818609E-02  0.8164702E-01
       -1   -1    0    0    0  501  0.00000000000E+00  0.00000000000E+00  0.10839437038E+04  0.10839437038E+04  0.50400001928E-02 0.  1.
        1   -1    0    0  501    0  0.00000000000E+00  0.00000000000E+00 -0.25008786723E+04  0.25008786723E+04  0.50400001928E-02 0. -1.
    10030    2    1    2    0    0  0.00000000000E+00  0.00000000000E+00 -0.14169349685E+04  0.35848223761E+04  0.32929085568E+04 0.  0.
        2    1    3    3  502    0 -0.71553265312E+03 -0.12415780158E+04 -0.15910852722E+04  0.21412742213E+04  0.25500000920E-02 0. -1.
       -2    1    3    3    0  502  0.71553265312E+03  0.12415780158E+04  0.17415030376E+03  0.14435481549E+04  0.25500000920E-02 0.  1.
</event>
<event>
 5   0  0.2906701E-06  0.3375902E+04  0.7818609E-02  0.8143846E-01
        2   -1    0    0  501    0  0.00000000000E+00  0.00000000000E+00  0.10866277801E+04  0.10866277801E+04  0.25500000920E-02 0. -1.
       -2   -1    0    0    0  501  0.00000000000E+00  0.00000000000E+00 -0.26220371529E+04  0.26220371529E+04  0.25500000920E-02 0.  1.
    10030    2    1    2    0    0  0.00000000000E+00  0.00000000000E+00 -0.15354093728E+04  0.37086649330E+04  0.33759019007E+04 0.  0.
        5    1    3    3  502    0 -0.68905164304E+03  0.14673280257E+04 -0.25089473398E+03  0.16403700678E+04  0.46999998093E+01 0. -1.
       -5    1    3    3    0  502  0.68905164304E+03 -0.14673280257E+04 -0.12845146388E+04  0.20682948652E+04  0.46999998093E+01 0.  1.
</event>
<event>
 5   0  0.1010551E-06  0.3280086E+04  0.7818609E-02  0.8167981E-01
        1   -1    0    0  501    0  0.00000000000E+00  0.00000000000E+00  0.24557625264E+04  0.24557625264E+04  0.50400001928E-02 0. -1.
       -1   -1    0    0    0  501  0.00000000000E+00  0.00000000000E+00 -0.10952773526E+04  0.10952773526E+04  0.50400001928E-02 0.  1.
    10030    2    1    2    0    0  0.00000000000E+00  0.00000000000E+00  0.13604851739E+04  0.35510398790E+04  0.32800860223E+04 0.  0.
        2    1    3    3  502    0  0.14916678757E+04 -0.65988738258E+03  0.86529112985E+03  0.18464162988E+04  0.25500000920E-02 0.  1.
       -2    1    3    3    0  502 -0.14916678757E+04  0.65988738258E+03  0.49519404400E+03  0.17046235802E+04  0.25500000920E-02 0. -1.
</event>
<event>
 5   0  0.9232963E-07  0.2690762E+04  0.7818609E-02  0.8338009E-01
       -1   -1    0    0    0  501  0.00000000000E+00  0.00000000000E+00  0.94019280441E+03  0.94019280442E+03  0.50400001928E-02 0. -1.
        1   -1    0    0  501    0  0.00000000000E+00  0.00000000000E+00 -0.19251899860E+04  0.19251899860E+04  0.50400001928E-02 0.  1.
    10030    2    1    2    0    0  0.00000000000E+00  0.00000000000E+00 -0.98499718159E+03  0.28653827904E+04  0.26907618044E+04 0.  0.
        3    1    3    3  502    0  0.29504586966E+03 -0.52873778118E+02 -0.18891792709E+04  0.19128110281E+04  0.10100000352E+00 0.  1.
       -3    1    3    3    0  502 -0.29504586966E+03  0.52873778118E+02  0.90418208927E+03  0.95257176232E+03  0.10100000352E+00 0. -1.
</event>
<event>
 5   0  0.1003191E-06  0.3419654E+04  0.7818609E-02  0.8133099E-01
        1   -1    0    0  501    0  0.00000000000E+00  0.00000000000E+00  0.10593106501E+04  0.10593106501E+04  0.50400001928E-02 0. -1.
       -1   -1    0    0    0  501  0.00000000000E+00  0.00000000000E+00 -0.27598214779E+04  0.27598214779E+04  0.50400001928E-02 0.  1.
    10030    2    1    2    0    0  0.00000000000E+00  0.00000000000E+00 -0.17005108278E+04  0.38191321280E+04  0.34196539497E+04 0.  0.
        5    1    3    3  502    0  0.36765532270E+02 -0.55907310280E+03  0.95387174840E+03  0.11062584874E+04  0.46999998093E+01 0. -1.
       -5    1    3    3    0  502 -0.36765532270E+02  0.55907310280E+03 -0.26543825762E+04  0.27128736405E+04  0.46999998093E+01 0.  1.
</event>
<event>
 5   0  0.2767014E-06  0.3427714E+04  0.7818609E-02  0.8131138E-01
       -2   -1    0    0    0  501  0.00000000000E+00  0.00000000000E+00  0.17101726596E+04  0.17101726596E+04  0.25500000920E-02 0.  1.
        2   -1    0    0  501    0  0.00000000000E+00  0.00000000000E+00 -0.17175491846E+04  0.17175491846E+04  0.25500000920E-02 0. -1.
    10030    2    1    2    0    0  0.00000000000E+00  0.00000000000E+00 -0.73765250149E+01  0.34277218442E+04  0.34277139070E+04 0.  0.
        1    1    3    3  502    0  0.41444820300E+03 -0.88830502254E+03 -0.14095551426E+04  0.17168863754E+04  0.50400001928E-02 0. -1.
       -1    1    3    3    0  502 -0.41444820300E+03  0.88830502254E+03  0.14021786175E+04  0.17108354689E+04  0.50400001928E-02 0.  1.
</event>
<event>
 5   0  0.9232963E-07  0.3285546E+04  0.7818609E-02  0.8166583E-01
       -1   -1    0    0    0  501  0.00000000000E+00  0.00000000000E+00  0.11469982215E+04  0.11469982215E+04  0.50400001928E-02 0.  1.
        1   -1    0    0  501    0  0.00000000000E+00  0.00000000000E+00 -0.23528394006E+04  0.23528394006E+04  0.50400001928E-02 0. -1.
    10030    2    1    2    0    0  0.00000000000E+00  0.00000000000E+00 -0.12058411791E+04  0.34998376221E+04  0.32855456825E+04 0.  0.
        3    1    3    3  502    0 -0.76227849050E+03 -0.21670393577E+03 -0.21357583789E+04  0.22780458634E+04  0.10100000352E+00 0. -1.
       -3    1    3    3    0  502  0.76227849050E+03  0.21670393577E+03  0.92991719979E+03  0.12217917587E+04  0.10100000352E+00 0.  1.
</event>
<event>
 5   0  0.2664083E-06  0.3422710E+04  0.7818609E-02  0.8132355E-01
       -2   -1    0    0    0  501  0.00000000000E+00  0.00000000000E+00  0.29602160213E+04  0.29602160213E+04  0.25500000920E-02 0.  1.
        2   -1    0    0  501    0  0.00000000000E+00  0.00000000000E+00 -0.98936532771E+03  0.98936532771E+03  0.25500000920E-02 0. -1.
    10030    2    1    2    0    0  0.00000000000E+00  0.00000000000E+00  0.19708506936E+04  0.39495813490E+04  0.34227095080E+04 0.  0.
        2    1    3    3  502    0  0.64108664523E+03 -0.32454448311E+03 -0.80685908274E+03  0.10804363876E+04  0.25500000920E-02 0. -1.
       -2    1    3    3    0  502 -0.64108664523E+03  0.32454448311E+03  0.27777097763E+04  0.28691449614E+04  0.25500000920E-02 0.  1.
</event>
<event>
 5   0  0.9714317E-07  0.3378621E+04  0.7818609E-02  0.8143173E-01
        1   -1    0    0  501    0  0.00000000000E+00  0.00000000000E+00  0.25470611787E+04  0.25470611787E+04  0.50400001928E-02 0. -1.
       -1   -1    0    0    0  501  0.00000000000E+00  0.00000000000E+00 -0.11204168397E+04  0.11204168398E+04  0.50400001928E-02 0.  1.
    10030    2    1    2    0    0  0.00000000000E+00  0.00000000000E+00  0.14266443390E+04  0.36674780185E+04  0.33786211605E+04 0.  0.
        4    1    3    3  502    0 -0.66822137122E+03  0.15311076470E+04  0.98568896377E+03  0.19396893498E+04  0.12699999809E+01 0.  1.
       -4    1    3    3    0  502  0.66822137122E+03 -0.15311076470E+04  0.44095537523E+03  0.17277886687E+04  0.12699999809E+01 0. -1.
</event>
<event>
 5   0  0.1003191E-06  0.3206446E+04  0.7818609E-02  0.8187117E-01
       -1   -1    0    0    0  501  0.00000000000E+00  0.00000000000E+00  0.16535476561E+04  0.16535476561E+04  0.50400001928E-02 0. -1.
        1   -1    0    0  501    0  0.00000000000E+00  0.00000000000E+00 -0.15544298564E+04  0.15544298564E+04  0.50400001928E-02 0.  1.
    10030    2    1    2    0    0  0.00000000000E+00  0.00000000000E+00  0.99117799649E+02  0.32079775125E+04  0.32064459114E+04 0.  0.
        5    1    3    3  502    0 -0.13052576700E+04  0.14650021875E+03 -0.87019619562E+03  0.15755708197E+04  0.46999998093E+01 0.  1.
       -5    1    3    3    0  502  0.13052576700E+04 -0.14650021875E+03  0.96931399527E+03  0.16324066928E+04  0.46999998093E+01 0. -1.
</event>
<event>
 5   0  0.2906701E-06  0.3427772E+04  0.7818609E-02  0.8131124E-01
       -2   -1    0    0    0  501  0.00000000000E+00  0.00000000000E+00  0.16811182102E+04  0.16811182102E+04  0.25500000920E-02 0.  1.
        2   -1    0    0  501    0  0.00000000000E+00  0.00000000000E+00 -0.17472920525E+04  0.17472920525E+04  0.25500000920E-02 0. -1.
    10030    2    1    2    0    0  0.00000000000E+00  0.00000000000E+00 -0.66173842313E+02  0.34284102627E+04  0.34277715723E+04 0.  0.
        5    1    3    3  502    0  0.14363375756E+04 -0.40794691198E+03  0.80843545554E+03  0.16979623935E+04  0.46999998093E+01 0.  1.
       -5    1    3    3    0  502 -0.14363375756E+04  0.40794691198E+03 -0.87460929785E+03  0.17304478692E+04  0.46999998093E+01 0. -1.
</event>
<event>
 5   0  0.1003191E-06  0.3274669E+04  0.7818609E-02  0.8169371E-01
       -1   -1    0    0    0  501  0.00000000000E+00  0.00000000000E+00  0.12659686213E+04  0.12659686214E+04  0.50400001928E-02 0.  1.
        1   -1    0    0  501    0  0.00000000000E+00  0.00000000000E+00 -0.21176383684E+04  0.21176383684E+04  0.50400001928E-02 0. -1.
    10030    2    1    2    0    0  0.00000000000E+00  0.00000000000E+00 -0.85166974705E+03  0.33836069898E+04  0.32746686707E+04 0.  0.
        5    1    3    3  502    0 -0.75314334027E+03  0.12248519066E+04 -0.12350581100E+04  0.18954887784E+04  0.46999998093E+01 0. -1.
       -5    1    3    3    0  502  0.75314334027E+03 -0.12248519066E+04  0.38338836294E+03  0.14881182113E+04  0.46999998093E+01 0.  1.
</event>
<event>
 5   0  0.1010551E-06  0.3534895E+04  0.7818609E-02  0.8105570E-01
       -1   -1    0    0    0  501  0.00000000000E+00  0.00000000000E+00  0.19051089454E+04  0.19051089454E+04  0.50400001928E-02 0. -1.
        1   -1    0    0  501    0  0.00000000000E+00  0.00000000000E+00 -0.16397336193E+04  0.16397336193E+04  0.50400001928E-02 0.  1.
    10030    2    1    2    0    0  0.00000000000E+00  0.00000000000E+00  0.26537532610E+03  0.35448425647E+04  0.35348952948E+04 0.  0.
        2    1    3    3  502    0  0.28608533542E+02 -0.11625681006E+04  0.14674056810E+04  0.18723414404E+04  0.25500000920E-02 0. -1.
       -2    1    3    3    0  502 -0.28608533542E+02  0.11625681006E+04 -0.12020303549E+04  0.16725011243E+04  0.25500000920E-02 0.  1.
</event>
<event>
 5   0  0.2767014E-06  0.2664280E+04  0.7818609E-02  0.8346689E-01
       -2   -1    0    0    0  501  0.00000000000E+00  0.00000000000E+00  0.13053959233E+04  0.13053959233E+04  0.25500000920E-02 0. -1.
        2   -1    0    0  501    0  0.00000000000E+00  0.00000000000E+00 -0.13594324149E+04  0.13594324149E+04  0.25500000920E-02 0.  1.
    10030    2    1    2    0    0  0.00000000000E+00  0.00000000000E+00 -0.54036491550E+02  0.26648283382E+04  0.26642804150E+04 0.  0.
        1    1    3    3  502    0 -0.58693397452E+03 -0.28368200386E+03 -0.11889931753E+04  0.13559763054E+04  0.50400001928E-02 0.  1.
       -1    1    3    3    0  502  0.58693397452E+03  0.28368200386E+03  0.11349566838E+04  0.13088520328E+04  0.50400001928E-02 0. -1.
</event>
<event>
 5   0  0.9714317E-07  0.3418556E+04  0.7818609E-02  0.8133367E-01
       -1   -1    0    0    0  501  0.00000000000E+00  0.00000000000E+00  0.15656606156E+04  0.15656606156E+04  0.50400001928E-02 0.  1.
        1   -1    0    0  501    0  0.00000000000E+00  0.00000000000E+00 -0.18660690480E+04  0.18660690480E+04  0.50400001928E-02 0. -1.
    10030    2    1    2    0    0  0.00000000000E+00  0.00000000000E+00 -0.30040843238E+03  0.34317296637E+04  0.34185557270E+04 0.  0.
        4    1    3    3  502    0 -0.78791592831E+03 -0.12641852535E+04 -0.99167871933E+03  0.17895262391E+04  0.12699999809E+01 0.  1.
       -4    1    3    3    0  502  0.78791592831E+03  0.12641852535E+04  0.69127028694E+03  0.16422034246E+04  0.12699999809E+01 0. -1.
</event>
<event>
 5   0  0.2767014E-06  0.3182415E+04  0.7818609E-02  0.8193477E-01
        2   -1    0    0  501    0  0.00000000000E+00  0.00000000000E+00  0.21828781439E+04  0.21828781439E+04  0.25500000920E-02 0.  1.
       -2   -1    0    0    0  501  0.00000000000E+00  0.00000000000E+00 -0.11599097120E+04  0.11599097120E+04  0.25500000920E-02 0. -1.
    10030    2    1    2    0    0  0.00000000000E+00  0.00000000000E+00  0.10229684319E+04  0.33427878559E+04  0.31824151579E+04 0.  0.
        1    1    3    3  502    0 -0.96606775044E+03 -0.45792166594E+03 -0.72644903256E+03  0.12925584503E+04  0.50400001928E-02 0. -1.
       -1    1    3    3    0  502  0.96606775044E+03  0.45792166594E+03  0.17494174644E+04  0.20502294056E+04  0.50400001928E-02 0.  1.
</event>
<event>
 5   0  0.2767014E-06  0.3628461E+04  0.7818609E-02  0.8084003E-01
        2   -1    0    0  501    0  0.00000000000E+00  0.00000000000E+00  0.29733114230E+04  0.29733114230E+04  0.25500000920E-02 0.  1.
       -2   -1    0    0    0  501  0.00000000000E+00  0.00000000000E+00 -0.11069921968E+04  0.11069921968E+04  0.25500000920E-02 0. -1.
    10030    2    1    2    0    0  0.00000000000E+00  0.00000000000E+00  0.18663192262E+04  0.40803036198E+04  0.36284611305E+04 0.  0.
        1    1    3    3  502    0 -0.71994636055E+03  0.94874162145E+03 -0.60584099660E+03  0.13362173250E+04  0.50400001928E-02 0. -1.
       -1    1    3    3    0  502  0.71994636055E+03 -0.94874162145E+03  0.24721602228E+04  0.27440862948E+04  0.50400001928E-02 0.  1.
</event>
<event>
 5   0  0.9714317E-07  0.3213716E+04  0.7818609E-02  0.8185204E-01
       -1   -1    0    0    0  501  0.00000000000E+00  0.00000000000E+00  0.13951069552E+04  0.13951069552E+04  0.50400001928E-02 0. -1.
        1   -1    0    0  501    0  0.00000000000E+00  0.00000000000E+00 -0.18507489082E+04  0.18507489083E+04  0.50400001928E-02 0.  1.
    10030    2    1    2    0    0  0.00000000000E+00  0.00000000000E+00 -0.45564195303E+03  0.32458558635E+04  0.32137160262E+04 0.  0.
        4    1    3    3  502    0 -0.15186193965E+04  0.41412246088E+03  0.98346399569E+02  0.15771416903E+04  0.12699999809E+01 0. -1.
       -4    1    3    3    0  502  0.15186193965E+04 -0.41412246088E+03 -0.55398835260E+03  0.16687141732E+04  0.12699999809E+01 0.  1.
</event>
<event>
 5   0  0.1003191E-06  0.3262977E+04  0.7818609E-02  0.8172380E-01
        1   -1    0    0  501    0  0.00000000000E+00  0.00000000000E+00  0.22412293303E+04  0.22412293303E+04  0.50400001928E-02 0. -1.
       -1   -1    0    0    0  501  0.00000000000E+00  0.00000000000E+00 -0.11876314992E+04  0.11876314992E+04  0.50400001928E-02 0.  1.
    10030    2    1    2    0    0  0.00000000000E+00  0.00000000000E+00  0.10535978311E+04  0.34288608295E+04  0.32629768921E+04 0.  0.
        5    1    3    3  502    0 -0.26239249636E+03 -0.15010789107E+03 -0.11579376978E+04  0.11967556154E+04  0.46999998093E+01 0.  1.
       -5    1    3    3    0  502  0.26239249636E+03  0.15010789107E+03  0.22115355289E+04  0.22321052140E+04  0.46999998093E+01 0. -1.
</event>
<event>
 5   0  0.2856440E-06  0.3370514E+04  0.7818609E-02  0.8145181E-01
       -2   -1    0    0    0  501  0.00000000000E+00  0.00000000000E+00  0.28470384277E+04  0.28470384277E+04  0.25500000920E-02 0.  1.
        2   -1    0    0  501    0  0.00000000000E+00  0.00000000000E+00 -0.99755972003E+03  0.99755972003E+03  0.25500000920E-02 0. -1.
    10030    2    1    2    0    0  0.00000000000E+00  0.00000000000E+00  0.18494787077E+04  0.38445981477E+04  0.33705138225E+04 0.  0.
        4    1    3    3  502    0  0.14158456984E+04  0.84794402109E+03  0.13140043540E+04  0.21095585225E+04  0.12699999809E+01 0.  1.
       -4    1    3    3    0  502 -0.14158456984E+04 -0.84794402109E+03  0.53547435365E+03  0.17350396252E+04  0.12699999809E+01 0. -1.
</event>
<event>
 5   0  0.9714317E-07  0.2785247E+04  0.7818609E-02  0.8307863E-01
        1   -1    0    0  501    0  0.00000000000E+00  0.00000000000E+00  0.22058957357E+04  0.22058957357E+04  0.50400001928E-02 0. -1.
       -1   -1    0    0    0  501  0.00000000000E+00  0.00000000000E+00 -0.87918914443E+03  0.87918914444E+03  0.50400001928E-02 0.  1.
    10030    2    1    2    0    0  0.00000000000E+00  0.00000000000E+00  0.13267065913E+04  0.30850848802E+04  0.27852465490E+04 0.  0.
        4    1    3    3  502    0 -0.13090715865E+04  0.10374729360E+03  0.11769100114E+04  0.17633918190E+04  0.12699999809E+01 0. -1.
       -4    1    3    3    0  502  0.13090715865E+04 -0.10374729360E+03  0.14979657989E+03  0.13216930611E+04  0.12699999809E+01 0.  1.
</event>
<event>
 5   0  0.1010855E-06  0.2605025E+04  0.7818609E-02  0.8366496E-01
       -1   -1    0    0    0  501  0.00000000000E+00  0.00000000000E+00  0.17067087679E+04  0.17067087679E+04  0.50400001928E-02 0.  1.
        1   -1    0    0  501    0  0.00000000000E+00  0.00000000000E+00 -0.99404100055E+03  0.99404100056E+03  0.50400001928E-02 0. -1.
    10030    2    1    2    0    0  0.00000000000E+00  0.00000000000E+00  0.71266776733E+03  0.27007497684E+04  0.26050247533E+04 0.  0.
        1    1    3    3  502    0 -0.71332898406E+03 -0.77462883216E+03  0.11510865985E+04  0.15600924410E+04  0.50400001928E-02 0.  1.
       -1    1    3    3    0  502  0.71332898406E+03  0.77462883216E+03 -0.43841883118E+03  0.11406573275E+04  0.50400001928E-02 0. -1.
</event>
<event>
 5   0  0.1003191E-06  0.3275891E+04  0.7818609E-02  0.8169057E-01
        1   -1    0    0  501    0  0.00000000000E+00  0.00000000000E+00  0.20895005226E+04  0.20895005226E+04  0.50400001928E-02 0. -1.
       -1   -1    0    0    0  501  0.00000000000E+00  0.00000000000E+00 -0.12839749212E+04  0.12839749212E+04  0.50400001928E-02 0.  1.
    10030    2    1    2    0    0  0.00000000000E+00  0.00000000000E+00  0.80552560140E+03  0.33734754438E+04  0.32758914932E+04 0.  0.
        5    1    3    3  502    0  0.13265406158E+04  0.21535803021E+03 -0.56148175055E+03  0.14564933685E+04  0.46999998093E+01 0.  1.
       -5    1    3    3    0  502 -0.13265406158E+04 -0.21535803021E+03  0.13670073520E+04  0.19169820752E+04  0.46999998093E+01 0. -1.
</event>
<event>
 5   0  0.2856440E-06  0.3450282E+04  0.7818609E-02  0.8125674E-01
        2   -1    0    0  501    0  0.00000000000E+00  0.00000000000E+00  0.24986486226E+04  0.24986486226E+04  0.25500000920E-02 0. -1.
       -2   -1    0    0    0  501  0.00000000000E+00  0.00000000000E+00 -0.11910886796E+04  0.11910886796E+04  0.25500000920E-02 0.  1.
    10030    2    1    2    0    0  0.00000000000E+00  0.00000000000E+00  0.13075599430E+04  0.36897373022E+04  0.34502823587E+04 0.  0.
        4    1    3    3  502    0 -0.25579405724E+03  0.14909587452E+04  0.15406239777E+04  0.21591462279E+04  0.12699999809E+01 0. -1.
       -4    1    3    3    0  502  0.25579405724E+03 -0.14909587452E+04 -0.23306403472E+03  0.15305910743E+04  0.12699999809E+01 0.  1.
</event>
<event>
 5   0  0.2664083E-06  0.3443708E+04  0.7818609E-02  0.8127261E-01
        2   -1    0    0  501    0  0.00000000000E+00  0.00000000000E+00  0.21921611103E+04  0.21921611103E+04  0.25500000920E-02 0.  1.
       -2   -1    0    0    0  501  0.00000000000E+00  0.00000000000E+00 -0.13524471040E+04  0.13524471040E+04  0.25500000920E-02 0. -1.
    10030    2    1    2    0    0  0.00000000000E+00  0.00000000000E+00  0.83971400629E+03  0.35446082143E+04  0.34437084343E+04 0.  0.
        2    1    3    3  502    0  0.58541975950E+03 -0.13868049324E+04  0.12803157178E+04  0.19761458834E+04  0.25500000920E-02 0.  1.
       -2    1    3    3    0  502 -0.58541975950E+03  0.13868049324E+04 -0.44060171148E+03  0.15684623309E+04  0.25500000920E-02 0. -1.
</event>
<event>
 5   0  0.1003191E-06  0.3412503E+04  0.7818609E-02  0.8134845E-01
       -1   -1    0    0    0  501  0.00000000000E+00  0.00000000000E+00  0.25263533234E+04  0.25263533234E+04  0.50400001928E-02 0.  1.
        1   -1    0    0  501    0  0.00000000000E+00  0.00000000000E+00 -0.11523700674E+04  0.11523700674E+04  0.50400001928E-02 0. -1.
    10030    2    1    2    0    0  0.00000000000E+00  0.00000000000E+00  0.13739832560E+04  0.36787233908E+04  0.34125028642E+04 0.  0.
        5    1    3    3  502    0  0.11126752870E+04 -0.82027223367E+03 -0.39122592689E+03  0.14366532802E+04  0.46999998093E+01 0. -1.
       -5    1    3    3    0  502 -0.11126752870E+04  0.82027223367E+03  0.17652091829E+04  0.22420701106E+04  0.46999998093E+01 0.  1.
</event>
<event>
 5   0  0.1010855E-06  0.3220545E+04  0.7818609E-02  0.8183412E-01
       -1   -1    0    0    0  501  0.00000000000E+00  0.00000000000E+00  0.13091326969E+04  0.13091326969E+04  0.50400001928E-02 0. -1.
        1   -1    0    0  501    0  0.00000000000E+00  0.00000000000E+00 -0.19806840344E+04  0.19806840344E+04  0.50400001928E-02 0.  1.
    10030    2    1    2    0    0  0.00000000000E+00  0.00000000000E+00 -0.67155133745E+03  0.32898167313E+04  0.32205454393E+04 0.  0.
        1    1    3    3  502    0 -0.99105663596E+03  0.18119687519E+03 -0.16189606267E+04  0.19068453199E+04  0.50400001928E-02 0.  1.
       -1    1    3    3    0  502  0.99105663596E+03 -0.18119687519E+03  0.94740928927E+03  0.13829714114E+04  0.50400001928E-02 0. -1.
</event>
<event>
 5   0  0.2848685E-06  0.3299453E+04  0.7818609E-02  0.8163035E-01
       -2   -1    0    0    0  501  0.00000000000E+00  0.00000000000E+00  0.94933919424E+03  0.94933919424E+03  0.25500000920E-02 0. -1.
        2   -1    0    0  501    0  0.00000000000E+00  0.00000000000E+00 -0.28668332701E+04  0.28668332701E+04  0.25500000920E-02 0.  1.
    10030    2    1    2    0    0  0.00000000000E+00  0.00000000000E+00 -0.19174940759E+04  0.38161724644E+04  0.32994527950E+04 0.  0.
        3    1    3    3  502    0  0.11303565101E+04 -0.11839566869E+04 -0.11961698908E+04  0.20273829668E+04  0.10100000352E+00 0. -1.
       -3    1    3    3    0  502 -0.11303565101E+04  0.11839566869E+04 -0.72132418507E+03  0.17887894975E+04  0.10100000352E+00 0.  1.
</event>
<event>
 5   0  0.2856440E-06  0.3462764E+04  0.7818609E-02  0.8122671E-01
       -2   -1    0    0    0  501  0.00000000000E+00  0.00000000000E+00  0.18772267540E+04  0.18772267540E+04  0.25500000920E-02 0.  1.
        2   -1    0    0  501    0  0.00000000000E+00  0.00000000000E+00 -0.15968682942E+04  0.15968682942E+04  0.25500000920E-02 0. -1.
    10030    2    1    2    0    0  0.00000000000E+00  0.00000000000E+00  0.28035845981E+03  0.34740950482E+04  0.34627641471E+04 0.  0.
        4    1    3    3  502    0  0.61992399507E+03 -0.89077349579E+03 -0.12132714606E+04  0.16278244471E+04  0.12699999809E+01 0. -1.
       -4    1    3    3    0  502 -0.61992399507E+03  0.89077349579E+03  0.14936299204E+04  0.18462706011E+04  0.12699999809E+01 0.  1.
</event>
<event>
 5   0  0.2856440E-06  0.3356911E+04  0.7818609E-02  0.8148563E-01
       -2   -1    0    0    0  501  0.00000000000E+00  0.00000000000E+00  0.14101056510E+04  0.14101056510E+04  0.25500000920E-02 0.  1.
        2   -1    0    0  501    0  0.00000000000E+00  0.00000000000E+00 -0.19978735372E+04  0.19978735372E+04  0.25500000920E-02 0. -1.
    10030    2    1    2    0    0  0.00000000000E+00  0.00000000000E+00 -0.58776788614E+03  0.34079791882E+04  0.33569109400E+04 0.  0.
        4    1    3    3  502    0 -0.41145508464E+03  0.85746465507E+03  0.11101485665E+04  0.14618386963E+04  0.12699999809E+01 0.  1.
       -4    1    3    3    0  502  0.41145508464E+03 -0.85746465507E+03 -0.16979164526E+04  0.19461404919E+04  0.12699999809E+01 0. -1.
</event>
<event>
 5   0  0.9232963E-07  0.2108095E+04  0.7818609E-02  0.8557686E-01
       -1   -1    0    0    0  501  0.00000000000E+00  0.00000000000E+00  0.84921286693E+03  0.84921286695E+03  0.50400001928E-02 0. -1.
        1   -1    0    0  501    0  0.00000000000E+00  0.00000000000E+00 -0.13082896361E+04  0.13082896362E+04  0.50400001928E-02 0.  1.
    10030    2    1    2    0    0  0.00000000000E+00  0.00000000000E+00 -0.45907676921E+03  0.21575025031E+04  0.21080952471E+04 0.  0.
        3    1    3    3  502    0 -0.65646086395E+02  0.11500624800E+03 -0.12997424781E+04  0.13064709584E+04  0.10100000352E+00 0.  1.
       -3    1    3    3    0  502  0.65646086395E+02 -0.11500624800E+03  0.84066570887E+03  0.85103154466E+03  0.10100000352E+00 0. -1.
</event>
<event>
 5   0  0.1003191E-06  0.3481079E+04  0.7818609E-02  0.8118289E-01
       -1   -1    0    0    0  501  0.00000000000E+00  0.00000000000E+00  0.13169076651E+04  0.13169076652E+04  0.50400001928E-02 0.  1.
        1   -1    0    0  501    0  0.00000000000E+00  0.00000000000E+00 -0.23004482746E+04  0.23004482746E+04  0.50400001928E-02 0. -1.
    10030    2    1    2    0    0  0.00000000000E+00  0.00000000000E+00 -0.98354060948E+03  0.36173559398E+04  0.34810791236E+04 0.  0.
        5    1    3    3  502    0  0.79283376514E+03 -0.79853167728E+03  0.88807472290E+03  0.14335051525E+04  0.46999998093E+01 0.  1.
       -5    1    3    3    0  502 -0.79283376514E+03  0.79853167728E+03 -0.18716153324E+04  0.21838507873E+04  0.46999998093E+01 0. -1.
</event>
<event>
 5   0  0.9232963E-07  0.3413005E+04  0.7818609E-02  0.8134722E-01
        1   -1    0    0  501    0  0.00000000000E+00  0.00000000000E+00  0.15373499207E+04  0.15373499207E+04  0.50400001928E-02 0.  1.
       -1   -1    0    0    0  501  0.00000000000E+00  0.00000000000E+00 -0.18942670283E+04  0.18942670284E+04  0.50400001928E-02 0. -1.
    10030    2    1    2    0    0  0.00000000000E+00  0.00000000000E+00 -0.35691710766E+03  0.34316169491E+04  0.34130052832E+04 0.  0.
        3    1    3    3  502    0 -0.48153824590E+03  0.13072929338E+04 -0.11693566744E+04  0.18188702371E+04  0.10100000352E+00 0. -1.
       -3    1    3    3    0  502  0.48153824590E+03 -0.13072929338E+04  0.81243956677E+03  0.16127467120E+04  0.10100000352E+00 0.  1.
</event>
<event>
 5   0  0.1010551E-06  0.3486781E+04  0.7818609E-02  0.8116930E-01
       -1   -1    0    0    0  501  0.00000000000E+00  0.00000000000E+00  0.13503072664E+04  0.13503072664E+04  0.50400001928E-02 0. -1.
        1   -1    0    0  501    0  0.00000000000E+00  0.00000000000E+00 -0.22509033242E+04  0.22509033242E+04  0.50400001928E-02 0.  1.
    10030    2    1    2    0    0  0.00000000000E+00  0.00000000000E+00 -0.90059605783E+03  0.36012105907E+04  0.34867813896E+04 0.  0.
        2    1    3    3  502    0  0.13571142866E+04 -0.92095463899E+03  0.16028391926E+03  0.16479100609E+04  0.25500000920E-02 0. -1.
       -2    1    3    3    0  502 -0.13571142866E+04  0.92095463899E+03 -0.10608799771E+04  0.19533005298E+04  0.25500000920E-02 0.  1.
</event>
<event>
 5   0  0.2848685E-06  0.3438937E+04  0.7818609E-02  0.8128416E-01
        2   -1    0    0  501    0  0.00000000000E+00  0.00000000000E+00  0.15002196688E+04  0.15002196688E+04  0.25500000920E-02 0. -1.
       -2   -1    0    0    0  501  0.00000000000E+00  0.00000000000E+00 -0.19707592093E+04  0.19707592093E+04  0.25500000920E-02 0.  1.
    10030    2    1    2    0    0  0.00000000000E+00  0.00000000000E+00 -0.47053954054E+03  0.34709788781E+04  0.34389368870E+04 0.  0.
        3    1    3    3  502    0 -0.82433413479E+03  0.97020354435E+03 -0.14017848636E+04  0.18936268105E+04  0.10100000352E+00 0.  1.
       -3    1    3    3    0  502  0.82433413479E+03 -0.97020354435E+03  0.93124532306E+03  0.15773520676E+04  0.10100000352E+00 0. -1.
</event>
<event>
 5   0  0.2848685E-06  0.3483693E+04  0.7818609E-02  0.8117665E-01
        2   -1    0    0  501    0  0.00000000000E+00  0.00000000000E+00  0.20355540952E+04  0.20355540952E+04  0.25500000920E-02 0.  1.
       -2   -1    0    0    0  501  0.00000000000E+00  0.00000000000E+00 -0.14905172613E+04  0.14905172613E+04  0.25500000920E-02 0. -1.
    10030    2    1    2    0    0  0.00000000000E+00  0.00000000000E+00  0.54503683397E+03  0.35260713565E+04  0.34836925899E+04 0.  0.
        3    1    3    3  502    0  0.98177147821E+03 -0.29462262019E+03  0.16979652973E+04  0.19833718473E+04  0.10100000352E+00 0.  1.
       -3    1    3    3    0  502 -0.98177147821E+03  0.29462262019E+03 -0.11529284633E+04  0.15426995092E+04  0.10100000352E+00 0. -1.
</event>
<event>
 5   0  0.9232963E-07  0.3364017E+04  0.7818609E-02  0.8146795E-01
       -1   -1    0    0    0  501  0.00000000000E+00  0.00000000000E+00  0.20705304102E+04  0.20705304102E+04  0.50400001928E-02 0. -1.
        1   -1    0    0  501    0  0.00000000000E+00  0.00000000000E+00 -0.13663903411E+04  0.13663903411E+04  0.50400001928E-02 0.  1.
    10030    2    1    2    0    0  0.00000000000E+00  0.00000000000E+00  0.70414006907E+03  0.34369207513E+04  0.33640170948E+04 0.  0.
        3    1    3    3  502    0  0.28352789907E+03  0.70032719271E+03 -0.11832636073E+04  0.14039084803E+04  0.10100000352E+00 0.  1.
       -3    1    3    3    0  502 -0.28352789907E+03 -0.70032719271E+03  0.18874036764E+04  0.20330122711E+04  0.10100000352E+00 0. -1.
</event>
<event>
 5   0  0.2664083E-06  0.3379020E+04  0.7818609E-02  0.8143075E-01
        2   -1    0    0  501    0  0.00000000000E+00  0.00000000000E+00  0.82244789006E+03  0.82244789006E+03  0.25500000920E-02 0. -1.
       -2   -1    0    0    0  501  0.00000000000E+00  0.00000000000E+00 -0.34706691707E+04  0.34706691707E+04  0.25500000920E-02 0.  1.
    10030    2    1    2    0    0  0.00000000000E+00  0.00000000000E+00 -0.26482212806E+04  0.42931170608E+04  0.33790202938E+04 0.  0.
        2    1    3    3  502    0 -0.26491223596E+03 -0.55156126193E+03 -0.33249481371E+04  0.33807807430E+04  0.25500000920E-02 0.  1.
       -2    1    3    3    0  502  0.26491223596E+03  0.55156126193E+03  0.67672685642E+03  0.91233631771E+03  0.25500000920E-02 0. -1.
</event>
<event>
 5   0  0.2767014E-06  0.3102496E+04  0.7818609E-02  0.8215053E-01
       -2   -1    0    0    0  501  0.00000000000E+00  0.00000000000E+00  0.90279374670E+03  0.90279374670E+03  0.25500000920E-02 0.  1.
        2   -1    0    0  501    0  0.00000000000E+00  0.00000000000E+00 -0.26654700427E+04  0.26654700427E+04  0.25500000920E-02 0. -1.
    10030    2    1    2    0    0  0.00000000000E+00  0.00000000000E+00 -0.17626762960E+04  0.35682637894E+04  0.31024955675E+04 0.  0.
        1    1    3    3  502    0 -0.85715806565E+03 -0.93947372181E+02 -0.23644328266E+04  0.25167615401E+04  0.50400001928E-02 0. -1.
       -1    1    3    3    0  502  0.85715806565E+03  0.93947372181E+02  0.60175653056E+03  0.10515022493E+04  0.50400001928E-02 0.  1.
</event>
<event>
 5   0  0.2856440E-06  0.3218530E+04  0.7818609E-02  0.8183940E-01
        2   -1    0    0  501    0  0.00000000000E+00  0.00000000000E+00  0.19014116038E+04  0.19014116038E+04  0.25500000920E-02 0. -1.
       -2   -1    0    0    0  501  0.00000000000E+00  0.00000000000E+00 -0.13620060104E+04  0.13620060104E+04  0.25500000920E-02 0.  1.
    10030    2    1    2    0    0  0.00000000000E+00  0.00000000000E+00  0.53940559342E+03  0.32634176142E+04  0.32185301195E+04 0.  0.
        4    1    3    3  502    0 -0.23532559247E+03 -0.15236574361E+04  0.73746340369E+03  0.17090242836E+04  0.12699999809E+01 0.  1.
       -4    1    3    3    0  502  0.23532559247E+03  0.15236574361E+04 -0.19805781027E+03  0.15543933306E+04  0.12699999809E+01 0. -1.
</event>
<event>
 5   0  0.1003191E-06  0.3167868E+04  0.7818609E-02  0.8197355E-01
       -1   -1    0    0    0  501  0.00000000000E+00  0.00000000000E+00  0.12043993064E+04  0.12043993064E+04  0.50400001928E-02 0. -1.
        1   -1    0    0  501    0  0.00000000000E+00  0.00000000000E+00 -0.20830691336E+04  0.20830691336E+04  0.50400001928E-02 0.  1.
    10030    2    1    2    0    0  0.00000000000E+00  0.00000000000E+00 -0.87866982715E+03  0.32874684400E+04  0.31678680652E+04 0.  0.
        5    1    3    3  502    0  0.82804672964E+02  0.23419311023E+03  0.11840530008E+04  0.12098374376E+04  0.46999998093E+01 0. -1.
       -5    1    3    3    0  502 -0.82804672964E+02 -0.23419311023E+03 -0.20627228280E+04  0.20776310023E+04  0.46999998093E+01 0.  1.
</event>
<event>
 5   0  0.2767014E-06  0.3440217E+04  0.7818609E-02  0.8128106E-01
       -2   -1    0    0    0  501  0.00000000000E+00  0.00000000000E+00  0.17188685169E+04  0.17188685169E+04  0.25500000920E-02 0. -1.
        2   -1    0    0  501    0  0.00000000000E+00  0.00000000000E+00 -0.17213494808E+04  0.17213494808E+04  0.25500000920E-02 0.  1.
    10030    2    1    2    0    0  0.00000000000E+00  0.00000000000E+00 -0.24809638869E+01  0.34402179976E+04  0.34402171031E+04 0.  0.
        1    1    3    3  502    0 -0.36303627382E+03  0.13846168213E+03  0.16744110080E+04  0.17189005781E+04  0.50400001928E-02 0. -1.
       -1    1    3    3    0  502  0.36303627382E+03 -0.13846168213E+03 -0.16768919719E+04  0.17213174196E+04  0.50400001928E-02 0.  1.
</event>
<event>
 5   0  0.2848685E-06  0.3362717E+04  0.7818609E-02  0.8147118E-01
        2   -1    0    0  501    0  0.00000000000E+00  0.00000000000E+00  0.16548317816E+04  0.16548317816E+04  0.25500000920E-02 0. -1.
       -2   -1    0    0    0  501  0.00000000000E+00  0.00000000000E+00 -0.17083103717E+04  0.17083103718E+04  0.25500000920E-02 0.  1.
    10030    2    1    2    0    0  0.00000000000E+00  0.00000000000E+00 -0.53478590140E+02  0.33631421534E+04  0.33627169349E+04 0.  0.
        3    1    3    3  502    0  0.86418742166E+03 -0.82517535624E+03  0.11563016628E+04  0.16627590968E+04  0.10100000352E+00 0. -1.
       -3    1    3    3    0  502 -0.86418742166E+03  0.82517535624E+03 -0.12097802530E+04  0.17003830566E+04  0.10100000352E+00 0.  1.
</event>
<event>
 5   0  0.9714317E-07  0.3397202E+04  0.7818609E-02  0.8138593E-01
       -1   -1    0    0    0  501  0.00000000000E+00  0.00000000000E+00  0.13120434184E+04  0.13120434184E+04  0.50400001928E-02 0.  1.
        1   -1    0    0  501    0  0.00000000000E+00  0.00000000000E+00 -0.21990470085E+04  0.21990470085E+04  0.50400001928E-02 0. -1.
    10030    2    1    2    0    0  0.00000000000E+00  0.00000000000E+00 -0.88700359013E+03  0.35110904270E+04  0.33972018806E+04 0.  0.
        4    1    3    3  502    0  0.44602850986E+03  0.14101188908E+04 -0.13068916379E+04  0.19736626064E+04  0.12699999809E+01 0. -1.
       -4    1    3    3    0  502 -0.44602850986E+03 -0.14101188908E+04  0.41988804773E+03  0.15374278206E+04  0.12699999809E+01 0.  1.
</event>
<event>
 5   0  0.2906701E-06  0.2873529E+04  0.7818609E-02  0.8280797E-01
        2   -1    0    0  501    0  0.00000000000E+00  0.00000000000E+00  0.18624710587E+04  0.18624710587E+04  0.25500000920E-02 0. -1.
       -2   -1    0    0    0  501  0.00000000000E+00  0.00000000000E+00 -0.11083622188E+04  0.11083622189E+04  0.25500000920E-02 0.  1.
    10030    2    1    2    0    0  0.00000000000E+00  0.00000000000E+00  0.75410883983E+03  0.29708332775E+04  0.28735292274E+04 0.  0.
        5    1    3    3  502    0 -0.85666584189E+02 -0.14340930123E+04  0.39522610812E+03  0.14900292944E+04  0.46999998093E+01 0. -1.
       -5    1    3    3    0  502  0.85666584189E+02  0.14340930123E+04  0.35888273171E+03  0.14808039832E+04  0.46999998093E+01 0.  1.
</event>
<event>
 5   0  0.2664083E-06  0.3392141E+04  0.7818609E-02  0.8139838E-01
        2   -1    0    0  501    0  0.00000000000E+00  0.00000000000E+00  0.11497102139E+04  0.11497102139E+04  0.25500000920E-02 0. -1.
       -2   -1    0    0    0  501  0.00000000000E+00  0.00000000000E+00 -0.25020690510E+04  0.25020690510E+04  0.25500000920E-02 0.  1.
    10030    2    1    2    0    0  0.00000000000E+00  0.00000000000E+00 -0.13523588371E+04  0.36517792649E+04  0.33921405300E+04 0.  0.
        2    1    3    3  502    0  0.37589943609E+03 -0.85348165162E+03  0.84891257276E+03  0.12611042272E+04  0.25500000920E-02 0. -1.
       -2    1    3    3    0  502 -0.37589943609E+03  0.85348165162E+03 -0.22012714099E+04  0.23906750376E+04  0.25500000920E-02 0.  1.
</event>
<event>
 5   0  0.2664083E-06  0.3325391E+04  0.7818609E-02  0.8156465E-01
       -2   -1    0    0    0  501  0.00000000000E+00  0.00000000000E+00  0.13758031281E+04  0.13758031281E+04  0.25500000920E-02 0.  1.
        2   -1    0    0  501    0  0.00000000000E+00  0.00000000000E+00 -0.20094125457E+04  0.20094125457E+04  0.25500000920E-02 0. -1.
    10030    2    1    2    0    0  0.00000000000E+00  0.00000000000E+00 -0.63360941759E+03  0.33852156738E+04  0.33253908438E+04 0.  0.
        2    1    3    3  502    0 -0.24955414009E+03 -0.74415501017E+03  0.11753455210E+04  0.14133226955E+04  0.25500000920E-02 0.  1.
       -2    1    3    3    0  502  0.24955414009E+03  0.74415501017E+03 -0.18089549386E+04  0.19718929783E+04  0.25500000920E-02 0. -1.
</event>
<event>
 5   0  0.9232963E-07  0.3389296E+04  0.7818609E-02  0.8140538E-01
       -1   -1    0    0    0  501  0.00000000000E+00  0.00000000000E+00  0.27282174418E+04  0.27282174418E+04  0.50400001928E-02 0. -1.
        1   -1    0    0  501    0  0.00000000000E+00  0.00000000000E+00 -0.10526402928E+04  0.10526402928E+04  0.50400001928E-02 0.  1.
    10030    2    1    2    0    0  0.00000000000E+00  0.00000000000E+00  0.16755771490E+04  0.37808577346E+04  0.33892958600E+04 0.  0.
        3    1    3    3  502    0 -0.93449765534E+03  0.42204135225E+03 -0.66731874676E+03  0.12234047126E+04  0.10100000352E+00 0.  1.
       -3    1    3    3    0  502  0.93449765534E+03 -0.42204135225E+03  0.23428958958E+04  0.25574530219E+04  0.10100000352E+00 0. -1.
</event>
<event>
 5   0  0.1010551E-06  0.2098288E+04  0.7818609E-02  0.8561998E-01
       -1   -1    0    0    0  501  0.00000000000E+00  0.00000000000E+00  0.80116134646E+03  0.80116134648E+03  0.50400001928E-02 0.  1.
        1   -1    0    0  501    0  0.00000000000E+00  0.00000000000E+00 -0.13738840063E+04  0.13738840063E+04  0.50400001928E-02 0. -1.
    10030    2    1    2    0    0  0.00000000000E+00  0.00000000000E+00 -0.57272265980E+03  0.21750453527E+04  0.20982876451E+04 0.  0.
        2    1    3    3  502    0  0.24712791911E+03 -0.32369739489E+03 -0.12886074580E+04  0.13514293887E+04  0.25500000920E-02 0. -1.
       -2    1    3    3    0  502 -0.24712791911E+03  0.32369739489E+03  0.71588479822E+03  0.82361596402E+03  0.25500000920E-02 0.  1.
</event>
<event>
 5   0  0.2767014E-06  0.3381348E+04  0.7818609E-02  0.8142499E-01
       -2   -1    0    0    0  501  0.00000000000E+00  0.00000000000E+00  0.11638123049E+04  0.11638123049E+04  0.25500000920E-02 0.  1.
        2   -1    0    0  501    0  0.00000000000E+00  0.00000000000E+00 -0.24560474417E+04  0.24560474417E+04  0.25500000920E-02 0. -1.
    10030    2    1    2    0    0  0.00000000000E+00  0.00000000000E+00 -0.12922351368E+04  0.36198597467E+04  0.33813477988E+04 0.  0.
        1    1    3    3  502    0 -0.60429154218E+03 -0.13708993246E+04  0.19262998107E+03  0.15105096940E+04  0.50400001928E-02 0.  1.
       -1    1    3    3    0  502  0.60429154218E+03  0.13708993246E+04 -0.14848651179E+04  0.21093500526E+04  0.50400001928E-02 0. -1.
</event>
<event>
 5   0  0.1010551E-06  0.2667517E+04  0.7818609E-02  0.8345622E-01
        1   -1    0    0  501    0  0.00000000000E+00  0.00000000000E+00  0.15129342833E+04  0.15129342833E+04  0.50400001928E-02 0.  1.
       -1   -1    0    0    0  501  0.00000000000E+00  0.00000000000E+00 -0.11758025806E+04  0.11758025807E+04  0.50400001928E-02 0. -1.
    10030    2    1    2    0    0  0.00000000000E+00  0.00000000000E+00  0.33713170262E+03  0.26887368639E+04  0.26675172237E+04 0.  0.
        2    1    3    3  502    0  0.19621516424E+02 -0.74642886208E+03 -0.94538202174E+03  0.12046942422E+04  0.25500000920E-02 0. -1.
       -2    1    3    3    0  502 -0.19621516424E+02  0.74642886208E+03  0.12825137244E+04  0.14840426218E+04  0.25500000920E-02 0.  1.
</event>
<event>
 5   0  0.1003191E-06  0.3427295E+04  0.7818609E-02  0.8131240E-01
        1   -1    0    0  501    0  0.00000000000E+00  0.00000000000E+00  0.25104755671E+04  0.25104755671E+04  0.50400001928E-02 0.  1.
       -1   -1    0    0    0  501  0.00000000000E+00  0.00000000000E+00 -0.11697333670E+04  0.11697333670E+04  0.50400001928E-02 0. -1.
    10030    2    1    2    0    0  0.00000000000E+00  0.00000000000E+00  0.13407422001E+04  0.36802089341E+04  0.34272945819E+04 0.  0.
        5    1    3    3  502    0 -0.15736386942E+04 -0.63759623612E+03  0.42154435754E+03  0.17494540393E+04  0.46999998093E+01 0.  1.
       -5    1    3    3    0  502  0.15736386942E+04  0.63759623612E+03  0.91919784261E+03  0.19307548948E+04  0.46999998093E+01 0. -1.
</event>
<event>
 5   0  0.2906701E-06  0.3444109E+04  0.7818609E-02  0.8127165E-01
       -2   -1    0    0    0  501  0.00000000000E+00  0.00000000000E+00  0.12003102596E+04  0.12003102596E+04  0.25500000920E-02 0.  1.
        2   -1    0    0  501    0  0.00000000000E+00  0.00000000000E+00 -0.24705870917E+04  0.24705870917E+04  0.25500000920E-02 0. -1.
    10030    2    1    2    0    0  0.00000000000E+00  0.00000000000E+00 -0.12702768320E+04  0.36708973513E+04  0.34441086124E+04 0.  0.
        5    1    3    3  502    0 -0.14062621194E+04 -0.70739272793E+02 -0.16918192448E+04  0.22011023694E+04  0.46999998093E+01 0. -1.
       -5    1    3    3    0  502  0.14062621194E+04  0.70739272793E+02  0.42154241280E+03  0.14697949820E+04  0.46999998093E+01 0.  1.
</event>
<event>
 5   0  0.1010551E-06  0.3429955E+04  0.7818609E-02  0.8130593E-01
       -1   -1    0    0    0  501  0.00000000000E+00  0.00000000000E+00  0.15218047646E+04  0.15218047646E+04  0.50400001928E-02 0.  1.
        1   -1    0    0  501    0  0.00000000000E+00  0.00000000000E+00 -0.19326707666E+04  0.19326707666E+04  0.50400001928E-02 0. -1.
    10030    2    1    2    0    0  0.00000000000E+00  0.00000000000E+00 -0.41086600200E+03  0.34544755313E+04  0.34299548575E+04 0.  0.
        2    1    3    3  502    0  0.80200674838E+01 -0.77690188495E+02  0.15200126462E+04  0.15220179144E+04  0.25500000920E-02 0.  1.
       -2    1    3    3    0  502 -0.80200674838E+01  0.77690188495E+02 -0.19308786482E+04  0.19324576169E+04  0.25500000920E-02 0. -1.
</event>
<event>
 5   0  0.9232963E-07  0.2278365E+04  0.7818609E-02  0.8486501E-01
       -1   -1    0    0    0  501  0.00000000000E+00  0.00000000000E+00  0.11173414653E+04  0.11173414653E+04  0.50400001928E-02 0. -1.
        1   -1    0    0  501    0  0.00000000000E+00  0.00000000000E+00 -0.11614499951E+04  0.11614499951E+04  0.50400001928E-02 0.  1.
    10030    2    1    2    0    0  0.00000000000E+00  0.00000000000E+00 -0.44108529840E+02  0.22787914605E+04  0.22783645358E+04 0.  0.
        3    1    3    3  502    0  0.49490258285E+03 -0.72462169878E+03 -0.74864138951E+03  0.11534596279E+04  0.10100000352E+00 0.  1.
       -3    1    3    3    0  502 -0.49490258285E+03  0.72462169878E+03  0.70453285967E+03  0.11253318326E+04  0.10100000352E+00 0. -1.
</event>
<event>
 5   0  0.1003191E-06  0.3251814E+04  0.7818609E-02  0.8175266E-01
       -1   -1    0    0    0  501  0.00000000000E+00  0.00000000000E+00  0.11048336481E+04  0.11048336481E+04  0.50400001928E-02 0. -1.
        1   -1    0    0  501    0  0.00000000000E+00  0.00000000000E+00 -0.23927343280E+04  0.23927343280E+04  0.50400001928E-02 0.  1.
    10030    2    1    2    0    0  0.00000000000E+00  0.00000000000E+00 -0.12879006799E+04  0.34975679761E+04  0.32518138917E+04 0.  0.
        5    1    3    3  502    0  0.15781870752E+04  0.34448084415E+03 -0.44501322558E+03  0.16755298736E+04  0.46999998093E+01 0. -1.
       -5    1    3    3    0  502 -0.15781870752E+04 -0.34448084415E+03 -0.84288745431E+03  0.18220381025E+04  0.46999998093E+01 0.  1.
</event>
<event>
 5   0  0.2664083E-06  0.2895576E+04  0.7818609E-02  0.8274195E-01
        2   -1    0    0  501    0  0.00000000000E+00  0.00000000000E+00  0.13040005829E+04  0.13040005829E+04  0.25500000920E-02 0.  1.
       -2   -1    0    0    0  501  0.00000000000E+00  0.00000000000E+00 -0.16074304411E+04  0.16074304411E+04  0.25500000920E-02 0. -1.
    10030    2    1    2    0    0  0.00000000000E+00  0.00000000000E+00 -0.30342985819E+03  0.29114310240E+04  0.28955760962E+04 0.  0.
        2    1    3    3  502    0 -0.11659981337E+04  0.63621033431E+03  0.42743812155E+03  0.13953560782E+04  0.25500000920E-02 0.  1.
       -2    1    3    3    0  502  0.11659981337E+04 -0.63621033431E+03 -0.73086797974E+03  0.15160749458E+04  0.25500000920E-02 0. -1.
</event>
<event>
 5   0  0.2767014E-06  0.3497699E+04  0.7818609E-02  0.8114336E-01
        2   -1    0    0  501    0  0.00000000000E+00  0.00000000000E+00  0.21153964567E+04  0.21153964567E+04  0.25500000920E-02 0. -1.
       -2   -1    0    0    0  501  0.00000000000E+00  0.00000000000E+00 -0.14458158787E+04  0.14458158787E+04  0.25500000920E-02 0.  1.
    10030    2    1    2    0    0  0.00000000000E+00  0.00000000000E+00  0.66958057798E+03  0.35612123355E+04  0.34976985502E+04 0.  0.
        1    1    3    3  502    0  0.15334785336E+04 -0.59329449584E+03  0.94135917017E+03  0.18946534931E+04  0.50400001928E-02 0.  1.
       -1    1    3    3    0  502 -0.15334785336E+04  0.59329449584E+03 -0.27177859219E+03  0.16665588423E+04  0.50400001928E-02 0. -1.
</event>
<event>
 5   0  0.9232963E-07  0.3379603E+04  0.7818609E-02  0.8142931E-01
        1   -1    0    0  501    0  0.00000000000E+00  0.00000000000E+00  0.17481291610E+04  0.17481291610E+04  0.50400001928E-02 0.  1.
       -1   -1    0    0    0  501  0.00000000000E+00  0.00000000000E+00 -0.16334203633E+04  0.16334203633E+04  0.50400001928E-02 0. -1.
    10030    2    1    2    0    0  0.00000000000E+00  0.00000000000E+00  0.11470879771E+03  0.33815495244E+04  0.33796033906E+04 0.  0.
        3    1    3    3  502    0  0.89654365107E+03  0.47466850671E+03 -0.12948412330E+04  0.16449056320E+04  0.10100000352E+00 0. -1.
       -3    1    3    3    0  502 -0.89654365107E+03 -0.47466850671E+03  0.14095500307E+04  0.17366438923E+04  0.10100000352E+00 0.  1.
</event>
<event>
 5   0  0.2767014E-06  0.3438376E+04  0.7818609E-02  0.8128551E-01
       -2   -1    0    0    0  501  0.00000000000E+00  0.00000000000E+00  0.10575773934E+04  0.10575773934E+04  0.25500000920E-02 0. -1.
        2   -1    0    0  501    0  0.00000000000E+00  0.00000000000E+00 -0.27946959078E+04  0.27946959078E+04  0.25500000920E-02 0.  1.
    10030    2    1    2    0    0  0.00000000000E+00  0.00000000000E+00 -0.17371185144E+04  0.38522733013E+04  0.34383759036E+04 0.  0.
        1    1    3    3  502    0  0.53256833411E+03  0.59816154017E+03  0.83580490523E+03  0.11575820050E+04  0.50400001928E-02 0. -1.
       -1    1    3    3    0  502 -0.53256833411E+03 -0.59816154017E+03 -0.25729234197E+04  0.26946912963E+04  0.50400001928E-02 0.  1.
</event>
<event>
 5   0  0.2767014E-06  0.3470939E+04  0.7818609E-02  0.8120712E-01
        2   -1    0    0  501    0  0.00000000000E+00  0.00000000000E+00  0.16006032551E+04  0.16006032551E+04  0.25500000920E-02 0. -1.
       -2   -1    0    0    0  501  0.00000000000E+00  0.00000000000E+00 -0.18816993741E+04  0.18816993741E+04  0.25500000920E-02 0.  1.
    10030    2    1    2    0    0  0.00000000000E+00  0.00000000000E+00 -0.28109611902E+03  0.34823026291E+04  0.34709388604E+04 0.  0.
        1    1    3    3  502    0  0.84873080474E+03  0.15013069952E+04 -0.33505768466E+03  0.17568523913E+04  0.50400001928E-02 0. -1.
       -1    1    3    3    0  502 -0.84873080474E+03 -0.15013069952E+04  0.53961565639E+02  0.17254502378E+04  0.50400001928E-02 0.  1.
</event>
<event>
 5   0  0.2906701E-06  0.3421374E+04  0.7818609E-02  0.8132680E-01
        2   -1    0    0  501    0  0.00000000000E+00  0.00000000000E+00  0.19578095966E+04  0.19578095966E+04  0.25500000920E-02 0.  1.
       -2   -1    0    0    0  501  0.00000000000E+00  0.00000000000E+00 -0.14947569766E+04  0.14947569766E+04  0.25500000920E-02 0. -1.
    10030    2    1    2    0    0  0.00000000000E+00  0.00000000000E+00  0.46305261993E+03  0.34525665732E+04  0.34213737319E+04 0.  0.
        5    1    3    3  502    0 -0.42762192319E+03  0.15772007795E+04  0.74210828172E+03  0.17947617112E+04  0.46999998093E+01 0.  1.
       -5    1    3    3    0  502  0.42762192319E+03 -0.15772007795E+04 -0.27905566179E+03  0.16578048620E+04  0.46999998093E+01 0. -1.
</event>
<event>
 5   0  0.2848685E-06  0.3413549E+04  0.7818609E-02  0.8134589E-01
        2   -1    0    0  501    0  0.00000000000E+00  0.00000000000E+00  0.12445250323E+04  0.12445250323E+04  0.25500000920E-02 0.  1.
       -2   -1    0    0    0  501  0.00000000000E+00  0.00000000000E+00 -0.23407157626E+04  0.23407157626E+04  0.25500000920E-02 0. -1.
    10030    2    1    2    0    0  0.00000000000E+00  0.00000000000E+00 -0.10961907303E+04  0.35852407949E+04  0.34135490974E+04 0.  0.
        3    1    3    3  502    0  0.10468790665E+04 -0.74305350179E+03 -0.17293855379E+04  0.21538009739E+04  0.10100000352E+00 0. -1.
       -3    1    3    3    0  502 -0.10468790665E+04  0.74305350179E+03  0.63319480763E+03  0.14314398209E+04  0.10100000352E+00 0.  1.
</event>
<event>
 5   0  0.1010855E-06  0.3430937E+04  0.7818609E-02  0.8130355E-01
        1   -1    0    0  501    0  0.00000000000E+00  0.00000000000E+00  0.21940181276E+04  0.21940181276E+04  0.50400001928E-02 0. -1.
       -1   -1    0    0    0  501  0.00000000000E+00  0.00000000000E+00 -0.13412979398E+04  0.13412979398E+04  0.50400001928E-02 0.  1.
    10030    2    1    2    0    0  0.00000000000E+00  0.00000000000E+00  0.85272018786E+03  0.35353160674E+04  0.34309368950E+04 0.  0.
        1    1    3    3  502    0  0.47743352603E+03 -0.13834543176E+04 -0.49582144363E+03  0.15452273376E+04  0.50400001928E-02 0.  1.
       -1    1    3    3    0  502 -0.47743352603E+03  0.13834543176E+04  0.13485416315E+04  0.19900887298E+04  0.50400001928E-02 0. -1.
</event>
<event>
 5   0  0.1010855E-06  0.2324141E+04  0.7818609E-02  0.8468463E-01
       -1   -1    0    0    0  501  0.00000000000E+00  0.00000000000E+00  0.12939093712E+04  0.12939093712E+04  0.50400001928E-02 0. -1.
        1   -1    0    0  501    0  0.00000000000E+00  0.00000000000E+00 -0.10436651124E+04  0.10436651124E+04  0.50400001928E-02 0.  1.
    10030    2    1    2    0    0  0.00000000000E+00  0.00000000000E+00  0.25024425880E+03  0.23375744837E+04  0.23241411914E+04 0.  0.
        1    1    3    3  502    0  0.19969394850E+03  0.10110328487E+04  0.66520156084E+03  0.12266043415E+04  0.50400001928E-02 0. -1.
       -1    1    3    3    0  502 -0.19969394850E+03 -0.10110328487E+04 -0.41495730203E+03  0.11109701421E+04  0.50400001928E-02 0.  1.
</event>
<event>
 5   0  0.9232963E-07  0.2904527E+04  0.7818609E-02  0.8271532E-01
        1   -1    0    0  501    0  0.00000000000E+00  0.00000000000E+00  0.14965599947E+04  0.14965599947E+04  0.50400001928E-02 0. -1.
       -1   -1    0    0    0  501  0.00000000000E+00  0.00000000000E+00 -0.14092777911E+04  0.14092777911E+04  0.50400001928E-02 0.  1.
    10030    2    1    2    0    0  0.00000000000E+00  0.00000000000E+00  0.87282203659E+02  0.29058377858E+04  0.29045266489E+04 0.  0.
        3    1    3    3  502    0  0.37509979231E+03  0.39951279321E+03 -0.13018669006E+04  0.14125040755E+04  0.10100000352E+00 0.  1.
       -3    1    3    3    0  502 -0.37509979231E+03 -0.39951279321E+03  0.13891491043E+04  0.14933337103E+04  0.10100000352E+00 0. -1.
</event>
<event>
 5   0  0.2906701E-06  0.3365026E+04  0.7818609E-02  0.8146544E-01
       -2   -1    0    0    0  501  0.00000000000E+00  0.00000000000E+00  0.10935454538E+04  0.10935454538E+04  0.25500000920E-02 0. -1.
        2   -1    0    0  501    0  0.00000000000E+00  0.00000000000E+00 -0.25886896002E+04  0.25886896002E+04  0.25500000920E-02 0.  1.
    10030    2    1    2    0    0  0.00000000000E+00  0.00000000000E+00 -0.14951441464E+04  0.36822350540E+04  0.33650258505E+04 0.  0.
        5    1    3    3  502    0 -0.14293906707E+04  0.59666029200E+03 -0.14665197027E+04  0.21330408627E+04  0.46999998093E+01 0.  1.
       -5    1    3    3    0  502  0.14293906707E+04 -0.59666029200E+03 -0.28624443653E+02  0.15491941913E+04  0.46999998093E+01 0. -1.
</event>
<event>
 5   0  0.2767014E-06  0.3295011E+04  0.7818609E-02  0.8164166E-01
        2   -1    0    0  501    0  0.00000000000E+00  0.00000000000E+00  0.29091502751E+04  0.29091502751E+04  0.25500000920E-02 0. -1.
       -2   -1    0    0    0  501  0.00000000000E+00  0.00000000000E+00 -0.93301265325E+03  0.93301265326E+03  0.25500000920E-02 0.  1.
    10030    2    1    2    0    0  0.00000000000E+00  0.00000000000E+00  0.19761376219E+04  0.38421629284E+04  0.32950107841E+04 0.  0.
        1    1    3    3  502    0 -0.61024111740E+03  0.51287623429E+02 -0.79536583037E+03  0.10038084707E+04  0.50400001928E-02 0.  1.
       -1    1    3    3    0  502  0.61024111740E+03 -0.51287623429E+02  0.27715034522E+04  0.28383544577E+04  0.50400001928E-02 0. -1.
</event>
<event>
 5   0  0.1003191E-06  0.3363396E+04  0.7818609E-02  0.8146949E-01
       -1   -1    0    0    0  501  0.00000000000E+00  0.00000000000E+00  0.14697235786E+04  0.14697235786E+04  0.50400001928E-02 0. -1.
        1   -1    0    0  501    0  0.00000000000E+00  0.00000000000E+00 -0.19242453534E+04  0.19242453534E+04  0.50400001928E-02 0.  1.
    10030    2    1    2    0    0  0.00000000000E+00  0.00000000000E+00 -0.45452177485E+03  0.33939689320E+04  0.33633963590E+04 0.  0.
        5    1    3    3  502    0 -0.84130043283E+03 -0.68742388502E+03 -0.15225755943E+04  0.18704535670E+04  0.46999998093E+01 0.  1.
       -5    1    3    3    0  502  0.84130043283E+03  0.68742388502E+03  0.10680538195E+04  0.15235153650E+04  0.46999998093E+01 0. -1.
</event>
<event>
 5   0  0.1003191E-06  0.3422248E+04  0.7818609E-02  0.8132467E-01
        1   -1    0    0  501    0  0.00000000000E+00  0.00000000000E+00  0.18828804257E+04  0.18828804257E+04  0.50400001928E-02 0.  1.
       -1   -1    0    0    0  501  0.00000000000E+00  0.00000000000E+00 -0.15550352262E+04  0.15550352262E+04  0.50400001928E-02 0. -1.
    10030    2    1    2    0    0  0.00000000000E+00  0.00000000000E+00  0.32784519951E+03  0.34379156518E+04  0.34222480264E+04 0.  0.
        5    1    3    3  502    0  0.28737282889E+03  0.14384974002E+04 -0.72105625101E+03  0.16345648107E+04  0.46999998093E+01 0. -1.
       -5    1    3    3    0  502 -0.28737282889E+03 -0.14384974002E+04  0.10489014505E+04  0.18033508411E+04  0.46999998093E+01 0.  1.
</event>
<event>
 5   0  0.2767014E-06  0.3348590E+04  0.7818609E-02  0.8150641E-01
        2   -1    0    0  501    0  0.00000000000E+00  0.00000000000E+00  0.21708560142E+04  0.21708560142E+04  0.25500000920E-02 0. -1.
       -2   -1    0    0    0  501  0.00000000000E+00  0.00000000000E+00 -0.12913172923E+04  0.12913172923E+04  0.25500000920E-02 0.  1.
    10030    2    1    2    0    0  0.00000000000E+00  0.00000000000E+00  0.87953872193E+03  0.34621733065E+04  0.33485900975E+04 0.  0.
        1    1    3    3  502    0  0.88254624386E+03 -0.14209624923E+04  0.36491448024E+03  0.17120703418E+04  0.50400001928E-02 0. -1.
       -1    1    3    3    0  502 -0.88254624386E+03  0.14209624923E+04  0.51462424169E+03  0.17501029648E+04  0.50400001928E-02 0.  1.
</event>
<event>
 5   0  0.9232963E-07  0.3380149E+04  0.7818609E-02  0.8142796E-01
       -1   -1    0    0    0  501  0.00000000000E+00  0.00000000000E+00  0.25314406151E+04  0.25314406151E+04  0.50400001928E-02 0. -1.
        1   -1    0    0  501    0  0.00000000000E+00  0.00000000000E+00 -0.11283504871E+04  0.11283504871E+04  0.50400001928E-02 0.  1.
    10030    2    1    2    0    0  0.00000000000E+00  0.00000000000E+00  0.14030901280E+04  0.36597911023E+04  0.33801492578E+04 0.  0.
        3    1    3    3  502    0  0.72266395663E+03  0.15229324601E+04  0.56988854323E+03  0.17794210952E+04  0.10100000352E+00 0.  1.
       -3    1    3    3    0  502 -0.72266395663E+03 -0.15229324601E+04  0.83320158478E+03  0.18803700070E+04  0.10100000352E+00 0. -1.
</event>
<event>
 5   0  0.1010551E-06  0.3367847E+04  0.7818609E-02  0.8145843E-01
        1   -1    0    0  501    0  0.00000000000E+00  0.00000000000E+00  0.27302033013E+04  0.27302033013E+04  0.50400001928E-02 0. -1.
       -1   -1    0    0    0  501  0.00000000000E+00  0.00000000000E+00 -0.10386031095E+04  0.10386031095E+04  0.50400001928E-02 0.  1.
    10030    2    1    2    0    0  0.00000000000E+00  0.00000000000E+00  0.16916001918E+04  0.37688064109E+04  0.33678465751E+04 0.  0.
        2    1    3    3  502    0  0.53152100355E+03  0.12313418788E+04 -0.29370384136E+03  0.13729455001E+04  0.25500000920E-02 0.  1.
       -2    1    3    3    0  502 -0.53152100355E+03 -0.12313418788E+04  0.19853040332E+04  0.23958609108E+04  0.25500000920E-02 0. -1.
</event>
<event>
 5   0  0.9714317E-07  0.3360350E+04  0.7818609E-02  0.8147707E-01
       -1   -1    0    0    0  501  0.00000000000E+00  0.00000000000E+00  0.35499709027E+04  0.35499709027E+04  0.50400001928E-02 0.  1.
        1   -1    0    0  501    0  0.00000000000E+00  0.00000000000E+00 -0.79521442215E+03  0.79521442217E+03  0.50400001928E-02 0. -1.
    10030    2    1    2    0    0  0.00000000000E+00  0.00000000000E+00  0.27547564805E+04  0.43451853249E+04  0.33603500175E+04 0.  0.
        4    1    3    3  502    0 -0.76898567747E+03  0.79530417890E+03  0.30125631092E+04  0.32092656183E+04  0.12699999809E+01 0.  1.
       -4    1    3    3    0  502  0.76898567747E+03 -0.79530417890E+03 -0.25780662862E+03  0.11359197066E+04  0.12699999809E+01 0. -1.
</event>
<event>
 5   0  0.9714317E-07  0.3459458E+04  0.7818609E-02  0.8123466E-01
        1   -1    0    0  501    0  0.00000000000E+00  0.00000000000E+00  0.85733829978E+03  0.85733829980E+03  0.50400001928E-02 0. -1.
       -1   -1    0    0    0  501  0.00000000000E+00  0.00000000000E+00 -0.34898275965E+04  0.34898275965E+04  0.50400001928E-02 0.  1.
    10030    2    1    2    0    0  0.00000000000E+00  0.00000000000E+00 -0.26324892967E+04  0.43471658963E+04  0.34594582571E+04 0.  0.
        4    1    3    3  502    0  0.62935796783E+03  0.86144648350E+03 -0.30271547333E+04  0.32096493403E+04  0.12699999809E+01 0.  1.
       -4    1    3    3    0  502 -0.62935796783E+03 -0.86144648350E+03  0.39466543651E+03  0.11375165560E+04  0.12699999809E+01 0. -1.
</event>
<event>
 5   0  0.1010855E-06  0.3280686E+04  0.7818609E-02  0.8167827E-01
        1   -1    0    0  501    0  0.00000000000E+00  0.00000000000E+00  0.25655739461E+04  0.25655739461E+04  0.50400001928E-02 0. -1.
       -1   -1    0    0    0  501  0.00000000000E+00  0.00000000000E+00 -0.10487811710E+04  0.10487811710E+04  0.50400001928E-02 0.  1.
    10030    2    1    2    0    0  0.00000000000E+00  0.00000000000E+00  0.15167927751E+04  0.36143551171E+04  0.32806862986E+04 0.  0.
        1    1    3    3  502    0  0.72688002488E+03  0.14395414509E+04  0.10890764384E+04  0.19459500631E+04  0.50400001928E-02 0.  1.
       -1    1    3    3    0  502 -0.72688002488E+03 -0.14395414509E+04  0.42771633676E+03  0.16684050540E+04  0.50400001928E-02 0. -1.
</event>
<event>
 5   0  0.9232963E-07  0.3383293E+04  0.7818609E-02  0.8142019E-01
       -1   -1    0    0    0  501  0.00000000000E+00  0.00000000000E+00  0.11974794858E+04  0.11974794858E+04  0.50400001928E-02 0. -1.
        1   -1    0    0  501    0  0.00000000000E+00  0.00000000000E+00 -0.23897420274E+04  0.23897420275E+04  0.50400001928E-02 0.  1.
    10030    2    1    2    0    0  0.00000000000E+00  0.00000000000E+00 -0.11922625417E+04  0.35872215132E+04  0.33832925112E+04 0.  0.
        3    1    3    3  502    0 -0.14462135392E+04 -0.85032731410E+03 -0.82618145515E+03  0.18700711080E+04  0.10100000352E+00 0. -1.
       -3    1    3    3    0  502  0.14462135392E+04  0.85032731410E+03 -0.36608108653E+03  0.17171504052E+04  0.10100000352E+00 0.  1.
</event>
<event>
 5   0  0.9714317E-07  0.3368167E+04  0.7818609E-02  0.8145764E-01
       -1   -1    0    0    0  501  0.00000000000E+00  0.00000000000E+00  0.14965113737E+04  0.14965113737E+04  0.50400001928E-02 0.  1.
        1   -1    0    0  501    0  0.00000000000E+00  0.00000000000E+00 -0.18951657308E+04  0.18951657308E+04  0.50400001928E-02 0. -1.
    10030    2    1    2    0    0  0.00000000000E+00  0.00000000000E+00 -0.39865435707E+03  0.33916771045E+04  0.33681669027E+04 0.  0.
        4    1    3    3  502    0 -0.14785248878E+04  0.77467099171E+03  0.25805447887E+02  0.16693766870E+04  0.12699999809E+01 0.  1.
       -4    1    3    3    0  502  0.14785248878E+04 -0.77467099171E+03 -0.42445980496E+03  0.17223004175E+04  0.12699999809E+01 0. -1.
</event>
<event>
 5   0  0.2848685E-06  0.3265929E+04  0.7818609E-02  0.8171619E-01
       -2   -1    0    0    0  501  0.00000000000E+00  0.00000000000E+00  0.15695949531E+04  0.15695949531E+04  0.25500000920E-02 0.  1.
        2   -1    0    0  501    0  0.00000000000E+00  0.00000000000E+00 -0.16988926141E+04  0.16988926141E+04  0.25500000920E-02 0. -1.
    10030    2    1    2    0    0  0.00000000000E+00  0.00000000000E+00 -0.12929766101E+03  0.32684875672E+04  0.32659291315E+04 0.  0.
        3    1    3    3  502    0 -0.22515350838E+03 -0.76995129758E+03 -0.14881041361E+04  0.16905540610E+04  0.10100000352E+00 0. -1.
       -3    1    3    3    0  502  0.22515350838E+03  0.76995129758E+03  0.13588064751E+04  0.15779335062E+04  0.10100000352E+00 0.  1.
</event>
<event>
 5   0  0.1010551E-06  0.3408473E+04  0.7818609E-02  0.8135830E-01
       -1   -1    0    0    0  501  0.00000000000E+00  0.00000000000E+00  0.11137564703E+04  0.11137564703E+04  0.50400001928E-02 0.  1.
        1   -1    0    0  501    0  0.00000000000E+00  0.00000000000E+00 -0.26077712091E+04  0.26077712091E+04  0.50400001928E-02 0. -1.
    10030    2    1    2    0    0  0.00000000000E+00  0.00000000000E+00 -0.14940147388E+04  0.37215276794E+04  0.34084730054E+04 0.  0.
        2    1    3    3  502    0  0.42762437572E+03  0.16496910793E+04 -0.73731552340E+03  0.18568730287E+04  0.25500000920E-02 0. -1.
       -2    1    3    3    0  502 -0.42762437572E+03 -0.16496910793E+04 -0.75669921536E+03  0.18646546507E+04  0.25500000920E-02 0.  1.
</event>
<event>
 5   0  0.9232963E-07  0.3406204E+04  0.7818609E-02  0.8136385E-01
        1   -1    0    0  501    0  0.00000000000E+00  0.00000000000E+00  0.21186176450E+04  0.21186176450E+04  0.50400001928E-02 0.  1.
       -1   -1    0    0    0  501  0.00000000000E+00  0.00000000000E+00 -0.13690794835E+04  0.13690794835E+04  0.50400001928E-02 0. -1.
    10030    2    1    2    0    0  0.00000000000E+00  0.00000000000E+00  0.74953816151E+03  0.34876971286E+04  0.34062037234E+04 0.  0.
        3    1    3    3  502    0  0.16996190081E+04  0.91817424464E+02  0.43465538160E+03  0.17567186806E+04  0.10100000352E+00 0. -1.
       -3    1    3    3    0  502 -0.16996190081E+04 -0.91817424464E+02  0.31488277991E+03  0.17309784479E+04  0.10100000352E+00 0.  1.
</event>
<event>
 5   0  0.1010551E-06  0.3372700E+04  0.7818609E-02  0.8144639E-01
       -1   -1    0    0    0  501  0.00000000000E+00  0.00000000000E+00  0.17463695493E+04  0.17463695494E+04  0.50400001928E-02 0.  1.
        1   -1    0    0  501    0  0.00000000000E+00  0.00000000000E+00 -0.16283929875E+04  0.16283929875E+04  0.50400001928E-02 0. -1.
    10030    2    1    2    0    0  0.00000000000E+00  0.00000000000E+00  0.11797656190E+03  0.33747625368E+04  0.33726997659E+04 0.  0.
        2    1    3    3  502    0 -0.45683818725E+03 -0.15498614478E+04  0.54198868749E+03  0.17042662275E+04  0.25500000920E-02 0.  1.
       -2    1    3    3    0  502  0.45683818725E+03  0.15498614478E+04 -0.42401212560E+03  0.16704963093E+04  0.25500000920E-02 0. -1.
</event>
<event>
 5   0  0.2767014E-06  0.3352712E+04  0.7818609E-02  0.8149611E-01
       -2   -1    0    0    0  501  0.00000000000E+00  0.00000000000E+00  0.10741869285E+04  0.10741869286E+04  0.25500000920E-02 0. -1.
        2   -1    0    0  501    0  0.00000000000E+00  0.00000000000E+00 -0.26160894407E+04  0.26160894407E+04  0.25500000920E-02 0.  1.
    10030    2    1    2    0    0  0.00000000000E+00  0.00000000000E+00 -0.15419025121E+04  0.36902763692E+04  0.33527117867E+04 0.  0.
        1    1    3    3  502    0 -0.12669665227E+04  0.58096826844E+03  0.25418735036E+03  0.14168060939E+04  0.50400001928E-02 0. -1.
       -1    1    3    3    0  502  0.12669665227E+04 -0.58096826844E+03 -0.17960898625E+04  0.22734702753E+04  0.50400001928E-02 0.  1.
</event>
<event>
 5   0  0.1010855E-06  0.2454637E+04  0.7818609E-02  0.8419327E-01
        1   -1    0    0  501    0  0.00000000000E+00  0.00000000000E+00  0.87530478139E+03  0.87530478140E+03  0.50400001928E-02 0. -1.
       -1   -1    0    0    0  501  0.00000000000E+00  0.00000000000E+00 -0.17208988612E+04  0.17208988612E+04  0.50400001928E-02 0.  1.
    10030    2    1    2    0    0  0.00000000000E+00  0.00000000000E+00 -0.84559407981E+03  0.25962036426E+04  0.24546372453E+04 0.  0.
        1    1    3    3  502    0  0.57267982459E+03 -0.10189388028E+04 -0.81870107891E+03  0.14270493761E+04  0.50400001928E-02 0.  1.
       -1    1    3    3    0  502 -0.57267982459E+03  0.10189388028E+04 -0.26893000902E+02  0.11691542665E+04  0.50400001928E-02 0. -1.
</event>
<event>
 5   0  0.2664083E-06  0.2630973E+04  0.7818609E-02  0.8357756E-01
       -2   -1    0    0    0  501  0.00000000000E+00  0.00000000000E+00  0.11800204259E+04  0.11800204259E+04  0.25500000920E-02 0. -1.
        2   -1    0    0  501    0  0.00000000000E+00  0.00000000000E+00 -0.14665035014E+04  0.14665035014E+04  0.25500000920E-02 0.  1.
    10030    2    1    2    0    0  0.00000000000E+00  0.00000000000E+00 -0.28648307548E+03  0.26465239272E+04  0.26309725093E+04 0.  0.
        2    1    3    3  502    0 -0.88630403797E+03  0.68887906319E+02 -0.11186243771E+04  0.14288459989E+04  0.25500000920E-02 0.  1.
       -2    1    3    3    0  502  0.88630403797E+03 -0.68887906319E+02  0.83214130164E+03  0.12176779284E+04  0.25500000920E-02 0. -1.
</event>
<event>
 5   0  0.9070500E-07  0.3172539E+04  0.7818609E-02  0.8196107E-01
       -3   -1    0    0    0  501  0.00000000000E+00  0.00000000000E+00  0.14601872848E+04  0.14601872883E+04  0.10100000352E+00 0. -1.
        3   -1    0    0  501    0  0.00000000000E+00  0.00000000000E+00 -0.17232384822E+04  0.17232384852E+04  0.10100000352E+00 0.  1.
    10030    2    1    2    0    0  0.00000000000E+00  0.00000000000E+00 -0.26305119746E+03  0.31834257734E+04  0.31725390025E+04 0.  0.
        3    1    3    3  502    0 -0.13106813455E+04 -0.38931153627E+01  0.76504495361E+03  0.15176279310E+04  0.10100000352E+00 0. -1.
       -3    1    3    3    0  502  0.13106813455E+04  0.38931153627E+01 -0.10280961511E+04  0.16657978424E+04  0.10100000352E+00 0.  1.
</event>
<event>
 5   0  0.1010855E-06  0.3374883E+04  0.7818609E-02  0.8144098E-01
        1   -1    0    0  501    0  0.00000000000E+00  0.00000000000E+00  0.17849792878E+04  0.17849792878E+04  0.50400001928E-02 0.  1.
       -1   -1    0    0    0  501  0.00000000000E+00  0.00000000000E+00 -0.15952339941E+04  0.15952339941E+04  0.50400001928E-02 0. -1.
    10030    2    1    2    0    0  0.00000000000E+00  0.00000000000E+00  0.18974529374E+03  0.33802132819E+04  0.33748834876E+04 0.  0.
        1    1    3    3  502    0  0.25860077762E+03  0.16021943608E+04  0.55772636582E+03  0.17160885266E+04  0.50400001928E-02 0.  1.
       -1    1    3    3    0  502 -0.25860077762E+03 -0.16021943608E+04 -0.36798107208E+03  0.16641247553E+04  0.50400001928E-02 0. -1.
</event>
<event>
 5   0  0.9232963E-07  0.3362848E+04  0.7818609E-02  0.8147085E-01
        1   -1    0    0  501    0  0.00000000000E+00  0.00000000000E+00  0.19791454341E+04  0.19791454341E+04  0.50400001928E-02 0.  1.
       -1   -1    0    0    0  501  0.00000000000E+00  0.00000000000E+00 -0.14284890071E+04  0.14284890071E+04  0.50400001928E-02 0. -1.
    10030    2    1    2    0    0  0.00000000000E+00  0.00000000000E+00  0.55065642706E+03  0.34076344412E+04  0.33628484926E+04 0.  0.
        3    1    3    3  502    0  0.87955477337E+03  0.14329872260E+04  0.26429763195E+03  0.17020347346E+04  0.10100000352E+00 0.  1.
       -3    1    3    3    0  502 -0.87955477337E+03 -0.14329872260E+04  0.28635879511E+03  0.17055997066E+04  0.10100000352E+00 0. -1.
</event>
<event>
 5   0  0.2848685E-06  0.3392946E+04  0.7818609E-02  0.8139640E-01
       -2   -1    0    0    0  501  0.00000000000E+00  0.00000000000E+00  0.17300944141E+04  0.17300944141E+04  0.25500000920E-02 0. -1.
        2   -1    0    0  501    0  0.00000000000E+00  0.00000000000E+00 -0.16635046743E+04  0.16635046743E+04  0.25500000920E-02 0.  1.
    10030    2    1    2    0    0  0.00000000000E+00  0.00000000000E+00  0.66589739793E+02  0.33935990883E+04  0.33929457082E+04 0.  0.
        3    1    3    3  502    0  0.74531272872E+03 -0.13176862376E+03  0.15518645913E+04  0.17265971602E+04  0.10100000352E+00 0. -1.
       -3    1    3    3    0  502 -0.74531272872E+03  0.13176862376E+03 -0.14852748515E+04  0.16670019281E+04  0.10100000352E+00 0.  1.
</event>
<event>
 5   0  0.2856440E-06  0.3407524E+04  0.7818609E-02  0.8136062E-01
       -2   -1    0    0    0  501  0.00000000000E+00  0.00000000000E+00  0.14819038959E+04  0.14819038959E+04  0.25500000920E-02 0.  1.
        2   -1    0    0  501    0  0.00000000000E+00  0.00000000000E+00 -0.19588345386E+04  0.19588345386E+04  0.25500000920E-02 0. -1.
    10030    2    1    2    0    0  0.00000000000E+00  0.00000000000E+00 -0.47693064272E+03  0.34407384345E+04  0.34075237544E+04 0.  0.
        4    1    3    3  502    0  0.11646081720E+03 -0.16774495078E+04  0.38807262722E+02  0.16819356675E+04  0.12699999809E+01 0.  1.
       -4    1    3    3    0  502 -0.11646081720E+03  0.16774495078E+04 -0.51573790544E+03  0.17588027670E+04  0.12699999809E+01 0. -1.
</event>
<event>
 5   0  0.1010855E-06  0.3359217E+04  0.7818609E-02  0.8147989E-01
       -1   -1    0    0    0  501  0.00000000000E+00  0.00000000000E+00  0.26515119237E+04  0.26515119237E+04  0.50400001928E-02 0.  1.
        1   -1    0    0  501    0  0.00000000000E+00  0.00000000000E+00 -0.10639531813E+04  0.10639531813E+04  0.50400001928E-02 0. -1.
    10030    2    1    2    0    0  0.00000000000E+00  0.00000000000E+00  0.15875587424E+04  0.37154651050E+04  0.33592169007E+04 0.  0.
        1    1    3    3  502    0 -0.80826782515E+03 -0.11569895135E+04 -0.21337276978E+03  0.14273925705E+04  0.50400001928E-02 0. -1.
       -1    1    3    3    0  502  0.80826782515E+03  0.11569895135E+04  0.18009315122E+04  0.22880725345E+04  0.50400001928E-02 0.  1.
</event>
<event>
 5   0  0.1003191E-06  0.2729966E+04  0.7818609E-02  0.8325347E-01
       -1   -1    0    0    0  501  0.00000000000E+00  0.00000000000E+00  0.18641432874E+04  0.18641432874E+04  0.50400001928E-02 0. -1.
        1   -1    0    0  501    0  0.00000000000E+00  0.00000000000E+00 -0.99948274778E+03  0.99948274780E+03  0.50400001928E-02 0.  1.
    10030    2    1    2    0    0  0.00000000000E+00  0.00000000000E+00  0.86466053957E+03  0.28636260352E+04  0.27299663406E+04 0.  0.
        5    1    3    3  502    0 -0.89194270460E+03  0.95330560197E+03  0.85034269378E+03  0.15580302134E+04  0.46999998093E+01 0. -1.
       -5    1    3    3    0  502  0.89194270460E+03 -0.95330560197E+03  0.14317845793E+02  0.13055958217E+04  0.46999998093E+01 0.  1.
</event>
<event>
 5   0  0.2848685E-06  0.3368013E+04  0.7818609E-02  0.8145802E-01
        2   -1    0    0  501    0  0.00000000000E+00  0.00000000000E+00  0.17969019668E+04  0.17969019668E+04  0.25500000920E-02 0. -1.
       -2   -1    0    0    0  501  0.00000000000E+00  0.00000000000E+00 -0.15782036419E+04  0.15782036419E+04  0.25500000920E-02 0.  1.
    10030    2    1    2    0    0  0.00000000000E+00  0.00000000000E+00  0.21869832486E+03  0.33751056087E+04  0.33680126057E+04 0.  0.
        3    1    3    3  502    0 -0.10206544006E+04 -0.24305157576E+03  0.14293429170E+04  0.17730850680E+04  0.10100000352E+00 0. -1.
       -3    1    3    3    0  502  0.10206544006E+04  0.24305157576E+03 -0.12106445921E+04  0.16020205406E+04  0.10100000352E+00 0.  1.
</event>
<event>
 5   0  0.9714317E-07  0.3295366E+04  0.7818609E-02  0.8164076E-01
       -1   -1    0    0    0  501  0.00000000000E+00  0.00000000000E+00  0.19872204650E+04  0.19872204651E+04  0.50400001928E-02 0.  1.
        1   -1    0    0  501    0  0.00000000000E+00  0.00000000000E+00 -0.13661590369E+04  0.13661590370E+04  0.50400001928E-02 0. -1.
    10030    2    1    2    0    0  0.00000000000E+00  0.00000000000E+00  0.62106142810E+03  0.33533795020E+04  0.32953659565E+04 0.  0.
        4    1    3    3  502    0 -0.10352699999E+04 -0.68172607588E+03 -0.79408511673E+03  0.14721097788E+04  0.12699999809E+01 0. -1.
       -4    1    3    3    0  502  0.10352699999E+04  0.68172607588E+03  0.14151465448E+04  0.18812697232E+04  0.12699999809E+01 0.  1.
</event>
<event>
 5   0  0.2848685E-06  0.2350113E+04  0.7818609E-02  0.8458420E-01
        2   -1    0    0  501    0  0.00000000000E+00  0.00000000000E+00  0.95713882069E+03  0.95713882069E+03  0.25500000920E-02 0. -1.
       -2   -1    0    0    0  501  0.00000000000E+00  0.00000000000E+00 -0.14425883486E+04  0.14425883486E+04  0.25500000920E-02 0.  1.
    10030    2    1    2    0    0  0.00000000000E+00  0.00000000000E+00 -0.48544952790E+03  0.23997271693E+04  0.23501126022E+04 0.  0.
        3    1    3    3  502    0 -0.33202956340E+03 -0.74456250972E+03 -0.11068412001E+04  0.13746688381E+04  0.10100000352E+00 0. -1.
       -3    1    3    3    0  502  0.33202956340E+03  0.74456250972E+03  0.62139167224E+03  0.10250583312E+04  0.10100000352E+00 0.  1.
</event>
<event>
 5   0  0.9070500E-07  0.3548498E+04  0.7818609E-02  0.8102392E-01
       -3   -1    0    0    0  501  0.00000000000E+00  0.00000000000E+00  0.25864668832E+04  0.25864668852E+04  0.10100000352E+00 0. -1.
        3   -1    0    0  501    0  0.00000000000E+00  0.00000000000E+00 -0.12170885719E+04  0.12170885761E+04  0.10100000352E+00 0.  1.
    10030    2    1    2    0    0  0.00000000000E+00  0.00000000000E+00  0.13693783113E+04  0.38035554613E+04  0.35484978776E+04 0.  0.
        1    1    3    3  502    0 -0.73020158806E+03 -0.82322810614E+03  0.21765103999E+04  0.24388719513E+04  0.50400001928E-02 0. -1.
       -1    1    3    3    0  502  0.73020158806E+03  0.82322810614E+03 -0.80713208858E+03  0.13646835100E+04  0.50400001928E-02 0.  1.
</event>
<event>
 5   0  0.1010551E-06  0.2638881E+04  0.7818609E-02  0.8355113E-01
        1   -1    0    0  501    0  0.00000000000E+00  0.00000000000E+00  0.13882681102E+04  0.13882681102E+04  0.50400001928E-02 0.  1.
       -1   -1    0    0    0  501  0.00000000000E+00  0.00000000000E+00 -0.12540248879E+04  0.12540248879E+04  0.50400001928E-02 0. -1.
    10030    2    1    2    0    0  0.00000000000E+00  0.00000000000E+00  0.13424322232E+03  0.26422929982E+04  0.26388806425E+04 0.  0.
        2    1    3    3  502    0  0.97742295311E+03 -0.70149253414E+03  0.60955578928E+03  0.13487051809E+04  0.25500000920E-02 0.  1.
       -2    1    3    3    0  502 -0.97742295311E+03  0.70149253414E+03 -0.47531256696E+03  0.12935878173E+04  0.25500000920E-02 0. -1.
</event>
<event>
 5   0  0.2906701E-06  0.3450062E+04  0.7818609E-02  0.8125728E-01
        2   -1    0    0  501    0  0.00000000000E+00  0.00000000000E+00  0.12312566914E+04  0.12312566914E+04  0.25500000920E-02 0. -1.
       -2   -1    0    0    0  501  0.00000000000E+00  0.00000000000E+00 -0.24168243820E+04  0.24168243820E+04  0.25500000920E-02 0.  1.
    10030    2    1    2    0    0  0.00000000000E+00  0.00000000000E+00 -0.11855676907E+04  0.36480810734E+04  0.34500615602E+04 0.  0.
        5    1    3    3  502    0 -0.11666252044E+04  0.11728710875E+04 -0.75774379514E+02  0.16560207734E+04  0.46999998093E+01 0. -1.
       -5    1    3    3    0  502  0.11666252044E+04 -0.11728710875E+04 -0.11097933112E+04  0.19920603000E+04  0.46999998093E+01 0.  1.
</event>
<event>
 5   0  0.1010855E-06  0.3401152E+04  0.7818609E-02  0.8137624E-01
        1   -1    0    0  501    0  0.00000000000E+00  0.00000000000E+00  0.28737828179E+04  0.28737828179E+04  0.50400001928E-02 0. -1.
       -1   -1    0    0    0  501  0.00000000000E+00  0.00000000000E+00 -0.10063246340E+04  0.10063246340E+04  0.50400001928E-02 0.  1.
    10030    2    1    2    0    0  0.00000000000E+00  0.00000000000E+00  0.18674581839E+04  0.38801074520E+04  0.34011518299E+04 0.  0.
        1    1    3    3  502    0  0.78744580636E+03  0.62572196868E+02  0.26517822720E+04  0.27669361026E+04  0.50400001928E-02 0. -1.
       -1    1    3    3    0  502 -0.78744580636E+03 -0.62572196868E+02 -0.78432408812E+03  0.11131713493E+04  0.50400001928E-02 0.  1.
</event>
<event>
 5   0  0.1010855E-06  0.3409497E+04  0.7818609E-02  0.8135579E-01
        1   -1    0    0  501    0  0.00000000000E+00  0.00000000000E+00  0.19804199429E+04  0.19804199429E+04  0.50400001928E-02 0. -1.
       -1   -1    0    0    0  501  0.00000000000E+00  0.00000000000E+00 -0.14674505197E+04  0.14674505197E+04  0.50400001928E-02 0.  1.
    10030    2    1    2    0    0  0.00000000000E+00  0.00000000000E+00  0.51296942320E+03  0.34478704626E+04  0.34094974846E+04 0.  0.
        1    1    3    3  502    0 -0.62184372038E+03  0.15378115429E+04  0.65412046246E+03  0.17830949312E+04  0.50400001928E-02 0. -1.
       -1    1    3    3    0  502  0.62184372038E+03 -0.15378115429E+04 -0.14115103926E+03  0.16647755314E+04  0.50400001928E-02 0.  1.
</event>
<event>
 5   0  0.2848685E-06  0.3389826E+04  0.7818609E-02  0.8140408E-01
       -2   -1    0    0    0  501  0.00000000000E+00  0.00000000000E+00  0.12539965372E+04  0.12539965372E+04  0.25500000920E-02 0.  1.
        2   -1    0    0  501    0  0.00000000000E+00  0.00000000000E+00 -0.22908590707E+04  0.22908590707E+04  0.25500000920E-02 0. -1.
    10030    2    1    2    0    0  0.00000000000E+00  0.00000000000E+00 -0.10368625335E+04  0.35448556079E+04  0.33898255659E+04 0.  0.
        3    1    3    3  502    0  0.16789005029E+04  0.21756684244E+03 -0.60394584727E+03  0.17974406322E+04  0.10100000352E+00 0. -1.
       -3    1    3    3    0  502 -0.16789005029E+04 -0.21756684244E+03 -0.43291668627E+03  0.17474149757E+04  0.10100000352E+00 0.  1.
</event>
<event>
 5   0  0.9714317E-07  0.2507103E+04  0.7818609E-02  0.8400459E-01
        1   -1    0    0  501    0  0.00000000000E+00  0.00000000000E+00  0.10017167907E+04  0.10017167907E+04  0.50400001928E-02 0.  1.
       -1   -1    0    0    0  501  0.00000000000E+00  0.00000000000E+00 -0.15686986775E+04  0.15686986775E+04  0.50400001928E-02 0. -1.
    10030    2    1    2    0    0  0.00000000000E+00  0.00000000000E+00 -0.56698188685E+03  0.25704154682E+04  0.25071033523E+04 0.  0.
        4    1    3    3  502    0  0.16616823565E+03 -0.10269451230E+04 -0.10005541766E+04  0.14433774424E+04  0.12699999809E+01 0.  1.
       -4    1    3    3    0  502 -0.16616823565E+03  0.10269451230E+04  0.43357228974E+03  0.11270380257E+04  0.12699999809E+01 0. -1.
</event>
<event>
 5   0  0.1010855E-06  0.2762820E+04  0.7818609E-02  0.8314905E-01
        1   -1    0    0  501    0  0.00000000000E+00  0.00000000000E+00  0.23787811356E+04  0.23787811356E+04  0.50400001928E-02 0. -1.
       -1   -1    0    0    0  501  0.00000000000E+00  0.00000000000E+00 -0.80221494306E+03  0.80221494308E+03  0.50400001928E-02 0.  1.
    10030    2    1    2    0    0  0.00000000000E+00  0.00000000000E+00  0.15765661926E+04  0.31809960787E+04  0.27628201341E+04 0.  0.
        1    1    3    3  502    0  0.11181942999E+04  0.99406943345E+02  0.17151469919E+04  0.20498705902E+04  0.50400001928E-02 0. -1.
       -1    1    3    3    0  502 -0.11181942999E+04 -0.99406943345E+02 -0.13858079936E+03  0.11311254885E+04  0.50400001928E-02 0.  1.
</event>
<event>
 5   0  0.2906701E-06  0.3313462E+04  0.7818609E-02  0.8159478E-01
        2   -1    0    0  501    0  0.00000000000E+00  0.00000000000E+00  0.30975433464E+04  0.30975433464E+04  0.25500000920E-02 0.  1.
       -2   -1    0    0    0  501  0.00000000000E+00  0.00000000000E+00 -0.88610770200E+03  0.88610770200E+03  0.25500000920E-02 0. -1.
    10030    2    1    2    0    0  0.00000000000E+00  0.00000000000E+00  0.22114356444E+04  0.39836510484E+04  0.33134616440E+04 0.  0.
        5    1    3    3  502    0  0.59773898662E+03  0.53994668990E+03 -0.63482487974E+03  0.10256017950E+04  0.46999998093E+01 0. -1.
       -5    1    3    3    0  502 -0.59773898662E+03 -0.53994668990E+03  0.28462605241E+04  0.29580492533E+04  0.46999998093E+01 0.  1.
</event>
<event>
 5   0  0.1003191E-06  0.2372293E+04  0.7818609E-02  0.8449950E-01
       -1   -1    0    0    0  501  0.00000000000E+00  0.00000000000E+00  0.71290170331E+03  0.71290170333E+03  0.50400001928E-02 0.  1.
        1   -1    0    0  501    0  0.00000000000E+00  0.00000000000E+00 -0.19735447064E+04  0.19735447064E+04  0.50400001928E-02 0. -1.
    10030    2    1    2    0    0  0.00000000000E+00  0.00000000000E+00 -0.12606430031E+04  0.26864464097E+04  0.23722928848E+04 0.  0.
        5    1    3    3  502    0 -0.98805344853E+03 -0.45013115302E+02  0.11108946768E+03  0.99530837308E+03  0.46999998093E+01 0.  1.
       -5    1    3    3    0  502  0.98805344853E+03  0.45013115302E+02 -0.13717324708E+04  0.16911380367E+04  0.46999998093E+01 0. -1.
</event>
<event>
 5   0  0.2848685E-06  0.2813198E+04  0.7818609E-02  0.8299183E-01
        2   -1    0    0  501    0  0.00000000000E+00  0.00000000000E+00  0.12204673226E+04  0.12204673226E+04  0.25500000920E-02 0. -1.
       -2   -1    0    0    0  501  0.00000000000E+00  0.00000000000E+00 -0.16211168109E+04  0.16211168109E+04  0.25500000920E-02 0.  1.
    10030    2    1    2    0    0  0.00000000000E+00  0.00000000000E+00 -0.40064948834E+03  0.28415841334E+04  0.28131975357E+04 0.  0.
        3    1    3    3  502    0 -0.51295781639E+03 -0.67922345940E+03 -0.13314682120E+04  0.15802777727E+04  0.10100000352E+00 0.  1.
       -3    1    3    3    0  502  0.51295781639E+03  0.67922345940E+03  0.93081872363E+03  0.12613063607E+04  0.10100000352E+00 0. -1.
</event>
<event>
 5   0  0.1010551E-06  0.3398389E+04  0.7818609E-02  0.8138302E-01
        1   -1    0    0  501    0  0.00000000000E+00  0.00000000000E+00  0.17111019017E+04  0.17111019017E+04  0.50400001928E-02 0. -1.
       -1   -1    0    0    0  501  0.00000000000E+00  0.00000000000E+00 -0.16873702233E+04  0.16873702234E+04  0.50400001928E-02 0.  1.
    10030    2    1    2    0    0  0.00000000000E+00  0.00000000000E+00  0.23731678400E+02  0.33984721251E+04  0.33983892644E+04 0.  0.
        2    1    3    3  502    0  0.59393563501E+02  0.86758875659E+03  0.14717043481E+04  0.17094301782E+04  0.25500000920E-02 0. -1.
       -2    1    3    3    0  502 -0.59393563501E+02 -0.86758875659E+03 -0.14479726697E+04  0.16890419469E+04  0.25500000920E-02 0.  1.
</event>
<event>
 5   0  0.9714317E-07  0.2307703E+04  0.7818609E-02  0.8474890E-01
        1   -1    0    0  501    0  0.00000000000E+00  0.00000000000E+00  0.28461448891E+04  0.28461448891E+04  0.50400001928E-02 0. -1.
       -1   -1    0    0    0  501  0.00000000000E+00  0.00000000000E+00 -0.46778112859E+03  0.46778112862E+03  0.50400001928E-02 0.  1.
    10030    2    1    2    0    0  0.00000000000E+00  0.00000000000E+00  0.23783637605E+04  0.33139260177E+04  0.23077026398E+04 0.  0.
        4    1    3    3  502    0  0.48586752867E+02 -0.11427381829E+04  0.14077226678E+04  0.18138070321E+04  0.12699999809E+01 0. -1.
       -4    1    3    3    0  502 -0.48586752867E+02  0.11427381829E+04  0.97064109271E+03  0.15001189856E+04  0.12699999809E+01 0.  1.
</event>
<event>
 5   0  0.1010855E-06  0.3408259E+04  0.7818609E-02  0.8135882E-01
       -1   -1    0    0    0  501  0.00000000000E+00  0.00000000000E+00  0.13931201108E+04  0.13931201108E+04  0.50400001928E-02 0. -1.
        1   -1    0    0  501    0  0.00000000000E+00  0.00000000000E+00 -0.20845712915E+04  0.20845712915E+04  0.50400001928E-02 0.  1.
    10030    2    1    2    0    0  0.00000000000E+00  0.00000000000E+00 -0.69145118071E+03  0.34776914024E+04  0.34082594905E+04 0.  0.
        1    1    3    3  502    0 -0.36956181528E+03  0.21824353577E+03  0.13370686864E+04  0.14042645222E+04  0.50400001928E-02 0. -1.
       -1    1    3    3    0  502  0.36956181528E+03 -0.21824353577E+03 -0.20285198671E+04  0.20734268802E+04  0.50400001928E-02 0.  1.
</event>
<event>
 5   0  0.9714317E-07  0.3426052E+04  0.7818609E-02  0.8131542E-01
        1   -1    0    0  501    0  0.00000000000E+00  0.00000000000E+00  0.19871833855E+04  0.19871833855E+04  0.50400001928E-02 0. -1.
       -1   -1    0    0    0  501  0.00000000000E+00  0.00000000000E+00 -0.14766924644E+04  0.14766924644E+04  0.50400001928E-02 0.  1.
    10030    2    1    2    0    0  0.00000000000E+00  0.00000000000E+00  0.51049092107E+03  0.34638758499E+04  0.34260523818E+04 0.  0.
        4    1    3    3  502    0  0.87118717446E+03  0.58120834824E+03 -0.11153335501E+04  0.15299479658E+04  0.12699999809E+01 0.  1.
       -4    1    3    3    0  502 -0.87118717446E+03 -0.58120834824E+03  0.16258244712E+04  0.19339278841E+04  0.12699999809E+01 0. -1.
</event>
<event>
 5   0  0.2664083E-06  0.3294377E+04  0.7818609E-02  0.8164328E-01
       -2   -1    0    0    0  501  0.00000000000E+00  0.00000000000E+00  0.99175671810E+03  0.99175671810E+03  0.25500000920E-02 0.  1.
        2   -1    0    0  501    0  0.00000000000E+00  0.00000000000E+00 -0.27357811993E+04  0.27357811993E+04  0.25500000920E-02 0. -1.
    10030    2    1    2    0    0  0.00000000000E+00  0.00000000000E+00 -0.17440244812E+04  0.37275379174E+04  0.32943766534E+04 0.  0.
        2    1    3    3  502    0 -0.76954486672E+03  0.72299943083E+03  0.55845602266E+03  0.11944875923E+04  0.25500000920E-02 0.  1.
       -2    1    3    3    0  502  0.76954486672E+03 -0.72299943083E+03 -0.23024805039E+04  0.25330503251E+04  0.25500000920E-02 0. -1.
</event>
<event>
 5   0  0.2767014E-06  0.3385295E+04  0.7818609E-02  0.8141525E-01
       -2   -1    0    0    0  501  0.00000000000E+00  0.00000000000E+00  0.13368785150E+04  0.13368785150E+04  0.25500000920E-02 0. -1.
        2   -1    0    0  501    0  0.00000000000E+00  0.00000000000E+00 -0.21430934615E+04  0.21430934615E+04  0.25500000920E-02 0.  1.
    10030    2    1    2    0    0  0.00000000000E+00  0.00000000000E+00 -0.80621494644E+03  0.34799719765E+04  0.33852950267E+04 0.  0.
        1    1    3    3  502    0 -0.82371267812E+03 -0.94672007771E+03 -0.15707777280E+04  0.20105034574E+04  0.50400001928E-02 0.  1.
       -1    1    3    3    0  502  0.82371267812E+03  0.94672007771E+03  0.76456278154E+03  0.14694685191E+04  0.50400001928E-02 0. -1.
</event>
<event>
 5   0  0.2848685E-06  0.3448394E+04  0.7818609E-02  0.8126130E-01
       -2   -1    0    0    0  501  0.00000000000E+00  0.00000000000E+00  0.13868739415E+04  0.13868739415E+04  0.25500000920E-02 0. -1.
        2   -1    0    0  501    0  0.00000000000E+00  0.00000000000E+00 -0.21435662108E+04  0.21435662108E+04  0.25500000920E-02 0.  1.
    10030    2    1    2    0    0  0.00000000000E+00  0.00000000000E+00 -0.75669226928E+03  0.35304401524E+04  0.34483944785E+04 0.  0.
        3    1    3    3  502    0  0.14727654512E+04 -0.11634355512E+03 -0.12884752677E+04  0.19602914127E+04  0.10100000352E+00 0.  1.
       -3    1    3    3    0  502 -0.14727654512E+04  0.11634355512E+03  0.53178299843E+03  0.15701487397E+04  0.10100000352E+00 0. -1.
</event>
<event>
 5   0  0.2767014E-06  0.3412306E+04  0.7818609E-02  0.8134893E-01
        2   -1    0    0  501    0  0.00000000000E+00  0.00000000000E+00  0.17761410832E+04  0.17761410832E+04  0.25500000920E-02 0.  1.
       -2   -1    0    0    0  501  0.00000000000E+00  0.00000000000E+00 -0.16389227538E+04  0.16389227538E+04  0.25500000920E-02 0. -1.
    10030    2    1    2    0    0  0.00000000000E+00  0.00000000000E+00  0.13721832936E+03  0.34150638370E+04  0.34123059858E+04 0.  0.
        1    1    3    3  502    0  0.54245002014E+03  0.83568876926E+03 -0.13175482443E+04  0.16518356818E+04  0.50400001928E-02 0. -1.
       -1    1    3    3    0  502 -0.54245002014E+03 -0.83568876926E+03  0.14547665737E+04  0.17632281552E+04  0.50400001928E-02 0.  1.
</event>
<event>
 5   0  0.2856440E-06  0.3428648E+04  0.7818609E-02  0.8130911E-01
       -2   -1    0    0    0  501  0.00000000000E+00  0.00000000000E+00  0.19239519293E+04  0.19239519293E+04  0.25500000920E-02 0.  1.
        2   -1    0    0  501    0  0.00000000000E+00  0.00000000000E+00 -0.15275367294E+04  0.15275367294E+04  0.25500000920E-02 0. -1.
    10030    2    1    2    0    0  0.00000000000E+00  0.00000000000E+00  0.39641519990E+03  0.34514886587E+04  0.34286482686E+04 0.  0.
        4    1    3    3  502    0  0.15525403283E+04 -0.20956811850E+03  0.89898102065E+03  0.18062305378E+04  0.12699999809E+01 0.  1.
       -4    1    3    3    0  502 -0.15525403283E+04  0.20956811850E+03 -0.50256582075E+03  0.16452581209E+04  0.12699999809E+01 0. -1.
</event>
<event>
 5   0  0.9232963E-07  0.3422782E+04  0.7818609E-02  0.8132338E-01
       -1   -1    0    0    0  501  0.00000000000E+00  0.00000000000E+00  0.12374206470E+04  0.12374206470E+04  0.50400001928E-02 0. -1.
        1   -1    0    0  501    0  0.00000000000E+00  0.00000000000E+00 -0.23669060884E+04  0.23669060884E+04  0.50400001928E-02 0.  1.
    10030    2    1    2    0    0  0.00000000000E+00  0.00000000000E+00 -0.11294854414E+04  0.36043267354E+04  0.34227815959E+04 0.  0.
        3    1    3    3  502    0 -0.18992584540E+01  0.16686475763E+04 -0.16449029760E+03  0.16767365355E+04  0.10100000352E+00 0. -1.
       -3    1    3    3    0  502  0.18992584540E+01 -0.16686475763E+04 -0.96499514383E+03  0.19275902000E+04  0.10100000352E+00 0.  1.
</event>
<event>
 5   0  0.1010855E-06  0.3409402E+04  0.7818609E-02  0.8135603E-01
       -1   -1    0    0    0  501  0.00000000000E+00  0.00000000000E+00  0.22833359507E+04  0.22833359507E+04  0.50400001928E-02 0. -1.
        1   -1    0    0  501    0  0.00000000000E+00  0.00000000000E+00 -0.12727014179E+04  0.12727014179E+04  0.50400001928E-02 0.  1.
    10030    2    1    2    0    0  0.00000000000E+00  0.00000000000E+00  0.10106345327E+04  0.35560373686E+04  0.34094016496E+04 0.  0.
        1    1    3    3  502    0  0.32433792400E+03  0.14568846632E+03 -0.12335967342E+04  0.12838150649E+04  0.50400001928E-02 0.  1.
       -1    1    3    3    0  502 -0.32433792400E+03 -0.14568846632E+03  0.22442312669E+04  0.22722223037E+04  0.50400001928E-02 0. -1.
</event>
<event>
 5   0  0.9070500E-07  0.2791296E+04  0.7818609E-02  0.8305976E-01
       -3   -1    0    0    0  501  0.00000000000E+00  0.00000000000E+00  0.25324873687E+04  0.25324873707E+04  0.10100000352E+00 0. -1.
        3   -1    0    0  501    0  0.00000000000E+00  0.00000000000E+00 -0.76913836647E+03  0.76913837310E+03  0.10100000352E+00 0.  1.
    10030    2    1    2    0    0  0.00000000000E+00  0.00000000000E+00  0.17633490023E+04  0.33016257438E+04  0.27912959085E+04 0.  0.
        3    1    3    3  502    0 -0.10979535599E+03  0.53439948361E+03  0.24011358102E+04  0.24623344650E+04  0.10100000352E+00 0. -1.
       -3    1    3    3    0  502  0.10979535599E+03 -0.53439948361E+03 -0.63778680790E+03  0.83929127889E+03  0.10100000352E+00 0.  1.
</event>
<event>
 5   0  0.1010855E-06  0.3276124E+04  0.7818609E-02  0.8168997E-01
       -1   -1    0    0    0  501  0.00000000000E+00  0.00000000000E+00  0.13784051468E+04  0.13784051468E+04  0.50400001928E-02 0. -1.
        1   -1    0    0  501    0  0.00000000000E+00  0.00000000000E+00 -0.19466313587E+04  0.19466313587E+04  0.50400001928E-02 0.  1.
    10030    2    1    2    0    0  0.00000000000E+00  0.00000000000E+00 -0.56822621197E+03  0.33250365055E+04  0.32761237362E+04 0.  0.
        1    1    3    3  502    0 -0.16063399932E+04 -0.70634173981E+02  0.33495673044E+02  0.16082410642E+04  0.50400001928E-02 0. -1.
       -1    1    3    3    0  502  0.16063399932E+04  0.70634173981E+02 -0.60172188501E+03  0.17167954413E+04  0.50400001928E-02 0.  1.
</event>
<event>
 5   0  0.9714317E-07  0.2669154E+04  0.7818609E-02  0.8345083E-01
       -1   -1    0    0    0  501  0.00000000000E+00  0.00000000000E+00  0.68800618409E+03  0.68800618411E+03  0.50400001928E-02 0. -1.
        1   -1    0    0  501    0  0.00000000000E+00  0.00000000000E+00 -0.25887791578E+04  0.25887791578E+04  0.50400001928E-02 0.  1.
    10030    2    1    2    0    0  0.00000000000E+00  0.00000000000E+00 -0.19007729737E+04  0.32767853419E+04  0.26691542255E+04 0.  0.
        4    1    3    3  502    0 -0.98368049813E+03  0.10873456919E+03 -0.20495570210E+04  0.22759912399E+04  0.12699999809E+01 0.  1.
       -4    1    3    3    0  502  0.98368049813E+03 -0.10873456919E+03  0.14878404731E+03  0.10007941020E+04  0.12699999809E+01 0. -1.
</event>
<event>
 5   0  0.9232963E-07  0.3125880E+04  0.7818609E-02  0.8208671E-01
        1   -1    0    0  501    0  0.00000000000E+00  0.00000000000E+00  0.22265557548E+04  0.22265557548E+04  0.50400001928E-02 0.  1.
       -1   -1    0    0    0  501  0.00000000000E+00  0.00000000000E+00 -0.10971122629E+04  0.10971122629E+04  0.50400001928E-02 0. -1.
    10030    2    1    2    0    0  0.00000000000E+00  0.00000000000E+00  0.11294434919E+04  0.33236680178E+04  0.31258801146E+04 0.  0.
        3    1    3    3  502    0  0.29413844928E+03 -0.40890144367E+02  0.21962821957E+04  0.22162682429E+04  0.10100000352E+00 0.  1.
       -3    1    3    3    0  502 -0.29413844928E+03  0.40890144367E+02 -0.10668387038E+04  0.11073997749E+04  0.10100000352E+00 0. -1.
</event>
<event>
 5   0  0.2856440E-06  0.3313293E+04  0.7818609E-02  0.8159521E-01
       -2   -1    0    0    0  501  0.00000000000E+00  0.00000000000E+00  0.14866078599E+04  0.14866078599E+04  0.25500000920E-02 0.  1.
        2   -1    0    0  501    0  0.00000000000E+00  0.00000000000E+00 -0.18461337097E+04  0.18461337097E+04  0.25500000920E-02 0. -1.
    10030    2    1    2    0    0  0.00000000000E+00  0.00000000000E+00 -0.35952584986E+03  0.33327415696E+04  0.33132925517E+04 0.  0.
        4    1    3    3  502    0  0.12042230025E+04 -0.43414971446E+03  0.87799738402E+03  0.15522628751E+04  0.12699999809E+01 0.  1.
       -4    1    3    3    0  502 -0.12042230025E+04  0.43414971446E+03 -0.12375232339E+04  0.17804786945E+04  0.12699999809E+01 0. -1.
</event>
<event>
 5   0  0.1010551E-06  0.3163587E+04  0.7818609E-02  0.8198500E-01
        1   -1    0    0  501    0  0.00000000000E+00  0.00000000000E+00  0.21290122464E+04  0.21290122464E+04  0.50400001928E-02 0. -1.
       -1   -1    0    0    0  501  0.00000000000E+00  0.00000000000E+00 -0.11752261305E+04  0.11752261305E+04  0.50400001928E-02 0.  1.
    10030    2    1    2    0    0  0.00000000000E+00  0.00000000000E+00  0.95378611588E+03  0.33042383770E+04  0.31635870933E+04 0.  0.
        2    1    3    3  502    0 -0.74380236828E+03 -0.12175219818E+04  0.11902436223E+04  0.18580316520E+04  0.25500000920E-02 0. -1.
       -2    1    3    3    0  502  0.74380236828E+03  0.12175219818E+04 -0.23645750645E+03  0.14462067250E+04  0.25500000920E-02 0.  1.
</event>
<event>
 5   0  0.9232963E-07  0.2119065E+04  0.7818609E-02  0.8552891E-01
        1   -1    0    0  501    0  0.00000000000E+00  0.00000000000E+00  0.12595479557E+04  0.12595479557E+04  0.50400001928E-02 0.  1.
       -1   -1    0    0    0  501  0.00000000000E+00  0.00000000000E+00 -0.89127943300E+03  0.89127943302E+03  0.50400001928E-02 0. -1.
    10030    2    1    2    0    0  0.00000000000E+00  0.00000000000E+00  0.36826852272E+03  0.21508273887E+04  0.21190650654E+04 0.  0.
        3    1    3    3  502    0  0.95589623642E+03 -0.42972408091E+03  0.26210422475E+02  0.10483736915E+04  0.10100000352E+00 0. -1.
       -3    1    3    3    0  502 -0.95589623642E+03  0.42972408091E+03  0.34205810025E+03  0.11024536973E+04  0.10100000352E+00 0.  1.
</event>
<event>
 5   0  0.2906701E-06  0.3474017E+04  0.7818609E-02  0.8119975E-01
       -2   -1    0    0    0  501  0.00000000000E+00  0.00000000000E+00  0.16736168618E+04  0.16736168618E+04  0.25500000920E-02 0. -1.
        2   -1    0    0  501    0  0.00000000000E+00  0.00000000000E+00 -0.18028008219E+04  0.18028008220E+04  0.25500000920E-02 0.  1.
    10030    2    1    2    0    0  0.00000000000E+00  0.00000000000E+00 -0.12918396018E+03  0.34764176837E+04  0.34740166114E+04 0.  0.
        5    1    3    3  502    0 -0.16401910682E+04 -0.39685932523E+03 -0.47652160311E+03  0.17535161797E+04  0.46999998093E+01 0.  1.
       -5    1    3    3    0  502  0.16401910682E+04  0.39685932523E+03  0.34733764294E+03  0.17229015040E+04  0.46999998093E+01 0. -1.
</event>
<event>
 5   0  0.1010551E-06  0.2330162E+04  0.7818609E-02  0.8466123E-01
        1   -1    0    0  501    0  0.00000000000E+00  0.00000000000E+00  0.13084105611E+04  0.13084105612E+04  0.50400001928E-02 0. -1.
       -1   -1    0    0    0  501  0.00000000000E+00  0.00000000000E+00 -0.10374527240E+04  0.10374527240E+04  0.50400001928E-02 0.  1.
    10030    2    1    2    0    0  0.00000000000E+00  0.00000000000E+00  0.27095783714E+03  0.23458632852E+04  0.23301623126E+04 0.  0.
        2    1    3    3  502    0 -0.13790585247E+03  0.26214396991E+03  0.12698707352E+04  0.13039590367E+04  0.25500000920E-02 0. -1.
       -2    1    3    3    0  502  0.13790585247E+03 -0.26214396991E+03 -0.99891289808E+03  0.10419042485E+04  0.25500000920E-02 0.  1.
</event>
<event>
 5   0  0.1003191E-06  0.3462632E+04  0.7818609E-02  0.8122703E-01
        1   -1    0    0  501    0  0.00000000000E+00  0.00000000000E+00  0.14011720141E+04  0.14011720141E+04  0.50400001928E-02 0. -1.
       -1   -1    0    0    0  501  0.00000000000E+00  0.00000000000E+00 -0.21392479151E+04  0.21392479151E+04  0.50400001928E-02 0.  1.
    10030    2    1    2    0    0  0.00000000000E+00  0.00000000000E+00 -0.73807590104E+03  0.35404199292E+04  0.34626315483E+04 0.  0.
        5    1    3    3  502    0 -0.94003793807E+03 -0.50976358052E+03  0.10231307968E+04  0.14799827534E+04  0.46999998093E+01 0. -1.
       -5    1    3    3    0  502  0.94003793807E+03  0.50976358052E+03 -0.17612066978E+04  0.20604371758E+04  0.46999998093E+01 0.  1.
</event>
<event>
 5   0  0.1003191E-06  0.3327342E+04  0.7818609E-02  0.8155973E-01
        1   -1    0    0  501    0  0.00000000000E+00  0.00000000000E+00  0.12084264554E+04  0.12084264554E+04  0.50400001928E-02 0.  1.
       -1   -1    0    0    0  501  0.00000000000E+00  0.00000000000E+00 -0.22904176396E+04  0.22904176396E+04  0.50400001928E-02 0. -1.
    10030    2    1    2    0    0  0.00000000000E+00  0.00000000000E+00 -0.10819911842E+04  0.34988440950E+04  0.33273420441E+04 0.  0.
        5    1    3    3  502    0  0.54467587922E+03  0.35252714952E+03  0.10699027769E+04  0.12512638597E+04  0.46999998093E+01 0.  1.
       -5    1    3    3    0  502 -0.54467587922E+03 -0.35252714952E+03 -0.21518939610E+04  0.22475802353E+04  0.46999998093E+01 0. -1.
</event>
<event>
 5   0  0.2664083E-06  0.2944328E+04  0.7818609E-02  0.8259809E-01
       -2   -1    0    0    0  501  0.00000000000E+00  0.00000000000E+00  0.10910384853E+04  0.10910384853E+04  0.25500000920E-02 0.  1.
        2   -1    0    0  501    0  0.00000000000E+00  0.00000000000E+00 -0.19864263259E+04  0.19864263259E+04  0.25500000920E-02 0. -1.
    10030    2    1    2    0    0  0.00000000000E+00  0.00000000000E+00 -0.89538784064E+03  0.30774648112E+04  0.29443284938E+04 0.  0.
        2    1    3    3  502    0  0.12393095319E+03 -0.53303337141E+03 -0.18761607907E+04  0.19543445880E+04  0.25500000920E-02 0. -1.
       -2    1    3    3    0  502 -0.12393095319E+03  0.53303337141E+03  0.98077295006E+03  0.11231202232E+04  0.25500000920E-02 0.  1.
</event>
<event>
 5   0  0.2664083E-06  0.2510314E+04  0.7818609E-02  0.8399320E-01
        2   -1    0    0  501    0  0.00000000000E+00  0.00000000000E+00  0.25518599220E+04  0.25518599220E+04  0.25500000920E-02 0. -1.
       -2   -1    0    0    0  501  0.00000000000E+00  0.00000000000E+00 -0.61736091310E+03  0.61736091311E+03  0.25500000920E-02 0.  1.
    10030    2    1    2    0    0  0.00000000000E+00  0.00000000000E+00  0.19344990089E+04  0.31692208351E+04  0.25103135833E+04 0.  0.
        2    1    3    3  502    0 -0.30389103710E+03  0.12989989268E+03  0.24959428244E+04  0.25177280090E+04  0.25500000920E-02 0. -1.
       -2    1    3    3    0  502  0.30389103710E+03 -0.12989989268E+03 -0.56144381549E+03  0.65149282613E+03  0.25500000920E-02 0.  1.
</event>
<event>
 5   0  0.2848685E-06  0.3388318E+04  0.7818609E-02  0.8140779E-01
        2   -1    0    0  501    0  0.00000000000E+00  0.00000000000E+00  0.17139764996E+04  0.17139764996E+04  0.25500000920E-02 0. -1.
       -2   -1    0    0    0  501  0.00000000000E+00  0.00000000000E+00 -0.16745704876E+04  0.16745704876E+04  0.25500000920E-02 0.  1.
    10030    2    1    2    0    0  0.00000000000E+00  0.00000000000E+00  0.39406011996E+02  0.33885469872E+04  0.33883178497E+04 0.  0.
        3    1    3    3  502    0  0.25916763923E+02 -0.11045673413E+04 -0.12646866772E+04  0.16793370989E+04  0.10100000352E+00 0.  1.
       -3    1    3    3    0  502 -0.25916763923E+02  0.11045673413E+04  0.13040926892E+04  0.17092098883E+04  0.10100000352E+00 0. -1.
</event>
<event>
 5   0  0.2856440E-06  0.3399079E+04  0.7818609E-02  0.8138132E-01
       -2   -1    0    0    0  501  0.00000000000E+00  0.00000000000E+00  0.16964084916E+04  0.16964084916E+04  0.25500000920E-02 0.  1.
        2   -1    0    0  501    0  0.00000000000E+00  0.00000000000E+00 -0.17026761339E+04  0.17026761339E+04  0.25500000920E-02 0. -1.
    10030    2    1    2    0    0  0.00000000000E+00  0.00000000000E+00 -0.62676423010E+01  0.33990846254E+04  0.33990788469E+04 0.  0.
        4    1    3    3  502    0  0.92206153382E+03  0.54089734005E+03 -0.13243723196E+04  0.17019785717E+04  0.12699999809E+01 0. -1.
       -4    1    3    3    0  502 -0.92206153382E+03 -0.54089734005E+03  0.13181046773E+04  0.16971060538E+04  0.12699999809E+01 0.  1.
</event>
<event>
 5   0  0.1010855E-06  0.3545652E+04  0.7818609E-02  0.8103056E-01
        1   -1    0    0  501    0  0.00000000000E+00  0.00000000000E+00  0.28064896658E+04  0.28064896658E+04  0.50400001928E-02 0.  1.
       -1   -1    0    0    0  501  0.00000000000E+00  0.00000000000E+00 -0.11198727221E+04  0.11198727221E+04  0.50400001928E-02 0. -1.
    10030    2    1    2    0    0  0.00000000000E+00  0.00000000000E+00  0.16866169437E+04  0.39263623879E+04  0.35456515461E+04 0.  0.
        1    1    3    3  502    0  0.13409764872E+04 -0.10891144556E+03 -0.43513628213E+03  0.14140096273E+04  0.50400001928E-02 0. -1.
       -1    1    3    3    0  502 -0.13409764872E+04  0.10891144556E+03  0.21217532259E+04  0.25123527606E+04  0.50400001928E-02 0.  1.
</event>
<event>
 5   0  0.2856440E-06  0.3391370E+04  0.7818609E-02  0.8140028E-01
        2   -1    0    0  501    0  0.00000000000E+00  0.00000000000E+00  0.19307348042E+04  0.19307348042E+04  0.25500000920E-02 0. -1.
       -2   -1    0    0    0  501  0.00000000000E+00  0.00000000000E+00 -0.14892501430E+04  0.14892501430E+04  0.25500000920E-02 0.  1.
    10030    2    1    2    0    0  0.00000000000E+00  0.00000000000E+00  0.44148466121E+03  0.34199849472E+04  0.33913696839E+04 0.  0.
        4    1    3    3  502    0  0.88954029010E+02  0.81422021019E+03  0.17180186480E+04  0.19032753500E+04  0.12699999809E+01 0. -1.
       -4    1    3    3    0  502 -0.88954029010E+02 -0.81422021019E+03 -0.12765339868E+04  0.15167095972E+04  0.12699999809E+01 0.  1.
</event>
<event>
 5   0  0.9714317E-07  0.3433027E+04  0.7818609E-02  0.8129848E-01
       -1   -1    0    0    0  501  0.00000000000E+00  0.00000000000E+00  0.14754153407E+04  0.14754153408E+04  0.50400001928E-02 0. -1.
        1   -1    0    0  501    0  0.00000000000E+00  0.00000000000E+00 -0.19970098222E+04  0.19970098222E+04  0.50400001928E-02 0.  1.
    10030    2    1    2    0    0  0.00000000000E+00  0.00000000000E+00 -0.52159448149E+03  0.34724251630E+04  0.34330271932E+04 0.  0.
        4    1    3    3  502    0  0.41376552565E+03  0.42566062342E+03  0.13682850312E+04  0.14915074308E+04  0.12699999809E+01 0. -1.
       -4    1    3    3    0  502 -0.41376552565E+03 -0.42566062342E+03 -0.18898795127E+04  0.19809177322E+04  0.12699999809E+01 0.  1.
</event>
<event>
 5   0  0.2767014E-06  0.2445906E+04  0.7818609E-02  0.8422514E-01
        2   -1    0    0  501    0  0.00000000000E+00  0.00000000000E+00  0.17947551068E+04  0.17947551068E+04  0.25500000920E-02 0.  1.
       -2   -1    0    0    0  501  0.00000000000E+00  0.00000000000E+00 -0.83332483826E+03  0.83332483827E+03  0.25500000920E-02 0. -1.
    10030    2    1    2    0    0  0.00000000000E+00  0.00000000000E+00  0.96143026849E+03  0.26280799450E+04  0.24459059745E+04 0.  0.
        1    1    3    3  502    0  0.75589595405E+03  0.25136308755E+03  0.14777572015E+04  0.16787877893E+04  0.50400001928E-02 0.  1.
       -1    1    3    3    0  502 -0.75589595405E+03 -0.25136308755E+03 -0.51632693296E+03  0.94929215569E+03  0.50400001928E-02 0. -1.
</event>
<event>
 5   0  0.9232963E-07  0.3273223E+04  0.7818609E-02  0.8169742E-01
       -1   -1    0    0    0  501  0.00000000000E+00  0.00000000000E+00  0.16233889529E+04  0.16233889529E+04  0.50400001928E-02 0. -1.
        1   -1    0    0  501    0  0.00000000000E+00  0.00000000000E+00 -0.16499419089E+04  0.16499419090E+04  0.50400001928E-02 0.  1.
    10030    2    1    2    0    0  0.00000000000E+00  0.00000000000E+00 -0.26552956084E+02  0.32733308618E+04  0.32732231625E+04 0.  0.
        3    1    3    3  502    0  0.36737910432E+02 -0.69157242882E+03  0.14696328454E+04  0.16246362081E+04  0.10100000352E+00 0. -1.
       -3    1    3    3    0  502 -0.36737910432E+02  0.69157242882E+03 -0.14961858015E+04  0.16486946537E+04  0.10100000352E+00 0.  1.
</event>
<event>
 5   0  0.2848685E-06  0.3145101E+04  0.7818609E-02  0.8203468E-01
       -2   -1    0    0    0  501  0.00000000000E+00  0.00000000000E+00  0.93099728350E+03  0.93099728350E+03  0.25500000920E-02 0.  1.
        2   -1    0    0  501    0  0.00000000000E+00  0.00000000000E+00 -0.26562001158E+04  0.26562001158E+04  0.25500000920E-02 0. -1.
    10030    2    1    2    0    0  0.00000000000E+00  0.00000000000E+00 -0.17252028323E+04  0.35871973993E+04  0.31451010110E+04 0.  0.
        3    1    3    3  502    0 -0.85594010544E+03  0.10499225553E+04  0.48385291332E+02  0.13554748183E+04  0.10100000352E+00 0.  1.
       -3    1    3    3    0  502  0.85594010544E+03 -0.10499225553E+04 -0.17735881237E+04  0.22317225811E+04  0.10100000352E+00 0. -1.
</event>
<event>
 5   0  0.1003191E-06  0.2169290E+04  0.7818609E-02  0.8531320E-01
        1   -1    0    0  501    0  0.00000000000E+00  0.00000000000E+00  0.12683926132E+04  0.12683926132E+04  0.50400001928E-02 0.  1.
       -1   -1    0    0    0  501  0.00000000000E+00  0.00000000000E+00 -0.92751631440E+03  0.92751631441E+03  0.50400001928E-02 0. -1.
    10030    2    1    2    0    0  0.00000000000E+00  0.00000000000E+00  0.34087629877E+03  0.21959089276E+04  0.21692900606E+04 0.  0.
        5    1    3    3  502    0  0.70802886509E+03  0.44101892834E+03  0.87222013864E+03  0.12068937937E+04  0.46999998093E+01 0.  1.
       -5    1    3    3    0  502 -0.70802886509E+03 -0.44101892834E+03 -0.53134383987E+03  0.98901513392E+03  0.46999998093E+01 0. -1.
</event>
<event>
 5   0  0.2767014E-06  0.3202025E+04  0.7818609E-02  0.8188283E-01
        2   -1    0    0  501    0  0.00000000000E+00  0.00000000000E+00  0.18395896529E+04  0.18395896529E+04  0.25500000920E-02 0. -1.
       -2   -1    0    0    0  501  0.00000000000E+00  0.00000000000E+00 -0.13933761730E+04  0.13933761730E+04  0.25500000920E-02 0.  1.
    10030    2    1    2    0    0  0.00000000000E+00  0.00000000000E+00  0.44621347986E+03  0.32329658259E+04  0.32020246036E+04 0.  0.
        1    1    3    3  502    0  0.15662016969E+04  0.58411954411E+02  0.55313016570E+03  0.16620326989E+04  0.50400001928E-02 0. -1.
       -1    1    3    3    0  502 -0.15662016969E+04 -0.58411954411E+02 -0.10691668585E+03  0.15709331271E+04  0.50400001928E-02 0.  1.
</event>
<event>
 5   0  0.2848685E-06  0.3166633E+04  0.7818609E-02  0.8197685E-01
       -2   -1    0    0    0  501  0.00000000000E+00  0.00000000000E+00  0.11371884518E+04  0.11371884518E+04  0.25500000920E-02 0. -1.
        2   -1    0    0  501    0  0.00000000000E+00  0.00000000000E+00 -0.22044643376E+04  0.22044643376E+04  0.25500000920E-02 0.  1.
    10030    2    1    2    0    0  0.00000000000E+00  0.00000000000E+00 -0.10672758858E+04  0.33416527894E+04  0.31666331567E+04 0.  0.
        3    1    3    3  502    0 -0.47997095826E+03  0.74039471517E+03 -0.19209607336E+04  0.21139173600E+04  0.10100000352E+00 0.  1.
       -3    1    3    3    0  502  0.47997095826E+03 -0.74039471517E+03  0.85368484779E+03  0.12277354294E+04  0.10100000352E+00 0. -1.
</event>
<event>
 5   0  0.9070500E-07  0.2170533E+04  0.7818609E-02  0.8530794E-01
       -3   -1    0    0    0  501  0.00000000000E+00  0.00000000000E+00  0.12739943810E+04  0.12739943850E+04  0.10100000352E+00 0. -1.
        3   -1    0    0  501    0  0.00000000000E+00  0.00000000000E+00 -0.92449684352E+03  0.92449684904E+03  0.10100000352E+00 0.  1.
    10030    2    1    2    0    0  0.00000000000E+00  0.00000000000E+00  0.34949753747E+03  0.21984912340E+04  0.21705333855E+04 0.  0.
        5    1    3    3  502    0  0.26645457270E+02 -0.39710679956E+03  0.11973960732E+04  0.12618174340E+04  0.46999998093E+01 0. -1.
       -5    1    3    3    0  502 -0.26645457270E+02  0.39710679956E+03 -0.84789853576E+03  0.93667379999E+03  0.46999998093E+01 0.  1.
</event>
<event>
 5   0  0.9714317E-07  0.2995578E+04  0.7818609E-02  0.8244995E-01
        1   -1    0    0  501    0  0.00000000000E+00  0.00000000000E+00  0.12110011483E+04  0.12110011483E+04  0.50400001928E-02 0.  1.
       -1   -1    0    0    0  501  0.00000000000E+00  0.00000000000E+00 -0.18524936045E+04  0.18524936045E+04  0.50400001928E-02 0. -1.
    10030    2    1    2    0    0  0.00000000000E+00  0.00000000000E+00 -0.64149245615E+03  0.30634947528E+04  0.29955779958E+04 0.  0.
        4    1    3    3  502    0  0.50800884700E+02 -0.14888541691E+04 -0.16197555692E+03  0.14985009712E+04  0.12699999809E+01 0.  1.
       -4    1    3    3    0  502 -0.50800884700E+02  0.14888541691E+04 -0.47951689923E+03  0.15649937816E+04  0.12699999809E+01 0. -1.
</event>
<event>
 5   0  0.1010551E-06  0.3396903E+04  0.7818609E-02  0.8138667E-01
       -1   -1    0    0    0  501  0.00000000000E+00  0.00000000000E+00  0.10785871597E+04  0.10785871597E+04  0.50400001928E-02 0.  1.
        1   -1    0    0  501    0  0.00000000000E+00  0.00000000000E+00 -0.26745524368E+04  0.26745524368E+04  0.50400001928E-02 0. -1.
    10030    2    1    2    0    0  0.00000000000E+00  0.00000000000E+00 -0.15959652771E+04  0.37531395965E+04  0.33969032464E+04 0.  0.
        2    1    3    3  502    0  0.13607491576E+03 -0.98735382703E+03  0.72150771349E+03  0.12304297392E+04  0.25500000920E-02 0.  1.
       -2    1    3    3    0  502 -0.13607491576E+03  0.98735382703E+03 -0.23174729906E+04  0.25227098574E+04  0.25500000920E-02 0. -1.
</event>
<event>
 5   0  0.2856440E-06  0.3114266E+04  0.7818609E-02  0.8211834E-01
       -2   -1    0    0    0  501  0.00000000000E+00  0.00000000000E+00  0.10123857100E+04  0.10123857100E+04  0.25500000920E-02 0. -1.
        2   -1    0    0  501    0  0.00000000000E+00  0.00000000000E+00 -0.23949987489E+04  0.23949987489E+04  0.25500000920E-02 0.  1.
    10030    2    1    2    0    0  0.00000000000E+00  0.00000000000E+00 -0.13826130389E+04  0.34073844590E+04  0.31142655693E+04 0.  0.
        4    1    3    3  502    0  0.17362889329E+03  0.15428340074E+04 -0.82158108737E+03  0.17565536892E+04  0.12699999809E+01 0.  1.
       -4    1    3    3    0  502 -0.17362889329E+03 -0.15428340074E+04 -0.56103195149E+03  0.16508307698E+04  0.12699999809E+01 0. -1.
</event>
<event>
 5   0  0.2767014E-06  0.3337993E+04  0.7818609E-02  0.8153295E-01
        2   -1    0    0  501    0  0.00000000000E+00  0.00000000000E+00  0.21356283982E+04  0.21356283982E+04  0.25500000920E-02 0.  1.
       -2   -1    0    0    0  501  0.00000000000E+00  0.00000000000E+00 -0.13043226664E+04  0.13043226664E+04  0.25500000920E-02 0. -1.
    10030    2    1    2    0    0  0.00000000000E+00  0.00000000000E+00  0.83130573184E+03  0.34399510646E+04  0.33379925265E+04 0.  0.
        1    1    3    3  502    0  0.12023945031E+04 -0.74652834894E+03  0.13272578559E+04  0.19402758909E+04  0.50400001928E-02 0.  1.
       -1    1    3    3    0  502 -0.12023945031E+04  0.74652834894E+03 -0.49595212406E+03  0.14996751736E+04  0.50400001928E-02 0. -1.
</event>
<event>
 5   0  0.1010855E-06  0.3472566E+04  0.7818609E-02  0.8120322E-01
       -1   -1    0    0    0  501  0.00000000000E+00  0.00000000000E+00  0.15770191053E+04  0.15770191053E+04  0.50400001928E-02 0. -1.
        1   -1    0    0  501    0  0.00000000000E+00  0.00000000000E+00 -0.19116307623E+04  0.19116307623E+04  0.50400001928E-02 0.  1.
    10030    2    1    2    0    0  0.00000000000E+00  0.00000000000E+00 -0.33461165698E+03  0.34886498677E+04  0.34725657572E+04 0.  0.
        1    1    3    3  502    0 -0.16117748803E+04  0.62409859438E+03 -0.33348332356E+03  0.17602637437E+04  0.50400001928E-02 0. -1.
       -1    1    3    3    0  502  0.16117748803E+04 -0.62409859438E+03 -0.11283334155E+01  0.17283861240E+04  0.50400001928E-02 0.  1.
</event>
<event>
 5   0  0.2906701E-06  0.2547261E+04  0.7818609E-02  0.8386339E-01
        2   -1    0    0  501    0  0.00000000000E+00  0.00000000000E+00  0.10733643920E+04  0.10733643920E+04  0.25500000920E-02 0.  1.
       -2   -1    0    0    0  501  0.00000000000E+00  0.00000000000E+00 -0.15112616254E+04  0.15112616254E+04  0.25500000920E-02 0. -1.
    10030    2    1    2    0    0  0.00000000000E+00  0.00000000000E+00 -0.43789723342E+03  0.25846260174E+04  0.25472608156E+04 0.  0.
        5    1    3    3  502    0 -0.10835079319E+04  0.31430963317E+02  0.45954164861E+03  0.11773605908E+04  0.46999998093E+01 0.  1.
       -5    1    3    3    0  502  0.10835079319E+04 -0.31430963317E+02 -0.89743888203E+03  0.14072654266E+04  0.46999998093E+01 0. -1.
</event>
<event>
 5   0  0.9714317E-07  0.3316800E+04  0.7818609E-02  0.8158634E-01
        1   -1    0    0  501    0  0.00000000000E+00  0.00000000000E+00  0.14800125468E+04  0.14800125469E+04  0.50400001928E-02 0.  1.
       -1   -1    0    0    0  501  0.00000000000E+00  0.00000000000E+00 -0.18582884325E+04  0.18582884325E+04  0.50400001928E-02 0. -1.
    10030    2    1    2    0    0  0.00000000000E+00  0.00000000000E+00 -0.37827588562E+03  0.33383009793E+04  0.33167997804E+04 0.  0.
        4    1    3    3  502    0  0.11736043413E+04  0.99809095753E+03  0.42864547871E+03  0.15991470441E+04  0.12699999809E+01 0.  1.
       -4    1    3    3    0  502 -0.11736043413E+04 -0.99809095753E+03 -0.80692136433E+03  0.17391539352E+04  0.12699999809E+01 0. -1.
</event>
<event>
 5   0  0.1003191E-06  0.3226504E+04  0.7818609E-02  0.8181852E-01
       -1   -1    0    0    0  501  0.00000000000E+00  0.00000000000E+00  0.14661202036E+04  0.14661202036E+04  0.50400001928E-02 0. -1.
        1   -1    0    0  501    0  0.00000000000E+00  0.00000000000E+00 -0.17751494780E+04  0.17751494781E+04  0.50400001928E-02 0.  1.
    10030    2    1    2    0    0  0.00000000000E+00  0.00000000000E+00 -0.30902927448E+03  0.32412696816E+04  0.32265043091E+04 0.  0.
        5    1    3    3  502    0  0.17879945691E+03  0.12498341433E+04 -0.11633542249E+04  0.17168196685E+04  0.46999998093E+01 0.  1.
       -5    1    3    3    0  502 -0.17879945691E+03 -0.12498341433E+04  0.85432495045E+03  0.15244500131E+04  0.46999998093E+01 0. -1.
</event>
<event>
 5   0  0.1010551E-06  0.3431000E+04  0.7818609E-02  0.8130339E-01
        1   -1    0    0  501    0  0.00000000000E+00  0.00000000000E+00  0.25344435744E+04  0.25344435744E+04  0.50400001928E-02 0.  1.
       -1   -1    0    0    0  501  0.00000000000E+00  0.00000000000E+00 -0.11611782219E+04  0.11611782219E+04  0.50400001928E-02 0. -1.
    10030    2    1    2    0    0  0.00000000000E+00  0.00000000000E+00  0.13732653525E+04  0.36956217962E+04  0.34310002525E+04 0.  0.
        2    1    3    3  502    0 -0.96565111498E+03  0.59352344792E+03 -0.70039051440E+03  0.13324034793E+04  0.25500000920E-02 0. -1.
       -2    1    3    3    0  502  0.96565111498E+03 -0.59352344792E+03  0.20736558669E+04  0.23632183169E+04  0.25500000920E-02 0.  1.
</event>
<event>
 5   0  0.2856440E-06  0.3370192E+04  0.7818609E-02  0.8145261E-01
        2   -1    0    0  501    0  0.00000000000E+00  0.00000000000E+00  0.89345895372E+03  0.89345895372E+03  0.25500000920E-02 0.  1.
       -2   -1    0    0    0  501  0.00000000000E+00  0.00000000000E+00 -0.31781529502E+04  0.31781529502E+04  0.25500000920E-02 0. -1.
    10030    2    1    2    0    0  0.00000000000E+00  0.00000000000E+00 -0.22846939965E+04  0.40716119039E+04  0.33701924038E+04 0.  0.
        4    1    3    3  502    0 -0.68612427175E+03  0.79479780770E+02 -0.29992716587E+04  0.30777777125E+04  0.12699999809E+01 0. -1.
       -4    1    3    3    0  502  0.68612427175E+03 -0.79479780770E+02  0.71457766222E+03  0.99383419144E+03  0.12699999809E+01 0.  1.
</event>
<event>
 5   0  0.1010855E-06  0.3411418E+04  0.7818609E-02  0.8135110E-01
       -1   -1    0    0    0  501  0.00000000000E+00  0.00000000000E+00  0.12400695183E+04  0.12400695183E+04  0.50400001928E-02 0.  1.
        1   -1    0    0  501    0  0.00000000000E+00  0.00000000000E+00 -0.23461937606E+04  0.23461937606E+04  0.50400001928E-02 0. -1.
    10030    2    1    2    0    0  0.00000000000E+00  0.00000000000E+00 -0.11061242424E+04  0.35862632789E+04  0.34114181019E+04 0.  0.
        1    1    3    3  502    0 -0.17065025780E+03 -0.16717754739E+04 -0.24569219363E+03  0.16983284134E+04  0.50400001928E-02 0.  1.
       -1    1    3    3    0  502  0.17065025780E+03  0.16717754739E+04 -0.86043204874E+03  0.18879348655E+04  0.50400001928E-02 0. -1.
</event>
<event>
 5   0  0.9232963E-07  0.2260685E+04  0.7818609E-02  0.8493586E-01
       -1   -1    0    0    0  501  0.00000000000E+00  0.00000000000E+00  0.73301844469E+03  0.73301844471E+03  0.50400001928E-02 0. -1.
        1   -1    0    0  501    0  0.00000000000E+00  0.00000000000E+00 -0.17430320801E+04  0.17430320801E+04  0.50400001928E-02 0.  1.
    10030    2    1    2    0    0  0.00000000000E+00  0.00000000000E+00 -0.10100136354E+04  0.24760505248E+04  0.22606854398E+04 0.  0.
        3    1    3    3  502    0  0.59339730434E+03  0.69264395886E+03 -0.12362953022E+04  0.15363274712E+04  0.10100000352E+00 0.  1.
       -3    1    3    3    0  502 -0.59339730434E+03 -0.69264395886E+03  0.22628166674E+03  0.93972305359E+03  0.10100000352E+00 0. -1.
</event>
<event>
 5   0  0.2664083E-06  0.3409824E+04  0.7818609E-02  0.8135499E-01
        2   -1    0    0  501    0  0.00000000000E+00  0.00000000000E+00  0.20202284155E+04  0.20202284155E+04  0.25500000920E-02 0. -1.
       -2   -1    0    0    0  501  0.00000000000E+00  0.00000000000E+00 -0.14388100269E+04  0.14388100269E+04  0.25500000920E-02 0.  1.
    10030    2    1    2    0    0  0.00000000000E+00  0.00000000000E+00  0.58141838861E+03  0.34590384425E+04  0.34098239843E+04 0.  0.
        2    1    3    3  502    0 -0.39556333954E+03 -0.35756561523E+03 -0.13520466067E+04  0.14533938047E+04  0.25500000920E-02 0.  1.
       -2    1    3    3    0  502  0.39556333954E+03  0.35756561523E+03  0.19334649953E+04  0.20056446378E+04  0.25500000920E-02 0. -1.
</event>
<event>
 5   0  0.2856440E-06  0.3536069E+04  0.7818609E-02  0.8105295E-01
        2   -1    0    0  501    0  0.00000000000E+00  0.00000000000E+00  0.19538733047E+04  0.19538733047E+04  0.25500000920E-02 0.  1.
       -2   -1    0    0    0  501  0.00000000000E+00  0.00000000000E+00 -0.15998711740E+04  0.15998711740E+04  0.25500000920E-02 0. -1.
    10030    2    1    2    0    0  0.00000000000E+00  0.00000000000E+00  0.35400213070E+03  0.35537444788E+04  0.35360687652E+04 0.  0.
        4    1    3    3  502    0  0.80120062602E+02  0.51154679144E+03 -0.15219653827E+04  0.16076316690E+04  0.12699999809E+01 0. -1.
       -4    1    3    3    0  502 -0.80120062602E+02 -0.51154679144E+03  0.18759675134E+04  0.19461128098E+04  0.12699999809E+01 0.  1.
</event>
<event>
 5   0  0.1003191E-06  0.3437825E+04  0.7818609E-02  0.8128685E-01
       -1   -1    0    0    0  501  0.00000000000E+00  0.00000000000E+00  0.12852920948E+04  0.12852920948E+04  0.50400001928E-02 0. -1.
        1   -1    0    0  501    0  0.00000000000E+00  0.00000000000E+00 -0.22988238789E+04  0.22988238789E+04  0.50400001928E-02 0.  1.
    10030    2    1    2    0    0  0.00000000000E+00  0.00000000000E+00 -0.10135317841E+04  0.35841159737E+04  0.34378249862E+04 0.  0.
        5    1    3    3  502    0 -0.12582087066E+04  0.91859089872E+03  0.25060422425E+03  0.15778855966E+04  0.46999998093E+01 0. -1.
       -5    1    3    3    0  502  0.12582087066E+04 -0.91859089872E+03 -0.12641360084E+04  0.20062303772E+04  0.46999998093E+01 0.  1.
</event>
<event>
 5   0  0.2856440E-06  0.3366925E+04  0.7818609E-02  0.8146072E-01
        2   -1    0    0  501    0  0.00000000000E+00  0.00000000000E+00  0.17283792283E+04  0.17283792283E+04  0.25500000920E-02 0. -1.
       -2   -1    0    0    0  501  0.00000000000E+00  0.00000000000E+00 -0.16397128424E+04  0.16397128424E+04  0.25500000920E-02 0.  1.
    10030    2    1    2    0    0  0.00000000000E+00  0.00000000000E+00  0.88666385960E+02  0.33680920707E+04  0.33669247792E+04 0.  0.
        4    1    3    3  502    0 -0.16543515972E+03 -0.16695692470E+04 -0.94328505297E+02  0.16803957101E+04  0.12699999809E+01 0.  1.
       -4    1    3    3    0  502  0.16543515972E+03  0.16695692470E+04  0.18299489126E+03  0.16876963607E+04  0.12699999809E+01 0. -1.
</event>
<event>
 5   0  0.1010551E-06  0.3414142E+04  0.7818609E-02  0.8134444E-01
        1   -1    0    0  501    0  0.00000000000E+00  0.00000000000E+00  0.31408039228E+04  0.31408039228E+04  0.50400001928E-02 0. -1.
       -1   -1    0    0    0  501  0.00000000000E+00  0.00000000000E+00 -0.92781688099E+03  0.92781688101E+03  0.50400001928E-02 0.  1.
    10030    2    1    2    0    0  0.00000000000E+00  0.00000000000E+00  0.22129870419E+04  0.40686208039E+04  0.34141417074E+04 0.  0.
        2    1    3    3  502    0  0.11239709074E+04  0.99754493140E+03  0.20714619414E+04  0.25591719492E+04  0.25500000920E-02 0.  1.
       -2    1    3    3    0  502 -0.11239709074E+04 -0.99754493140E+03  0.14152510049E+03  0.15094488547E+04  0.25500000920E-02 0. -1.
</event>
<event>
 5   0  0.2906701E-06  0.2944121E+04  0.7818609E-02  0.8259870E-01
       -2   -1    0    0    0  501  0.00000000000E+00  0.00000000000E+00  0.11411966904E+04  0.11411966904E+04  0.25500000920E-02 0.  1.
        2   -1    0    0  501    0  0.00000000000E+00  0.00000000000E+00 -0.18988500746E+04  0.18988500746E+04  0.25500000920E-02 0. -1.
    10030    2    1    2    0    0  0.00000000000E+00  0.00000000000E+00 -0.75765338425E+03  0.30400467650E+04  0.29441205279E+04 0.  0.
        5    1    3    3  502    0  0.90307409092E+03  0.53140555494E+03 -0.14464412246E+04  0.17860988169E+04  0.46999998093E+01 0. -1.
       -5    1    3    3    0  502 -0.90307409092E+03 -0.53140555494E+03  0.68878784033E+03  0.12539479481E+04  0.46999998093E+01 0.  1.
</event>
<event>
 5   0  0.9714317E-07  0.3356282E+04  0.7818609E-02  0.8148720E-01
        1   -1    0    0  501    0  0.00000000000E+00  0.00000000000E+00  0.18844933499E+04  0.18844933499E+04  0.50400001928E-02 0.  1.
       -1   -1    0    0    0  501  0.00000000000E+00  0.00000000000E+00 -0.14943839541E+04  0.14943839541E+04  0.50400001928E-02 0. -1.
    10030    2    1    2    0    0  0.00000000000E+00  0.00000000000E+00  0.39010939583E+03  0.33788773040E+04  0.33562816471E+04 0.  0.
        4    1    3    3  502    0  0.21672828021E+03 -0.61065648728E+03  0.17534693876E+04  0.18693659351E+04  0.12699999809E+01 0.  1.
       -4    1    3    3    0  502 -0.21672828021E+03  0.61065648728E+03 -0.13633599918E+04  0.15095113690E+04  0.12699999809E+01 0. -1.
</event>
<event>
 5   0  0.2848685E-06  0.3448393E+04  0.7818609E-02  0.8126130E-01
        2   -1    0    0  501    0  0.00000000000E+00  0.00000000000E+00  0.20771931877E+04  0.20771931877E+04  0.25500000920E-02 0.  1.
       -2   -1    0    0    0  501  0.00000000000E+00  0.00000000000E+00 -0.14311875958E+04  0.14311875958E+04  0.25500000920E-02 0. -1.
    10030    2    1    2    0    0  0.00000000000E+00  0.00000000000E+00  0.64600559194E+03  0.35083807835E+04  0.34483927412E+04 0.  0.
        3    1    3    3  502    0  0.53486833970E+03 -0.12546766049E+04  0.13961291526E+04  0.19517874230E+04  0.10100000352E+00 0.  1.
       -3    1    3    3    0  502 -0.53486833970E+03  0.12546766049E+04 -0.75012356066E+03  0.15565933605E+04  0.10100000352E+00 0. -1.
</event>
<event>
 5   0  0.1010551E-06  0.3369161E+04  0.7818609E-02  0.8145517E-01
        1   -1    0    0  501    0  0.00000000000E+00  0.00000000000E+00  0.19083200498E+04  0.19083200498E+04  0.50400001928E-02 0. -1.
       -1   -1    0    0    0  501  0.00000000000E+00  0.00000000000E+00 -0.14870729873E+04  0.14870729873E+04  0.50400001928E-02 0.  1.
    10030    2    1    2    0    0  0.00000000000E+00  0.00000000000E+00  0.42124706257E+03  0.33953930371E+04  0.33691608434E+04 0.  0.
        2    1    3    3  502    0 -0.15973991404E+04  0.51032871837E+03  0.49088980389E+02  0.16776558475E+04  0.25500000920E-02 0.  1.
       -2    1    3    3    0  502  0.15973991404E+04 -0.51032871837E+03  0.37215808218E+03  0.17177371896E+04  0.25500000920E-02 0. -1.
</event>
<event>
 5   0  0.2664083E-06  0.3374187E+04  0.7818609E-02  0.8144271E-01
       -2   -1    0    0    0  501  0.00000000000E+00  0.00000000000E+00  0.11146259834E+04  0.11146259834E+04  0.25500000920E-02 0. -1.
        2   -1    0    0  501    0  0.00000000000E+00  0.00000000000E+00 -0.25535779598E+04  0.25535779598E+04  0.25500000920E-02 0.  1.
    10030    2    1    2    0    0  0.00000000000E+00  0.00000000000E+00 -0.14389519764E+04  0.36682039432E+04  0.33741869211E+04 0.  0.
        2    1    3    3  502    0  0.59468962585E+03  0.38465023351E+03  0.94518368033E+03  0.11810942989E+04  0.25500000920E-02 0. -1.
       -2    1    3    3    0  502 -0.59468962585E+03 -0.38465023351E+03 -0.23841356567E+04  0.24871096443E+04  0.25500000920E-02 0.  1.
</event>
<event>
 5   0  0.2856440E-06  0.3478054E+04  0.7818609E-02  0.8119011E-01
        2   -1    0    0  501    0  0.00000000000E+00  0.00000000000E+00  0.29789127312E+04  0.29789127312E+04  0.25500000920E-02 0. -1.
       -2   -1    0    0    0  501  0.00000000000E+00  0.00000000000E+00 -0.10152073732E+04  0.10152073732E+04  0.25500000920E-02 0.  1.
    10030    2    1    2    0    0  0.00000000000E+00  0.00000000000E+00  0.19637053580E+04  0.39941201045E+04  0.34780535757E+04 0.  0.
        4    1    3    3  502    0  0.56840583750E+03 -0.11289163845E+04  0.23535156096E+04  0.26714368300E+04  0.12699999809E+01 0. -1.
       -4    1    3    3    0  502 -0.56840583750E+03  0.11289163845E+04 -0.38981025158E+03  0.13226832744E+04  0.12699999809E+01 0.  1.
</event>
<event>
 5   0  0.2906701E-06  0.2641945E+04  0.7818609E-02  0.8354092E-01
        2   -1    0    0  501    0  0.00000000000E+00  0.00000000000E+00  0.16162227551E+04  0.16162227551E+04  0.25500000920E-02 0.  1.
       -2   -1    0    0    0  501  0.00000000000E+00  0.00000000000E+00 -0.10796580467E+04  0.10796580467E+04  0.25500000920E-02 0. -1.
    10030    2    1    2    0    0  0.00000000000E+00  0.00000000000E+00  0.53656470846E+03  0.26958808018E+04  0.26419446647E+04 0.  0.
        5    1    3    3  502    0 -0.57892649182E+03 -0.89899487510E+03  0.10597446180E+04  0.15054661782E+04  0.46999998093E+01 0. -1.
       -5    1    3    3    0  502  0.57892649182E+03  0.89899487510E+03 -0.52317990953E+03  0.11904146236E+04  0.46999998093E+01 0.  1.
</event>
<event>
 5   0  0.1010855E-06  0.3349336E+04  0.7818609E-02  0.8150454E-01
       -1   -1    0    0    0  501  0.00000000000E+00  0.00000000000E+00  0.20213078522E+04  0.20213078522E+04  0.50400001928E-02 0.  1.
        1   -1    0    0  501    0  0.00000000000E+00  0.00000000000E+00 -0.13874742145E+04  0.13874742145E+04  0.50400001928E-02 0. -1.
    10030    2    1    2    0    0  0.00000000000E+00  0.00000000000E+00  0.63383363766E+03  0.34087820667E+04  0.33493357697E+04 0.  0.
        1    1    3    3  502    0 -0.11176380500E+04 -0.68394005476E+03  0.13783187737E+04  0.19017495763E+04  0.50400001928E-02 0.  1.
       -1    1    3    3    0  502  0.11176380500E+04  0.68394005476E+03 -0.74448513601E+03  0.15070324904E+04  0.50400001928E-02 0. -1.
</event>
<event>
 5   0  0.1010551E-06  0.3834126E+04  0.7818609E-02  0.8038871E-01
        1   -1    0    0  501    0  0.00000000000E+00  0.00000000000E+00  0.30283032160E+04  0.30283032160E+04  0.50400001928E-02 0. -1.
       -1   -1    0    0    0  501  0.00000000000E+00  0.00000000000E+00 -0.12135942334E+04  0.12135942334E+04  0.50400001928E-02 0.  1.
    10030    2    1    2    0    0  0.00000000000E+00  0.00000000000E+00  0.18147089826E+04  0.42418974493E+04  0.38341264036E+04 0.  0.
        2    1    3    3  502    0  0.10863944911E+03 -0.19137100001E+04  0.87162724765E+03  0.21056643971E+04  0.25500000920E-02 0. -1.
       -2    1    3    3    0  502 -0.10863944911E+03  0.19137100001E+04  0.94308173495E+03  0.21362330522E+04  0.25500000920E-02 0.  1.
</event>
<event>
 5   0  0.2906701E-06  0.3413334E+04  0.7818609E-02  0.8134641E-01
        2   -1    0    0  501    0  0.00000000000E+00  0.00000000000E+00  0.13373313101E+04  0.13373313101E+04  0.25500000920E-02 0. -1.
       -2   -1    0    0    0  501  0.00000000000E+00  0.00000000000E+00 -0.21780040601E+04  0.21780040601E+04  0.25500000920E-02 0.  1.
    10030    2    1    2    0    0  0.00000000000E+00  0.00000000000E+00 -0.84067274999E+03  0.35153353703E+04  0.34133344537E+04 0.  0.
        5    1    3    3  502    0 -0.14901991922E+03  0.16387931478E+04  0.45782167553E+02  0.16461980483E+04  0.46999998093E+01 0. -1.
       -5    1    3    3    0  502  0.14901991922E+03 -0.16387931478E+04 -0.88645491754E+03  0.18691373219E+04  0.46999998093E+01 0.  1.
</event>
<event>
 5   0  0.9232963E-07  0.3400865E+04  0.7818609E-02  0.8137694E-01
        1   -1    0    0  501    0  0.00000000000E+00  0.00000000000E+00  0.14136158489E+04  0.14136158489E+04  0.50400001928E-02 0.  1.
       -1   -1    0    0    0  501  0.00000000000E+00  0.00000000000E+00 -0.20454429077E+04  0.20454429077E+04  0.50400001928E-02 0. -1.
    10030    2    1    2    0    0  0.00000000000E+00  0.00000000000E+00 -0.63182705884E+03  0.34590587566E+04  0.34008648973E+04 0.  0.
        3    1    3    3  502    0 -0.93305838508E+03 -0.86430303500E+03  0.83205024988E+03  0.15198438455E+04  0.10100000352E+00 0.  1.
       -3    1    3    3    0  502  0.93305838508E+03  0.86430303500E+03 -0.14638773087E+04  0.19392149111E+04  0.10100000352E+00 0. -1.
</event>
<event>
 5   0  0.2767014E-06  0.3402375E+04  0.7818609E-02  0.8137324E-01
       -2   -1    0    0    0  501  0.00000000000E+00  0.00000000000E+00  0.15134625171E+04  0.15134625171E+04  0.25500000920E-02 0.  1.
        2   -1    0    0  501    0  0.00000000000E+00  0.00000000000E+00 -0.19121967286E+04  0.19121967286E+04  0.25500000920E-02 0. -1.
    10030    2    1    2    0    0  0.00000000000E+00  0.00000000000E+00 -0.39873421151E+03  0.34256592457E+04  0.34023745085E+04 0.  0.
        1    1    3    3  502    0 -0.12212059468E+04  0.80300678415E+03  0.67715043303E+03  0.16108061860E+04  0.50400001928E-02 0.  1.
       -1    1    3    3    0  502  0.12212059468E+04 -0.80300678415E+03 -0.10758846445E+04  0.18148530597E+04  0.50400001928E-02 0. -1.
</event>
<event>
 5   0  0.1010855E-06  0.3412705E+04  0.7818609E-02  0.8134795E-01
        1   -1    0    0  501    0  0.00000000000E+00  0.00000000000E+00  0.23813701873E+04  0.23813701873E+04  0.50400001928E-02 0.  1.
       -1   -1    0    0    0  501  0.00000000000E+00  0.00000000000E+00 -0.12226734362E+04  0.12226734362E+04  0.50400001928E-02 0. -1.
    10030    2    1    2    0    0  0.00000000000E+00  0.00000000000E+00  0.11586967511E+04  0.36040436235E+04  0.34127045403E+04 0.  0.
        1    1    3    3  502    0  0.16340557272E+04  0.77504354078E+02  0.10918324491E+04  0.19667849759E+04  0.50400001928E-02 0.  1.
       -1    1    3    3    0  502 -0.16340557272E+04 -0.77504354078E+02  0.66864302009E+02  0.16372586476E+04  0.50400001928E-02 0. -1.
</event>
<event>
 5   0  0.2767014E-06  0.3451034E+04  0.7818609E-02  0.8125493E-01
        2   -1    0    0  501    0  0.00000000000E+00  0.00000000000E+00  0.20871113362E+04  0.20871113362E+04  0.25500000920E-02 0.  1.
       -2   -1    0    0    0  501  0.00000000000E+00  0.00000000000E+00 -0.14265691118E+04  0.14265691118E+04  0.25500000920E-02 0. -1.
    10030    2    1    2    0    0  0.00000000000E+00  0.00000000000E+00  0.66054222436E+03  0.35136804480E+04  0.34510337959E+04 0.  0.
        1    1    3    3  502    0 -0.17099464385E+04  0.22024589809E+03  0.40214641893E+03  0.17703521741E+04  0.50400001928E-02 0.  1.
       -1    1    3    3    0  502  0.17099464385E+04 -0.22024589809E+03  0.25839580543E+03  0.17433282739E+04  0.50400001928E-02 0. -1.
</event>
<event>
 5   0  0.2767014E-06  0.3403087E+04  0.7818609E-02  0.8137149E-01
       -2   -1    0    0    0  501  0.00000000000E+00  0.00000000000E+00  0.14923758352E+04  0.14923758352E+04  0.25500000920E-02 0.  1.
        2   -1    0    0  501    0  0.00000000000E+00  0.00000000000E+00 -0.19400276510E+04  0.19400276510E+04  0.25500000920E-02 0. -1.
    10030    2    1    2    0    0  0.00000000000E+00  0.00000000000E+00 -0.44765181582E+03  0.34324034862E+04  0.34030870608E+04 0.  0.
        1    1    3    3  502    0  0.15358271223E+04 -0.24550322880E+03 -0.91985304436E+03  0.18069771466E+04  0.50400001928E-02 0. -1.
       -1    1    3    3    0  502 -0.15358271223E+04  0.24550322880E+03  0.47220122854E+03  0.16254263396E+04  0.50400001928E-02 0.  1.
</event>
<event>
 5   0  0.2906701E-06  0.3348459E+04  0.7818609E-02  0.8150673E-01
        2   -1    0    0  501    0  0.00000000000E+00  0.00000000000E+00  0.15568381071E+04  0.15568381071E+04  0.25500000920E-02 0.  1.
       -2   -1    0    0    0  501  0.00000000000E+00  0.00000000000E+00 -0.18004726979E+04  0.18004726979E+04  0.25500000920E-02 0. -1.
    10030    2    1    2    0    0  0.00000000000E+00  0.00000000000E+00 -0.24363459082E+03  0.33573108049E+04  0.33484590526E+04 0.  0.
        5    1    3    3  502    0  0.29988090296E+03  0.11433336352E+03  0.15257007739E+04  0.15590976927E+04  0.46999998093E+01 0.  1.
       -5    1    3    3    0  502 -0.29988090296E+03 -0.11433336352E+03 -0.17693353647E+04  0.17982131122E+04  0.46999998093E+01 0. -1.
</event>
<event>
 5   0  0.2848685E-06  0.3495169E+04  0.7818609E-02  0.8114936E-01
       -2   -1    0    0    0  501  0.00000000000E+00  0.00000000000E+00  0.22426682259E+04  0.22426682259E+04  0.25500000920E-02 0. -1.
        2   -1    0    0  501    0  0.00000000000E+00  0.00000000000E+00 -0.13617934993E+04  0.13617934993E+04  0.25500000920E-02 0.  1.
    10030    2    1    2    0    0  0.00000000000E+00  0.00000000000E+00  0.88087472662E+03  0.36044617252E+04  0.34951686719E+04 0.  0.
        3    1    3    3  502    0 -0.13474460510E+04  0.10936165922E+04  0.22797854931E+03  0.17503092127E+04  0.10100000352E+00 0. -1.
       -3    1    3    3    0  502  0.13474460510E+04 -0.10936165922E+04  0.65289617731E+03  0.18541525125E+04  0.10100000352E+00 0.  1.
</event>
<event>
 5   0  0.9714317E-07  0.3287486E+04  0.7818609E-02  0.8166087E-01
       -1   -1    0    0    0  501  0.00000000000E+00  0.00000000000E+00  0.17024266735E+04  0.17024266735E+04  0.50400001928E-02 0.  1.
        1   -1    0    0  501    0  0.00000000000E+00  0.00000000000E+00 -0.15870823487E+04  0.15870823487E+04  0.50400001928E-02 0. -1.
    10030    2    1    2    0    0  0.00000000000E+00  0.00000000000E+00  0.11534432481E+03  0.32895090223E+04  0.32874861664E+04 0.  0.
        4    1    3    3  502    0 -0.30197613627E+03  0.26354322533E+03  0.16527813787E+04  0.17006858961E+04  0.12699999809E+01 0.  1.
       -4    1    3    3    0  502  0.30197613627E+03 -0.26354322533E+03 -0.15374370539E+04  0.15888231262E+04  0.12699999809E+01 0. -1.
</event>
<event>
 5   0  0.9232963E-07  0.3348767E+04  0.7818609E-02  0.8150596E-01
        1   -1    0    0  501    0  0.00000000000E+00  0.00000000000E+00  0.26695340888E+04  0.26695340888E+04  0.50400001928E-02 0.  1.
       -1   -1    0    0    0  501  0.00000000000E+00  0.00000000000E+00 -0.10502058292E+04  0.10502058292E+04  0.50400001928E-02 0. -1.
    10030    2    1    2    0    0  0.00000000000E+00  0.00000000000E+00  0.16193282595E+04  0.37197399180E+04  0.33487670933E+04 0.  0.
        3    1    3    3  502    0  0.65560343114E+03 -0.82520186120E+02  0.25185803834E+04  0.26038188489E+04  0.10100000352E+00 0.  1.
       -3    1    3    3    0  502 -0.65560343114E+03  0.82520186120E+02 -0.89925212385E+03  0.11159210691E+04  0.10100000352E+00 0. -1.
</event>
<event>
 5   0  0.1010551E-06  0.3351992E+04  0.7818609E-02  0.8149791E-01
        1   -1    0    0  501    0  0.00000000000E+00  0.00000000000E+00  0.23488138250E+04  0.23488138250E+04  0.50400001928E-02 0. -1.
       -1   -1    0    0    0  501  0.00000000000E+00  0.00000000000E+00 -0.11959069441E+04  0.11959069441E+04  0.50400001928E-02 0.  1.
    10030    2    1    2    0    0  0.00000000000E+00  0.00000000000E+00  0.11529068809E+04  0.35447207692E+04  0.33519921025E+04 0.  0.
        2    1    3    3  502    0 -0.22983354365E+03 -0.12445770805E+04 -0.58543051860E+03  0.13944620681E+04  0.25500000920E-02 0.  1.
       -2    1    3    3    0  502  0.22983354365E+03  0.12445770805E+04  0.17383373995E+04  0.21502587011E+04  0.25500000920E-02 0. -1.
</event>
<event>
 5   0  0.1010855E-06  0.3473280E+04  0.7818609E-02  0.8120152E-01
        1   -1    0    0  501    0  0.00000000000E+00  0.00000000000E+00  0.10717876760E+04  0.10717876760E+04  0.50400001928E-02 0.  1.
       -1   -1    0    0    0  501  0.00000000000E+00  0.00000000000E+00 -0.28139144517E+04  0.28139144517E+04  0.50400001928E-02 0. -1.
    10030    2    1    2    0    0  0.00000000000E+00  0.00000000000E+00 -0.17421267757E+04  0.38857021277E+04  0.34732801964E+04 0.  0.
        1    1    3    3  502    0  0.73740983353E+03  0.15214980696E+04 -0.13146117970E+04  0.21417128228E+04  0.50400001928E-02 0. -1.
       -1    1    3    3    0  502 -0.73740983353E+03 -0.15214980696E+04 -0.42751497861E+03  0.17439893049E+04  0.50400001928E-02 0.  1.
</event>
<event>
 5   0  0.2856440E-06  0.3461694E+04  0.7818609E-02  0.8122928E-01
        2   -1    0    0  501    0  0.00000000000E+00  0.00000000000E+00  0.13932620667E+04  0.13932620667E+04  0.25500000920E-02 0. -1.
       -2   -1    0    0    0  501  0.00000000000E+00  0.00000000000E+00 -0.21502282091E+04  0.21502282091E+04  0.25500000920E-02 0.  1.
    10030    2    1    2    0    0  0.00000000000E+00  0.00000000000E+00 -0.75696614236E+03  0.35434902758E+04  0.34616940353E+04 0.  0.
        4    1    3    3  502    0  0.38651127516E+03  0.13321128566E+04  0.68131364363E+03  0.15453496441E+04  0.12699999809E+01 0. -1.
       -4    1    3    3    0  502 -0.38651127516E+03 -0.13321128566E+04 -0.14382797860E+04  0.19981406317E+04  0.12699999809E+01 0.  1.
</event>
<event>
 5   0  0.9232963E-07  0.3402818E+04  0.7818609E-02  0.8137215E-01
        1   -1    0    0  501    0  0.00000000000E+00  0.00000000000E+00  0.22567313640E+04  0.22567313640E+04  0.50400001928E-02 0.  1.
       -1   -1    0    0    0  501  0.00000000000E+00  0.00000000000E+00 -0.12827365624E+04  0.12827365624E+04  0.50400001928E-02 0. -1.
    10030    2    1    2    0    0  0.00000000000E+00  0.00000000000E+00  0.97399480161E+03  0.35394679264E+04  0.34028175574E+04 0.  0.
        3    1    3    3  502    0  0.60935695383E+03  0.96025540165E+03  0.18032743036E+04  0.21319485354E+04  0.10100000352E+00 0.  1.
       -3    1    3    3    0  502 -0.60935695383E+03 -0.96025540165E+03 -0.82927950195E+03  0.14075193910E+04  0.10100000352E+00 0. -1.
</event>
<event>
 5   0  0.2664083E-06  0.2085215E+04  0.7818609E-02  0.8567785E-01
        2   -1    0    0  501    0  0.00000000000E+00  0.00000000000E+00  0.12027494888E+04  0.12027494888E+04  0.25500000920E-02 0.  1.
       -2   -1    0    0    0  501  0.00000000000E+00  0.00000000000E+00 -0.90378743882E+03  0.90378743882E+03  0.25500000920E-02 0. -1.
    10030    2    1    2    0    0  0.00000000000E+00  0.00000000000E+00  0.29896204997E+03  0.21065369276E+04  0.20852145022E+04 0.  0.
        2    1    3    3  502    0 -0.80022579586E+03  0.47547733108E+03 -0.32499155108E+03  0.98593079119E+03  0.25500000920E-02 0.  1.
       -2    1    3    3    0  502  0.80022579586E+03 -0.47547733108E+03  0.62395360105E+03  0.11206061364E+04  0.25500000920E-02 0. -1.
</event>
<event>
 5   0  0.1003191E-06  0.3436231E+04  0.7818609E-02  0.8129071E-01
       -1   -1    0    0    0  501  0.00000000000E+00  0.00000000000E+00  0.16213305769E+04  0.16213305769E+04  0.50400001928E-02 0.  1.
        1   -1    0    0  501    0  0.00000000000E+00  0.00000000000E+00 -0.18206781252E+04  0.18206781252E+04  0.50400001928E-02 0. -1.
    10030    2    1    2    0    0  0.00000000000E+00  0.00000000000E+00 -0.19934754827E+03  0.34420087021E+04  0.34362311419E+04 0.  0.
        5    1    3    3  502    0  0.16274071095E+04 -0.54901123321E+03 -0.54522594570E+02  0.17183893731E+04  0.46999998093E+01 0. -1.
       -5    1    3    3    0  502 -0.16274071095E+04  0.54901123321E+03 -0.14482495370E+03  0.17236193290E+04  0.46999998093E+01 0.  1.
</event>
<event>
 5   0  0.2856440E-06  0.3359982E+04  0.7818609E-02  0.8147799E-01
        2   -1    0    0  501    0  0.00000000000E+00  0.00000000000E+00  0.23145354525E+04  0.23145354525E+04  0.25500000920E-02 0.  1.
       -2   -1    0    0    0  501  0.00000000000E+00  0.00000000000E+00 -0.12194105541E+04  0.12194105541E+04  0.25500000920E-02 0. -1.
    10030    2    1    2    0    0  0.00000000000E+00  0.00000000000E+00  0.10951248984E+04  0.35339460067E+04  0.33599815230E+04 0.  0.
        4    1    3    3  502    0  0.35513198279E+03  0.20838424460E+03  0.22606410538E+04  0.22978342642E+04  0.12699999809E+01 0.  1.
       -4    1    3    3    0  502 -0.35513198279E+03 -0.20838424460E+03 -0.11655161554E+04  0.12361117425E+04  0.12699999809E+01 0. -1.
</event>
<event>
 5   0  0.2767014E-06  0.3409195E+04  0.7818609E-02  0.8135653E-01
        2   -1    0    0  501    0  0.00000000000E+00  0.00000000000E+00  0.22065216687E+04  0.22065216687E+04  0.25500000920E-02 0.  1.
       -2   -1    0    0    0  501  0.00000000000E+00  0.00000000000E+00 -0.13168472955E+04  0.13168472955E+04  0.25500000920E-02 0. -1.
    10030    2    1    2    0    0  0.00000000000E+00  0.00000000000E+00  0.88967437318E+03  0.35233689643E+04  0.34091946803E+04 0.  0.
        1    1    3    3  502    0  0.10129215051E+04  0.62836925228E+03 -0.81449253560E+03  0.14436952529E+04  0.50400001928E-02 0. -1.
       -1    1    3    3    0  502 -0.10129215051E+04 -0.62836925228E+03  0.17041669088E+04  0.20796737114E+04  0.50400001928E-02 0.  1.
</event>
<event>
 5   0  0.2767014E-06  0.3414096E+04  0.7818609E-02  0.8134455E-01
       -2   -1    0    0    0  501  0.00000000000E+00  0.00000000000E+00  0.18694718497E+04  0.18694718497E+04  0.25500000920E-02 0. -1.
        2   -1    0    0  501    0  0.00000000000E+00  0.00000000000E+00 -0.15587358143E+04  0.15587358143E+04  0.25500000920E-02 0.  1.
    10030    2    1    2    0    0  0.00000000000E+00  0.00000000000E+00  0.31073603536E+03  0.34282076640E+04  0.34140959131E+04 0.  0.
        1    1    3    3  502    0 -0.96353029920E+01 -0.16718657726E+03 -0.15504676844E+04  0.15594852456E+04  0.50400001928E-02 0.  1.
       -1    1    3    3    0  502  0.96353029920E+01  0.16718657726E+03  0.18612037198E+04  0.18687224184E+04  0.50400001928E-02 0. -1.
</event>
<event>
 5   0  0.9714317E-07  0.3360219E+04  0.7818609E-02  0.8147739E-01
        1   -1    0    0  501    0  0.00000000000E+00  0.00000000000E+00  0.12820593693E+04  0.12820593693E+04  0.50400001928E-02 0. -1.
       -1   -1    0    0    0  501  0.00000000000E+00  0.00000000000E+00 -0.22017453294E+04  0.22017453294E+04  0.50400001928E-02 0.  1.
    10030    2    1    2    0    0  0.00000000000E+00  0.00000000000E+00 -0.91968596012E+03  0.34838046987E+04  0.33602191764E+04 0.  0.
        4    1    3    3  502    0 -0.98381658902E+03 -0.10845052398E+04 -0.13139877623E+04  0.19673871374E+04  0.12699999809E+01 0.  1.
       -4    1    3    3    0  502  0.98381658902E+03  0.10845052398E+04  0.39430180222E+03  0.15164175613E+04  0.12699999809E+01 0. -1.
</event>
<event>
 5   0  0.2856440E-06  0.3342299E+04  0.7818609E-02  0.8152215E-01
        2   -1    0    0  501    0  0.00000000000E+00  0.00000000000E+00  0.23142219708E+04  0.23142219708E+04  0.25500000920E-02 0. -1.
       -2   -1    0    0    0  501  0.00000000000E+00  0.00000000000E+00 -0.12067731693E+04  0.12067731693E+04  0.25500000920E-02 0.  1.
    10030    2    1    2    0    0  0.00000000000E+00  0.00000000000E+00  0.11074488015E+04  0.35209951400E+04  0.33422991979E+04 0.  0.
        4    1    3    3  502    0 -0.94331231428E+03 -0.12726284663E+04 -0.70100124888E+01  0.15841313357E+04  0.12699999809E+01 0.  1.
       -4    1    3    3    0  502  0.94331231428E+03  0.12726284663E+04  0.11144588140E+04  0.19368638043E+04  0.12699999809E+01 0. -1.
</event>
<event>
 5   0  0.2856440E-06  0.3442564E+04  0.7818609E-02  0.8127538E-01
       -2   -1    0    0    0  501  0.00000000000E+00  0.00000000000E+00  0.14785197976E+04  0.14785197976E+04  0.25500000920E-02 0. -1.
        2   -1    0    0  501    0  0.00000000000E+00  0.00000000000E+00 -0.20039037393E+04  0.20039037393E+04  0.25500000920E-02 0.  1.
    10030    2    1    2    0    0  0.00000000000E+00  0.00000000000E+00 -0.52538394166E+03  0.34824235369E+04  0.34425637836E+04 0.  0.
        4    1    3    3  502    0 -0.14088911587E+04  0.52872066620E+03 -0.11080048260E+04  0.18687418621E+04  0.12699999809E+01 0. -1.
       -4    1    3    3    0  502  0.14088911587E+04 -0.52872066620E+03  0.58262088432E+03  0.16136816748E+04  0.12699999809E+01 0.  1.
</event>
<event>
 5   0  0.1010551E-06  0.3407997E+04  0.7818609E-02  0.8135946E-01
       -1   -1    0    0    0  501  0.00000000000E+00  0.00000000000E+00  0.19038327062E+04  0.19038327063E+04  0.50400001928E-02 0.  1.
        1   -1    0    0  501    0  0.00000000000E+00  0.00000000000E+00 -0.15251393058E+04  0.15251393058E+04  0.50400001928E-02 0. -1.
    10030    2    1    2    0    0  0.00000000000E+00  0.00000000000E+00  0.37869340046E+03  0.34289720121E+04  0.34079965328E+04 0.  0.
        2    1    3    3  502    0 -0.52129518488E+03 -0.15144253699E+04  0.77462895368E+03  0.17791241909E+04  0.25500000920E-02 0. -1.
       -2    1    3    3    0  502  0.52129518488E+03  0.15144253699E+04 -0.39593555322E+03  0.16498478212E+04  0.25500000920E-02 0.  1.
</event>
<event>
 5   0  0.2856440E-06  0.2167023E+04  0.7818609E-02  0.8532281E-01
       -2   -1    0    0    0  501  0.00000000000E+00  0.00000000000E+00  0.56495806944E+03  0.56495806945E+03  0.25500000920E-02 0. -1.
        2   -1    0    0  501    0  0.00000000000E+00  0.00000000000E+00 -0.20780247636E+04  0.20780247636E+04  0.25500000920E-02 0.  1.
    10030    2    1    2    0    0  0.00000000000E+00  0.00000000000E+00 -0.15130666941E+04  0.26429828330E+04  0.21670227121E+04 0.  0.
        4    1    3    3  502    0 -0.54538454051E+03  0.18664702195E+03  0.36242291925E+03  0.68090630276E+03  0.12699999809E+01 0. -1.
       -4    1    3    3    0  502  0.54538454051E+03 -0.18664702195E+03 -0.18754896134E+04  0.19620765303E+04  0.12699999809E+01 0.  1.
</event>
<event>
 5   0  0.1003191E-06  0.2981265E+04  0.7818609E-02  0.8249101E-01
       -1   -1    0    0    0  501  0.00000000000E+00  0.00000000000E+00  0.15189981575E+04  0.15189981575E+04  0.50400001928E-02 0. -1.
        1   -1    0    0  501    0  0.00000000000E+00  0.00000000000E+00 -0.14627962598E+04  0.14627962598E+04  0.50400001928E-02 0.  1.
    10030    2    1    2    0    0  0.00000000000E+00  0.00000000000E+00  0.56201897660E+02  0.29817944173E+04  0.29812647138E+04 0.  0.
        5    1    3    3  502    0 -0.58574246957E+03 -0.10340102437E+04 -0.87188741882E+03  0.14739339150E+04  0.46999998093E+01 0.  1.
       -5    1    3    3    0  502  0.58574246957E+03  0.10340102437E+04  0.92808931648E+03  0.15078605022E+04  0.46999998093E+01 0. -1.
</event>
<event>
 5   0  0.1003191E-06  0.3497788E+04  0.7818609E-02  0.8114314E-01
       -1   -1    0    0    0  501  0.00000000000E+00  0.00000000000E+00  0.12319745165E+04  0.12319745165E+04  0.50400001928E-02 0. -1.
        1   -1    0    0  501    0  0.00000000000E+00  0.00000000000E+00 -0.24827058839E+04  0.24827058839E+04  0.50400001928E-02 0.  1.
    10030    2    1    2    0    0  0.00000000000E+00  0.00000000000E+00 -0.12507313674E+04  0.37146804004E+04  0.34977880901E+04 0.  0.
        5    1    3    3  502    0 -0.11159936883E+04  0.45015113500E+03 -0.19731252226E+04  0.23111302842E+04  0.46999998093E+01 0.  1.
       -5    1    3    3    0  502  0.11159936883E+04 -0.45015113500E+03  0.72239385520E+03  0.14035501162E+04  0.46999998093E+01 0. -1.
</event>
<event>
 5   0  0.1003191E-06  0.3331755E+04  0.7818609E-02  0.8154862E-01
        1   -1    0    0  501    0  0.00000000000E+00  0.00000000000E+00  0.11643305221E+04  0.11643305221E+04  0.50400001928E-02 0. -1.
       -1   -1    0    0    0  501  0.00000000000E+00  0.00000000000E+00 -0.23834702429E+04  0.23834702429E+04  0.50400001928E-02 0.  1.
    10030    2    1    2    0    0  0.00000000000E+00  0.00000000000E+00 -0.12191397208E+04  0.35478007650E+04  0.33317545842E+04 0.  0.
        5    1    3    3  502    0  0.89904589236E+03  0.12729860212E+04 -0.12362452593E+04  0.19892464296E+04  0.46999998093E+01 0.  1.
       -5    1    3    3    0  502 -0.89904589236E+03 -0.12729860212E+04  0.17105538469E+02  0.15585543353E+04  0.46999998093E+01 0. -1.
</event>
<event>
 5   0  0.1010551E-06  0.3015674E+04  0.7818609E-02  0.8239269E-01
       -1   -1    0    0    0  501  0.00000000000E+00  0.00000000000E+00  0.14651751059E+04  0.14651751059E+04  0.50400001928E-02 0.  1.
        1   -1    0    0  501    0  0.00000000000E+00  0.00000000000E+00 -0.15517413691E+04  0.15517413691E+04  0.50400001928E-02 0. -1.
    10030    2    1    2    0    0  0.00000000000E+00  0.00000000000E+00 -0.86566263142E+02  0.30169164750E+04  0.30156742694E+04 0.  0.
        2    1    3    3  502    0 -0.48021593390E+03 -0.13092301101E+04 -0.61700170377E+03  0.15249203018E+04  0.25500000920E-02 0. -1.
       -2    1    3    3    0  502  0.48021593390E+03  0.13092301101E+04  0.53043544063E+03  0.14919961732E+04  0.25500000920E-02 0.  1.
</event>
<event>
 5   0  0.2848685E-06  0.2176764E+04  0.7818609E-02  0.8528162E-01
        2   -1    0    0  501    0  0.00000000000E+00  0.00000000000E+00  0.25917114585E+04  0.25917114585E+04  0.25500000920E-02 0. -1.
       -2   -1    0    0    0  501  0.00000000000E+00  0.00000000000E+00 -0.45706309177E+03  0.45706309177E+03  0.25500000920E-02 0.  1.
    10030    2    1    2    0    0  0.00000000000E+00  0.00000000000E+00  0.21346483667E+04  0.30487745503E+04  0.21767642520E+04 0.  0.
        3    1    3    3  502    0 -0.46496726842E+03  0.22190670547E+03 -0.27545435620E+03  0.58421935878E+03  0.10100000352E+00 0.  1.
       -3    1    3    3    0  502  0.46496726842E+03 -0.22190670547E+03  0.24101027229E+04  0.24645551915E+04  0.10100000352E+00 0. -1.
</event>
<event>
 5   0  0.2906701E-06  0.3380382E+04  0.7818609E-02  0.8142738E-01
        2   -1    0    0  501    0  0.00000000000E+00  0.00000000000E+00  0.28735443284E+04  0.28735443284E+04  0.25500000920E-02 0.  1.
       -2   -1    0    0    0  501  0.00000000000E+00  0.00000000000E+00 -0.99415374215E+03  0.99415374215E+03  0.25500000920E-02 0. -1.
    10030    2    1    2    0    0  0.00000000000E+00  0.00000000000E+00  0.18793905863E+04  0.38676980706E+04  0.33803815449E+04 0.  0.
        5    1    3    3  502    0  0.12980723888E+04 -0.84657874686E+03  0.16788713413E+03  0.15588122661E+04  0.46999998093E+01 0.  1.
       -5    1    3    3    0  502 -0.12980723888E+04  0.84657874686E+03  0.17115034522E+04  0.23088858044E+04  0.46999998093E+01 0. -1.
</event>
<event>
 5   0  0.2664083E-06  0.3018280E+04  0.7818609E-02  0.8238530E-01
       -2   -1    0    0    0  501  0.00000000000E+00  0.00000000000E+00  0.15240989317E+04  0.15240989317E+04  0.25500000920E-02 0.  1.
        2   -1    0    0  501    0  0.00000000000E+00  0.00000000000E+00 -0.14943283192E+04  0.14943283192E+04  0.25500000920E-02 0. -1.
    10030    2    1    2    0    0  0.00000000000E+00  0.00000000000E+00  0.29770612563E+02  0.30184272509E+04  0.30182804342E+04 0.  0.
        2    1    3    3  502    0 -0.85412057319E+03 -0.78153650612E+03  0.98301448517E+03  0.15187622401E+04  0.25500000920E-02 0.  1.
       -2    1    3    3    0  502  0.85412057319E+03  0.78153650612E+03 -0.95324387261E+03  0.14996650108E+04  0.25500000920E-02 0. -1.
</event>
<event>
 5   0  0.9714317E-07  0.3368508E+04  0.7818609E-02  0.8145679E-01
        1   -1    0    0  501    0  0.00000000000E+00  0.00000000000E+00  0.26208376558E+04  0.26208376558E+04  0.50400001928E-02 0.  1.
       -1   -1    0    0    0  501  0.00000000000E+00  0.00000000000E+00 -0.10823684448E+04  0.10823684448E+04  0.50400001928E-02 0. -1.
    10030    2    1    2    0    0  0.00000000000E+00  0.00000000000E+00  0.15384692110E+04  0.37032061006E+04  0.33685082619E+04 0.  0.
        4    1    3    3  502    0 -0.14574302231E+03  0.14345757035E+04 -0.18756427640E+03  0.14541081281E+04  0.12699999809E+01 0. -1.
       -4    1    3    3    0  502  0.14574302231E+03 -0.14345757035E+04  0.17260334874E+04  0.22490979725E+04  0.12699999809E+01 0.  1.
</event>
<event>
 5   0  0.2767014E-06  0.3396309E+04  0.7818609E-02  0.8138813E-01
        2   -1    0    0  501    0  0.00000000000E+00  0.00000000000E+00  0.15910225764E+04  0.15910225764E+04  0.25500000920E-02 0.  1.
       -2   -1    0    0    0  501  0.00000000000E+00  0.00000000000E+00 -0.18124999350E+04  0.18124999350E+04  0.25500000920E-02 0. -1.
    10030    2    1    2    0    0  0.00000000000E+00  0.00000000000E+00 -0.22147735858E+03  0.34035225115E+04  0.33963087707E+04 0.  0.
        1    1    3    3  502    0  0.16115084788E+03  0.16327609563E+04  0.32819892885E+03  0.16731982767E+04  0.50400001928E-02 0.  1.
       -1    1    3    3    0  502 -0.16115084788E+03 -0.16327609563E+04 -0.54967628743E+03  0.17303242347E+04  0.50400001928E-02 0. -1.
</event>
<event>
 5   0  0.1010551E-06  0.2671322E+04  0.7818609E-02  0.8344370E-01
        1   -1    0    0  501    0  0.00000000000E+00  0.00000000000E+00  0.17247077871E+04  0.17247077871E+04  0.50400001928E-02 0.  1.
       -1   -1    0    0    0  501  0.00000000000E+00  0.00000000000E+00 -0.10343722198E+04  0.10343722198E+04  0.50400001928E-02 0. -1.
    10030    2    1    2    0    0  0.00000000000E+00  0.00000000000E+00  0.69033556728E+03  0.27590800069E+04  0.26713216371E+04 0.  0.
        2    1    3    3  502    0  0.10236695220E+04  0.79702681086E+03  0.67315123785E+03  0.14616030981E+04  0.25500000920E-02 0. -1.
       -2    1    3    3    0  502 -0.10236695220E+04 -0.79702681086E+03  0.17184329427E+02  0.12974769087E+04  0.25500000920E-02 0.  1.
</event>
<event>
 5   0  0.1010855E-06  0.3547500E+04  0.7818609E-02  0.8102624E-01
       -1   -1    0    0    0  501  0.00000000000E+00  0.00000000000E+00  0.16879745303E+04  0.16879745303E+04  0.50400001928E-02 0.  1.
        1   -1    0    0  501    0  0.00000000000E+00  0.00000000000E+00 -0.18638838927E+04  0.18638838927E+04  0.50400001928E-02 0. -1.
    10030    2    1    2    0    0  0.00000000000E+00  0.00000000000E+00 -0.17590936238E+03  0.35518584230E+04  0.35474997044E+04 0.  0.
        1    1    3    3  502    0  0.26924652601E+03 -0.12828903757E+04  0.11084558253E+04  0.17166757773E+04  0.50400001928E-02 0. -1.
       -1    1    3    3    0  502 -0.26924652601E+03  0.12828903757E+04 -0.12843651877E+04  0.18351826457E+04  0.50400001928E-02 0.  1.
</event>
<event>
 5   0  0.9232963E-07  0.3241019E+04  0.7818609E-02  0.8178067E-01
        1   -1    0    0  501    0  0.00000000000E+00  0.00000000000E+00  0.14317613608E+04  0.14317613608E+04  0.50400001928E-02 0.  1.
       -1   -1    0    0    0  501  0.00000000000E+00  0.00000000000E+00 -0.18341401007E+04  0.18341401008E+04  0.50400001928E-02 0. -1.
    10030    2    1    2    0    0  0.00000000000E+00  0.00000000000E+00 -0.40237873991E+03  0.32659014616E+04  0.32410189303E+04 0.  0.
        3    1    3    3  502    0  0.98598923819E+03  0.12538917691E+04  0.86716542960E+02  0.15974789875E+04  0.10100000352E+00 0.  1.
       -3    1    3    3    0  502 -0.98598923819E+03 -0.12538917691E+04 -0.48909528287E+03  0.16684224742E+04  0.10100000352E+00 0. -1.
</event>
<event>
 5   0  0.1010551E-06  0.2209574E+04  0.7818609E-02  0.8514454E-01
        1   -1    0    0  501    0  0.00000000000E+00  0.00000000000E+00  0.70794209354E+03  0.70794209355E+03  0.50400001928E-02 0.  1.
       -1   -1    0    0    0  501  0.00000000000E+00  0.00000000000E+00 -0.17240879157E+04  0.17240879157E+04  0.50400001928E-02 0. -1.
    10030    2    1    2    0    0  0.00000000000E+00  0.00000000000E+00 -0.10161458221E+04  0.24320300092E+04  0.22095740843E+04 0.  0.
        2    1    3    3  502    0  0.62460425292E+03 -0.86120771472E+03 -0.18017940363E+03  0.10790152076E+04  0.25500000920E-02 0.  1.
       -2    1    3    3    0  502 -0.62460425292E+03  0.86120771472E+03 -0.83596641851E+03  0.13530148017E+04  0.25500000920E-02 0. -1.
</event>
<event>
 5   0  0.9232963E-07  0.3393601E+04  0.7818609E-02  0.8139479E-01
       -1   -1    0    0    0  501  0.00000000000E+00  0.00000000000E+00  0.18393887826E+04  0.18393887826E+04  0.50400001928E-02 0.  1.
        1   -1    0    0  501    0  0.00000000000E+00  0.00000000000E+00 -0.15652653668E+04  0.15652653668E+04  0.50400001928E-02 0. -1.
    10030    2    1    2    0    0  0.00000000000E+00  0.00000000000E+00  0.27412341578E+03  0.34046541494E+04  0.33936007765E+04 0.  0.
        3    1    3    3  502    0  0.17635726076E+03 -0.28884115476E+03 -0.15310627072E+04  0.15680191707E+04  0.10100000352E+00 0. -1.
       -3    1    3    3    0  502 -0.17635726076E+03  0.28884115476E+03  0.18051861230E+04  0.18366349787E+04  0.10100000352E+00 0.  1.
</event>
<event>
 5   0  0.1010855E-06  0.3456130E+04  0.7818609E-02  0.8124266E-01
        1   -1    0    0  501    0  0.00000000000E+00  0.00000000000E+00  0.29753668935E+04  0.29753668935E+04  0.50400001928E-02 0.  1.
       -1   -1    0    0    0  501  0.00000000000E+00  0.00000000000E+00 -0.10036437448E+04  0.10036437448E+04  0.50400001928E-02 0. -1.
    10030    2    1    2    0    0  0.00000000000E+00  0.00000000000E+00  0.19717231486E+04  0.39790106383E+04  0.34561298420E+04 0.  0.
        1    1    3    3  502    0  0.72842551808E+03 -0.14723596640E+04  0.36826978713E+03  0.16834694389E+04  0.50400001928E-02 0. -1.
       -1    1    3    3    0  502 -0.72842551808E+03  0.14723596640E+04  0.16034533615E+04  0.22955411994E+04  0.50400001928E-02 0.  1.
</event>
<event>
 5   0  0.1010551E-06  0.3338235E+04  0.7818609E-02  0.8153234E-01
        1   -1    0    0  501    0  0.00000000000E+00  0.00000000000E+00  0.27405585382E+04  0.27405585382E+04  0.50400001928E-02 0. -1.
       -1   -1    0    0    0  501  0.00000000000E+00  0.00000000000E+00 -0.10165641402E+04  0.10165641403E+04  0.50400001928E-02 0.  1.
    10030    2    1    2    0    0  0.00000000000E+00  0.00000000000E+00  0.17239943979E+04  0.37571226784E+04  0.33382351830E+04 0.  0.
        2    1    3    3  502    0 -0.30189086808E+03  0.44994940623E+03  0.26388191740E+04  0.26938743841E+04  0.25500000920E-02 0. -1.
       -2    1    3    3    0  502  0.30189086808E+03 -0.44994940623E+03 -0.91482477608E+03  0.10632482943E+04  0.25500000920E-02 0.  1.
</event>
<event>
 5   0  0.2664083E-06  0.3416738E+04  0.7818609E-02  0.8133810E-01
       -2   -1    0    0    0  501  0.00000000000E+00  0.00000000000E+00  0.15276084563E+04  0.15276084563E+04  0.25500000920E-02 0.  1.
        2   -1    0    0  501    0  0.00000000000E+00  0.00000000000E+00 -0.19105191561E+04  0.19105191561E+04  0.25500000920E-02 0. -1.
    10030    2    1    2    0    0  0.00000000000E+00  0.00000000000E+00 -0.38291069986E+03  0.34381276124E+04  0.34167383387E+04 0.  0.
        2    1    3    3  502    0 -0.13850785964E+04 -0.82562345424E+03  0.37637183039E+03  0.16558238316E+04  0.25500000920E-02 0.  1.
       -2    1    3    3    0  502  0.13850785964E+04  0.82562345424E+03 -0.75928253025E+03  0.17823037808E+04  0.25500000920E-02 0. -1.
</event>
<event>
 5   0  0.1010551E-06  0.3574193E+04  0.7818609E-02  0.8096429E-01
        1   -1    0    0  501    0  0.00000000000E+00  0.00000000000E+00  0.32810616266E+04  0.32810616267E+04  0.50400001928E-02 0. -1.
       -1   -1    0    0    0  501  0.00000000000E+00  0.00000000000E+00 -0.97337795279E+03  0.97337795280E+03  0.50400001928E-02 0.  1.
    10030    2    1    2    0    0  0.00000000000E+00  0.00000000000E+00  0.23076836739E+04  0.42544395795E+04  0.35741925237E+04 0.  0.
        2    1    3    3  502    0  0.11138067038E+04 -0.12820332188E+04  0.49159215812E+03  0.17680037888E+04  0.25500000920E-02 0. -1.
       -2    1    3    3    0  502 -0.11138067038E+04  0.12820332188E+04  0.18160915157E+04  0.24864357906E+04  0.25500000920E-02 0.  1.
</event>
<event>
 5   0  0.1003191E-06  0.2289550E+04  0.7818609E-02  0.8482053E-01
        1   -1    0    0  501    0  0.00000000000E+00  0.00000000000E+00  0.12791385260E+04  0.12791385261E+04  0.50400001928E-02 0.  1.
       -1   -1    0    0    0  501  0.00000000000E+00  0.00000000000E+00 -0.10245253567E+04  0.10245253567E+04  0.50400001928E-02 0. -1.
    10030    2    1    2    0    0  0.00000000000E+00  0.00000000000E+00  0.25461316935E+03  0.23036638828E+04  0.22895500472E+04 0.  0.
        5    1    3    3  502    0  0.47809540305E+03  0.20335034355E+03  0.11536738298E+04  0.12652715014E+04  0.46999998093E+01 0.  1.
       -5    1    3    3    0  502 -0.47809540305E+03 -0.20335034355E+03 -0.89906066042E+03  0.10383923814E+04  0.46999998093E+01 0. -1.
</event>
<event>
 5   0  0.2848685E-06  0.3207530E+04  0.7818609E-02  0.8186831E-01
       -2   -1    0    0    0  501  0.00000000000E+00  0.00000000000E+00  0.11610873670E+04  0.11610873670E+04  0.25500000920E-02 0.  1.
        2   -1    0    0  501    0  0.00000000000E+00  0.00000000000E+00 -0.22152183769E+04  0.22152183769E+04  0.25500000920E-02 0. -1.
    10030    2    1    2    0    0  0.00000000000E+00  0.00000000000E+00 -0.10541310099E+04  0.33763057439E+04  0.32075299360E+04 0.  0.
        3    1    3    3  502    0 -0.30269456707E+03  0.80913767584E+02  0.11285570400E+04  0.11712438010E+04  0.10100000352E+00 0.  1.
       -3    1    3    3    0  502  0.30269456707E+03 -0.80913767584E+02 -0.21826880499E+04  0.22050619429E+04  0.10100000352E+00 0. -1.
</event>
<event>
 5   0  0.2848685E-06  0.3431476E+04  0.7818609E-02  0.8130224E-01
        2   -1    0    0  501    0  0.00000000000E+00  0.00000000000E+00  0.17919693721E+04  0.17919693721E+04  0.25500000920E-02 0.  1.
       -2   -1    0    0    0  501  0.00000000000E+00  0.00000000000E+00 -0.16427497876E+04  0.16427497876E+04  0.25500000920E-02 0. -1.
    10030    2    1    2    0    0  0.00000000000E+00  0.00000000000E+00  0.14921958447E+03  0.34347191597E+04  0.34314762452E+04 0.  0.
        3    1    3    3  502    0  0.11417093145E+04 -0.12799656258E+04  0.30464448229E+02  0.17154417084E+04  0.10100000352E+00 0. -1.
       -3    1    3    3    0  502 -0.11417093145E+04  0.12799656258E+04  0.11875513624E+03  0.17192774513E+04  0.10100000352E+00 0.  1.
</event>
<event>
 5   0  0.2856440E-06  0.3429614E+04  0.7818609E-02  0.8130676E-01
        2   -1    0    0  501    0  0.00000000000E+00  0.00000000000E+00  0.17739921770E+04  0.17739921770E+04  0.25500000920E-02 0.  1.
       -2   -1    0    0    0  501  0.00000000000E+00  0.00000000000E+00 -0.16575968814E+04  0.16575968814E+04  0.25500000920E-02 0. -1.
    10030    2    1    2    0    0  0.00000000000E+00  0.00000000000E+00  0.11639529558E+03  0.34315890584E+04  0.34296144974E+04 0.  0.
        4    1    3    3  502    0  0.14151964912E+04  0.94873431451E+03 -0.13603876527E+03  0.17092062681E+04  0.12699999809E+01 0. -1.
       -4    1    3    3    0  502 -0.14151964912E+04 -0.94873431451E+03  0.25243406085E+03  0.17223827903E+04  0.12699999809E+01 0.  1.
</event>
<event>
 5   0  0.2848685E-06  0.3396601E+04  0.7818609E-02  0.8138741E-01
        2   -1    0    0  501    0  0.00000000000E+00  0.00000000000E+00  0.15473798496E+04  0.15473798496E+04  0.25500000920E-02 0.  1.
       -2   -1    0    0    0  501  0.00000000000E+00  0.00000000000E+00 -0.18639405811E+04  0.18639405811E+04  0.25500000920E-02 0. -1.
    10030    2    1    2    0    0  0.00000000000E+00  0.00000000000E+00 -0.31656073144E+03  0.34113204307E+04  0.33966007101E+04 0.  0.
        3    1    3    3  502    0 -0.51071728624E+03  0.12802807687E+04 -0.11546851993E+04  0.17981237201E+04  0.10100000352E+00 0. -1.
       -3    1    3    3    0  502  0.51071728624E+03 -0.12802807687E+04  0.83812446787E+03  0.16131967106E+04  0.10100000352E+00 0.  1.
</event>
<event>
 5   0  0.2767014E-06  0.3439288E+04  0.7818609E-02  0.8128331E-01
       -2   -1    0    0    0  501  0.00000000000E+00  0.00000000000E+00  0.16531660898E+04  0.16531660898E+04  0.25500000920E-02 0.  1.
        2   -1    0    0  501    0  0.00000000000E+00  0.00000000000E+00 -0.17887949061E+04  0.17887949061E+04  0.25500000920E-02 0. -1.
    10030    2    1    2    0    0  0.00000000000E+00  0.00000000000E+00 -0.13562881633E+03  0.34419609958E+04  0.34392877636E+04 0.  0.
        1    1    3    3  502    0 -0.10679983464E+04 -0.10516962345E+04 -0.91137504441E+03  0.17542205988E+04  0.50400001928E-02 0. -1.
       -1    1    3    3    0  502  0.10679983464E+04  0.10516962345E+04  0.77574622808E+03  0.16877403971E+04  0.50400001928E-02 0.  1.
</event>
<event>
 5   0  0.2848685E-06  0.3267426E+04  0.7818609E-02  0.8171234E-01
       -2   -1    0    0    0  501  0.00000000000E+00  0.00000000000E+00  0.13146719727E+04  0.13146719727E+04  0.25500000920E-02 0. -1.
        2   -1    0    0  501    0  0.00000000000E+00  0.00000000000E+00 -0.20301779597E+04  0.20301779597E+04  0.25500000920E-02 0.  1.
    10030    2    1    2    0    0  0.00000000000E+00  0.00000000000E+00 -0.71550598700E+03  0.33448499324E+04  0.32674259368E+04 0.  0.
        3    1    3    3  502    0  0.15621570730E+02 -0.15012857268E+04  0.30164944800E+03  0.15313703885E+04  0.10100000352E+00 0. -1.
       -3    1    3    3    0  502 -0.15621570730E+02  0.15012857268E+04 -0.10171554350E+04  0.18134795439E+04  0.10100000352E+00 0.  1.
</event>
<event>
 5   0  0.2906701E-06  0.3414312E+04  0.7818609E-02  0.8134403E-01
       -2   -1    0    0    0  501  0.00000000000E+00  0.00000000000E+00  0.21660192441E+04  0.21660192441E+04  0.25500000920E-02 0.  1.
        2   -1    0    0  501    0  0.00000000000E+00  0.00000000000E+00 -0.13455015530E+04  0.13455015530E+04  0.25500000920E-02 0. -1.
    10030    2    1    2    0    0  0.00000000000E+00  0.00000000000E+00  0.82051769115E+03  0.35115207971E+04  0.34143123798E+04 0.  0.
        5    1    3    3  502    0 -0.91595730947E+03  0.10669098781E+04 -0.58533371829E+03  0.15231257770E+04  0.46999998093E+01 0.  1.
       -5    1    3    3    0  502  0.91595730947E+03 -0.10669098781E+04  0.14058514094E+04  0.19883950201E+04  0.46999998093E+01 0. -1.
</event>
<event>
 5   0  0.9232963E-07  0.2396700E+04  0.7818609E-02  0.8440740E-01
       -1   -1    0    0    0  501  0.00000000000E+00  0.00000000000E+00  0.67618798135E+03  0.67618798137E+03  0.50400001928E-02 0. -1.
        1   -1    0    0  501    0  0.00000000000E+00  0.00000000000E+00 -0.21237327830E+04  0.21237327830E+04  0.50400001928E-02 0.  1.
    10030    2    1    2    0    0  0.00000000000E+00  0.00000000000E+00 -0.14475448017E+04  0.27999207644E+04  0.23966998840E+04 0.  0.
        3    1    3    3  502    0  0.11697630333E+04 -0.24804724913E+03 -0.81553378184E+03  0.14474005497E+04  0.10100000352E+00 0. -1.
       -3    1    3    3    0  502 -0.11697630333E+04  0.24804724913E+03 -0.63201101985E+03  0.13525202147E+04  0.10100000352E+00 0.  1.
</event>
<event>
 5   0  0.1010855E-06  0.3403262E+04  0.7818609E-02  0.8137106E-01
       -1   -1    0    0    0  501  0.00000000000E+00  0.00000000000E+00  0.17565275595E+04  0.17565275595E+04  0.50400001928E-02 0.  1.
        1   -1    0    0  501    0  0.00000000000E+00  0.00000000000E+00 -0.16484504475E+04  0.16484504475E+04  0.50400001928E-02 0. -1.
    10030    2    1    2    0    0  0.00000000000E+00  0.00000000000E+00  0.10807711197E+03  0.34049780070E+04  0.34032623417E+04 0.  0.
        1    1    3    3  502    0 -0.11896805309E+04 -0.10663665265E+04 -0.53197961353E+03  0.16838882516E+04  0.50400001928E-02 0. -1.
       -1    1    3    3    0  502  0.11896805309E+04  0.10663665265E+04  0.64005672549E+03  0.17210897555E+04  0.50400001928E-02 0.  1.
</event>
<event>
 5   0  0.9232963E-07  0.2714799E+04  0.7818609E-02  0.8330219E-01
       -1   -1    0    0    0  501  0.00000000000E+00  0.00000000000E+00  0.15527896776E+04  0.15527896776E+04  0.50400001928E-02 0.  1.
        1   -1    0    0  501    0  0.00000000000E+00  0.00000000000E+00 -0.11865955534E+04  0.11865955534E+04  0.50400001928E-02 0. -1.
    10030    2    1    2    0    0  0.00000000000E+00  0.00000000000E+00  0.36619412424E+03  0.27393852310E+04  0.27147989442E+04 0.  0.
        3    1    3    3  502    0  0.55720217580E+03 -0.10031738211E+04  0.91471606805E+03  0.14674936032E+04  0.10100000352E+00 0.  1.
       -3    1    3    3    0  502 -0.55720217580E+03  0.10031738211E+04 -0.54852194382E+03  0.12718916279E+04  0.10100000352E+00 0. -1.
</event>
<event>
 5   0  0.1010855E-06  0.3071052E+04  0.7818609E-02  0.8223728E-01
        1   -1    0    0  501    0  0.00000000000E+00  0.00000000000E+00  0.32042625074E+04  0.32042625074E+04  0.50400001928E-02 0. -1.
       -1   -1    0    0    0  501  0.00000000000E+00  0.00000000000E+00 -0.73584465182E+03  0.73584465184E+03  0.50400001928E-02 0.  1.
    10030    2    1    2    0    0  0.00000000000E+00  0.00000000000E+00  0.24684178556E+04  0.39401071592E+04  0.30710515653E+04 0.  0.
        1    1    3    3  502    0 -0.10238820655E+04  0.71513712887E+03  0.23803687518E+04  0.26881054652E+04  0.50400001928E-02 0. -1.
       -1    1    3    3    0  502  0.10238820655E+04 -0.71513712887E+03  0.88049103723E+02  0.12520016940E+04  0.50400001928E-02 0.  1.
</event>
<event>
 5   0  0.9714317E-07  0.2917281E+04  0.7818609E-02  0.8267755E-01
        1   -1    0    0  501    0  0.00000000000E+00  0.00000000000E+00  0.10502293648E+04  0.10502293648E+04  0.50400001928E-02 0. -1.
       -1   -1    0    0    0  501  0.00000000000E+00  0.00000000000E+00 -0.20258731155E+04  0.20258731155E+04  0.50400001928E-02 0.  1.
    10030    2    1    2    0    0  0.00000000000E+00  0.00000000000E+00 -0.97564375069E+03  0.30761024804E+04  0.29172805387E+04 0.  0.
        4    1    3    3  502    0 -0.98376043705E+02  0.96466519630E+03  0.66116798507E+03  0.11736274981E+04  0.12699999809E+01 0. -1.
       -4    1    3    3    0  502  0.98376043705E+02 -0.96466519630E+03 -0.16368117358E+04  0.19024749823E+04  0.12699999809E+01 0.  1.
</event>
<event>
 5   0  0.2856440E-06  0.3397105E+04  0.7818609E-02  0.8138617E-01
        2   -1    0    0  501    0  0.00000000000E+00  0.00000000000E+00  0.28098519359E+04  0.28098519359E+04  0.25500000920E-02 0. -1.
       -2   -1    0    0    0  501  0.00000000000E+00  0.00000000000E+00 -0.10267733978E+04  0.10267733978E+04  0.25500000920E-02 0.  1.
    10030    2    1    2    0    0  0.00000000000E+00  0.00000000000E+00  0.17830785381E+04  0.38366253337E+04  0.33971053676E+04 0.  0.
        4    1    3    3  502    0  0.11273626733E+04  0.56341706252E+03  0.21775931392E+04  0.25160085207E+04  0.12699999809E+01 0. -1.
       -4    1    3    3    0  502 -0.11273626733E+04 -0.56341706252E+03 -0.39451460109E+03  0.13206168130E+04  0.12699999809E+01 0.  1.
</event>
<event>
 5   0  0.2906701E-06  0.3244766E+04  0.7818609E-02  0.8177094E-01
        2   -1    0    0  501    0  0.00000000000E+00  0.00000000000E+00  0.22428638614E+04  0.22428638614E+04  0.25500000920E-02 0. -1.
       -2   -1    0    0    0  501  0.00000000000E+00  0.00000000000E+00 -0.11735564481E+04  0.11735564481E+04  0.25500000920E-02 0.  1.
    10030    2    1    2    0    0  0.00000000000E+00  0.00000000000E+00  0.10693074133E+04  0.34164203095E+04  0.32447664611E+04 0.  0.
        5    1    3    3  502    0  0.15136078831E+04  0.12310007480E+03  0.11357700690E+04  0.18963539206E+04  0.46999998093E+01 0. -1.
       -5    1    3    3    0  502 -0.15136078831E+04 -0.12310007480E+03 -0.66462655735E+02  0.15200663890E+04  0.46999998093E+01 0.  1.
</event>
<event>
 5   0  0.1010855E-06  0.3363565E+04  0.7818609E-02  0.8146907E-01
        1   -1    0    0  501    0  0.00000000000E+00  0.00000000000E+00  0.23480867488E+04  0.23480867488E+04  0.50400001928E-02 0. -1.
       -1   -1    0    0    0  501  0.00000000000E+00  0.00000000000E+00 -0.12045521650E+04  0.12045521650E+04  0.50400001928E-02 0.  1.
    10030    2    1    2    0    0  0.00000000000E+00  0.00000000000E+00  0.11435345838E+04  0.35526389138E+04  0.33635653565E+04 0.  0.
        1    1    3    3  502    0 -0.64598790499E+03 -0.14039463415E+04 -0.12886636427E+03  0.15507972927E+04  0.50400001928E-02 0.  1.
       -1    1    3    3    0  502  0.64598790499E+03  0.14039463415E+04  0.12724009480E+04  0.20018416211E+04  0.50400001928E-02 0. -1.
</event>
<event>
 5   0  0.2848685E-06  0.3425389E+04  0.7818609E-02  0.8131703E-01
       -2   -1    0    0    0  501  0.00000000000E+00  0.00000000000E+00  0.18085221941E+04  0.18085221941E+04  0.25500000920E-02 0. -1.
        2   -1    0    0  501    0  0.00000000000E+00  0.00000000000E+00 -0.16219445858E+04  0.16219445858E+04  0.25500000920E-02 0.  1.
    10030    2    1    2    0    0  0.00000000000E+00  0.00000000000E+00  0.18657760834E+03  0.34304667800E+04  0.34253891931E+04 0.  0.
        3    1    3    3  502    0  0.38977565998E+03 -0.15009163440E+04  0.82144831007E+03  0.17548368223E+04  0.10100000352E+00 0. -1.
       -3    1    3    3    0  502 -0.38977565998E+03  0.15009163440E+04 -0.63487070173E+03  0.16756299576E+04  0.10100000352E+00 0.  1.
</event>
<event>
 5   0  0.2767014E-06  0.3344822E+04  0.7818609E-02  0.8151583E-01
       -2   -1    0    0    0  501  0.00000000000E+00  0.00000000000E+00  0.15417267711E+04  0.15417267711E+04  0.25500000920E-02 0. -1.
        2   -1    0    0  501    0  0.00000000000E+00  0.00000000000E+00 -0.18141728709E+04  0.18141728709E+04  0.25500000920E-02 0.  1.
    10030    2    1    2    0    0  0.00000000000E+00  0.00000000000E+00 -0.27244609977E+03  0.33558996420E+04  0.33448221971E+04 0.  0.
        1    1    3    3  502    0  0.81850822216E+03  0.58359649948E+03 -0.14772191273E+04  0.17868175435E+04  0.50400001928E-02 0.  1.
       -1    1    3    3    0  502 -0.81850822216E+03 -0.58359649948E+03  0.12047730275E+04  0.15690820985E+04  0.50400001928E-02 0. -1.
</event>
<event>
 5   0  0.2664083E-06  0.3329963E+04  0.7818609E-02  0.8155313E-01
       -2   -1    0    0    0  501  0.00000000000E+00  0.00000000000E+00  0.12108959598E+04  0.12108959598E+04  0.25500000920E-02 0.  1.
        2   -1    0    0  501    0  0.00000000000E+00  0.00000000000E+00 -0.22893489226E+04  0.22893489226E+04  0.25500000920E-02 0. -1.
    10030    2    1    2    0    0  0.00000000000E+00  0.00000000000E+00 -0.10784529628E+04  0.35002448824E+04  0.33299629793E+04 0.  0.
        2    1    3    3  502    0 -0.11829198304E+04 -0.11392105012E+04 -0.82721378486E+03  0.18388535932E+04  0.25500000920E-02 0. -1.
       -2    1    3    3    0  502  0.11829198304E+04  0.11392105012E+04 -0.25123917792E+03  0.16613912892E+04  0.25500000920E-02 0.  1.
</event>
<event>
 5   0  0.1010551E-06  0.3372683E+04  0.7818609E-02  0.8144643E-01
       -1   -1    0    0    0  501  0.00000000000E+00  0.00000000000E+00  0.24246711057E+04  0.24246711057E+04  0.50400001928E-02 0.  1.
        1   -1    0    0  501    0  0.00000000000E+00  0.00000000000E+00 -0.11728386902E+04  0.11728386902E+04  0.50400001928E-02 0. -1.
    10030    2    1    2    0    0  0.00000000000E+00  0.00000000000E+00  0.12518324155E+04  0.35975097959E+04  0.33726832544E+04 0.  0.
        2    1    3    3  502    0  0.13953031033E+04 -0.68493319599E+03 -0.71702817810E+02  0.15560030614E+04  0.25500000920E-02 0. -1.
       -2    1    3    3    0  502 -0.13953031033E+04  0.68493319599E+03  0.13235352334E+04  0.20415067345E+04  0.25500000920E-02 0.  1.
</event>
<event>
 5   0  0.9714317E-07  0.2257432E+04  0.7818609E-02  0.8494897E-01
       -1   -1    0    0    0  501  0.00000000000E+00  0.00000000000E+00  0.12037521278E+04  0.12037521278E+04  0.50400001928E-02 0. -1.
        1   -1    0    0  501    0  0.00000000000E+00  0.00000000000E+00 -0.10583567996E+04  0.10583567996E+04  0.50400001928E-02 0.  1.
    10030    2    1    2    0    0  0.00000000000E+00  0.00000000000E+00  0.14539532818E+03  0.22621089274E+04  0.22574315046E+04 0.  0.
        4    1    3    3  502    0 -0.40042255354E+03 -0.44202050692E+03  0.10329510631E+04  0.11927740195E+04  0.12699999809E+01 0. -1.
       -4    1    3    3    0  502  0.40042255354E+03  0.44202050692E+03 -0.88755573490E+03  0.10693349080E+04  0.12699999809E+01 0.  1.
</event>
<event>
 5   0  0.2906701E-06  0.2793224E+04  0.7818609E-02  0.8305375E-01
       -2   -1    0    0    0  501  0.00000000000E+00  0.00000000000E+00  0.11727567672E+04  0.11727567672E+04  0.25500000920E-02 0.  1.
        2   -1    0    0  501    0  0.00000000000E+00  0.00000000000E+00 -0.16631965908E+04  0.16631965908E+04  0.25500000920E-02 0. -1.
    10030    2    1    2    0    0  0.00000000000E+00  0.00000000000E+00 -0.49043982361E+03  0.28359533580E+04  0.27932239847E+04 0.  0.
        5    1    3    3  502    0 -0.13685113422E+04 -0.12942010359E+03 -0.49583620547E+03  0.14613173815E+04  0.46999998093E+01 0. -1.
       -5    1    3    3    0  502  0.13685113422E+04  0.12942010359E+03  0.53963818605E+01  0.13746359765E+04  0.46999998093E+01 0.  1.
</event>
<event>
 5   0  0.1010551E-06  0.3428973E+04  0.7818609E-02  0.8130832E-01
        1   -1    0    0  501    0  0.00000000000E+00  0.00000000000E+00  0.25520725200E+04  0.25520725200E+04  0.50400001928E-02 0. -1.
       -1   -1    0    0    0  501  0.00000000000E+00  0.00000000000E+00 -0.11517947584E+04  0.11517947584E+04  0.50400001928E-02 0.  1.
    10030    2    1    2    0    0  0.00000000000E+00  0.00000000000E+00  0.14002777616E+04  0.37038672784E+04  0.34289728792E+04 0.  0.
        2    1    3    3  502    0 -0.56725889518E+03  0.14116974647E+04 -0.15366647651E+03  0.15291454385E+04  0.25500000920E-02 0.  1.
       -2    1    3    3    0  502  0.56725889518E+03 -0.14116974647E+04  0.15539442381E+04  0.21747218399E+04  0.25500000920E-02 0. -1.
</event>
<event>
 5   0  0.1003191E-06  0.3284522E+04  0.7818609E-02  0.8166845E-01
       -1   -1    0    0    0  501  0.00000000000E+00  0.00000000000E+00  0.12676905400E+04  0.12676905400E+04  0.50400001928E-02 0.  1.
        1   -1    0    0  501    0  0.00000000000E+00  0.00000000000E+00 -0.21275072960E+04  0.21275072960E+04  0.50400001928E-02 0. -1.
    10030    2    1    2    0    0  0.00000000000E+00  0.00000000000E+00 -0.85981675594E+03  0.33951978360E+04  0.32845218057E+04 0.  0.
        5    1    3    3  502    0  0.47724541248E+03 -0.13940937941E+04 -0.11794187695E+04  0.18874086506E+04  0.46999998093E+01 0. -1.
       -5    1    3    3    0  502 -0.47724541248E+03  0.13940937941E+04  0.31960201356E+03  0.15077891854E+04  0.46999998093E+01 0.  1.
</event>
<event>
 5   0  0.9714317E-07  0.3325967E+04  0.7818609E-02  0.8156319E-01
       -1   -1    0    0    0  501  0.00000000000E+00  0.00000000000E+00  0.13376910369E+04  0.13376910369E+04  0.50400001928E-02 0.  1.
        1   -1    0    0  501    0  0.00000000000E+00  0.00000000000E+00 -0.20673789070E+04  0.20673789070E+04  0.50400001928E-02 0. -1.
    10030    2    1    2    0    0  0.00000000000E+00  0.00000000000E+00 -0.72968787007E+03  0.34050699440E+04  0.33259670677E+04 0.  0.
        4    1    3    3  502    0  0.94859013157E+03 -0.92362628659E+03  0.66537109853E+03  0.14817655235E+04  0.12699999809E+01 0.  1.
       -4    1    3    3    0  502 -0.94859013157E+03  0.92362628659E+03 -0.13950589686E+04  0.19233044205E+04  0.12699999809E+01 0. -1.
</event>
<event>
 5   0  0.9232963E-07  0.3440532E+04  0.7818609E-02  0.8128030E-01
        1   -1    0    0  501    0  0.00000000000E+00  0.00000000000E+00  0.14132036031E+04  0.14132036031E+04  0.50400001928E-02 0. -1.
       -1   -1    0    0    0  501  0.00000000000E+00  0.00000000000E+00 -0.20940470360E+04  0.20940470360E+04  0.50400001928E-02 0.  1.
    10030    2    1    2    0    0  0.00000000000E+00  0.00000000000E+00 -0.68084343288E+03  0.35072506392E+04  0.34405318289E+04 0.  0.
        3    1    3    3  502    0 -0.74844899613E+03  0.15489149151E+04 -0.34166699030E+03  0.17538670578E+04  0.10100000352E+00 0.  1.
       -3    1    3    3    0  502  0.74844899613E+03 -0.15489149151E+04 -0.33917644258E+03  0.17533835814E+04  0.10100000352E+00 0. -1.
</event>
<event>
 5   0  0.1003191E-06  0.3401870E+04  0.7818609E-02  0.8137448E-01
        1   -1    0    0  501    0  0.00000000000E+00  0.00000000000E+00  0.15941364057E+04  0.15941364057E+04  0.50400001928E-02 0. -1.
       -1   -1    0    0    0  501  0.00000000000E+00  0.00000000000E+00 -0.18148880641E+04  0.18148880641E+04  0.50400001928E-02 0.  1.
    10030    2    1    2    0    0  0.00000000000E+00  0.00000000000E+00 -0.22075165838E+03  0.34090244697E+04  0.34018695655E+04 0.  0.
        5    1    3    3  502    0 -0.12600913160E+04  0.11368006287E+04  0.39309502422E+01  0.16971102900E+04  0.46999998093E+01 0. -1.
       -5    1    3    3    0  502  0.12600913160E+04 -0.11368006287E+04 -0.22468260862E+03  0.17119141797E+04  0.46999998093E+01 0.  1.
</event>
<event>
 5   0  0.1010855E-06  0.3372182E+04  0.7818609E-02  0.8144768E-01
       -1   -1    0    0    0  501  0.00000000000E+00  0.00000000000E+00  0.94993699303E+03  0.94993699304E+03  0.50400001928E-02 0. -1.
        1   -1    0    0  501    0  0.00000000000E+00  0.00000000000E+00 -0.29927276613E+04  0.29927276613E+04  0.50400001928E-02 0.  1.
    10030    2    1    2    0    0  0.00000000000E+00  0.00000000000E+00 -0.20427906682E+04  0.39426646543E+04  0.33721819141E+04 0.  0.
        1    1    3    3  502    0  0.84498669839E+03  0.13192860467E+04 -0.17500299531E+04  0.23488556852E+04  0.50400001928E-02 0.  1.
       -1    1    3    3    0  502 -0.84498669839E+03 -0.13192860467E+04 -0.29276071516E+03  0.15938089691E+04  0.50400001928E-02 0. -1.
</event>
<event>
 5   0  0.2767014E-06  0.2838003E+04  0.7818609E-02  0.8291566E-01
       -2   -1    0    0    0  501  0.00000000000E+00  0.00000000000E+00  0.10273289449E+04  0.10273289449E+04  0.25500000920E-02 0.  1.
        2   -1    0    0  501    0  0.00000000000E+00  0.00000000000E+00 -0.19600006420E+04  0.19600006420E+04  0.25500000920E-02 0. -1.
    10030    2    1    2    0    0  0.00000000000E+00  0.00000000000E+00 -0.93267169715E+03  0.29873295869E+04  0.28380030948E+04 0.  0.
        1    1    3    3  502    0 -0.10807311116E+04  0.91667316248E+03 -0.54293835860E+03  0.15175807997E+04  0.50400001928E-02 0. -1.
       -1    1    3    3    0  502  0.10807311116E+04 -0.91667316248E+03 -0.38973333855E+03  0.14697487872E+04  0.50400001928E-02 0.  1.
</event>
<event>
 5   0  0.1010855E-06  0.2959081E+04  0.7818609E-02  0.8255513E-01
        1   -1    0    0  501    0  0.00000000000E+00  0.00000000000E+00  0.16200573740E+04  0.16200573740E+04  0.50400001928E-02 0. -1.
       -1   -1    0    0    0  501  0.00000000000E+00  0.00000000000E+00 -0.13512112110E+04  0.13512112110E+04  0.50400001928E-02 0.  1.
    10030    2    1    2    0    0  0.00000000000E+00  0.00000000000E+00  0.26884616303E+03  0.29712685851E+04  0.29590807264E+04 0.  0.
        1    1    3    3  502    0  0.14650549457E+03 -0.99256145031E+03  0.12262828566E+04  0.15844278895E+04  0.50400001928E-02 0. -1.
       -1    1    3    3    0  502 -0.14650549457E+03  0.99256145031E+03 -0.95743669360E+03  0.13868406956E+04  0.50400001928E-02 0.  1.
</event>
<event>
 5   0  0.2856440E-06  0.3075230E+04  0.7818609E-02  0.8222569E-01
        2   -1    0    0  501    0  0.00000000000E+00  0.00000000000E+00  0.24599911922E+04  0.24599911922E+04  0.25500000920E-02 0. -1.
       -2   -1    0    0    0  501  0.00000000000E+00  0.00000000000E+00 -0.96108461107E+03  0.96108461107E+03  0.25500000920E-02 0.  1.
    10030    2    1    2    0    0  0.00000000000E+00  0.00000000000E+00  0.14989065811E+04  0.34210758032E+04  0.30752298634E+04 0.  0.
        4    1    3    3  502    0  0.14865692533E+04  0.37842646923E+03  0.86699228062E+03  0.17620363120E+04  0.12699999809E+01 0. -1.
       -4    1    3    3    0  502 -0.14865692533E+04 -0.37842646923E+03  0.63191430047E+03  0.16590394912E+04  0.12699999809E+01 0.  1.
</event>
<event>
 5   0  0.2906701E-06  0.3361097E+04  0.7818609E-02  0.8147521E-01
       -2   -1    0    0    0  501  0.00000000000E+00  0.00000000000E+00  0.15031553897E+04  0.15031553897E+04  0.25500000920E-02 0. -1.
        2   -1    0    0  501    0  0.00000000000E+00  0.00000000000E+00 -0.18788761749E+04  0.18788761749E+04  0.25500000920E-02 0.  1.
    10030    2    1    2    0    0  0.00000000000E+00  0.00000000000E+00 -0.37572078513E+03  0.33820315646E+04  0.33610967549E+04 0.  0.
        5    1    3    3  502    0 -0.78668251215E+03 -0.14207806114E+04 -0.62267903318E+03  0.17393211863E+04  0.46999998093E+01 0.  1.
       -5    1    3    3    0  502  0.78668251215E+03  0.14207806114E+04  0.24695824805E+03  0.16427103783E+04  0.46999998093E+01 0. -1.
</event>
<event>
 5   0  0.1010551E-06  0.3434873E+04  0.7818609E-02  0.8129400E-01
        1   -1    0    0  501    0  0.00000000000E+00  0.00000000000E+00  0.22603253126E+04  0.22603253126E+04  0.50400001928E-02 0. -1.
       -1   -1    0    0    0  501  0.00000000000E+00  0.00000000000E+00 -0.13049393870E+04  0.13049393870E+04  0.50400001928E-02 0.  1.
    10030    2    1    2    0    0  0.00000000000E+00  0.00000000000E+00  0.95538592555E+03  0.35652646996E+04  0.34348726485E+04 0.  0.
        2    1    3    3  502    0 -0.14342003777E+04  0.40081202990E+03 -0.41035948234E+03  0.15446604519E+04  0.25500000920E-02 0.  1.
       -2    1    3    3    0  502  0.14342003777E+04 -0.40081202990E+03  0.13657454079E+04  0.20206042477E+04  0.25500000920E-02 0. -1.
</event>
<event>
 5   0  0.1010855E-06  0.3408884E+04  0.7818609E-02  0.8135729E-01
       -1   -1    0    0    0  501  0.00000000000E+00  0.00000000000E+00  0.18449945443E+04  0.18449945443E+04  0.50400001928E-02 0.  1.
        1   -1    0    0  501    0  0.00000000000E+00  0.00000000000E+00 -0.15745967076E+04  0.15745967076E+04  0.50400001928E-02 0. -1.
    10030    2    1    2    0    0  0.00000000000E+00  0.00000000000E+00  0.27039783669E+03  0.34195912519E+04  0.34088838848E+04 0.  0.
        1    1    3    3  502    0 -0.34397279723E+03 -0.62187461714E+02 -0.15382549183E+04  0.15774703672E+04  0.50400001928E-02 0. -1.
       -1    1    3    3    0  502  0.34397279723E+03  0.62187461714E+02  0.18086527550E+04  0.18421208847E+04  0.50400001928E-02 0.  1.
</event>
<event>
 5   0  0.2664083E-06  0.3482000E+04  0.7818609E-02  0.8118069E-01
       -2   -1    0    0    0  501  0.00000000000E+00  0.00000000000E+00  0.11250012813E+04  0.11250012813E+04  0.25500000920E-02 0.  1.
        2   -1    0    0  501    0  0.00000000000E+00  0.00000000000E+00 -0.26942905173E+04  0.26942905173E+04  0.25500000920E-02 0. -1.
    10030    2    1    2    0    0  0.00000000000E+00  0.00000000000E+00 -0.15692892360E+04  0.38192917986E+04  0.34819995889E+04 0.  0.
        2    1    3    3  502    0  0.61172585735E+03 -0.10018287845E+04 -0.21949665111E+04  0.24891258351E+04  0.25500000920E-02 0. -1.
       -2    1    3    3    0  502 -0.61172585735E+03  0.10018287845E+04  0.62567727512E+03  0.13301659635E+04  0.25500000920E-02 0.  1.
</event>
<event>
 5   0  0.9232963E-07  0.3114573E+04  0.7818609E-02  0.8211750E-01
        1   -1    0    0  501    0  0.00000000000E+00  0.00000000000E+00  0.19748939475E+04  0.19748939475E+04  0.50400001928E-02 0.  1.
       -1   -1    0    0    0  501  0.00000000000E+00  0.00000000000E+00 -0.12279852134E+04  0.12279852134E+04  0.50400001928E-02 0. -1.
    10030    2    1    2    0    0  0.00000000000E+00  0.00000000000E+00  0.74690873414E+03  0.32028791610E+04  0.31145725650E+04 0.  0.
        3    1    3    3  502    0 -0.11214789535E+04 -0.10735648639E+04  0.49891337826E+03  0.16306965167E+04  0.10100000352E+00 0. -1.
       -3    1    3    3    0  502  0.11214789535E+04  0.10735648639E+04  0.24799535588E+03  0.15721826443E+04  0.10100000352E+00 0.  1.
</event>
<event>
 5   0  0.9232963E-07  0.3304266E+04  0.7818609E-02  0.8161811E-01
        1   -1    0    0  501    0  0.00000000000E+00  0.00000000000E+00  0.22063137941E+04  0.22063137941E+04  0.50400001928E-02 0. -1.
       -1   -1    0    0    0  501  0.00000000000E+00  0.00000000000E+00 -0.12371508686E+04  0.12371508686E+04  0.50400001928E-02 0.  1.
    10030    2    1    2    0    0  0.00000000000E+00  0.00000000000E+00  0.96916292549E+03  0.34434646628E+04  0.33042657441E+04 0.  0.
        3    1    3    3  502    0  0.11561057361E+04  0.11505267740E+04  0.75882266384E+03  0.17989175012E+04  0.10100000352E+00 0. -1.
       -3    1    3    3    0  502 -0.11561057361E+04 -0.11505267740E+04  0.21034026165E+03  0.16445471616E+04  0.10100000352E+00 0.  1.
</event>
<event>
 5   0  0.2664083E-06  0.2954074E+04  0.7818609E-02  0.8256968E-01
        2   -1    0    0  501    0  0.00000000000E+00  0.00000000000E+00  0.21243451661E+04  0.21243451661E+04  0.25500000920E-02 0. -1.
       -2   -1    0    0    0  501  0.00000000000E+00  0.00000000000E+00 -0.10269698065E+04  0.10269698065E+04  0.25500000920E-02 0.  1.
    10030    2    1    2    0    0  0.00000000000E+00  0.00000000000E+00  0.10973753596E+04  0.31513149727E+04  0.29540740304E+04 0.  0.
        2    1    3    3  502    0  0.92038511808E+03 -0.74192222140E+01 -0.68363824056E+03  0.11465273893E+04  0.25500000920E-02 0.  1.
       -2    1    3    3    0  502 -0.92038511808E+03  0.74192222140E+01  0.17810136002E+04  0.20047875834E+04  0.25500000920E-02 0. -1.
</event>
<event>
 5   0  0.1003191E-06  0.3333154E+04  0.7818609E-02  0.8154510E-01
        1   -1    0    0  501    0  0.00000000000E+00  0.00000000000E+00  0.22253203690E+04  0.22253203690E+04  0.50400001928E-02 0.  1.
       -1   -1    0    0    0  501  0.00000000000E+00  0.00000000000E+00 -0.12481251070E+04  0.12481251070E+04  0.50400001928E-02 0. -1.
    10030    2    1    2    0    0  0.00000000000E+00  0.00000000000E+00  0.97719526194E+03  0.34734454760E+04  0.33331535961E+04 0.  0.
        5    1    3    3  502    0 -0.95529005964E+03  0.61167037051E+03  0.17609446775E+04  0.20946761057E+04  0.46999998093E+01 0.  1.
       -5    1    3    3    0  502  0.95529005964E+03 -0.61167037051E+03 -0.78374941561E+03  0.13787693704E+04  0.46999998093E+01 0. -1.
</event>
<event>
 5   0  0.2848685E-06  0.2806470E+04  0.7818609E-02  0.8301263E-01
       -2   -1    0    0    0  501  0.00000000000E+00  0.00000000000E+00  0.69230346369E+03  0.69230346369E+03  0.25500000920E-02 0. -1.
        2   -1    0    0  501    0  0.00000000000E+00  0.00000000000E+00 -0.28442266763E+04  0.28442266763E+04  0.25500000920E-02 0.  1.
    10030    2    1    2    0    0  0.00000000000E+00  0.00000000000E+00 -0.21519232127E+04  0.35365301400E+04  0.28064696539E+04 0.  0.
        3    1    3    3  502    0  0.11592200715E+04 -0.49165459890E+03 -0.18563835112E+04  0.22431395787E+04  0.10100000352E+00 0.  1.
       -3    1    3    3    0  502 -0.11592200715E+04  0.49165459890E+03 -0.29553970141E+03  0.12933905613E+04  0.10100000352E+00 0. -1.
</event>
<event>
 5   0  0.2848685E-06  0.3511105E+04  0.7818609E-02  0.8111163E-01
       -2   -1    0    0    0  501  0.00000000000E+00  0.00000000000E+00  0.16347721183E+04  0.16347721183E+04  0.25500000920E-02 0.  1.
        2   -1    0    0  501    0  0.00000000000E+00  0.00000000000E+00 -0.18852568653E+04  0.18852568653E+04  0.25500000920E-02 0. -1.
    10030    2    1    2    0    0  0.00000000000E+00  0.00000000000E+00 -0.25048474707E+03  0.35200289836E+04  0.35111054437E+04 0.  0.
        3    1    3    3  502    0  0.15807500325E+04  0.74840429728E+03 -0.27756829382E+03  0.17708539820E+04  0.10100000352E+00 0.  1.
       -3    1    3    3    0  502 -0.15807500325E+04 -0.74840429728E+03  0.27083546752E+02  0.17491750016E+04  0.10100000352E+00 0. -1.
</event>
<event>
 5   0  0.2664083E-06  0.3333221E+04  0.7818609E-02  0.8154493E-01
       -2   -1    0    0    0  501  0.00000000000E+00  0.00000000000E+00  0.16021578056E+04  0.16021578056E+04  0.25500000920E-02 0.  1.
        2   -1    0    0  501    0  0.00000000000E+00  0.00000000000E+00 -0.17336556902E+04  0.17336556902E+04  0.25500000920E-02 0. -1.
    10030    2    1    2    0    0  0.00000000000E+00  0.00000000000E+00 -0.13149788462E+03  0.33358134958E+04  0.33332206625E+04 0.  0.
        2    1    3    3  502    0 -0.81717499583E+03  0.51296370854E+02 -0.15184922907E+04  0.17251739415E+04  0.25500000920E-02 0. -1.
       -2    1    3    3    0  502  0.81717499583E+03 -0.51296370854E+02  0.13869944061E+04  0.16106395543E+04  0.25500000920E-02 0.  1.
</event>
<event>
 5   0  0.9714317E-07  0.3336945E+04  0.7818609E-02  0.8153558E-01
        1   -1    0    0  501    0  0.00000000000E+00  0.00000000000E+00  0.22897808914E+04  0.22897808914E+04  0.50400001928E-02 0.  1.
       -1   -1    0    0    0  501  0.00000000000E+00  0.00000000000E+00 -0.12157493776E+04  0.12157493777E+04  0.50400001928E-02 0. -1.
    10030    2    1    2    0    0  0.00000000000E+00  0.00000000000E+00  0.10740315138E+04  0.35055302691E+04  0.33369445268E+04 0.  0.
        4    1    3    3  502    0  0.60034813898E+02 -0.19439406661E+03  0.22767003547E+04  0.22857732499E+04  0.12699999809E+01 0.  1.
       -4    1    3    3    0  502 -0.60034813898E+02  0.19439406661E+03 -0.12026688409E+04  0.12197570192E+04  0.12699999809E+01 0. -1.
</event>
<event>
 5   0  0.2767014E-06  0.3386157E+04  0.7818609E-02  0.8141312E-01
       -2   -1    0    0    0  501  0.00000000000E+00  0.00000000000E+00  0.24640144783E+04  0.24640144783E+04  0.25500000920E-02 0. -1.
        2   -1    0    0  501    0  0.00000000000E+00  0.00000000000E+00 -0.11633516665E+04  0.11633516665E+04  0.25500000920E-02 0.  1.
    10030    2    1    2    0    0  0.00000000000E+00  0.00000000000E+00  0.13006628117E+04  0.36273661448E+04  0.33861573204E+04 0.  0.
        1    1    3    3  502    0 -0.12806721862E+04 -0.39108923454E+03  0.17602057721E+04  0.22116501527E+04  0.50400001928E-02 0. -1.
       -1    1    3    3    0  502  0.12806721862E+04  0.39108923454E+03 -0.45954296035E+03  0.14157159921E+04  0.50400001928E-02 0.  1.
</event>
<event>
 5   0  0.2664083E-06  0.3498686E+04  0.7818609E-02  0.8114101E-01
        2   -1    0    0  501    0  0.00000000000E+00  0.00000000000E+00  0.21477393285E+04  0.21477393285E+04  0.25500000920E-02 0. -1.
       -2   -1    0    0    0  501  0.00000000000E+00  0.00000000000E+00 -0.14248477326E+04  0.14248477327E+04  0.25500000920E-02 0.  1.
    10030    2    1    2    0    0  0.00000000000E+00  0.00000000000E+00  0.72289159587E+03  0.35725870612E+04  0.34986863321E+04 0.  0.
        2    1    3    3  502    0  0.84605675155E+03  0.37808502498E+03 -0.11536195232E+04  0.14797291365E+04  0.25500000920E-02 0.  1.
       -2    1    3    3    0  502 -0.84605675155E+03 -0.37808502498E+03  0.18765111191E+04  0.20928579247E+04  0.25500000920E-02 0. -1.
</event>
<event>
 5   0  0.2767014E-06  0.3398749E+04  0.7818609E-02  0.8138213E-01
       -2   -1    0    0    0  501  0.00000000000E+00  0.00000000000E+00  0.13620295089E+04  0.13620295089E+04  0.25500000920E-02 0.  1.
        2   -1    0    0  501    0  0.00000000000E+00  0.00000000000E+00 -0.21202728404E+04  0.21202728404E+04  0.25500000920E-02 0. -1.
    10030    2    1    2    0    0  0.00000000000E+00  0.00000000000E+00 -0.75824333150E+03  0.34823023493E+04  0.33987492850E+04 0.  0.
        1    1    3    3  502    0 -0.20787325547E+03 -0.62723526791E+03  0.12250105400E+04  0.13918642875E+04  0.50400001928E-02 0.  1.
       -1    1    3    3    0  502  0.20787325547E+03  0.62723526791E+03 -0.19832538715E+04  0.20904380618E+04  0.50400001928E-02 0. -1.
</event>
<event>
 5   0  0.2848685E-06  0.3391655E+04  0.7818609E-02  0.8139958E-01
        2   -1    0    0  501    0  0.00000000000E+00  0.00000000000E+00  0.27319727929E+04  0.27319727929E+04  0.25500000920E-02 0.  1.
       -2   -1    0    0    0  501  0.00000000000E+00  0.00000000000E+00 -0.10526570883E+04  0.10526570883E+04  0.25500000920E-02 0. -1.
    10030    2    1    2    0    0  0.00000000000E+00  0.00000000000E+00  0.16793157046E+04  0.37846298813E+04  0.33916547735E+04 0.  0.
        3    1    3    3  502    0  0.90575031948E+03  0.12522584926E+03 -0.75402492711E+03  0.11851661299E+04  0.10100000352E+00 0. -1.
       -3    1    3    3    0  502 -0.90575031948E+03 -0.12522584926E+03  0.24333406317E+04  0.25994637514E+04  0.10100000352E+00 0.  1.
</event>
<event>
 5   0  0.1010551E-06  0.3603240E+04  0.7818609E-02  0.8089750E-01
       -1   -1    0    0    0  501  0.00000000000E+00  0.00000000000E+00  0.14759124782E+04  0.14759124783E+04  0.50400001928E-02 0.  1.
        1   -1    0    0  501    0  0.00000000000E+00  0.00000000000E+00 -0.21992052580E+04  0.21992052580E+04  0.50400001928E-02 0. -1.
    10030    2    1    2    0    0  0.00000000000E+00  0.00000000000E+00 -0.72329277979E+03  0.36751177363E+04  0.36032399213E+04 0.  0.
        2    1    3    3  502    0 -0.34157875003E+03  0.29554809029E+03  0.14172231604E+04  0.14874630088E+04  0.25500000920E-02 0.  1.
       -2    1    3    3    0  502  0.34157875003E+03 -0.29554809029E+03 -0.21405159402E+04  0.21876547275E+04  0.25500000920E-02 0. -1.
</event>
<event>
 5   0  0.2767014E-06  0.3396976E+04  0.7818609E-02  0.8138649E-01
       -2   -1    0    0    0  501  0.00000000000E+00  0.00000000000E+00  0.13688859514E+04  0.13688859514E+04  0.25500000920E-02 0.  1.
        2   -1    0    0  501    0  0.00000000000E+00  0.00000000000E+00 -0.21074515519E+04  0.21074515519E+04  0.25500000920E-02 0. -1.
    10030    2    1    2    0    0  0.00000000000E+00  0.00000000000E+00 -0.73856560047E+03  0.34763375033E+04  0.33969756093E+04 0.  0.
        1    1    3    3  502    0 -0.10780683240E+04 -0.12252402893E+04 -0.85082433792E+03  0.18404747028E+04  0.50400001928E-02 0. -1.
       -1    1    3    3    0  502  0.10780683240E+04  0.12252402893E+04  0.11225873745E+03  0.16358628004E+04  0.50400001928E-02 0.  1.
</event>
<event>
 5   0  0.2856440E-06  0.3431748E+04  0.7818609E-02  0.8130158E-01
        2   -1    0    0  501    0  0.00000000000E+00  0.00000000000E+00  0.13744851862E+04  0.13744851862E+04  0.25500000920E-02 0.  1.
       -2   -1    0    0    0  501  0.00000000000E+00  0.00000000000E+00 -0.21420555557E+04  0.21420555557E+04  0.25500000920E-02 0. -1.
    10030    2    1    2    0    0  0.00000000000E+00  0.00000000000E+00 -0.76757036952E+03  0.35165407420E+04  0.34317480266E+04 0.  0.
        4    1    3    3  502    0  0.22476638195E+03 -0.17006366438E+04 -0.34361066269E+03  0.17495013064E+04  0.12699999809E+01 0. -1.
       -4    1    3    3    0  502 -0.22476638195E+03  0.17006366438E+04 -0.42395970683E+03  0.17670394355E+04  0.12699999809E+01 0.  1.
</event>
<event>
 5   0  0.1010855E-06  0.3448759E+04  0.7818609E-02  0.8126042E-01
       -1   -1    0    0    0  501  0.00000000000E+00  0.00000000000E+00  0.11941266451E+04  0.11941266451E+04  0.50400001928E-02 0.  1.
        1   -1    0    0  501    0  0.00000000000E+00  0.00000000000E+00 -0.24900912402E+04  0.24900912402E+04  0.50400001928E-02 0. -1.
    10030    2    1    2    0    0  0.00000000000E+00  0.00000000000E+00 -0.12959645951E+04  0.36842178853E+04  0.34487587905E+04 0.  0.
        1    1    3    3  502    0 -0.26690479701E+03 -0.13595537735E+04  0.44868243550E+03  0.14563449323E+04  0.50400001928E-02 0. -1.
       -1    1    3    3    0  502  0.26690479701E+03  0.13595537735E+04 -0.17446470306E+04  0.22278729531E+04  0.50400001928E-02 0.  1.
</event>
<event>
 5   0  0.1010551E-06  0.3382944E+04  0.7818609E-02  0.8142105E-01
       -1   -1    0    0    0  501  0.00000000000E+00  0.00000000000E+00  0.25150331186E+04  0.25150331186E+04  0.50400001928E-02 0. -1.
        1   -1    0    0  501    0  0.00000000000E+00  0.00000000000E+00 -0.11375907205E+04  0.11375907205E+04  0.50400001928E-02 0.  1.
    10030    2    1    2    0    0  0.00000000000E+00  0.00000000000E+00  0.13774423981E+04  0.36526238391E+04  0.33829444793E+04 0.  0.
        2    1    3    3  502    0  0.82152289092E+03  0.12270621671E+03  0.22796551841E+04  0.24262696541E+04  0.25500000920E-02 0. -1.
       -2    1    3    3    0  502 -0.82152289092E+03 -0.12270621671E+03 -0.90221278598E+03  0.12263541850E+04  0.25500000920E-02 0.  1.
</event>
<event>
 5   0  0.1003191E-06  0.3430380E+04  0.7818609E-02  0.8130490E-01
       -1   -1    0    0    0  501  0.00000000000E+00  0.00000000000E+00  0.16354795266E+04  0.16354795266E+04  0.50400001928E-02 0. -1.
        1   -1    0    0  501    0  0.00000000000E+00  0.00000000000E+00 -0.17987856269E+04  0.17987856269E+04  0.50400001928E-02 0.  1.
    10030    2    1    2    0    0  0.00000000000E+00  0.00000000000E+00 -0.16330610032E+03  0.34342651535E+04  0.34303801921E+04 0.  0.
        5    1    3    3  502    0  0.54032322175E+03 -0.14874903827E+04 -0.74367205515E+03  0.17486128898E+04  0.46999998093E+01 0.  1.
       -5    1    3    3    0  502 -0.54032322175E+03  0.14874903827E+04  0.58036595483E+03  0.16856522637E+04  0.46999998093E+01 0. -1.
</event>
<event>
 5   0  0.9232963E-07  0.3440491E+04  0.7818609E-02  0.8128039E-01
       -1   -1    0    0    0  501  0.00000000000E+00  0.00000000000E+00  0.16849883141E+04  0.16849883141E+04  0.50400001928E-02 0.  1.
        1   -1    0    0  501    0  0.00000000000E+00  0.00000000000E+00 -0.17562407749E+04  0.17562407749E+04  0.50400001928E-02 0. -1.
    10030    2    1    2    0    0  0.00000000000E+00  0.00000000000E+00 -0.71252460764E+02  0.34412290890E+04  0.34404913500E+04 0.  0.
        3    1    3    3  502    0 -0.85259635964E+03  0.14618047549E+04  0.27339224426E+03  0.17142161542E+04  0.10100000352E+00 0.  1.
       -3    1    3    3    0  502  0.85259635964E+03 -0.14618047549E+04 -0.34464470502E+03  0.17270129348E+04  0.10100000352E+00 0. -1.
</event>
<event>
 5   0  0.2856440E-06  0.2442939E+04  0.7818609E-02  0.8423601E-01
       -2   -1    0    0    0  501  0.00000000000E+00  0.00000000000E+00  0.96356924415E+03  0.96356924416E+03  0.25500000920E-02 0. -1.
        2   -1    0    0  501    0  0.00000000000E+00  0.00000000000E+00 -0.15483971690E+04  0.15483971690E+04  0.25500000920E-02 0.  1.
    10030    2    1    2    0    0  0.00000000000E+00  0.00000000000E+00 -0.58482792481E+03  0.25119664131E+04  0.24429391231E+04 0.  0.
        4    1    3    3  502    0  0.11006770961E+04 -0.28618670665E+03  0.16581608412E+03  0.11492995639E+04  0.12699999809E+01 0. -1.
       -4    1    3    3    0  502 -0.11006770961E+04  0.28618670665E+03 -0.75064400894E+03  0.13626668492E+04  0.12699999809E+01 0.  1.
</event>
<event>
 5   0  0.1010855E-06  0.3427969E+04  0.7818609E-02  0.8131076E-01
       -1   -1    0    0    0  501  0.00000000000E+00  0.00000000000E+00  0.13560595321E+04  0.13560595321E+04  0.50400001928E-02 0. -1.
        1   -1    0    0  501    0  0.00000000000E+00  0.00000000000E+00 -0.21663821578E+04  0.21663821579E+04  0.50400001928E-02 0.  1.
    10030    2    1    2    0    0  0.00000000000E+00  0.00000000000E+00 -0.81032262573E+03  0.35224416900E+04  0.34279691804E+04 0.  0.
        1    1    3    3  502    0 -0.16927398915E+04  0.18552101182E+03 -0.20496704503E+03  0.17151670110E+04  0.50400001928E-02 0.  1.
       -1    1    3    3    0  502  0.16927398915E+04 -0.18552101182E+03 -0.60535558070E+03  0.18072746790E+04  0.50400001928E-02 0. -1.
</event>
<event>
 5   0  0.2906701E-06  0.3437300E+04  0.7818609E-02  0.8128812E-01
        2   -1    0    0  501    0  0.00000000000E+00  0.00000000000E+00  0.19510019776E+04  0.19510019776E+04  0.25500000920E-02 0. -1.
       -2   -1    0    0    0  501  0.00000000000E+00  0.00000000000E+00 -0.15139697639E+04  0.15139697639E+04  0.25500000920E-02 0.  1.
    10030    2    1    2    0    0  0.00000000000E+00  0.00000000000E+00  0.43703221372E+03  0.34649717415E+04  0.34373001053E+04 0.  0.
        5    1    3    3  502    0 -0.13028338075E+03 -0.89854839227E+03  0.16895006566E+04  0.19180191686E+04  0.46999998093E+01 0. -1.
       -5    1    3    3    0  502  0.13028338075E+03  0.89854839227E+03 -0.12524684429E+04  0.15469525729E+04  0.46999998093E+01 0.  1.
</event>
<event>
 5   0  0.2906701E-06  0.3472870E+04  0.7818609E-02  0.8120250E-01
        2   -1    0    0  501    0  0.00000000000E+00  0.00000000000E+00  0.20210687688E+04  0.20210687688E+04  0.25500000920E-02 0. -1.
       -2   -1    0    0    0  501  0.00000000000E+00  0.00000000000E+00 -0.14918872479E+04  0.14918872479E+04  0.25500000920E-02 0.  1.
    10030    2    1    2    0    0  0.00000000000E+00  0.00000000000E+00  0.52918152084E+03  0.35129560167E+04  0.34728701233E+04 0.  0.
        5    1    3    3  502    0  0.46771211815E+02 -0.70735181026E+03  0.18680215271E+04  0.19980141755E+04  0.46999998093E+01 0. -1.
       -5    1    3    3    0  502 -0.46771211815E+02  0.70735181026E+03 -0.13388400063E+04  0.15149418412E+04  0.46999998093E+01 0.  1.
</event>
<event>
 5   0  0.2906701E-06  0.2175075E+04  0.7818609E-02  0.8528875E-01
        2   -1    0    0  501    0  0.00000000000E+00  0.00000000000E+00  0.73629120646E+03  0.73629120646E+03  0.25500000920E-02 0.  1.
       -2   -1    0    0    0  501  0.00000000000E+00  0.00000000000E+00 -0.16063452149E+04  0.16063452149E+04  0.25500000920E-02 0. -1.
    10030    2    1    2    0    0  0.00000000000E+00  0.00000000000E+00 -0.87005400848E+03  0.23426364214E+04  0.21750750390E+04 0.  0.
        5    1    3    3  502    0  0.14195903699E+03 -0.90298162606E+03 -0.10696455180E+04  0.14070152129E+04  0.46999998093E+01 0. -1.
       -5    1    3    3    0  502 -0.14195903699E+03  0.90298162606E+03  0.19959150948E+03  0.93562120852E+03  0.46999998093E+01 0.  1.
</event>
<event>
 5   0  0.2664083E-06  0.3401364E+04  0.7818609E-02  0.8137572E-01
       -2   -1    0    0    0  501  0.00000000000E+00  0.00000000000E+00  0.24082340112E+04  0.24082340112E+04  0.25500000920E-02 0.  1.
        2   -1    0    0  501    0  0.00000000000E+00  0.00000000000E+00 -0.12010128030E+04  0.12010128030E+04  0.25500000920E-02 0. -1.
    10030    2    1    2    0    0  0.00000000000E+00  0.00000000000E+00  0.12072212082E+04  0.36092468142E+04  0.34013643616E+04 0.  0.
        2    1    3    3  502    0 -0.87940482979E+03 -0.14077756740E+04  0.99656040147E+03  0.19360572917E+04  0.25500000920E-02 0.  1.
       -2    1    3    3    0  502  0.87940482979E+03  0.14077756740E+04  0.21066080677E+03  0.16731895225E+04  0.25500000920E-02 0. -1.
</event>
<event>
 5   0  0.9714317E-07  0.3202710E+04  0.7818609E-02  0.8188102E-01
        1   -1    0    0  501    0  0.00000000000E+00  0.00000000000E+00  0.13450040343E+04  0.13450040343E+04  0.50400001928E-02 0. -1.
       -1   -1    0    0    0  501  0.00000000000E+00  0.00000000000E+00 -0.19065651381E+04  0.19065651381E+04  0.50400001928E-02 0.  1.
    10030    2    1    2    0    0  0.00000000000E+00  0.00000000000E+00 -0.56156110376E+03  0.32515691724E+04  0.32027099790E+04 0.  0.
        4    1    3    3  502    0  0.37125562441E+03  0.12904204383E+04  0.60506734584E+03  0.14727945384E+04  0.12699999809E+01 0. -1.
       -4    1    3    3    0  502 -0.37125562441E+03 -0.12904204383E+04 -0.11666284496E+04  0.17787746340E+04  0.12699999809E+01 0.  1.
</event>
<event>
 5   0  0.2767014E-06  0.3408783E+04  0.7818609E-02  0.8135754E-01
        2   -1    0    0  501    0  0.00000000000E+00  0.00000000000E+00  0.23659580372E+04  0.23659580372E+04  0.25500000920E-02 0.  1.
       -2   -1    0    0    0  501  0.00000000000E+00  0.00000000000E+00 -0.12278117539E+04  0.12278117539E+04  0.25500000920E-02 0. -1.
    10030    2    1    2    0    0  0.00000000000E+00  0.00000000000E+00  0.11381462833E+04  0.35937697910E+04  0.34087834118E+04 0.  0.
        1    1    3    3  502    0 -0.29994374208E+03 -0.11869700434E+04  0.18192082026E+04  0.21928024573E+04  0.50400001928E-02 0.  1.
       -1    1    3    3    0  502  0.29994374208E+03  0.11869700434E+04 -0.68106191928E+03  0.14009673338E+04  0.50400001928E-02 0. -1.
</event>
<event>
 5   0  0.2906701E-06  0.2953279E+04  0.7818609E-02  0.8257200E-01
        2   -1    0    0  501    0  0.00000000000E+00  0.00000000000E+00  0.77618627837E+03  0.77618627838E+03  0.25500000920E-02 0. -1.
       -2   -1    0    0    0  501  0.00000000000E+00  0.00000000000E+00 -0.28092019804E+04  0.28092019804E+04  0.25500000920E-02 0.  1.
    10030    2    1    2    0    0  0.00000000000E+00  0.00000000000E+00 -0.20330157020E+04  0.35853882588E+04  0.29532788763E+04 0.  0.
        5    1    3    3  502    0 -0.33224388578E+03  0.13338599998E+04 -0.16712703048E+04  0.21639628048E+04  0.46999998093E+01 0. -1.
       -5    1    3    3    0  502  0.33224388578E+03 -0.13338599998E+04 -0.36174539721E+03  0.14214254540E+04  0.46999998093E+01 0.  1.
</event>
<event>
 5   0  0.2856440E-06  0.3391533E+04  0.7818609E-02  0.8139988E-01
       -2   -1    0    0    0  501  0.00000000000E+00  0.00000000000E+00  0.98814448700E+03  0.98814448701E+03  0.25500000920E-02 0.  1.
        2   -1    0    0  501    0  0.00000000000E+00  0.00000000000E+00 -0.29101245619E+04  0.29101245619E+04  0.25500000920E-02 0. -1.
    10030    2    1    2    0    0  0.00000000000E+00  0.00000000000E+00 -0.19219800749E+04  0.38982690489E+04  0.33915327169E+04 0.  0.
        4    1    3    3  502    0 -0.85903121072E+03 -0.77351863624E+03 -0.23870748849E+04  0.26522431677E+04  0.12699999809E+01 0. -1.
       -4    1    3    3    0  502  0.85903121072E+03  0.77351863624E+03  0.46509480996E+03  0.12460258813E+04  0.12699999809E+01 0.  1.
</event>
<event>
 5   0  0.2848685E-06  0.3113717E+04  0.7818609E-02  0.8211983E-01
       -2   -1    0    0    0  501  0.00000000000E+00  0.00000000000E+00  0.12564481473E+04  0.12564481473E+04  0.25500000920E-02 0. -1.
        2   -1    0    0  501    0  0.00000000000E+00  0.00000000000E+00 -0.19290960386E+04  0.19290960386E+04  0.25500000920E-02 0.  1.
    10030    2    1    2    0    0  0.00000000000E+00  0.00000000000E+00 -0.67264789135E+03  0.31855441859E+04  0.31137174847E+04 0.  0.
        3    1    3    3  502    0  0.72731775396E+03 -0.55821340557E+03  0.95096039831E+03  0.13209538261E+04  0.10100000352E+00 0. -1.
       -3    1    3    3    0  502 -0.72731775396E+03  0.55821340557E+03 -0.16236082897E+04  0.18645903598E+04  0.10100000352E+00 0.  1.
</event>
<event>
 5   0  0.2906701E-06  0.3330721E+04  0.7818609E-02  0.8155122E-01
        2   -1    0    0  501    0  0.00000000000E+00  0.00000000000E+00  0.22958724631E+04  0.22958724631E+04  0.25500000920E-02 0. -1.
       -2   -1    0    0    0  501  0.00000000000E+00  0.00000000000E+00 -0.12080053080E+04  0.12080053080E+04  0.25500000920E-02 0.  1.
    10030    2    1    2    0    0  0.00000000000E+00  0.00000000000E+00  0.10878671551E+04  0.35038777711E+04  0.33307213164E+04 0.  0.
        5    1    3    3  502    0  0.85475295980E+03 -0.40332452867E+03  0.19863965567E+04  0.21997878689E+04  0.46999998093E+01 0. -1.
       -5    1    3    3    0  502 -0.85475295980E+03  0.40332452867E+03 -0.89852940153E+03  0.13040899022E+04  0.46999998093E+01 0.  1.
</event>
<event>
 5   0  0.9714317E-07  0.3396333E+04  0.7818609E-02  0.8138807E-01
       -1   -1    0    0    0  501  0.00000000000E+00  0.00000000000E+00  0.17433211173E+04  0.17433211173E+04  0.50400001928E-02 0. -1.
        1   -1    0    0  501    0  0.00000000000E+00  0.00000000000E+00 -0.16541810968E+04  0.16541810968E+04  0.50400001928E-02 0.  1.
    10030    2    1    2    0    0  0.00000000000E+00  0.00000000000E+00  0.89140020494E+02  0.33975022141E+04  0.33963326327E+04 0.  0.
        4    1    3    3  502    0 -0.83593828916E+03 -0.13948176102E+03 -0.14275070799E+04  0.16601283266E+04  0.12699999809E+01 0.  1.
       -4    1    3    3    0  502  0.83593828916E+03  0.13948176102E+03  0.15166471004E+04  0.17373738875E+04  0.12699999809E+01 0. -1.
</event>
<event>
 5   0  0.9232963E-07  0.2230352E+04  0.7818609E-02  0.8505900E-01
       -1   -1    0    0    0  501  0.00000000000E+00  0.00000000000E+00  0.85084223331E+03  0.85084223332E+03  0.50400001928E-02 0. -1.
        1   -1    0    0  501    0  0.00000000000E+00  0.00000000000E+00 -0.14616309856E+04  0.14616309856E+04  0.50400001928E-02 0.  1.
    10030    2    1    2    0    0  0.00000000000E+00  0.00000000000E+00 -0.61078875231E+03  0.23124732190E+04  0.22303518755E+04 0.  0.
        3    1    3    3  502    0  0.26713776242E+03  0.10592937913E+04 -0.53758519139E+03  0.12175646876E+04  0.10100000352E+00 0.  1.
       -3    1    3    3    0  502 -0.26713776242E+03 -0.10592937913E+04 -0.73203560924E+02  0.10949085313E+04  0.10100000352E+00 0. -1.
</event>
<event>
 5   0  0.1003191E-06  0.3442284E+04  0.7818609E-02  0.8127606E-01
       -1   -1    0    0    0  501  0.00000000000E+00  0.00000000000E+00  0.13591695983E+04  0.13591695983E+04  0.50400001928E-02 0.  1.
        1   -1    0    0  501    0  0.00000000000E+00  0.00000000000E+00 -0.21795150785E+04  0.21795150785E+04  0.50400001928E-02 0. -1.
    10030    2    1    2    0    0  0.00000000000E+00  0.00000000000E+00 -0.82034548027E+03  0.35386846768E+04  0.34422844936E+04 0.  0.
        5    1    3    3  502    0  0.26658889844E+03 -0.13300660901E+04  0.67881526619E+03  0.15168908004E+04  0.46999998093E+01 0.  1.
       -5    1    3    3    0  502 -0.26658889844E+03  0.13300660901E+04 -0.14991607465E+04  0.20217938764E+04  0.46999998093E+01 0. -1.
</event>
<event>
 5   0  0.2767014E-06  0.3381195E+04  0.7818609E-02  0.8142537E-01
        2   -1    0    0  501    0  0.00000000000E+00  0.00000000000E+00  0.25151781473E+04  0.25151781473E+04  0.25500000920E-02 0.  1.
       -2   -1    0    0    0  501  0.00000000000E+00  0.00000000000E+00 -0.11363487583E+04  0.11363487583E+04  0.25500000920E-02 0. -1.
    10030    2    1    2    0    0  0.00000000000E+00  0.00000000000E+00  0.13788293890E+04  0.36515269056E+04  0.33811947975E+04 0.  0.
        1    1    3    3  502    0 -0.12671966614E+04  0.87647932219E+03 -0.61999013395E+02  0.15420269967E+04  0.50400001928E-02 0. -1.
       -1    1    3    3    0  502  0.12671966614E+04 -0.87647932219E+03  0.14408284024E+04  0.21094999090E+04  0.50400001928E-02 0.  1.
</event>
<event>
 5   0  0.2906701E-06  0.3349328E+04  0.7818609E-02  0.8150456E-01
       -2   -1    0    0    0  501  0.00000000000E+00  0.00000000000E+00  0.11373729478E+04  0.11373729478E+04  0.25500000920E-02 0.  1.
        2   -1    0    0  501    0  0.00000000000E+00  0.00000000000E+00 -0.24657688136E+04  0.24657688136E+04  0.25500000920E-02 0. -1.
    10030    2    1    2    0    0  0.00000000000E+00  0.00000000000E+00 -0.13283958658E+04  0.36031417614E+04  0.33493275409E+04 0.  0.
        5    1    3    3  502    0 -0.15205496971E+03  0.21619823154E+03  0.11147849367E+04  0.11457006303E+04  0.46999998093E+01 0.  1.
       -5    1    3    3    0  502  0.15205496971E+03 -0.21619823154E+03 -0.24431808025E+04  0.24574411311E+04  0.46999998093E+01 0. -1.
</event>
<event>
 5   0  0.1003191E-06  0.2359550E+04  0.7818609E-02  0.8454804E-01
       -1   -1    0    0    0  501  0.00000000000E+00  0.00000000000E+00  0.56465814703E+03  0.56465814706E+03  0.50400001928E-02 0. -1.
        1   -1    0    0  501    0  0.00000000000E+00  0.00000000000E+00 -0.24649770847E+04  0.24649770847E+04  0.50400001928E-02 0.  1.
    10030    2    1    2    0    0  0.00000000000E+00  0.00000000000E+00 -0.19003189376E+04  0.30296352317E+04  0.23595502903E+04 0.  0.
        5    1    3    3  502    0  0.34448512729E+03  0.10969759867E+04 -0.61088272640E+03  0.13020084922E+04  0.46999998093E+01 0.  1.
       -5    1    3    3    0  502 -0.34448512729E+03 -0.10969759867E+04 -0.12894362112E+04  0.17276267395E+04  0.46999998093E+01 0. -1.
</event>
<event>
 5   0  0.1010855E-06  0.3331752E+04  0.7818609E-02  0.8154863E-01
        1   -1    0    0  501    0  0.00000000000E+00  0.00000000000E+00  0.20873249318E+04  0.20873249319E+04  0.50400001928E-02 0.  1.
       -1   -1    0    0    0  501  0.00000000000E+00  0.00000000000E+00 -0.13295211581E+04  0.13295211581E+04  0.50400001928E-02 0. -1.
    10030    2    1    2    0    0  0.00000000000E+00  0.00000000000E+00  0.75780377375E+03  0.34168460900E+04  0.33317518880E+04 0.  0.
        1    1    3    3  502    0 -0.95885975229E+03 -0.20377222067E+03  0.17602280744E+04  0.20147798928E+04  0.50400001928E-02 0.  1.
       -1    1    3    3    0  502  0.95885975229E+03  0.20377222067E+03 -0.10024243007E+04  0.14020661971E+04  0.50400001928E-02 0. -1.
</event>
<event>
 5   0  0.2664083E-06  0.3377812E+04  0.7818609E-02  0.8143374E-01
        2   -1    0    0  501    0  0.00000000000E+00  0.00000000000E+00  0.20693326001E+04  0.20693326001E+04  0.25500000920E-02 0. -1.
       -2   -1    0    0    0  501  0.00000000000E+00  0.00000000000E+00 -0.13784167115E+04  0.13784167115E+04  0.25500000920E-02 0.  1.
    10030    2    1    2    0    0  0.00000000000E+00  0.00000000000E+00  0.69091588863E+03  0.34477493115E+04  0.33778115030E+04 0.  0.
        2    1    3    3  502    0 -0.30500124058E+03  0.17817638355E+03  0.20312073057E+04  0.20616924357E+04  0.25500000920E-02 0. -1.
       -2    1    3    3    0  502  0.30500124058E+03 -0.17817638355E+03 -0.13402914171E+04  0.13860568759E+04  0.25500000920E-02 0.  1.
</event>
<event>
 5   0  0.1010855E-06  0.3309604E+04  0.7818609E-02  0.8160456E-01
       -1   -1    0    0    0  501  0.00000000000E+00  0.00000000000E+00  0.24294607678E+04  0.24294607678E+04  0.50400001928E-02 0.  1.
        1   -1    0    0  501    0  0.00000000000E+00  0.00000000000E+00 -0.11271514714E+04  0.11271514714E+04  0.50400001928E-02 0. -1.
    10030    2    1    2    0    0  0.00000000000E+00  0.00000000000E+00  0.13023092964E+04  0.35566122392E+04  0.33096043746E+04 0.  0.
        1    1    3    3  502    0 -0.10740371131E+04 -0.12413876913E+04  0.42632454559E+03  0.16959810549E+04  0.50400001928E-02 0.  1.
       -1    1    3    3    0  502  0.10740371131E+04  0.12413876913E+04  0.87598475078E+03  0.18606311843E+04  0.50400001928E-02 0. -1.
</event>
<event>
 5   0  0.2856440E-06  0.3358883E+04  0.7818609E-02  0.8148072E-01
       -2   -1    0    0    0  501  0.00000000000E+00  0.00000000000E+00  0.16973155310E+04  0.16973155310E+04  0.25500000920E-02 0.  1.
        2   -1    0    0  501    0  0.00000000000E+00  0.00000000000E+00 -0.16617552229E+04  0.16617552229E+04  0.25500000920E-02 0. -1.
    10030    2    1    2    0    0  0.00000000000E+00  0.00000000000E+00  0.35560308121E+02  0.33590707540E+04  0.33588825217E+04 0.  0.
        4    1    3    3  502    0 -0.10495532002E+03  0.14868012619E+04  0.79172773248E+03  0.16877286591E+04  0.12699999809E+01 0.  1.
       -4    1    3    3    0  502  0.10495532002E+03 -0.14868012619E+04 -0.75616742436E+03  0.16713420949E+04  0.12699999809E+01 0. -1.
</event>
<event>
 5   0  0.2767014E-06  0.3369786E+04  0.7818609E-02  0.8145362E-01
        2   -1    0    0  501    0  0.00000000000E+00  0.00000000000E+00  0.19612007285E+04  0.19612007286E+04  0.25500000920E-02 0.  1.
       -2   -1    0    0    0  501  0.00000000000E+00  0.00000000000E+00 -0.14475136330E+04  0.14475136330E+04  0.25500000920E-02 0. -1.
    10030    2    1    2    0    0  0.00000000000E+00  0.00000000000E+00  0.51368709553E+03  0.34087143616E+04  0.33697862197E+04 0.  0.
        1    1    3    3  502    0  0.29074926395E+03  0.68976043158E+02 -0.14204953009E+04  0.14515852469E+04  0.50400001928E-02 0. -1.
       -1    1    3    3    0  502 -0.29074926395E+03 -0.68976043158E+02  0.19341823964E+04  0.19571291147E+04  0.50400001928E-02 0.  1.
</event>
<event>
 5   0  0.1010551E-06  0.2077205E+04  0.7818609E-02  0.8571352E-01
       -1   -1    0    0    0  501  0.00000000000E+00  0.00000000000E+00  0.11399355387E+04  0.11399355387E+04  0.50400001928E-02 0.  1.
        1   -1    0    0  501    0  0.00000000000E+00  0.00000000000E+00 -0.94627752864E+03  0.94627752866E+03  0.50400001928E-02 0. -1.
    10030    2    1    2    0    0  0.00000000000E+00  0.00000000000E+00  0.19365801001E+03  0.20862130673E+04  0.20772052228E+04 0.  0.
        2    1    3    3  502    0 -0.48936642589E+00  0.83687289742E+03 -0.52093095048E+03  0.98576140170E+03  0.25500000920E-02 0. -1.
       -2    1    3    3    0  502  0.48936642589E+00 -0.83687289742E+03  0.71458896048E+03  0.11004516656E+04  0.25500000920E-02 0.  1.
</event>
<event>
 5   0  0.1010855E-06  0.3409357E+04  0.7818609E-02  0.8135614E-01
        1   -1    0    0  501    0  0.00000000000E+00  0.00000000000E+00  0.16859946616E+04  0.16859946616E+04  0.50400001928E-02 0.  1.
       -1   -1    0    0    0  501  0.00000000000E+00  0.00000000000E+00 -0.17235690948E+04  0.17235690948E+04  0.50400001928E-02 0. -1.
    10030    2    1    2    0    0  0.00000000000E+00  0.00000000000E+00 -0.37574433226E+02  0.34095637564E+04  0.34093567092E+04 0.  0.
        1    1    3    3  502    0  0.57446629547E+03 -0.43546852804E+03  0.15260667479E+04  0.16877571160E+04  0.50400001928E-02 0.  1.
       -1    1    3    3    0  502 -0.57446629547E+03  0.43546852804E+03 -0.15636411811E+04  0.17218066404E+04  0.50400001928E-02 0. -1.
</event>
<event>
 5   0  0.2856440E-06  0.3418649E+04  0.7818609E-02  0.8133344E-01
       -2   -1    0    0    0  501  0.00000000000E+00  0.00000000000E+00  0.24314921052E+04  0.24314921052E+04  0.25500000920E-02 0.  1.
        2   -1    0    0  501    0  0.00000000000E+00  0.00000000000E+00 -0.12016450775E+04  0.12016450775E+04  0.25500000920E-02 0. -1.
    10030    2    1    2    0    0  0.00000000000E+00  0.00000000000E+00  0.12298470277E+04  0.36331371827E+04  0.34186491596E+04 0.  0.
        4    1    3    3  502    0  0.16756686605E+04  0.21208725332E+03  0.89396617128E+03  0.19110268420E+04  0.12699999809E+01 0.  1.
       -4    1    3    3    0  502 -0.16756686605E+04 -0.21208725332E+03  0.33588085644E+03  0.17221103406E+04  0.12699999809E+01 0. -1.
</event>
<event>
 5   0  0.9714317E-07  0.3523848E+04  0.7818609E-02  0.8108161E-01
        1   -1    0    0  501    0  0.00000000000E+00  0.00000000000E+00  0.29583242675E+04  0.29583242675E+04  0.50400001928E-02 0.  1.
       -1   -1    0    0    0  501  0.00000000000E+00  0.00000000000E+00 -0.10493697386E+04  0.10493697386E+04  0.50400001928E-02 0. -1.
    10030    2    1    2    0    0  0.00000000000E+00  0.00000000000E+00  0.19089545289E+04  0.40076940060E+04  0.35238478759E+04 0.  0.
        4    1    3    3  502    0 -0.68605479250E+03 -0.12280981864E+04  0.21610288970E+04  0.25785546029E+04  0.12699999809E+01 0.  1.
       -4    1    3    3    0  502  0.68605479250E+03  0.12280981864E+04 -0.25207436806E+03  0.14291394031E+04  0.12699999809E+01 0. -1.
</event>
<event>
 5   0  0.2856440E-06  0.3432691E+04  0.7818609E-02  0.8129929E-01
       -2   -1    0    0    0  501  0.00000000000E+00  0.00000000000E+00  0.16578959754E+04  0.16578959754E+04  0.25500000920E-02 0. -1.
        2   -1    0    0  501    0  0.00000000000E+00  0.00000000000E+00 -0.17768560519E+04  0.17768560519E+04  0.25500000920E-02 0.  1.
    10030    2    1    2    0    0  0.00000000000E+00  0.00000000000E+00 -0.11896007654E+03  0.34347520273E+04  0.34326913624E+04 0.  0.
        4    1    3    3  502    0  0.77797679661E+03 -0.41564117495E+03  0.14137609169E+04  0.16663514112E+04  0.12699999809E+01 0. -1.
       -4    1    3    3    0  502 -0.77797679661E+03  0.41564117495E+03 -0.15327209935E+04  0.17684006161E+04  0.12699999809E+01 0.  1.
</event>
<event>
 5   0  0.1010551E-06  0.3386479E+04  0.7818609E-02  0.8141233E-01
       -1   -1    0    0    0  501  0.00000000000E+00  0.00000000000E+00  0.12329547808E+04  0.12329547808E+04  0.50400001928E-02 0.  1.
        1   -1    0    0  501    0  0.00000000000E+00  0.00000000000E+00 -0.23253563845E+04  0.23253563845E+04  0.50400001928E-02 0. -1.
    10030    2    1    2    0    0  0.00000000000E+00  0.00000000000E+00 -0.10924016036E+04  0.35583111653E+04  0.33864785671E+04 0.  0.
        2    1    3    3  502    0  0.54988342386E+03 -0.10697413574E+04 -0.17984532564E+04  0.21635971129E+04  0.25500000920E-02 0. -1.
       -2    1    3    3    0  502 -0.54988342386E+03  0.10697413574E+04  0.70605165276E+03  0.13947140524E+04  0.25500000920E-02 0.  1.
</event>
<event>
 5   0  0.2767014E-06  0.3183801E+04  0.7818609E-02  0.8193108E-01
       -2   -1    0    0    0  501  0.00000000000E+00  0.00000000000E+00  0.11466052102E+04  0.11466052102E+04  0.25500000920E-02 0.  1.
        2   -1    0    0  501    0  0.00000000000E+00  0.00000000000E+00 -0.22101304349E+04  0.22101304349E+04  0.25500000920E-02 0. -1.
    10030    2    1    2    0    0  0.00000000000E+00  0.00000000000E+00 -0.10635252247E+04  0.33567356452E+04  0.31838009184E+04 0.  0.
        1    1    3    3  502    0  0.25688905773E+03  0.12370012619E+04  0.48933841126E+03  0.13548491394E+04  0.50400001928E-02 0.  1.
       -1    1    3    3    0  502 -0.25688905773E+03 -0.12370012619E+04 -0.15528636360E+04  0.20018865057E+04  0.50400001928E-02 0. -1.
</event>
<event>
 5   0  0.9232963E-07  0.3517727E+04  0.7818609E-02  0.8109602E-01
        1   -1    0    0  501    0  0.00000000000E+00  0.00000000000E+00  0.21195762037E+04  0.21195762037E+04  0.50400001928E-02 0. -1.
       -1   -1    0    0    0  501  0.00000000000E+00  0.00000000000E+00 -0.14595372327E+04  0.14595372327E+04  0.50400001928E-02 0.  1.
    10030    2    1    2    0    0  0.00000000000E+00  0.00000000000E+00  0.66003897097E+03  0.35791134364E+04  0.35177267584E+04 0.  0.
        3    1    3    3  502    0 -0.28013724143E+03  0.15065047942E+04 -0.54851060964E+03  0.16275433844E+04  0.10100000352E+00 0. -1.
       -3    1    3    3    0  502  0.28013724143E+03 -0.15065047942E+04  0.12085495806E+04  0.19515700520E+04  0.10100000352E+00 0.  1.
</event>
<event>
 5   0  0.1010855E-06  0.2844203E+04  0.7818609E-02  0.8289675E-01
        1   -1    0    0  501    0  0.00000000000E+00  0.00000000000E+00  0.19230735219E+04  0.19230735219E+04  0.50400001928E-02 0.  1.
       -1   -1    0    0    0  501  0.00000000000E+00  0.00000000000E+00 -0.10516358601E+04  0.10516358602E+04  0.50400001928E-02 0. -1.
    10030    2    1    2    0    0  0.00000000000E+00  0.00000000000E+00  0.87143766175E+03  0.29747093821E+04  0.28442032820E+04 0.  0.
        1    1    3    3  502    0  0.14217670652E+04  0.10340243330E+02  0.40532387668E+03  0.14784505245E+04  0.50400001928E-02 0.  1.
       -1    1    3    3    0  502 -0.14217670652E+04 -0.10340243330E+02  0.46611378507E+03  0.14962588576E+04  0.50400001928E-02 0. -1.
</event>
<event>
 5   0  0.9232963E-07  0.3417499E+04  0.7818609E-02  0.8133625E-01
        1   -1    0    0  501    0  0.00000000000E+00  0.00000000000E+00  0.11051847872E+04  0.11051847872E+04  0.50400001928E-02 0. -1.
       -1   -1    0    0    0  501  0.00000000000E+00  0.00000000000E+00 -0.26419332218E+04  0.26419332218E+04  0.50400001928E-02 0.  1.
    10030    2    1    2    0    0  0.00000000000E+00  0.00000000000E+00 -0.15367484346E+04  0.37471180090E+04  0.34174987377E+04 0.  0.
        3    1    3    3  502    0 -0.25604611103E+03 -0.13369124777E+04  0.36417460510E+03  0.14090840065E+04  0.10100000352E+00 0. -1.
       -3    1    3    3    0  502  0.25604611103E+03  0.13369124777E+04 -0.19009230397E+04  0.23380340026E+04  0.10100000352E+00 0.  1.
</event>
<event>
 5   0  0.2848685E-06  0.3384088E+04  0.7818609E-02  0.8141823E-01
        2   -1    0    0  501    0  0.00000000000E+00  0.00000000000E+00  0.22613457066E+04  0.22613457066E+04  0.25500000920E-02 0.  1.
       -2   -1    0    0    0  501  0.00000000000E+00  0.00000000000E+00 -0.12660661772E+04  0.12660661772E+04  0.25500000920E-02 0. -1.
    10030    2    1    2    0    0  0.00000000000E+00  0.00000000000E+00  0.99527952945E+03  0.35274118838E+04  0.33840882459E+04 0.  0.
        3    1    3    3  502    0 -0.68536093152E+03 -0.14792370011E+04  0.96975926622E+03  0.18969171718E+04  0.10100000352E+00 0.  1.
       -3    1    3    3    0  502  0.68536093152E+03  0.14792370011E+04  0.25520263235E+02  0.16304947120E+04  0.10100000352E+00 0. -1.
</event>
<event>
 5   0  0.2664083E-06  0.3390109E+04  0.7818609E-02  0.8140338E-01
        2   -1    0    0  501    0  0.00000000000E+00  0.00000000000E+00  0.26445093725E+04  0.26445093725E+04  0.25500000920E-02 0.  1.
       -2   -1    0    0    0  501  0.00000000000E+00  0.00000000000E+00 -0.10864813817E+04  0.10864813817E+04  0.25500000920E-02 0. -1.
    10030    2    1    2    0    0  0.00000000000E+00  0.00000000000E+00  0.15580279907E+04  0.37309907542E+04  0.33901092590E+04 0.  0.
        2    1    3    3  502    0 -0.66772152260E+03  0.37134094923E+03 -0.88622814767E+03  0.11701053209E+04  0.25500000920E-02 0. -1.
       -2    1    3    3    0  502  0.66772152260E+03 -0.37134094923E+03  0.24442561384E+04  0.25608854333E+04  0.25500000920E-02 0.  1.
</event>
<event>
 5   0  0.9714317E-07  0.3697178E+04  0.7818609E-02  0.8068587E-01
        1   -1    0    0  501    0  0.00000000000E+00  0.00000000000E+00  0.16527625369E+04  0.16527625370E+04  0.50400001928E-02 0. -1.
       -1   -1    0    0    0  501  0.00000000000E+00  0.00000000000E+00 -0.20676178634E+04  0.20676178634E+04  0.50400001928E-02 0.  1.
    10030    2    1    2    0    0  0.00000000000E+00  0.00000000000E+00 -0.41485532641E+03  0.37203804003E+04  0.36971780294E+04 0.  0.
        4    1    3    3  502    0  0.12757388182E+04  0.43167187905E+03  0.10667850416E+04  0.17181042114E+04  0.12699999809E+01 0. -1.
       -4    1    3    3    0  502 -0.12757388182E+04 -0.43167187905E+03 -0.14816403680E+04  0.20022761889E+04  0.12699999809E+01 0.  1.
</event>
<event>
 5   0  0.2856440E-06  0.3350701E+04  0.7818609E-02  0.8150113E-01
       -2   -1    0    0    0  501  0.00000000000E+00  0.00000000000E+00  0.15088014072E+04  0.15088014072E+04  0.25500000920E-02 0.  1.
        2   -1    0    0  501    0  0.00000000000E+00  0.00000000000E+00 -0.18602846607E+04  0.18602846607E+04  0.25500000920E-02 0. -1.
    10030    2    1    2    0    0  0.00000000000E+00  0.00000000000E+00 -0.35148325349E+03  0.33690860679E+04  0.33507014871E+04 0.  0.
        4    1    3    3  502    0  0.99075596284E+03 -0.12962475421E+04  0.20706164309E+03  0.16446067023E+04  0.12699999809E+01 0. -1.
       -4    1    3    3    0  502 -0.99075596284E+03  0.12962475421E+04 -0.55854489658E+03  0.17244793657E+04  0.12699999809E+01 0.  1.
</event>
<event>
 5   0  0.2906701E-06  0.3441143E+04  0.7818609E-02  0.8127882E-01
        2   -1    0    0  501    0  0.00000000000E+00  0.00000000000E+00  0.20679098001E+04  0.20679098001E+04  0.25500000920E-02 0. -1.
       -2   -1    0    0    0  501  0.00000000000E+00  0.00000000000E+00 -0.14315744122E+04  0.14315744122E+04  0.25500000920E-02 0.  1.
    10030    2    1    2    0    0  0.00000000000E+00  0.00000000000E+00  0.63633538783E+03  0.34994842123E+04  0.34411432732E+04 0.  0.
        5    1    3    3  502    0  0.10219221987E+03 -0.17153823014E+04  0.23089327367E+03  0.17338723955E+04  0.46999998093E+01 0.  1.
       -5    1    3    3    0  502 -0.10219221987E+03  0.17153823014E+04  0.40544211416E+03  0.17656118169E+04  0.46999998093E+01 0. -1.
</event>
<event>
 5   0  0.9714317E-07  0.3488537E+04  0.7818609E-02  0.8116512E-01
       -1   -1    0    0    0  501  0.00000000000E+00  0.00000000000E+00  0.95577803353E+03  0.95577803355E+03  0.50400001928E-02 0.  1.
        1   -1    0    0  501    0  0.00000000000E+00  0.00000000000E+00 -0.31832415125E+04  0.31832415125E+04  0.50400001928E-02 0. -1.
    10030    2    1    2    0    0  0.00000000000E+00  0.00000000000E+00 -0.22274634790E+04  0.41390195460E+04  0.34885368355E+04 0.  0.
        4    1    3    3  502    0  0.31500376406E+03 -0.96592415644E+03  0.56846758960E+03  0.11642138380E+04  0.12699999809E+01 0.  1.
       -4    1    3    3    0  502 -0.31500376406E+03  0.96592415644E+03 -0.27959310686E+04  0.29748057080E+04  0.12699999809E+01 0. -1.
</event>
<event>
 5   0  0.2767014E-06  0.3288379E+04  0.7818609E-02  0.8165859E-01
       -2   -1    0    0    0  501  0.00000000000E+00  0.00000000000E+00  0.11601556693E+04  0.11601556693E+04  0.25500000920E-02 0.  1.
        2   -1    0    0  501    0  0.00000000000E+00  0.00000000000E+00 -0.23301697578E+04  0.23301697578E+04  0.25500000920E-02 0. -1.
    10030    2    1    2    0    0  0.00000000000E+00  0.00000000000E+00 -0.11700140885E+04  0.34903254271E+04  0.32883793303E+04 0.  0.
        1    1    3    3  502    0 -0.13175093018E+04  0.56640598081E+03  0.26856436651E+03  0.14590316358E+04  0.50400001928E-02 0.  1.
       -1    1    3    3    0  502  0.13175093018E+04 -0.56640598081E+03 -0.14385784550E+04  0.20312937913E+04  0.50400001928E-02 0. -1.
</event>
<event>
 5   0  0.1010855E-06  0.2180196E+04  0.7818609E-02  0.8526716E-01
       -1   -1    0    0    0  501  0.00000000000E+00  0.00000000000E+00  0.85298174796E+03  0.85298174797E+03  0.50400001928E-02 0. -1.
        1   -1    0    0  501    0  0.00000000000E+00  0.00000000000E+00 -0.13931295788E+04  0.13931295789E+04  0.50400001928E-02 0.  1.
    10030    2    1    2    0    0  0.00000000000E+00  0.00000000000E+00 -0.54014783089E+03  0.22461113268E+04  0.21801964162E+04 0.  0.
        1    1    3    3  502    0 -0.68455800563E+03 -0.46718403772E+03  0.45945470682E+03  0.94761765276E+03  0.50400001928E-02 0. -1.
       -1    1    3    3    0  502  0.68455800563E+03  0.46718403772E+03 -0.99960253771E+03  0.12984936741E+04  0.50400001928E-02 0.  1.
</event>
<event>
 5   0  0.2767014E-06  0.3364037E+04  0.7818609E-02  0.8146790E-01
       -2   -1    0    0    0  501  0.00000000000E+00  0.00000000000E+00  0.32652079896E+04  0.32652079896E+04  0.25500000920E-02 0. -1.
        2   -1    0    0  501    0  0.00000000000E+00  0.00000000000E+00 -0.86646452778E+03  0.86646452779E+03  0.25500000920E-02 0.  1.
    10030    2    1    2    0    0  0.00000000000E+00  0.00000000000E+00  0.23987434618E+04  0.41316725173E+04  0.33640373950E+04 0.  0.
        1    1    3    3  502    0 -0.72809989980E+03 -0.15157278818E+04  0.12489032709E+04  0.20945930048E+04  0.50400001928E-02 0.  1.
       -1    1    3    3    0  502  0.72809989980E+03  0.15157278818E+04  0.11498401909E+04  0.20370795125E+04  0.50400001928E-02 0. -1.
</event>
<event>
 5   0  0.9714317E-07  0.2456227E+04  0.7818609E-02  0.8418748E-01
        1   -1    0    0  501    0  0.00000000000E+00  0.00000000000E+00  0.16717161195E+04  0.16717161195E+04  0.50400001928E-02 0. -1.
       -1   -1    0    0    0  501  0.00000000000E+00  0.00000000000E+00 -0.90222399825E+03  0.90222399827E+03  0.50400001928E-02 0.  1.
    10030    2    1    2    0    0  0.00000000000E+00  0.00000000000E+00  0.76949212125E+03  0.25739401178E+04  0.24562267007E+04 0.  0.
        4    1    3    3  502    0  0.11042831957E+04  0.51801864551E+03  0.53469850819E+03  0.13317990843E+04  0.12699999809E+01 0. -1.
       -4    1    3    3    0  502 -0.11042831957E+04 -0.51801864551E+03  0.23479361306E+03  0.12421410335E+04  0.12699999809E+01 0.  1.
</event>
<event>
 5   0  0.2664083E-06  0.3260493E+04  0.7818609E-02  0.8173021E-01
       -2   -1    0    0    0  501  0.00000000000E+00  0.00000000000E+00  0.10880048888E+04  0.10880048888E+04  0.25500000920E-02 0.  1.
        2   -1    0    0  501    0  0.00000000000E+00  0.00000000000E+00 -0.24427307463E+04  0.24427307463E+04  0.25500000920E-02 0. -1.
    10030    2    1    2    0    0  0.00000000000E+00  0.00000000000E+00 -0.13547258575E+04  0.35307356351E+04  0.32604925971E+04 0.  0.
        2    1    3    3  502    0 -0.11545756197E+04 -0.52791369841E+03  0.43012910861E+03  0.13404285825E+04  0.25500000920E-02 0.  1.
       -2    1    3    3    0  502  0.11545756197E+04  0.52791369841E+03 -0.17848549662E+04  0.21903070526E+04  0.25500000920E-02 0. -1.
</event>
<event>
 5   0  0.2664083E-06  0.3420083E+04  0.7818609E-02  0.8132995E-01
        2   -1    0    0  501    0  0.00000000000E+00  0.00000000000E+00  0.17951653194E+04  0.17951653194E+04  0.25500000920E-02 0. -1.
       -2   -1    0    0    0  501  0.00000000000E+00  0.00000000000E+00 -0.16289545431E+04  0.16289545431E+04  0.25500000920E-02 0.  1.
    10030    2    1    2    0    0  0.00000000000E+00  0.00000000000E+00  0.16621077624E+03  0.34241198625E+04  0.34200834508E+04 0.  0.
        2    1    3    3  502    0 -0.29553865025E+03 -0.64361802839E+01 -0.16031799686E+04  0.16302056711E+04  0.25500000920E-02 0.  1.
       -2    1    3    3    0  502  0.29553865025E+03  0.64361802839E+01  0.17693907449E+04  0.17939141914E+04  0.25500000920E-02 0. -1.
</event>
<event>
 5   0  0.9714317E-07  0.3470913E+04  0.7818609E-02  0.8120718E-01
        1   -1    0    0  501    0  0.00000000000E+00  0.00000000000E+00  0.20813799257E+04  0.20813799257E+04  0.50400001928E-02 0.  1.
       -1   -1    0    0    0  501  0.00000000000E+00  0.00000000000E+00 -0.14470255180E+04  0.14470255180E+04  0.50400001928E-02 0. -1.
    10030    2    1    2    0    0  0.00000000000E+00  0.00000000000E+00  0.63435440774E+03  0.35284054437E+04  0.34709133467E+04 0.  0.
        4    1    3    3  502    0 -0.75576996881E+03 -0.12041841560E+04 -0.69457747259E+03  0.15823043973E+04  0.12699999809E+01 0. -1.
       -4    1    3    3    0  502  0.75576996881E+03  0.12041841560E+04  0.13289318803E+04  0.19461010464E+04  0.12699999809E+01 0.  1.
</event>
<event>
 5   0  0.1003191E-06  0.3436161E+04  0.7818609E-02  0.8129088E-01
       -1   -1    0    0    0  501  0.00000000000E+00  0.00000000000E+00  0.15240165749E+04  0.15240165749E+04  0.50400001928E-02 0.  1.
        1   -1    0    0  501    0  0.00000000000E+00  0.00000000000E+00 -0.19368555976E+04  0.19368555976E+04  0.50400001928E-02 0. -1.
    10030    2    1    2    0    0  0.00000000000E+00  0.00000000000E+00 -0.41283902274E+03  0.34608721726E+04  0.34361606680E+04 0.  0.
        5    1    3    3  502    0 -0.12399030990E+03  0.75416431406E+03  0.13433602311E+04  0.15455666307E+04  0.46999998093E+01 0.  1.
       -5    1    3    3    0  502  0.12399030990E+03 -0.75416431406E+03 -0.17561992538E+04  0.19153055418E+04  0.46999998093E+01 0. -1.
</event>
<event>
 5   0  0.1010551E-06  0.3435696E+04  0.7818609E-02  0.8129201E-01
        1   -1    0    0  501    0  0.00000000000E+00  0.00000000000E+00  0.18996363986E+04  0.18996363986E+04  0.50400001928E-02 0. -1.
       -1   -1    0    0    0  501  0.00000000000E+00  0.00000000000E+00 -0.15534560390E+04  0.15534560390E+04  0.50400001928E-02 0.  1.
    10030    2    1    2    0    0  0.00000000000E+00  0.00000000000E+00  0.34618035963E+03  0.34530924375E+04  0.34356959325E+04 0.  0.
        2    1    3    3  502    0  0.63911399475E+02  0.99127483101E+02  0.18955621503E+04  0.18992279459E+04  0.25500000920E-02 0. -1.
       -2    1    3    3    0  502 -0.63911399475E+02 -0.99127483101E+02 -0.15493817907E+04  0.15538644916E+04  0.25500000920E-02 0.  1.
</event>
<event>
 5   0  0.2848685E-06  0.2294816E+04  0.7818609E-02  0.8479968E-01
        2   -1    0    0  501    0  0.00000000000E+00  0.00000000000E+00  0.12564823509E+04  0.12564823509E+04  0.25500000920E-02 0.  1.
       -2   -1    0    0    0  501  0.00000000000E+00  0.00000000000E+00 -0.10478025995E+04  0.10478025995E+04  0.25500000920E-02 0. -1.
    10030    2    1    2    0    0  0.00000000000E+00  0.00000000000E+00  0.20867975134E+03  0.23042849504E+04  0.22948163094E+04 0.  0.
        3    1    3    3  502    0  0.92701857522E+03 -0.36385995816E+01 -0.57459253354E+03  0.10906572642E+04  0.10100000352E+00 0. -1.
       -3    1    3    3    0  502 -0.92701857522E+03  0.36385995816E+01  0.78327228488E+03  0.12136276862E+04  0.10100000352E+00 0.  1.
</event>
<event>
 5   0  0.1010551E-06  0.3253827E+04  0.7818609E-02  0.8174745E-01
       -1   -1    0    0    0  501  0.00000000000E+00  0.00000000000E+00  0.12893368372E+04  0.12893368372E+04  0.50400001928E-02 0.  1.
        1   -1    0    0  501    0  0.00000000000E+00  0.00000000000E+00 -0.20528749760E+04  0.20528749760E+04  0.50400001928E-02 0. -1.
    10030    2    1    2    0    0  0.00000000000E+00  0.00000000000E+00 -0.76353813874E+03  0.33422118132E+04  0.32538268723E+04 0.  0.
        2    1    3    3  502    0  0.18579908004E+03 -0.10936452187E+04 -0.16041652055E+04  0.19503659065E+04  0.25500000920E-02 0. -1.
       -2    1    3    3    0  502 -0.18579908004E+03  0.10936452187E+04  0.84062706677E+03  0.13918459067E+04  0.25500000920E-02 0.  1.
</event>
<event>
 5   0  0.1010855E-06  0.2090879E+04  0.7818609E-02  0.8565272E-01
       -1   -1    0    0    0  501  0.00000000000E+00  0.00000000000E+00  0.12191636933E+04  0.12191636933E+04  0.50400001928E-02 0. -1.
        1   -1    0    0  501    0  0.00000000000E+00  0.00000000000E+00 -0.89647031536E+03  0.89647031538E+03  0.50400001928E-02 0.  1.
    10030    2    1    2    0    0  0.00000000000E+00  0.00000000000E+00  0.32269337795E+03  0.21156340087E+04  0.20908792989E+04 0.  0.
        1    1    3    3  502    0  0.47163346256E+03 -0.90858623671E+03  0.37593534583E+03  0.10905477783E+04  0.50400001928E-02 0. -1.
       -1    1    3    3    0  502 -0.47163346256E+03  0.90858623671E+03 -0.53241967876E+02  0.10250862304E+04  0.50400001928E-02 0.  1.
</event>
<event>
 5   0  0.2767014E-06  0.3301232E+04  0.7818609E-02  0.8162582E-01
        2   -1    0    0  501    0  0.00000000000E+00  0.00000000000E+00  0.15426623077E+04  0.15426623077E+04  0.25500000920E-02 0. -1.
       -2   -1    0    0    0  501  0.00000000000E+00  0.00000000000E+00 -0.17661239405E+04  0.17661239405E+04  0.25500000920E-02 0.  1.
    10030    2    1    2    0    0  0.00000000000E+00  0.00000000000E+00 -0.22346163281E+03  0.33087862483E+04  0.33012317906E+04 0.  0.
        1    1    3    3  502    0  0.53910000427E+03  0.14115763698E+04 -0.77759751467E+03  0.16993629857E+04  0.50400001928E-02 0.  1.
       -1    1    3    3    0  502 -0.53910000427E+03 -0.14115763698E+04  0.55413588187E+03  0.16094232625E+04  0.50400001928E-02 0. -1.
</event>
<event>
 5   0  0.9070500E-07  0.3379289E+04  0.7818609E-02  0.8143008E-01
        3   -1    0    0  501    0  0.00000000000E+00  0.00000000000E+00  0.27915987414E+04  0.27915987432E+04  0.10100000352E+00 0.  1.
       -3   -1    0    0    0  501  0.00000000000E+00  0.00000000000E+00 -0.10226751689E+04  0.10226751739E+04  0.10100000352E+00 0. -1.
    10030    2    1    2    0    0  0.00000000000E+00  0.00000000000E+00  0.17689235725E+04  0.38142739171E+04  0.33792891130E+04 0.  0.
        1    1    3    3  502    0  0.28629290590E+03 -0.45276980886E+03 -0.92428806491E+03  0.10683035874E+04  0.50400001928E-02 0. -1.
       -1    1    3    3    0  502 -0.28629290590E+03  0.45276980886E+03  0.26932116374E+04  0.27459703297E+04  0.50400001928E-02 0.  1.
</event>
<event>
 5   0  0.1003191E-06  0.2507273E+04  0.7818609E-02  0.8400399E-01
        1   -1    0    0  501    0  0.00000000000E+00  0.00000000000E+00  0.74909318344E+03  0.74909318346E+03  0.50400001928E-02 0. -1.
       -1   -1    0    0    0  501  0.00000000000E+00  0.00000000000E+00 -0.20980096603E+04  0.20980096603E+04  0.50400001928E-02 0.  1.
    10030    2    1    2    0    0  0.00000000000E+00  0.00000000000E+00 -0.13489164769E+04  0.28471028438E+04  0.25072732084E+04 0.  0.
        5    1    3    3  502    0  0.37430263016E+03 -0.30971269268E+03 -0.19867575766E+04  0.20453000193E+04  0.46999998093E+01 0.  1.
       -5    1    3    3    0  502 -0.37430263016E+03  0.30971269268E+03  0.63784109966E+03  0.80180282450E+03  0.46999998093E+01 0. -1.
</event>
<event>
 5   0  0.2664083E-06  0.3437306E+04  0.7818609E-02  0.8128810E-01
       -2   -1    0    0    0  501  0.00000000000E+00  0.00000000000E+00  0.23359533681E+04  0.23359533681E+04  0.25500000920E-02 0. -1.
        2   -1    0    0  501    0  0.00000000000E+00  0.00000000000E+00 -0.12644811293E+04  0.12644811293E+04  0.25500000920E-02 0.  1.
    10030    2    1    2    0    0  0.00000000000E+00  0.00000000000E+00  0.10714722388E+04  0.36004344973E+04  0.34373064762E+04 0.  0.
        2    1    3    3  502    0  0.38615963232E+03 -0.16684076606E+04  0.68776400538E+03  0.18454600269E+04  0.25500000920E-02 0.  1.
       -2    1    3    3    0  502 -0.38615963232E+03  0.16684076606E+04  0.38370823340E+03  0.17549744705E+04  0.25500000920E-02 0. -1.
</event>
<event>
 5   0  0.2664083E-06  0.3361233E+04  0.7818609E-02  0.8147487E-01
        2   -1    0    0  501    0  0.00000000000E+00  0.00000000000E+00  0.21111809091E+04  0.21111809091E+04  0.25500000920E-02 0.  1.
       -2   -1    0    0    0  501  0.00000000000E+00  0.00000000000E+00 -0.13378636109E+04  0.13378636109E+04  0.25500000920E-02 0. -1.
    10030    2    1    2    0    0  0.00000000000E+00  0.00000000000E+00  0.77331729823E+03  0.34490445199E+04  0.33612331750E+04 0.  0.
        2    1    3    3  502    0  0.30969440776E+03  0.81826007534E+03  0.18590714726E+04  0.20546549387E+04  0.25500000920E-02 0.  1.
       -2    1    3    3    0  502 -0.30969440776E+03 -0.81826007534E+03 -0.10857541743E+04  0.13943895812E+04  0.25500000920E-02 0. -1.
</event>
<event>
 5   0  0.9232963E-07  0.3521643E+04  0.7818609E-02  0.8108680E-01
        1   -1    0    0  501    0  0.00000000000E+00  0.00000000000E+00  0.15879685673E+04  0.15879685673E+04  0.50400001928E-02 0. -1.
       -1   -1    0    0    0  501  0.00000000000E+00  0.00000000000E+00 -0.19524900891E+04  0.19524900891E+04  0.50400001928E-02 0.  1.
    10030    2    1    2    0    0  0.00000000000E+00  0.00000000000E+00 -0.36452152183E+03  0.35404586565E+04  0.35216433037E+04 0.  0.
        3    1    3    3  502    0 -0.15923318875E+04  0.59825024893E+02 -0.93552553879E+03  0.18477845971E+04  0.10100000352E+00 0.  1.
       -3    1    3    3    0  502  0.15923318875E+04 -0.59825024893E+02  0.57100401696E+03  0.16926740593E+04  0.10100000352E+00 0. -1.
</event>
<event>
 5   0  0.2906701E-06  0.3323122E+04  0.7818609E-02  0.8157037E-01
       -2   -1    0    0    0  501  0.00000000000E+00  0.00000000000E+00  0.16696245505E+04  0.16696245505E+04  0.25500000920E-02 0.  1.
        2   -1    0    0  501    0  0.00000000000E+00  0.00000000000E+00 -0.16535364161E+04  0.16535364161E+04  0.25500000920E-02 0. -1.
    10030    2    1    2    0    0  0.00000000000E+00  0.00000000000E+00  0.16088134353E+02  0.33231609666E+04  0.33231220234E+04 0.  0.
        5    1    3    3  502    0 -0.18011159335E+03  0.98389577526E+03 -0.13187238402E+04  0.16551573156E+04  0.46999998093E+01 0. -1.
       -5    1    3    3    0  502  0.18011159335E+03 -0.98389577526E+03  0.13348119745E+04  0.16680036511E+04  0.46999998093E+01 0.  1.
</event>
<event>
 5   0  0.9714317E-07  0.3391344E+04  0.7818609E-02  0.8140034E-01
       -1   -1    0    0    0  501  0.00000000000E+00  0.00000000000E+00  0.31043602449E+04  0.31043602450E+04  0.50400001928E-02 0. -1.
        1   -1    0    0  501    0  0.00000000000E+00  0.00000000000E+00 -0.92621461972E+03  0.92621461973E+03  0.50400001928E-02 0.  1.
    10030    2    1    2    0    0  0.00000000000E+00  0.00000000000E+00  0.21781456252E+04  0.40305748647E+04  0.33913441841E+04 0.  0.
        4    1    3    3  502    0 -0.10807475149E+04 -0.11930843543E+04  0.45588951962E+03  0.16731115726E+04  0.12699999809E+01 0.  1.
       -4    1    3    3    0  502  0.10807475149E+04  0.11930843543E+04  0.17222561056E+04  0.23574632921E+04  0.12699999809E+01 0. -1.
</event>
<event>
 5   0  0.2664083E-06  0.2456643E+04  0.7818609E-02  0.8418597E-01
        2   -1    0    0  501    0  0.00000000000E+00  0.00000000000E+00  0.20233464216E+04  0.20233464216E+04  0.25500000920E-02 0.  1.
       -2   -1    0    0    0  501  0.00000000000E+00  0.00000000000E+00 -0.74568220370E+03  0.74568220371E+03  0.25500000920E-02 0. -1.
    10030    2    1    2    0    0  0.00000000000E+00  0.00000000000E+00  0.12776642179E+04  0.27690286253E+04  0.24566427649E+04 0.  0.
        2    1    3    3  502    0  0.97992634332E+03 -0.64483056138E+03  0.22821273734E+03  0.11950494319E+04  0.25500000920E-02 0.  1.
       -2    1    3    3    0  502 -0.97992634332E+03  0.64483056138E+03  0.10494514806E+04  0.15739791934E+04  0.25500000920E-02 0. -1.
</event>
<event>
 5   0  0.1003191E-06  0.2736096E+04  0.7818609E-02  0.8323387E-01
        1   -1    0    0  501    0  0.00000000000E+00  0.00000000000E+00  0.15573169388E+04  0.15573169388E+04  0.50400001928E-02 0.  1.
       -1   -1    0    0    0  501  0.00000000000E+00  0.00000000000E+00 -0.12017819817E+04  0.12017819817E+04  0.50400001928E-02 0. -1.
    10030    2    1    2    0    0  0.00000000000E+00  0.00000000000E+00  0.35553495714E+03  0.27590989205E+04  0.27360960779E+04 0.  0.
        5    1    3    3  502    0  0.13265408931E+04  0.31995808299E+03  0.27579290850E+03  0.13921809273E+04  0.46999998093E+01 0.  1.
       -5    1    3    3    0  502 -0.13265408931E+04 -0.31995808299E+03  0.79742048643E+02  0.13669179932E+04  0.46999998093E+01 0. -1.
</event>
<event>
 5   0  0.9070500E-07  0.2336353E+04  0.7818609E-02  0.8463724E-01
        3   -1    0    0  501    0  0.00000000000E+00  0.00000000000E+00  0.77158590851E+03  0.77158591512E+03  0.10100000352E+00 0.  1.
       -3   -1    0    0    0  501  0.00000000000E+00  0.00000000000E+00 -0.17686118507E+04  0.17686118535E+04  0.10100000352E+00 0. -1.
    10030    2    1    2    0    0  0.00000000000E+00  0.00000000000E+00 -0.99702594215E+03  0.25401977687E+04  0.23363527077E+04 0.  0.
        1    1    3    3  502    0  0.65530780248E+03 -0.90251092690E+03 -0.12081048695E+03  0.11218509094E+04  0.50400001928E-02 0.  1.
       -1    1    3    3    0  502 -0.65530780248E+03  0.90251092690E+03 -0.87621545521E+03  0.14183468592E+04  0.50400001928E-02 0. -1.
</event>
<event>
 5   0  0.1010551E-06  0.3406410E+04  0.7818609E-02  0.8136335E-01
        1   -1    0    0  501    0  0.00000000000E+00  0.00000000000E+00  0.16432682608E+04  0.16432682608E+04  0.50400001928E-02 0.  1.
       -1   -1    0    0    0  501  0.00000000000E+00  0.00000000000E+00 -0.17653283265E+04  0.17653283265E+04  0.50400001928E-02 0. -1.
    10030    2    1    2    0    0  0.00000000000E+00  0.00000000000E+00 -0.12206006568E+03  0.34085965872E+04  0.34064104325E+04 0.  0.
        2    1    3    3  502    0 -0.56445054199E+03 -0.16059180165E+04 -0.32788807169E+01  0.17022302550E+04  0.25500000920E-02 0.  1.
       -2    1    3    3    0  502  0.56445054199E+03  0.16059180165E+04 -0.11878118497E+03  0.17063663323E+04  0.25500000920E-02 0. -1.
</event>
<event>
 5   0  0.1003191E-06  0.3133430E+04  0.7818609E-02  0.8206623E-01
       -1   -1    0    0    0  501  0.00000000000E+00  0.00000000000E+00  0.10643050830E+04  0.10643050830E+04  0.50400001928E-02 0. -1.
        1   -1    0    0  501    0  0.00000000000E+00  0.00000000000E+00 -0.23062904461E+04  0.23062904462E+04  0.50400001928E-02 0.  1.
    10030    2    1    2    0    0  0.00000000000E+00  0.00000000000E+00 -0.12419853632E+04  0.33705955291E+04  0.31334304809E+04 0.  0.
        5    1    3    3  502    0  0.23401673911E+03 -0.76180241782E+03  0.82997842135E+03  0.11506489594E+04  0.46999998093E+01 0. -1.
       -5    1    3    3    0  502 -0.23401673911E+03  0.76180241782E+03 -0.20719637845E+04  0.22199465697E+04  0.46999998093E+01 0.  1.
</event>
<event>
 5   0  0.2664083E-06  0.3376489E+04  0.7818609E-02  0.8143701E-01
       -2   -1    0    0    0  501  0.00000000000E+00  0.00000000000E+00  0.20373980900E+04  0.20373980900E+04  0.25500000920E-02 0. -1.
        2   -1    0    0  501    0  0.00000000000E+00  0.00000000000E+00 -0.13989259216E+04  0.13989259216E+04  0.25500000920E-02 0.  1.
    10030    2    1    2    0    0  0.00000000000E+00  0.00000000000E+00  0.63847216841E+03  0.34363240116E+04  0.33764887091E+04 0.  0.
        2    1    3    3  502    0 -0.39123223487E+03 -0.12611890130E+04 -0.75131206330E+03  0.15192531733E+04  0.25500000920E-02 0.  1.
       -2    1    3    3    0  502  0.39123223487E+03  0.12611890130E+04  0.13897842317E+04  0.19170708383E+04  0.25500000920E-02 0. -1.
</event>
<event>
 5   0  0.2664083E-06  0.2685764E+04  0.7818609E-02  0.8339639E-01
       -2   -1    0    0    0  501  0.00000000000E+00  0.00000000000E+00  0.87247795410E+03  0.87247795410E+03  0.25500000920E-02 0. -1.
        2   -1    0    0  501    0  0.00000000000E+00  0.00000000000E+00 -0.20669085435E+04  0.20669085435E+04  0.25500000920E-02 0.  1.
    10030    2    1    2    0    0  0.00000000000E+00  0.00000000000E+00 -0.11944305894E+04  0.29393864976E+04  0.26857640532E+04 0.  0.
        2    1    3    3  502    0 -0.22888133558E+03 -0.86564564416E+02  0.84787119740E+03  0.88247700082E+03  0.25500000920E-02 0. -1.
       -2    1    3    3    0  502  0.22888133558E+03  0.86564564416E+02 -0.20423017868E+04  0.20569094968E+04  0.25500000920E-02 0.  1.
</event>
<event>
 5   0  0.9714317E-07  0.3409834E+04  0.7818609E-02  0.8135497E-01
        1   -1    0    0  501    0  0.00000000000E+00  0.00000000000E+00  0.22594194029E+04  0.22594194029E+04  0.50400001928E-02 0.  1.
       -1   -1    0    0    0  501  0.00000000000E+00  0.00000000000E+00 -0.12864993619E+04  0.12864993619E+04  0.50400001928E-02 0. -1.
    10030    2    1    2    0    0  0.00000000000E+00  0.00000000000E+00  0.97292004103E+03  0.35459187648E+04  0.34098337908E+04 0.  0.
        4    1    3    3  502    0 -0.27180521851E+03  0.69433717316E+03  0.20808682103E+04  0.22104289874E+04  0.12699999809E+01 0.  1.
       -4    1    3    3    0  502  0.27180521851E+03 -0.69433717316E+03 -0.11079481693E+04  0.13354897774E+04  0.12699999809E+01 0. -1.
</event>
<event>
 5   0  0.2856440E-06  0.3397872E+04  0.7818609E-02  0.8138429E-01
        2   -1    0    0  501    0  0.00000000000E+00  0.00000000000E+00  0.25322571902E+04  0.25322571902E+04  0.25500000920E-02 0. -1.
       -2   -1    0    0    0  501  0.00000000000E+00  0.00000000000E+00 -0.11398459262E+04  0.11398459262E+04  0.25500000920E-02 0.  1.
    10030    2    1    2    0    0  0.00000000000E+00  0.00000000000E+00  0.13924112640E+04  0.36721031163E+04  0.33978717117E+04 0.  0.
        4    1    3    3  502    0  0.28203740176E+03  0.14145269885E+03 -0.11079040261E+04  0.11519578577E+04  0.12699999809E+01 0.  1.
       -4    1    3    3    0  502 -0.28203740176E+03 -0.14145269885E+03  0.25003152901E+04  0.25201452586E+04  0.12699999809E+01 0. -1.
</event>
<event>
 5   0  0.9070500E-07  0.3274055E+04  0.7818609E-02  0.8169529E-01
        3   -1    0    0  501    0  0.00000000000E+00  0.00000000000E+00  0.12215967834E+04  0.12215967876E+04  0.10100000352E+00 0.  1.
       -3   -1    0    0    0  501  0.00000000000E+00  0.00000000000E+00 -0.21937351547E+04  0.21937351571E+04  0.10100000352E+00 0. -1.
    10030    2    1    2    0    0  0.00000000000E+00  0.00000000000E+00 -0.97213837131E+03  0.34153319447E+04  0.32740554790E+04 0.  0.
        1    1    3    3  502    0 -0.37098763556E+03 -0.11031933169E+04 -0.16869125721E+04  0.20494734314E+04  0.50400001928E-02 0. -1.
       -1    1    3    3    0  502  0.37098763556E+03  0.11031933169E+04  0.71477420076E+03  0.13658585133E+04  0.50400001928E-02 0.  1.
</event>
<event>
 5   0  0.9232963E-07  0.2525735E+04  0.7818609E-02  0.8393874E-01
       -1   -1    0    0    0  501  0.00000000000E+00  0.00000000000E+00  0.11159660079E+04  0.11159660079E+04  0.50400001928E-02 0.  1.
        1   -1    0    0  501    0  0.00000000000E+00  0.00000000000E+00 -0.14291063164E+04  0.14291063164E+04  0.50400001928E-02 0. -1.
    10030    2    1    2    0    0  0.00000000000E+00  0.00000000000E+00 -0.31314030846E+03  0.25450723243E+04  0.25257348006E+04 0.  0.
        3    1    3    3  502    0 -0.25427776674E+03  0.26557650388E+03  0.10608378440E+04  0.11227488604E+04  0.10100000352E+00 0.  1.
       -3    1    3    3    0  502  0.25427776674E+03 -0.26557650388E+03 -0.13739781525E+04  0.14223234638E+04  0.10100000352E+00 0. -1.
</event>
<event>
 5   0  0.2664083E-06  0.2760240E+04  0.7818609E-02  0.8315719E-01
        2   -1    0    0  501    0  0.00000000000E+00  0.00000000000E+00  0.18910476089E+04  0.18910476089E+04  0.25500000920E-02 0.  1.
       -2   -1    0    0    0  501  0.00000000000E+00  0.00000000000E+00 -0.10072363302E+04  0.10072363302E+04  0.25500000920E-02 0. -1.
    10030    2    1    2    0    0  0.00000000000E+00  0.00000000000E+00  0.88381127869E+03  0.28982839391E+04  0.27602404633E+04 0.  0.
        2    1    3    3  502    0 -0.13749976106E+04  0.10481618858E+03  0.38318951952E+03  0.14312369023E+04  0.25500000920E-02 0.  1.
       -2    1    3    3    0  502  0.13749976106E+04 -0.10481618858E+03  0.50062175917E+03  0.14670470368E+04  0.25500000920E-02 0. -1.
</event>
<event>
 5   0  0.1010855E-06  0.2828212E+04  0.7818609E-02  0.8294563E-01
        1   -1    0    0  501    0  0.00000000000E+00  0.00000000000E+00  0.15198831913E+04  0.15198831914E+04  0.50400001928E-02 0.  1.
       -1   -1    0    0    0  501  0.00000000000E+00  0.00000000000E+00 -0.13156904132E+04  0.13156904132E+04  0.50400001928E-02 0. -1.
    10030    2    1    2    0    0  0.00000000000E+00  0.00000000000E+00  0.20419277812E+03  0.28355736046E+04  0.28282119752E+04 0.  0.
        1    1    3    3  502    0 -0.60705333524E+03  0.54916928069E+03 -0.10539856927E+04  0.13345360584E+04  0.50400001928E-02 0. -1.
       -1    1    3    3    0  502  0.60705333524E+03 -0.54916928069E+03  0.12581784708E+04  0.15010375462E+04  0.50400001928E-02 0.  1.
</event>
<event>
 5   0  0.2664083E-06  0.3299041E+04  0.7818609E-02  0.8163140E-01
        2   -1    0    0  501    0  0.00000000000E+00  0.00000000000E+00  0.93080234117E+03  0.93080234117E+03  0.25500000920E-02 0.  1.
       -2   -1    0    0    0  501  0.00000000000E+00  0.00000000000E+00 -0.29231955813E+04  0.29231955813E+04  0.25500000920E-02 0. -1.
    10030    2    1    2    0    0  0.00000000000E+00  0.00000000000E+00 -0.19923932402E+04  0.38539979225E+04  0.32990406429E+04 0.  0.
        2    1    3    3  502    0  0.44857824005E+03 -0.15252805948E+04 -0.15096997105E+04  0.21924635792E+04  0.25500000920E-02 0.  1.
       -2    1    3    3    0  502 -0.44857824005E+03  0.15252805948E+04 -0.48269352963E+03  0.16615343433E+04  0.25500000920E-02 0. -1.
</event>
<event>
 5   0  0.2664083E-06  0.3417455E+04  0.7818609E-02  0.8133636E-01
        2   -1    0    0  501    0  0.00000000000E+00  0.00000000000E+00  0.17472225261E+04  0.17472225261E+04  0.25500000920E-02 0.  1.
       -2   -1    0    0    0  501  0.00000000000E+00  0.00000000000E+00 -0.16710802110E+04  0.16710802110E+04  0.25500000920E-02 0. -1.
    10030    2    1    2    0    0  0.00000000000E+00  0.00000000000E+00  0.76142315113E+02  0.34183027370E+04  0.34174546010E+04 0.  0.
        2    1    3    3  502    0 -0.13218875325E+04 -0.97771207778E+03  0.50341928217E+03  0.17195169465E+04  0.25500000920E-02 0.  1.
       -2    1    3    3    0  502  0.13218875325E+04  0.97771207778E+03 -0.42727696705E+03  0.16987857906E+04  0.25500000920E-02 0. -1.
</event>
<event>
 5   0  0.9232963E-07  0.3386154E+04  0.7818609E-02  0.8141313E-01
       -1   -1    0    0    0  501  0.00000000000E+00  0.00000000000E+00  0.16821656247E+04  0.16821656247E+04  0.50400001928E-02 0. -1.
        1   -1    0    0  501    0  0.00000000000E+00  0.00000000000E+00 -0.17040589495E+04  0.17040589495E+04  0.50400001928E-02 0.  1.
    10030    2    1    2    0    0  0.00000000000E+00  0.00000000000E+00 -0.21893324824E+02  0.33862245742E+04  0.33861537988E+04 0.  0.
        3    1    3    3  502    0 -0.14873167653E+04  0.27676102935E+02 -0.81943882310E+03  0.16983395191E+04  0.10100000352E+00 0.  1.
       -3    1    3    3    0  502  0.14873167653E+04 -0.27676102935E+02  0.79754549828E+03  0.16878850551E+04  0.10100000352E+00 0. -1.
</event>
<event>
 5   0  0.1010855E-06  0.3177447E+04  0.7818609E-02  0.8194799E-01
       -1   -1    0    0    0  501  0.00000000000E+00  0.00000000000E+00  0.19390373074E+04  0.19390373074E+04  0.50400001928E-02 0.  1.
        1   -1    0    0  501    0  0.00000000000E+00  0.00000000000E+00 -0.13016985283E+04  0.13016985284E+04  0.50400001928E-02 0. -1.
    10030    2    1    2    0    0  0.00000000000E+00  0.00000000000E+00  0.63733877908E+03  0.32407358358E+04  0.31774467797E+04 0.  0.
        1    1    3    3  502    0  0.13364327796E+04 -0.61847287744E+02 -0.55523111852E+03  0.14485024185E+04  0.50400001928E-02 0. -1.
       -1    1    3    3    0  502 -0.13364327796E+04  0.61847287744E+02  0.11925698976E+04  0.17922334173E+04  0.50400001928E-02 0.  1.
</event>
<event>
 5   0  0.9232963E-07  0.3349903E+04  0.7818609E-02  0.8150312E-01
        1   -1    0    0  501    0  0.00000000000E+00  0.00000000000E+00  0.12840031056E+04  0.12840031056E+04  0.50400001928E-02 0. -1.
       -1   -1    0    0    0  501  0.00000000000E+00  0.00000000000E+00 -0.21849349731E+04  0.21849349731E+04  0.50400001928E-02 0.  1.
    10030    2    1    2    0    0  0.00000000000E+00  0.00000000000E+00 -0.90093186753E+03  0.34689380788E+04  0.33499034560E+04 0.  0.
        3    1    3    3  502    0  0.45391214500E+03  0.10860151975E+04  0.78351408858E+03  0.14139871222E+04  0.10100000352E+00 0. -1.
       -3    1    3    3    0  502 -0.45391214500E+03 -0.10860151975E+04 -0.16844459561E+04  0.20549509565E+04  0.10100000352E+00 0.  1.
</event>
<event>
 5   0  0.9714317E-07  0.3399771E+04  0.7818609E-02  0.8137963E-01
        1   -1    0    0  501    0  0.00000000000E+00  0.00000000000E+00  0.20506344563E+04  0.20506344563E+04  0.50400001928E-02 0. -1.
       -1   -1    0    0    0  501  0.00000000000E+00  0.00000000000E+00 -0.14091299617E+04  0.14091299617E+04  0.50400001928E-02 0.  1.
    10030    2    1    2    0    0  0.00000000000E+00  0.00000000000E+00  0.64150449458E+03  0.34597644181E+04  0.33997708470E+04 0.  0.
        4    1    3    3  502    0 -0.15346798611E+04 -0.16628637386E+03  0.10451530729E+04  0.18641995582E+04  0.12699999809E+01 0. -1.
       -4    1    3    3    0  502  0.15346798611E+04  0.16628637386E+03 -0.40364857832E+03  0.15955648598E+04  0.12699999809E+01 0.  1.
</event>
<event>
 5   0  0.9714317E-07  0.3251697E+04  0.7818609E-02  0.8175296E-01
       -1   -1    0    0    0  501  0.00000000000E+00  0.00000000000E+00  0.12229526101E+04  0.12229526101E+04  0.50400001928E-02 0.  1.
        1   -1    0    0  501    0  0.00000000000E+00  0.00000000000E+00 -0.21614764412E+04  0.21614764412E+04  0.50400001928E-02 0. -1.
    10030    2    1    2    0    0  0.00000000000E+00  0.00000000000E+00 -0.93852383110E+03  0.33844290513E+04  0.32516969449E+04 0.  0.
        4    1    3    3  502    0 -0.11270674630E+04  0.82117203651E+03  0.40078900684E+03  0.14509438379E+04  0.12699999809E+01 0.  1.
       -4    1    3    3    0  502  0.11270674630E+04 -0.82117203651E+03 -0.13393128379E+04  0.19334852134E+04  0.12699999809E+01 0. -1.
</event>
<event>
 5   0  0.2767014E-06  0.3243353E+04  0.7818609E-02  0.8177461E-01
       -2   -1    0    0    0  501  0.00000000000E+00  0.00000000000E+00  0.12996944033E+04  0.12996944033E+04  0.25500000920E-02 0. -1.
        2   -1    0    0  501    0  0.00000000000E+00  0.00000000000E+00 -0.20234254703E+04  0.20234254703E+04  0.25500000920E-02 0.  1.
    10030    2    1    2    0    0  0.00000000000E+00  0.00000000000E+00 -0.72373106699E+03  0.33231198736E+04  0.32433530546E+04 0.  0.
        1    1    3    3  502    0 -0.11006842924E+04 -0.10253580633E+04 -0.98254428624E+03  0.17967354685E+04  0.50400001928E-02 0.  1.
       -1    1    3    3    0  502  0.11006842924E+04  0.10253580633E+04  0.25881321926E+03  0.15263844050E+04  0.50400001928E-02 0. -1.
</event>
<event>
 5   0  0.2848685E-06  0.2585015E+04  0.7818609E-02  0.8373309E-01
       -2   -1    0    0    0  501  0.00000000000E+00  0.00000000000E+00  0.11481685493E+04  0.11481685493E+04  0.25500000920E-02 0.  1.
        2   -1    0    0  501    0  0.00000000000E+00  0.00000000000E+00 -0.14549915020E+04  0.14549915020E+04  0.25500000920E-02 0. -1.
    10030    2    1    2    0    0  0.00000000000E+00  0.00000000000E+00 -0.30682295269E+03  0.26031600513E+04  0.25850148797E+04 0.  0.
        3    1    3    3  502    0 -0.42472581036E+02 -0.10915584441E+04  0.54228639107E+03  0.12195811974E+04  0.10100000352E+00 0.  1.
       -3    1    3    3    0  502  0.42472581036E+02  0.10915584441E+04 -0.84910934376E+03  0.13835788539E+04  0.10100000352E+00 0. -1.
</event>
<event>
 5   0  0.9070500E-07  0.3323163E+04  0.7818609E-02  0.8157026E-01
       -3   -1    0    0    0  501  0.00000000000E+00  0.00000000000E+00  0.15480259703E+04  0.15480259736E+04  0.10100000352E+00 0. -1.
        3   -1    0    0  501    0  0.00000000000E+00  0.00000000000E+00 -0.17834667150E+04  0.17834667178E+04  0.10100000352E+00 0.  1.
    10030    2    1    2    0    0  0.00000000000E+00  0.00000000000E+00 -0.23544074465E+03  0.33314926915E+04  0.33231628322E+04 0.  0.
        1    1    3    3  502    0  0.39769961188E+03  0.93818317390E+03  0.11980099319E+04  0.15727620437E+04  0.50400001928E-02 0. -1.
       -1    1    3    3    0  502 -0.39769961188E+03 -0.93818317390E+03 -0.14334506766E+04  0.17587306477E+04  0.50400001928E-02 0.  1.
</event>
<event>
 5   0  0.2664083E-06  0.3376400E+04  0.7818609E-02  0.8143723E-01
       -2   -1    0    0    0  501  0.00000000000E+00  0.00000000000E+00  0.16918977915E+04  0.16918977915E+04  0.25500000920E-02 0.  1.
        2   -1    0    0  501    0  0.00000000000E+00  0.00000000000E+00 -0.16845099434E+04  0.16845099434E+04  0.25500000920E-02 0. -1.
    10030    2    1    2    0    0  0.00000000000E+00  0.00000000000E+00  0.73878481773E+01  0.33764077349E+04  0.33763996523E+04 0.  0.
        2    1    3    3  502    0  0.86290505830E+02  0.13671714506E+04 -0.98292631017E+03  0.16860450640E+04  0.25500000920E-02 0. -1.
       -2    1    3    3    0  502 -0.86290505830E+02 -0.13671714506E+04  0.99031415835E+03  0.16903626708E+04  0.25500000920E-02 0.  1.
</event>
<event>
 5   0  0.2856440E-06  0.2694460E+04  0.7818609E-02  0.8336805E-01
        2   -1    0    0  501    0  0.00000000000E+00  0.00000000000E+00  0.14794675738E+04  0.14794675738E+04  0.25500000920E-02 0. -1.
       -2   -1    0    0    0  501  0.00000000000E+00  0.00000000000E+00 -0.12268124218E+04  0.12268124219E+04  0.25500000920E-02 0.  1.
    10030    2    1    2    0    0  0.00000000000E+00  0.00000000000E+00  0.25265515191E+03  0.27062799956E+04  0.26944603892E+04 0.  0.
        4    1    3    3  502    0 -0.89166338444E+03  0.99383387983E+02 -0.88311193761E+03  0.12588998992E+04  0.12699999809E+01 0.  1.
       -4    1    3    3    0  502  0.89166338444E+03 -0.99383387983E+02  0.11357670895E+04  0.14473800964E+04  0.12699999809E+01 0. -1.
</event>
<event>
 5   0  0.9714317E-07  0.3356824E+04  0.7818609E-02  0.8148585E-01
        1   -1    0    0  501    0  0.00000000000E+00  0.00000000000E+00  0.19537129149E+04  0.19537129149E+04  0.50400001928E-02 0.  1.
       -1   -1    0    0    0  501  0.00000000000E+00  0.00000000000E+00 -0.14419043573E+04  0.14419043573E+04  0.50400001928E-02 0. -1.
    10030    2    1    2    0    0  0.00000000000E+00  0.00000000000E+00  0.51180855763E+03  0.33956172723E+04  0.33568241926E+04 0.  0.
        4    1    3    3  502    0 -0.83840933982E+02  0.15914928383E+04  0.78847392034E+03  0.17780808453E+04  0.12699999809E+01 0.  1.
       -4    1    3    3    0  502  0.83840933982E+02 -0.15914928383E+04 -0.27666536271E+03  0.16175364269E+04  0.12699999809E+01 0. -1.
</event>
<event>
 5   0  0.2906701E-06  0.2341325E+04  0.7818609E-02  0.8461803E-01
        2   -1    0    0  501    0  0.00000000000E+00  0.00000000000E+00  0.12212648337E+04  0.12212648337E+04  0.25500000920E-02 0.  1.
       -2   -1    0    0    0  501  0.00000000000E+00  0.00000000000E+00 -0.11221570755E+04  0.11221570755E+04  0.25500000920E-02 0. -1.
    10030    2    1    2    0    0  0.00000000000E+00  0.00000000000E+00  0.99107758138E+02  0.23434219092E+04  0.23413252437E+04 0.  0.
        5    1    3    3  502    0  0.10366509860E+04 -0.41483366611E+03 -0.30246641525E+03  0.11568233485E+04  0.46999998093E+01 0.  1.
       -5    1    3    3    0  502 -0.10366509860E+04  0.41483366611E+03  0.40157417339E+03  0.11865985606E+04  0.46999998093E+01 0. -1.
</event>
<event>
 5   0  0.2767014E-06  0.3111093E+04  0.7818609E-02  0.8212700E-01
       -2   -1    0    0    0  501  0.00000000000E+00  0.00000000000E+00  0.21045810026E+04  0.21045810026E+04  0.25500000920E-02 0.  1.
        2   -1    0    0  501    0  0.00000000000E+00  0.00000000000E+00 -0.11497419666E+04  0.11497419666E+04  0.25500000920E-02 0. -1.
    10030    2    1    2    0    0  0.00000000000E+00  0.00000000000E+00  0.95483903596E+03  0.32543229692E+04  0.31110931203E+04 0.  0.
        1    1    3    3  502    0  0.15093132780E+04  0.16716445812E+03  0.12461667649E+03  0.15236468893E+04  0.50400001928E-02 0. -1.
       -1    1    3    3    0  502 -0.15093132780E+04 -0.16716445812E+03  0.83022235946E+03  0.17306760799E+04  0.50400001928E-02 0.  1.
</event>
<event>
 5   0  0.9714317E-07  0.3100932E+04  0.7818609E-02  0.8215482E-01
       -1   -1    0    0    0  501  0.00000000000E+00  0.00000000000E+00  0.89939366197E+03  0.89939366198E+03  0.50400001928E-02 0. -1.
        1   -1    0    0  501    0  0.00000000000E+00  0.00000000000E+00 -0.26728505342E+04  0.26728505342E+04  0.50400001928E-02 0.  1.
    10030    2    1    2    0    0  0.00000000000E+00  0.00000000000E+00 -0.17734568723E+04  0.35722441962E+04  0.31009320082E+04 0.  0.
        4    1    3    3  502    0  0.50769756591E+03  0.16659289648E+03 -0.25634319829E+04  0.26185291969E+04  0.12699999809E+01 0.  1.
       -4    1    3    3    0  502 -0.50769756591E+03 -0.16659289648E+03  0.78997511059E+03  0.95371499928E+03  0.12699999809E+01 0. -1.
</event>
<event>
 5   0  0.9232963E-07  0.3438100E+04  0.7818609E-02  0.8128618E-01
        1   -1    0    0  501    0  0.00000000000E+00  0.00000000000E+00  0.14458990083E+04  0.14458990084E+04  0.50400001928E-02 0. -1.
       -1   -1    0    0    0  501  0.00000000000E+00  0.00000000000E+00 -0.20438025468E+04  0.20438025468E+04  0.50400001928E-02 0.  1.
    10030    2    1    2    0    0  0.00000000000E+00  0.00000000000E+00 -0.59790353843E+03  0.34897015551E+04  0.34380995190E+04 0.  0.
        3    1    3    3  502    0 -0.60745514545E+02  0.13106722959E+04 -0.14262881823E+04  0.19380015155E+04  0.10100000352E+00 0.  1.
       -3    1    3    3    0  502  0.60745514545E+02 -0.13106722959E+04  0.82838464389E+03  0.15517000397E+04  0.10100000352E+00 0. -1.
</event>
<event>
 5   0  0.2856440E-06  0.3386380E+04  0.7818609E-02  0.8141257E-01
        2   -1    0    0  501    0  0.00000000000E+00  0.00000000000E+00  0.19969664455E+04  0.19969664455E+04  0.25500000920E-02 0.  1.
       -2   -1    0    0    0  501  0.00000000000E+00  0.00000000000E+00 -0.14356239260E+04  0.14356239260E+04  0.25500000920E-02 0. -1.
    10030    2    1    2    0    0  0.00000000000E+00  0.00000000000E+00  0.56134251952E+03  0.34325903715E+04  0.33863802555E+04 0.  0.
        4    1    3    3  502    0  0.82788368994E+03  0.22393600342E+03 -0.11991657814E+04  0.14742926853E+04  0.12699999809E+01 0. -1.
       -4    1    3    3    0  502 -0.82788368994E+03 -0.22393600342E+03  0.17605083009E+04  0.19582976863E+04  0.12699999809E+01 0.  1.
</event>
<event>
 5   0  0.2848685E-06  0.3401335E+04  0.7818609E-02  0.8137579E-01
       -2   -1    0    0    0  501  0.00000000000E+00  0.00000000000E+00  0.13865924049E+04  0.13865924049E+04  0.25500000920E-02 0. -1.
        2   -1    0    0  501    0  0.00000000000E+00  0.00000000000E+00 -0.20858827152E+04  0.20858827152E+04  0.25500000920E-02 0.  1.
    10030    2    1    2    0    0  0.00000000000E+00  0.00000000000E+00 -0.69929031024E+03  0.34724751201E+04  0.34013345207E+04 0.  0.
        3    1    3    3  502    0  0.54718731732E+03  0.16100832474E+04 -0.32711328440E+03  0.17317000707E+04  0.10100000352E+00 0. -1.
       -3    1    3    3    0  502 -0.54718731732E+03 -0.16100832474E+04 -0.37217702583E+03  0.17407750494E+04  0.10100000352E+00 0.  1.
</event>
<event>
 5   0  0.2664083E-06  0.3511924E+04  0.7818609E-02  0.8110970E-01
        2   -1    0    0  501    0  0.00000000000E+00  0.00000000000E+00  0.16889432118E+04  0.16889432118E+04  0.25500000920E-02 0.  1.
       -2   -1    0    0    0  501  0.00000000000E+00  0.00000000000E+00 -0.18256403426E+04  0.18256403426E+04  0.25500000920E-02 0. -1.
    10030    2    1    2    0    0  0.00000000000E+00  0.00000000000E+00 -0.13669713086E+03  0.35145835544E+04  0.35119241813E+04 0.  0.
        2    1    3    3  502    0 -0.10171817870E+04 -0.12631979251E+04 -0.74196678952E+03  0.17834916604E+04  0.25500000920E-02 0. -1.
       -2    1    3    3    0  502  0.10171817870E+04  0.12631979251E+04  0.60526965865E+03  0.17310918940E+04  0.25500000920E-02 0.  1.
</event>
<event>
 5   0  0.2664083E-06  0.3338155E+04  0.7818609E-02  0.8153254E-01
       -2   -1    0    0    0  501  0.00000000000E+00  0.00000000000E+00  0.17305415451E+04  0.17305415451E+04  0.25500000920E-02 0.  1.
        2   -1    0    0  501    0  0.00000000000E+00  0.00000000000E+00 -0.16097961259E+04  0.16097961259E+04  0.25500000920E-02 0. -1.
    10030    2    1    2    0    0  0.00000000000E+00  0.00000000000E+00  0.12074541921E+03  0.33403376710E+04  0.33381546249E+04 0.  0.
        2    1    3    3  502    0 -0.12773999284E+04 -0.74252326347E+03 -0.71649039808E+03  0.16420870453E+04  0.25500000920E-02 0. -1.
       -2    1    3    3    0  502  0.12773999284E+04  0.74252326347E+03  0.83723581729E+03  0.16982506257E+04  0.25500000920E-02 0.  1.
</event>
<event>
 5   0  0.2856440E-06  0.3354923E+04  0.7818609E-02  0.8149059E-01
       -2   -1    0    0    0  501  0.00000000000E+00  0.00000000000E+00  0.13252594302E+04  0.13252594302E+04  0.25500000920E-02 0.  1.
        2   -1    0    0  501    0  0.00000000000E+00  0.00000000000E+00 -0.21232647251E+04  0.21232647251E+04  0.25500000920E-02 0. -1.
    10030    2    1    2    0    0  0.00000000000E+00  0.00000000000E+00 -0.79800529497E+03  0.34485241553E+04  0.33549227113E+04 0.  0.
        4    1    3    3  502    0 -0.15133027252E+04 -0.31563450132E+03  0.27044715741E+03  0.15693481304E+04  0.12699999809E+01 0. -1.
       -4    1    3    3    0  502  0.15133027252E+04  0.31563450132E+03 -0.10684524524E+04  0.18791760249E+04  0.12699999809E+01 0.  1.
</event>
<event>
 5   0  0.2906701E-06  0.3376616E+04  0.7818609E-02  0.8143670E-01
       -2   -1    0    0    0  501  0.00000000000E+00  0.00000000000E+00  0.10138051443E+04  0.10138051443E+04  0.25500000920E-02 0. -1.
        2   -1    0    0  501    0  0.00000000000E+00  0.00000000000E+00 -0.28115692061E+04  0.28115692061E+04  0.25500000920E-02 0.  1.
    10030    2    1    2    0    0  0.00000000000E+00  0.00000000000E+00 -0.17977640619E+04  0.38253743504E+04  0.33766156575E+04 0.  0.
        5    1    3    3  502    0  0.36838967556E+03  0.49738371204E+03 -0.26783892175E+04  0.27489802474E+04  0.46999998093E+01 0.  1.
       -5    1    3    3    0  502 -0.36838967556E+03 -0.49738371204E+03  0.88062515568E+03  0.10763941030E+04  0.46999998093E+01 0. -1.
</event>
<event>
 5   0  0.2906701E-06  0.3382122E+04  0.7818609E-02  0.8142308E-01
        2   -1    0    0  501    0  0.00000000000E+00  0.00000000000E+00  0.18113917547E+04  0.18113917547E+04  0.25500000920E-02 0.  1.
       -2   -1    0    0    0  501  0.00000000000E+00  0.00000000000E+00 -0.15787238295E+04  0.15787238295E+04  0.25500000920E-02 0. -1.
    10030    2    1    2    0    0  0.00000000000E+00  0.00000000000E+00  0.23266792519E+03  0.33901155842E+04  0.33821220130E+04 0.  0.
        5    1    3    3  502    0  0.71506362161E+03 -0.76804293131E+03  0.14455372177E+04  0.17862826946E+04  0.46999998093E+01 0.  1.
       -5    1    3    3    0  502 -0.71506362161E+03  0.76804293131E+03 -0.12128692925E+04  0.16038328897E+04  0.46999998093E+01 0. -1.
</event>
<event>
 5   0  0.2848685E-06  0.3427854E+04  0.7818609E-02  0.8131104E-01
        2   -1    0    0  501    0  0.00000000000E+00  0.00000000000E+00  0.22219375733E+04  0.22219375733E+04  0.25500000920E-02 0.  1.
       -2   -1    0    0    0  501  0.00000000000E+00  0.00000000000E+00 -0.13220646451E+04  0.13220646451E+04  0.25500000920E-02 0. -1.
    10030    2    1    2    0    0  0.00000000000E+00  0.00000000000E+00  0.89987292819E+03  0.35440022184E+04  0.34278536196E+04 0.  0.
        3    1    3    3  502    0 -0.10134458776E+04 -0.50060453765E+03 -0.88207648709E+03  0.14337839409E+04  0.10100000352E+00 0. -1.
       -3    1    3    3    0  502  0.10134458776E+04  0.50060453765E+03  0.17819494153E+04  0.21102182775E+04  0.10100000352E+00 0.  1.
</event>
<event>
 5   0  0.1010855E-06  0.2768531E+04  0.7818609E-02  0.8313105E-01
       -1   -1    0    0    0  501  0.00000000000E+00  0.00000000000E+00  0.97859838673E+03  0.97859838675E+03  0.50400001928E-02 0. -1.
        1   -1    0    0  501    0  0.00000000000E+00  0.00000000000E+00 -0.19580970691E+04  0.19580970691E+04  0.50400001928E-02 0.  1.
    10030    2    1    2    0    0  0.00000000000E+00  0.00000000000E+00 -0.97949868239E+03  0.29366954559E+04  0.27685307533E+04 0.  0.
        1    1    3    3  502    0  0.10300796870E+04  0.81951468743E+03 -0.94416553689E+03  0.16199126660E+04  0.50400001928E-02 0.  1.
       -1    1    3    3    0  502 -0.10300796870E+04 -0.81951468743E+03 -0.35333145502E+02  0.13167827899E+04  0.50400001928E-02 0. -1.
</event>
<event>
 5   0  0.1010855E-06  0.3341856E+04  0.7818609E-02  0.8152326E-01
       -1   -1    0    0    0  501  0.00000000000E+00  0.00000000000E+00  0.18508313972E+04  0.18508313972E+04  0.50400001928E-02 0.  1.
        1   -1    0    0  501    0  0.00000000000E+00  0.00000000000E+00 -0.15085114960E+04  0.15085114960E+04  0.50400001928E-02 0. -1.
    10030    2    1    2    0    0  0.00000000000E+00  0.00000000000E+00  0.34231990112E+03  0.33593428932E+04  0.33418560351E+04 0.  0.
        1    1    3    3  502    0  0.89582900163E+03 -0.36878985741E+02 -0.12462290981E+04  0.15352382957E+04  0.50400001928E-02 0. -1.
       -1    1    3    3    0  502 -0.89582900163E+03  0.36878985741E+02  0.15885489992E+04  0.18241045975E+04  0.50400001928E-02 0.  1.
</event>
<event>
 5   0  0.2664083E-06  0.3361559E+04  0.7818609E-02  0.8147406E-01
        2   -1    0    0  501    0  0.00000000000E+00  0.00000000000E+00  0.21992627679E+04  0.21992627679E+04  0.25500000920E-02 0.  1.
       -2   -1    0    0    0  501  0.00000000000E+00  0.00000000000E+00 -0.12845305936E+04  0.12845305936E+04  0.25500000920E-02 0. -1.
    10030    2    1    2    0    0  0.00000000000E+00  0.00000000000E+00  0.91473217430E+03  0.34837933614E+04  0.33615593456E+04 0.  0.
        2    1    3    3  502    0 -0.75385296432E+03  0.45979003610E+02 -0.10987697575E+04  0.13333054191E+04  0.25500000920E-02 0. -1.
       -2    1    3    3    0  502  0.75385296432E+03 -0.45979003610E+02  0.20135019318E+04  0.21504879423E+04  0.25500000920E-02 0.  1.
</event>
<event>
 5   0  0.2856440E-06  0.2544078E+04  0.7818609E-02  0.8387449E-01
       -2   -1    0    0    0  501  0.00000000000E+00  0.00000000000E+00  0.12809632144E+04  0.12809632144E+04  0.25500000920E-02 0. -1.
        2   -1    0    0  501    0  0.00000000000E+00  0.00000000000E+00 -0.12631769895E+04  0.12631769895E+04  0.25500000920E-02 0.  1.
    10030    2    1    2    0    0  0.00000000000E+00  0.00000000000E+00  0.17786224877E+02  0.25441402040E+04  0.25440780310E+04 0.  0.
        4    1    3    3  502    0 -0.84887136234E+03  0.74349975747E+03  0.59602513607E+03  0.12761747744E+04  0.12699999809E+01 0. -1.
       -4    1    3    3    0  502  0.84887136234E+03 -0.74349975747E+03 -0.57823891119E+03  0.12679654295E+04  0.12699999809E+01 0.  1.
</event>
<event>
 5   0  0.1003191E-06  0.3445741E+04  0.7818609E-02  0.8126770E-01
        1   -1    0    0  501    0  0.00000000000E+00  0.00000000000E+00  0.23813954247E+04  0.23813954247E+04  0.50400001928E-02 0. -1.
       -1   -1    0    0    0  501  0.00000000000E+00  0.00000000000E+00 -0.12464465730E+04  0.12464465730E+04  0.50400001928E-02 0.  1.
    10030    2    1    2    0    0  0.00000000000E+00  0.00000000000E+00  0.11349488517E+04  0.36278419977E+04  0.34457406554E+04 0.  0.
        5    1    3    3  502    0  0.41998228990E+03  0.92735680164E+03  0.20308517976E+04  0.22717299301E+04  0.46999998093E+01 0. -1.
       -5    1    3    3    0  502 -0.41998228990E+03 -0.92735680164E+03 -0.89590294589E+03  0.13561120676E+04  0.46999998093E+01 0.  1.
</event>
<event>
 5   0  0.2856440E-06  0.2390424E+04  0.7818609E-02  0.8443097E-01
       -2   -1    0    0    0  501  0.00000000000E+00  0.00000000000E+00  0.19743503483E+04  0.19743503483E+04  0.25500000920E-02 0.  1.
        2   -1    0    0  501    0  0.00000000000E+00  0.00000000000E+00 -0.72354538657E+03  0.72354538658E+03  0.25500000920E-02 0. -1.
    10030    2    1    2    0    0  0.00000000000E+00  0.00000000000E+00  0.12508049618E+04  0.26978957349E+04  0.23904243021E+04 0.  0.
        4    1    3    3  502    0  0.11346321251E+04  0.31012284646E+03  0.38607985164E+03  0.12379925298E+04  0.12699999809E+01 0.  1.
       -4    1    3    3    0  502 -0.11346321251E+04 -0.31012284646E+03  0.86472511013E+03  0.14599032051E+04  0.12699999809E+01 0. -1.
</event>
<event>
 5   0  0.1003191E-06  0.2158603E+04  0.7818609E-02  0.8535859E-01
       -1   -1    0    0    0  501  0.00000000000E+00  0.00000000000E+00  0.78950616814E+03  0.78950616816E+03  0.50400001928E-02 0. -1.
        1   -1    0    0  501    0  0.00000000000E+00  0.00000000000E+00 -0.14754682566E+04  0.14754682566E+04  0.50400001928E-02 0.  1.
    10030    2    1    2    0    0  0.00000000000E+00  0.00000000000E+00 -0.68596208843E+03  0.22649744247E+04  0.21586025938E+04 0.  0.
        5    1    3    3  502    0 -0.54768487636E+03 -0.20184468189E+03  0.60959311956E+03  0.84399399335E+03  0.46999998093E+01 0. -1.
       -5    1    3    3    0  502  0.54768487636E+03  0.20184468189E+03 -0.12955552080E+04  0.14209804314E+04  0.46999998093E+01 0.  1.
</event>
<event>
 5   0  0.9714317E-07  0.3359373E+04  0.7818609E-02  0.8147950E-01
       -1   -1    0    0    0  501  0.00000000000E+00  0.00000000000E+00  0.13255577885E+04  0.13255577885E+04  0.50400001928E-02 0.  1.
        1   -1    0    0  501    0  0.00000000000E+00  0.00000000000E+00 -0.21284228726E+04  0.21284228726E+04  0.50400001928E-02 0. -1.
    10030    2    1    2    0    0  0.00000000000E+00  0.00000000000E+00 -0.80286508411E+03  0.34539806611E+04  0.33593734630E+04 0.  0.
        4    1    3    3  502    0  0.12440624657E+04  0.11133019620E+04 -0.21125526429E+03  0.16827843227E+04  0.12699999809E+01 0.  1.
       -4    1    3    3    0  502 -0.12440624657E+04 -0.11133019620E+04 -0.59160981982E+03  0.17711963384E+04  0.12699999809E+01 0. -1.
</event>
<event>
 5   0  0.1010855E-06  0.3499801E+04  0.7818609E-02  0.8113837E-01
       -1   -1    0    0    0  501  0.00000000000E+00  0.00000000000E+00  0.11212028354E+04  0.11212028355E+04  0.50400001928E-02 0. -1.
        1   -1    0    0  501    0  0.00000000000E+00  0.00000000000E+00 -0.27311315459E+04  0.27311315459E+04  0.50400001928E-02 0.  1.
    10030    2    1    2    0    0  0.00000000000E+00  0.00000000000E+00 -0.16099287105E+04  0.38523343814E+04  0.34998013848E+04 0.  0.
        1    1    3    3  502    0  0.45021956957E+03  0.43275862934E+03 -0.26043034053E+04  0.26781288092E+04  0.50400001928E-02 0.  1.
       -1    1    3    3    0  502 -0.45021956957E+03 -0.43275862934E+03  0.99437469478E+03  0.11742055722E+04  0.50400001928E-02 0. -1.
</event>
<event>
 5   0  0.1010855E-06  0.3294354E+04  0.7818609E-02  0.8164333E-01
        1   -1    0    0  501    0  0.00000000000E+00  0.00000000000E+00  0.21925573345E+04  0.21925573345E+04  0.50400001928E-02 0. -1.
       -1   -1    0    0    0  501  0.00000000000E+00  0.00000000000E+00 -0.12374555561E+04  0.12374555561E+04  0.50400001928E-02 0.  1.
    10030    2    1    2    0    0  0.00000000000E+00  0.00000000000E+00  0.95510177844E+03  0.34300128906E+04  0.32943541131E+04 0.  0.
        1    1    3    3  502    0 -0.30380312210E+03  0.11375866730E+04 -0.72174673361E+03  0.13810568862E+04  0.50400001928E-02 0.  1.
       -1    1    3    3    0  502  0.30380312210E+03 -0.11375866730E+04  0.16768485121E+04  0.20489560044E+04  0.50400001928E-02 0. -1.
</event>
<event>
 5   0  0.1010855E-06  0.3450329E+04  0.7818609E-02  0.8125663E-01
       -1   -1    0    0    0  501  0.00000000000E+00  0.00000000000E+00  0.16895374413E+04  0.16895374413E+04  0.50400001928E-02 0. -1.
        1   -1    0    0  501    0  0.00000000000E+00  0.00000000000E+00 -0.17615424325E+04  0.17615424325E+04  0.50400001928E-02 0.  1.
    10030    2    1    2    0    0  0.00000000000E+00  0.00000000000E+00 -0.72004991199E+02  0.34510798738E+04  0.34503286186E+04 0.  0.
        1    1    3    3  502    0  0.12524602723E+04  0.88663862694E+03  0.75246293711E+03  0.17090890147E+04  0.50400001928E-02 0. -1.
       -1    1    3    3    0  502 -0.12524602723E+04 -0.88663862694E+03 -0.82446792831E+03  0.17419908591E+04  0.50400001928E-02 0.  1.
</event>
<event>
 5   0  0.1010551E-06  0.3500968E+04  0.7818609E-02  0.8113561E-01
       -1   -1    0    0    0  501  0.00000000000E+00  0.00000000000E+00  0.13595911955E+04  0.13595911955E+04  0.50400001928E-02 0. -1.
        1   -1    0    0  501    0  0.00000000000E+00  0.00000000000E+00 -0.22537609058E+04  0.22537609058E+04  0.50400001928E-02 0.  1.
    10030    2    1    2    0    0  0.00000000000E+00  0.00000000000E+00 -0.89416971029E+03  0.36133521013E+04  0.35009675715E+04 0.  0.
        2    1    3    3  502    0 -0.13865343431E+04  0.95351430213E+03 -0.94477426478E+03  0.19298355941E+04  0.25500000920E-02 0.  1.
       -2    1    3    3    0  502  0.13865343431E+04 -0.95351430213E+03  0.50604554491E+02  0.16835165072E+04  0.25500000920E-02 0. -1.
</event>
<event>
 5   0  0.1003191E-06  0.3438132E+04  0.7818609E-02  0.8128610E-01
        1   -1    0    0  501    0  0.00000000000E+00  0.00000000000E+00  0.27004267898E+04  0.27004267898E+04  0.50400001928E-02 0.  1.
       -1   -1    0    0    0  501  0.00000000000E+00  0.00000000000E+00 -0.10943408351E+04  0.10943408351E+04  0.50400001928E-02 0. -1.
    10030    2    1    2    0    0  0.00000000000E+00  0.00000000000E+00  0.16060859547E+04  0.37947676249E+04  0.34381316486E+04 0.  0.
        5    1    3    3  502    0  0.32484598365E+03 -0.14319428973E+04  0.17897425626E+04  0.23149915561E+04  0.46999998093E+01 0.  1.
       -5    1    3    3    0  502 -0.32484598365E+03  0.14319428973E+04 -0.18365660795E+03  0.14797760688E+04  0.46999998093E+01 0. -1.
</event>
<event>
 5   0  0.2848685E-06  0.3395560E+04  0.7818609E-02  0.8138997E-01
        2   -1    0    0  501    0  0.00000000000E+00  0.00000000000E+00  0.19071174921E+04  0.19071174921E+04  0.25500000920E-02 0. -1.
       -2   -1    0    0    0  501  0.00000000000E+00  0.00000000000E+00 -0.15114211298E+04  0.15114211298E+04  0.25500000920E-02 0.  1.
    10030    2    1    2    0    0  0.00000000000E+00  0.00000000000E+00  0.39569636234E+03  0.34185386219E+04  0.33955604395E+04 0.  0.
        3    1    3    3  502    0  0.21136288016E+03  0.13074046249E+04  0.12673346493E+04  0.18330625313E+04  0.10100000352E+00 0. -1.
       -3    1    3    3    0  502 -0.21136288016E+03 -0.13074046249E+04 -0.87163828694E+03  0.15854760906E+04  0.10100000352E+00 0.  1.
</event>
<event>
 5   0  0.9232963E-07  0.3424606E+04  0.7818609E-02  0.8131894E-01
        1   -1    0    0  501    0  0.00000000000E+00  0.00000000000E+00  0.21482964203E+04  0.21482964203E+04  0.50400001928E-02 0. -1.
       -1   -1    0    0    0  501  0.00000000000E+00  0.00000000000E+00 -0.13647936202E+04  0.13647936202E+04  0.50400001928E-02 0.  1.
    10030    2    1    2    0    0  0.00000000000E+00  0.00000000000E+00  0.78350280007E+03  0.35130900405E+04  0.34246058160E+04 0.  0.
        3    1    3    3  502    0  0.32883770666E+03 -0.87887519970E+03 -0.10775353210E+04  0.14288590666E+04  0.10100000352E+00 0.  1.
       -3    1    3    3    0  502 -0.32883770666E+03  0.87887519970E+03  0.18610381211E+04  0.20842309738E+04  0.10100000352E+00 0. -1.
</event>
<event>
 5   0  0.1010551E-06  0.3380801E+04  0.7818609E-02  0.8142635E-01
       -1   -1    0    0    0  501  0.00000000000E+00  0.00000000000E+00  0.17330317217E+04  0.17330317217E+04  0.50400001928E-02 0.  1.
        1   -1    0    0  501    0  0.00000000000E+00  0.00000000000E+00 -0.16488176993E+04  0.16488176993E+04  0.50400001928E-02 0. -1.
    10030    2    1    2    0    0  0.00000000000E+00  0.00000000000E+00  0.84214022462E+02  0.33818494210E+04  0.33808007194E+04 0.  0.
        2    1    3    3  502    0 -0.52007847132E+03 -0.14681664966E+04 -0.61495205076E+03  0.16745627796E+04  0.25500000920E-02 0. -1.
       -2    1    3    3    0  502  0.52007847132E+03  0.14681664966E+04  0.69916607322E+03  0.17072866414E+04  0.25500000920E-02 0.  1.
</event>
<event>
 5   0  0.2906701E-06  0.2829090E+04  0.7818609E-02  0.8294294E-01
       -2   -1    0    0    0  501  0.00000000000E+00  0.00000000000E+00  0.21844100221E+04  0.21844100221E+04  0.25500000920E-02 0.  1.
        2   -1    0    0  501    0  0.00000000000E+00  0.00000000000E+00 -0.91600831163E+03  0.91600831163E+03  0.25500000920E-02 0. -1.
    10030    2    1    2    0    0  0.00000000000E+00  0.00000000000E+00  0.12684017105E+04  0.31004183338E+04  0.28290901267E+04 0.  0.
        5    1    3    3  502    0  0.13963519680E+04  0.22270059777E+03  0.67694502582E+03  0.15676960907E+04  0.46999998093E+01 0. -1.
       -5    1    3    3    0  502 -0.13963519680E+04 -0.22270059777E+03  0.59145668468E+03  0.15327222431E+04  0.46999998093E+01 0.  1.
</event>
<event>
 5   0  0.2848685E-06  0.3429302E+04  0.7818609E-02  0.8130752E-01
       -2   -1    0    0    0  501  0.00000000000E+00  0.00000000000E+00  0.13688077207E+04  0.13688077207E+04  0.25500000920E-02 0.  1.
        2   -1    0    0  501    0  0.00000000000E+00  0.00000000000E+00 -0.21478748383E+04  0.21478748383E+04  0.25500000920E-02 0. -1.
    10030    2    1    2    0    0  0.00000000000E+00  0.00000000000E+00 -0.77906711755E+03  0.35166825590E+04  0.34293017726E+04 0.  0.
        3    1    3    3  502    0  0.17005336153E+03  0.16908258112E+04 -0.62386784856E+03  0.18102544496E+04  0.10100000352E+00 0. -1.
       -3    1    3    3    0  502 -0.17005336153E+03 -0.16908258112E+04 -0.15519926899E+03  0.17064281095E+04  0.10100000352E+00 0.  1.
</event>
<event>
 5   0  0.1010855E-06  0.2144153E+04  0.7818609E-02  0.8542039E-01
        1   -1    0    0  501    0  0.00000000000E+00  0.00000000000E+00  0.13515228536E+04  0.13515228536E+04  0.50400001928E-02 0.  1.
       -1   -1    0    0    0  501  0.00000000000E+00  0.00000000000E+00 -0.85040950173E+03  0.85040950174E+03  0.50400001928E-02 0. -1.
    10030    2    1    2    0    0  0.00000000000E+00  0.00000000000E+00  0.50111335185E+03  0.22019323553E+04  0.21441528644E+04 0.  0.
        1    1    3    3  502    0  0.88531907938E+03  0.55242114844E+03 -0.18069229623E+01  0.10435335464E+04  0.50400001928E-02 0. -1.
       -1    1    3    3    0  502 -0.88531907938E+03 -0.55242114844E+03  0.50292027482E+03  0.11583988089E+04  0.50400001928E-02 0.  1.
</event>
<event>
 5   0  0.2856440E-06  0.3422710E+04  0.7818609E-02  0.8132355E-01
        2   -1    0    0  501    0  0.00000000000E+00  0.00000000000E+00  0.17502522654E+04  0.17502522654E+04  0.25500000920E-02 0.  1.
       -2   -1    0    0    0  501  0.00000000000E+00  0.00000000000E+00 -0.16733221014E+04  0.16733221014E+04  0.25500000920E-02 0. -1.
    10030    2    1    2    0    0  0.00000000000E+00  0.00000000000E+00  0.76930164017E+02  0.34235743668E+04  0.34227099198E+04 0.  0.
        4    1    3    3  502    0 -0.10479419957E+04  0.10218524263E+04  0.92546375330E+03  0.17317186778E+04  0.12699999809E+01 0.  1.
       -4    1    3    3    0  502  0.10479419957E+04 -0.10218524263E+04 -0.84853358928E+03  0.16918556890E+04  0.12699999809E+01 0. -1.
</event>
<event>
 5   0  0.2767014E-06  0.3411935E+04  0.7818609E-02  0.8134983E-01
        2   -1    0    0  501    0  0.00000000000E+00  0.00000000000E+00  0.21163608931E+04  0.21163608931E+04  0.25500000920E-02 0. -1.
       -2   -1    0    0    0  501  0.00000000000E+00  0.00000000000E+00 -0.13751553265E+04  0.13751553265E+04  0.25500000920E-02 0.  1.
    10030    2    1    2    0    0  0.00000000000E+00  0.00000000000E+00  0.74120556655E+03  0.34915162196E+04  0.34119349085E+04 0.  0.
        1    1    3    3  502    0 -0.85038440152E+03  0.15344936387E+03  0.18758376987E+04  0.20653008036E+04  0.50400001928E-02 0. -1.
       -1    1    3    3    0  502  0.85038440152E+03 -0.15344936387E+03 -0.11346321321E+04  0.14262154160E+04  0.50400001928E-02 0.  1.
</event>
<event>
 5   0  0.2848685E-06  0.3376522E+04  0.7818609E-02  0.8143693E-01
        2   -1    0    0  501    0  0.00000000000E+00  0.00000000000E+00  0.19933749902E+04  0.19933749902E+04  0.25500000920E-02 0.  1.
       -2   -1    0    0    0  501  0.00000000000E+00  0.00000000000E+00 -0.14298492577E+04  0.14298492577E+04  0.25500000920E-02 0. -1.
    10030    2    1    2    0    0  0.00000000000E+00  0.00000000000E+00  0.56352573246E+03  0.34232242479E+04  0.33765223234E+04 0.  0.
        3    1    3    3  502    0 -0.17205053368E+03 -0.13616999812E+03 -0.14153321230E+04  0.14322390454E+04  0.10100000352E+00 0. -1.
       -3    1    3    3    0  502  0.17205053368E+03  0.13616999812E+03  0.19788578554E+04  0.19909852025E+04  0.10100000352E+00 0.  1.
</event>
<event>
 5   0  0.1003191E-06  0.2160511E+04  0.7818609E-02  0.8535047E-01
       -1   -1    0    0    0  501  0.00000000000E+00  0.00000000000E+00  0.81453353599E+03  0.81453353600E+03  0.50400001928E-02 0.  1.
        1   -1    0    0  501    0  0.00000000000E+00  0.00000000000E+00 -0.14326623995E+04  0.14326623995E+04  0.50400001928E-02 0. -1.
    10030    2    1    2    0    0  0.00000000000E+00  0.00000000000E+00 -0.61812886352E+03  0.22471959355E+04  0.21605106528E+04 0.  0.
        5    1    3    3  502    0 -0.70611771540E+03  0.72399882444E+03 -0.70397276888E+03  0.12322241172E+04  0.46999998093E+01 0. -1.
       -5    1    3    3    0  502  0.70611771540E+03 -0.72399882444E+03  0.85843905361E+02  0.10149718183E+04  0.46999998093E+01 0.  1.
</event>
<event>
 5   0  0.1010551E-06  0.2193324E+04  0.7818609E-02  0.8521212E-01
        1   -1    0    0  501    0  0.00000000000E+00  0.00000000000E+00  0.17301007122E+04  0.17301007122E+04  0.50400001928E-02 0. -1.
       -1   -1    0    0    0  501  0.00000000000E+00  0.00000000000E+00 -0.69514290890E+03  0.69514290892E+03  0.50400001928E-02 0.  1.
    10030    2    1    2    0    0  0.00000000000E+00  0.00000000000E+00  0.10349578033E+04  0.24252436211E+04  0.21933237260E+04 0.  0.
        2    1    3    3  502    0 -0.13395271036E+03 -0.38310312076E+03 -0.60904935052E+03  0.73188280559E+03  0.25500000920E-02 0.  1.
       -2    1    3    3    0  502  0.13395271036E+03  0.38310312076E+03  0.16440071538E+04  0.16933608155E+04  0.25500000920E-02 0. -1.
</event>
<event>
 5   0  0.9232963E-07  0.3426077E+04  0.7818609E-02  0.8131536E-01
       -1   -1    0    0    0  501  0.00000000000E+00  0.00000000000E+00  0.12982034526E+04  0.12982034526E+04  0.50400001928E-02 0. -1.
        1   -1    0    0  501    0  0.00000000000E+00  0.00000000000E+00 -0.22604324291E+04  0.22604324291E+04  0.50400001928E-02 0.  1.
    10030    2    1    2    0    0  0.00000000000E+00  0.00000000000E+00 -0.96222897644E+03  0.35586358817E+04  0.34260771643E+04 0.  0.
        3    1    3    3  502    0  0.49794608232E+01  0.10765667281E+04 -0.18651408478E+04  0.21535484920E+04  0.10100000352E+00 0.  1.
       -3    1    3    3    0  502 -0.49794608232E+01 -0.10765667281E+04  0.90291187134E+03  0.14050873897E+04  0.10100000352E+00 0. -1.
</event>
<event>
 5   0  0.2664083E-06  0.2764882E+04  0.7818609E-02  0.8314255E-01
       -2   -1    0    0    0  501  0.00000000000E+00  0.00000000000E+00  0.77910823367E+03  0.77910823367E+03  0.25500000920E-02 0.  1.
        2   -1    0    0  501    0  0.00000000000E+00  0.00000000000E+00 -0.24529886461E+04  0.24529886461E+04  0.25500000920E-02 0. -1.
    10030    2    1    2    0    0  0.00000000000E+00  0.00000000000E+00 -0.16738804124E+04  0.32320968797E+04  0.27648823854E+04 0.  0.
        2    1    3    3  502    0  0.51089613035E+03  0.11566647660E+04 -0.14901650551E+04  0.19543490293E+04  0.25500000920E-02 0. -1.
       -2    1    3    3    0  502 -0.51089613035E+03 -0.11566647660E+04 -0.18371535731E+03  0.12777478505E+04  0.25500000920E-02 0.  1.
</event>
<event>
 5   0  0.2856440E-06  0.3332137E+04  0.7818609E-02  0.8154766E-01
        2   -1    0    0  501    0  0.00000000000E+00  0.00000000000E+00  0.15390633655E+04  0.15390633655E+04  0.25500000920E-02 0. -1.
       -2   -1    0    0    0  501  0.00000000000E+00  0.00000000000E+00 -0.18035537032E+04  0.18035537032E+04  0.25500000920E-02 0.  1.
    10030    2    1    2    0    0  0.00000000000E+00  0.00000000000E+00 -0.26449033776E+03  0.33426170687E+04  0.33321365112E+04 0.  0.
        4    1    3    3  502    0  0.11067262340E+04  0.71355931958E+03  0.89163745597E+03  0.15902920566E+04  0.12699999809E+01 0. -1.
       -4    1    3    3    0  502 -0.11067262340E+04 -0.71355931958E+03 -0.11561277937E+04  0.17523250121E+04  0.12699999809E+01 0.  1.
</event>
<event>
 5   0  0.1010551E-06  0.3431195E+04  0.7818609E-02  0.8130292E-01
        1   -1    0    0  501    0  0.00000000000E+00  0.00000000000E+00  0.25591017765E+04  0.25591017765E+04  0.50400001928E-02 0. -1.
       -1   -1    0    0    0  501  0.00000000000E+00  0.00000000000E+00 -0.11501202561E+04  0.11501202561E+04  0.50400001928E-02 0.  1.
    10030    2    1    2    0    0  0.00000000000E+00  0.00000000000E+00  0.14089815204E+04  0.37092220326E+04  0.34311950050E+04 0.  0.
        2    1    3    3  502    0  0.10909792593E+04 -0.32744383071E+03 -0.68235621205E+03  0.13278046568E+04  0.25500000920E-02 0.  1.
       -2    1    3    3    0  502 -0.10909792593E+04  0.32744383071E+03  0.20913377324E+04  0.23814173758E+04  0.25500000920E-02 0. -1.
</event>
<event>
 5   0  0.1003191E-06  0.3119969E+04  0.7818609E-02  0.8210279E-01
       -1   -1    0    0    0  501  0.00000000000E+00  0.00000000000E+00  0.75473290778E+03  0.75473290779E+03  0.50400001928E-02 0. -1.
        1   -1    0    0  501    0  0.00000000000E+00  0.00000000000E+00 -0.32243881811E+04  0.32243881811E+04  0.50400001928E-02 0.  1.
    10030    2    1    2    0    0  0.00000000000E+00  0.00000000000E+00 -0.24696552733E+04  0.39791210889E+04  0.31199691458E+04 0.  0.
        5    1    3    3  502    0 -0.14066848951E+04  0.33119307214E+03 -0.48563098526E+03  0.15245690502E+04  0.46999998093E+01 0.  1.
       -5    1    3    3    0  502  0.14066848951E+04 -0.33119307214E+03 -0.19840242880E+04  0.24545520387E+04  0.46999998093E+01 0. -1.
</event>
<event>
 5   0  0.1010551E-06  0.3362034E+04  0.7818609E-02  0.8147288E-01
       -1   -1    0    0    0  501  0.00000000000E+00  0.00000000000E+00  0.14039672661E+04  0.14039672661E+04  0.50400001928E-02 0.  1.
        1   -1    0    0  501    0  0.00000000000E+00  0.00000000000E+00 -0.20127380990E+04  0.20127380990E+04  0.50400001928E-02 0. -1.
    10030    2    1    2    0    0  0.00000000000E+00  0.00000000000E+00 -0.60877083286E+03  0.34167053652E+04  0.33620341499E+04 0.  0.
        2    1    3    3  502    0  0.77667566962E+03 -0.80599233980E+03  0.97019012975E+03  0.14812554255E+04  0.25500000920E-02 0.  1.
       -2    1    3    3    0  502 -0.77667566962E+03  0.80599233980E+03 -0.15789609626E+04  0.19354499397E+04  0.25500000920E-02 0. -1.
</event>
<event>
 5   0  0.2664083E-06  0.3410856E+04  0.7818609E-02  0.8135247E-01
        2   -1    0    0  501    0  0.00000000000E+00  0.00000000000E+00  0.20924227254E+04  0.20924227254E+04  0.25500000920E-02 0.  1.
       -2   -1    0    0    0  501  0.00000000000E+00  0.00000000000E+00 -0.13900081757E+04  0.13900081757E+04  0.25500000920E-02 0. -1.
    10030    2    1    2    0    0  0.00000000000E+00  0.00000000000E+00  0.70241454969E+03  0.34824309011E+04  0.34108560188E+04 0.  0.
        2    1    3    3  502    0  0.58903192536E+03 -0.14695161908E+04  0.99858568154E+03  0.18717932064E+04  0.25500000920E-02 0.  1.
       -2    1    3    3    0  502 -0.58903192536E+03  0.14695161908E+04 -0.29617113184E+03  0.16106376947E+04  0.25500000920E-02 0. -1.
</event>
<event>
 5   0  0.2848685E-06  0.3481571E+04  0.7818609E-02  0.8118171E-01
       -2   -1    0    0    0  501  0.00000000000E+00  0.00000000000E+00  0.15706729884E+04  0.15706729884E+04  0.25500000920E-02 0. -1.
        2   -1    0    0  501    0  0.00000000000E+00  0.00000000000E+00 -0.19293224875E+04  0.19293224875E+04  0.25500000920E-02 0.  1.
    10030    2    1    2    0    0  0.00000000000E+00  0.00000000000E+00 -0.35864949915E+03  0.34999954759E+04  0.34815713217E+04 0.  0.
        3    1    3    3  502    0 -0.77122596908E+03  0.58705995223E+03  0.12743238117E+04  0.16010403087E+04  0.10100000352E+00 0. -1.
       -3    1    3    3    0  502  0.77122596908E+03 -0.58705995223E+03 -0.16329733109E+04  0.18989551672E+04  0.10100000352E+00 0.  1.
</event>
<event>
 5   0  0.2664083E-06  0.2902123E+04  0.7818609E-02  0.8272246E-01
        2   -1    0    0  501    0  0.00000000000E+00  0.00000000000E+00  0.13247655540E+04  0.13247655540E+04  0.25500000920E-02 0. -1.
       -2   -1    0    0    0  501  0.00000000000E+00  0.00000000000E+00 -0.15893973611E+04  0.15893973611E+04  0.25500000920E-02 0.  1.
    10030    2    1    2    0    0  0.00000000000E+00  0.00000000000E+00 -0.26463180711E+03  0.29141629151E+04  0.29021225857E+04 0.  0.
        2    1    3    3  502    0 -0.99759829599E+03 -0.92988863435E+03  0.36540536093E+03  0.14118839578E+04  0.25500000920E-02 0. -1.
       -2    1    3    3    0  502  0.99759829599E+03  0.92988863435E+03 -0.63003716804E+03  0.15022789573E+04  0.25500000920E-02 0.  1.
</event>
<event>
 5   0  0.9232963E-07  0.3315655E+04  0.7818609E-02  0.8158923E-01
        1   -1    0    0  501    0  0.00000000000E+00  0.00000000000E+00  0.21892622465E+04  0.21892622465E+04  0.50400001928E-02 0.  1.
       -1   -1    0    0    0  501  0.00000000000E+00  0.00000000000E+00 -0.12553966551E+04  0.12553966551E+04  0.50400001928E-02 0. -1.
    10030    2    1    2    0    0  0.00000000000E+00  0.00000000000E+00  0.93386559135E+03  0.34446589016E+04  0.33156552905E+04 0.  0.
        3    1    3    3  502    0 -0.83307355882E+03  0.69711920991E+03  0.17680189714E+04  0.20750609245E+04  0.10100000352E+00 0.  1.
       -3    1    3    3    0  502  0.83307355882E+03 -0.69711920991E+03 -0.83415338000E+03  0.13695979771E+04  0.10100000352E+00 0. -1.
</event>
<event>
 5   0  0.1003191E-06  0.3469193E+04  0.7818609E-02  0.8121130E-01
       -1   -1    0    0    0  501  0.00000000000E+00  0.00000000000E+00  0.21736110559E+04  0.21736110559E+04  0.50400001928E-02 0.  1.
        1   -1    0    0  501    0  0.00000000000E+00  0.00000000000E+00 -0.13842514276E+04  0.13842514276E+04  0.50400001928E-02 0. -1.
    10030    2    1    2    0    0  0.00000000000E+00  0.00000000000E+00  0.78935962828E+03  0.35578624835E+04  0.34691925327E+04 0.  0.
        5    1    3    3  502    0 -0.77861921030E+03 -0.66397743901E+03  0.18310809678E+04  0.20976161505E+04  0.46999998093E+01 0.  1.
       -5    1    3    3    0  502  0.77861921030E+03  0.66397743901E+03 -0.10417213395E+04  0.14602463331E+04  0.46999998093E+01 0. -1.
</event>
<event>
 5   0  0.2906701E-06  0.2685392E+04  0.7818609E-02  0.8339760E-01
       -2   -1    0    0    0  501  0.00000000000E+00  0.00000000000E+00  0.96237071011E+03  0.96237071012E+03  0.25500000920E-02 0. -1.
        2   -1    0    0  501    0  0.00000000000E+00  0.00000000000E+00 -0.18733250686E+04  0.18733250686E+04  0.25500000920E-02 0.  1.
    10030    2    1    2    0    0  0.00000000000E+00  0.00000000000E+00 -0.91095435848E+03  0.28356957787E+04  0.26853924678E+04 0.  0.
        5    1    3    3  502    0 -0.10885193227E+04  0.45872302094E+03  0.21861763251E+03  0.12012980001E+04  0.46999998093E+01 0. -1.
       -5    1    3    3    0  502  0.10885193227E+04 -0.45872302094E+03 -0.11295719910E+04  0.16343977786E+04  0.46999998093E+01 0.  1.
</event>
<event>
 5   0  0.1003191E-06  0.3432253E+04  0.7818609E-02  0.8130035E-01
        1   -1    0    0  501    0  0.00000000000E+00  0.00000000000E+00  0.28078136548E+04  0.28078136548E+04  0.50400001928E-02 0. -1.
       -1   -1    0    0    0  501  0.00000000000E+00  0.00000000000E+00 -0.10488911292E+04  0.10488911292E+04  0.50400001928E-02 0.  1.
    10030    2    1    2    0    0  0.00000000000E+00  0.00000000000E+00  0.17589225257E+04  0.38567047840E+04  0.34322533909E+04 0.  0.
        5    1    3    3  502    0 -0.92226773641E+03 -0.48040142870E+03 -0.65453990275E+03  0.12287423996E+04  0.46999998093E+01 0.  1.
       -5    1    3    3    0  502  0.92226773641E+03  0.48040142870E+03  0.24134624284E+04  0.26279623844E+04  0.46999998093E+01 0. -1.
</event>
<event>
 5   0  0.1010551E-06  0.3402553E+04  0.7818609E-02  0.8137280E-01
       -1   -1    0    0    0  501  0.00000000000E+00  0.00000000000E+00  0.19644934587E+04  0.19644934587E+04  0.50400001928E-02 0.  1.
        1   -1    0    0  501    0  0.00000000000E+00  0.00000000000E+00 -0.14733273461E+04  0.14733273461E+04  0.50400001928E-02 0. -1.
    10030    2    1    2    0    0  0.00000000000E+00  0.00000000000E+00  0.49116611256E+03  0.34378208048E+04  0.34025531202E+04 0.  0.
        2    1    3    3  502    0  0.86069751036E+03  0.14673538110E+04  0.22501218733E+03  0.17159714145E+04  0.25500000920E-02 0. -1.
       -2    1    3    3    0  502 -0.86069751036E+03 -0.14673538110E+04  0.26615392523E+03  0.17218493903E+04  0.25500000920E-02 0.  1.
</event>
<event>
 5   0  0.2906701E-06  0.3360078E+04  0.7818609E-02  0.8147775E-01
       -2   -1    0    0    0  501  0.00000000000E+00  0.00000000000E+00  0.88823483573E+03  0.88823483573E+03  0.25500000920E-02 0.  1.
        2   -1    0    0  501    0  0.00000000000E+00  0.00000000000E+00 -0.31776855734E+04  0.31776855734E+04  0.25500000920E-02 0. -1.
    10030    2    1    2    0    0  0.00000000000E+00  0.00000000000E+00 -0.22894507377E+04  0.40659204092E+04  0.33600779892E+04 0.  0.
        5    1    3    3  502    0  0.10104333831E+03 -0.97630196182E+03  0.50520198188E+03  0.11039141313E+04  0.46999998093E+01 0.  1.
       -5    1    3    3    0  502 -0.10104333831E+03  0.97630196182E+03 -0.27946527196E+04  0.29620062778E+04  0.46999998093E+01 0. -1.
</event>
<event>
 5   0  0.1010855E-06  0.3293941E+04  0.7818609E-02  0.8164439E-01
       -1   -1    0    0    0  501  0.00000000000E+00  0.00000000000E+00  0.15175768275E+04  0.15175768275E+04  0.50400001928E-02 0. -1.
        1   -1    0    0  501    0  0.00000000000E+00  0.00000000000E+00 -0.17873962885E+04  0.17873962885E+04  0.50400001928E-02 0.  1.
    10030    2    1    2    0    0  0.00000000000E+00  0.00000000000E+00 -0.26981946098E+03  0.33049731161E+04  0.32939406121E+04 0.  0.
        1    1    3    3  502    0  0.92609645913E+03  0.13612233431E+04 -0.17896062519E+03  0.16560828925E+04  0.50400001928E-02 0. -1.
       -1    1    3    3    0  502 -0.92609645913E+03 -0.13612233431E+04 -0.90858835786E+02  0.16488902236E+04  0.50400001928E-02 0.  1.
</event>
<event>
 5   0  0.2848685E-06  0.2249510E+04  0.7818609E-02  0.8498099E-01
       -2   -1    0    0    0  501  0.00000000000E+00  0.00000000000E+00  0.86790698100E+03  0.86790698100E+03  0.25500000920E-02 0.  1.
        2   -1    0    0  501    0  0.00000000000E+00  0.00000000000E+00 -0.14576144183E+04  0.14576144183E+04  0.25500000920E-02 0. -1.
    10030    2    1    2    0    0  0.00000000000E+00  0.00000000000E+00 -0.58970743731E+03  0.23255213993E+04  0.22495099282E+04 0.  0.
        3    1    3    3  502    0  0.10977957803E+04 -0.99672140737E+02 -0.63729089131E+02  0.11041519451E+04  0.10100000352E+00 0.  1.
       -3    1    3    3    0  502 -0.10977957803E+04  0.99672140737E+02 -0.52597834818E+03  0.12213694542E+04  0.10100000352E+00 0. -1.
</event>
<event>
 5   0  0.2767014E-06  0.3500083E+04  0.7818609E-02  0.8113770E-01
       -2   -1    0    0    0  501  0.00000000000E+00  0.00000000000E+00  0.12936292579E+04  0.12936292580E+04  0.25500000920E-02 0.  1.
        2   -1    0    0  501    0  0.00000000000E+00  0.00000000000E+00 -0.23674824398E+04  0.23674824398E+04  0.25500000920E-02 0. -1.
    10030    2    1    2    0    0  0.00000000000E+00  0.00000000000E+00 -0.10738531818E+04  0.36611116977E+04  0.35000826000E+04 0.  0.
        1    1    3    3  502    0 -0.14373813229E+04 -0.84565143813E+03  0.18002799088E+02  0.16677876133E+04  0.50400001928E-02 0. -1.
       -1    1    3    3    0  502  0.14373813229E+04  0.84565143813E+03 -0.10918559809E+04  0.19933240844E+04  0.50400001928E-02 0.  1.
</event>
<event>
 5   0  0.2848685E-06  0.3436626E+04  0.7818609E-02  0.8128975E-01
        2   -1    0    0  501    0  0.00000000000E+00  0.00000000000E+00  0.23246098888E+04  0.23246098888E+04  0.25500000920E-02 0.  1.
       -2   -1    0    0    0  501  0.00000000000E+00  0.00000000000E+00 -0.12701486354E+04  0.12701486354E+04  0.25500000920E-02 0. -1.
    10030    2    1    2    0    0  0.00000000000E+00  0.00000000000E+00  0.10544612534E+04  0.35947585243E+04  0.34366262981E+04 0.  0.
        3    1    3    3  502    0  0.50008813672E+03  0.15661185665E+04  0.44491307899E+01  0.16440302047E+04  0.10100000352E+00 0. -1.
       -3    1    3    3    0  502 -0.50008813672E+03 -0.15661185665E+04  0.10500121226E+04  0.19507283196E+04  0.10100000352E+00 0.  1.
</event>
<event>
 5   0  0.1010551E-06  0.3254427E+04  0.7818609E-02  0.8174589E-01
       -1   -1    0    0    0  501  0.00000000000E+00  0.00000000000E+00  0.89051140275E+03  0.89051140276E+03  0.50400001928E-02 0. -1.
        1   -1    0    0  501    0  0.00000000000E+00  0.00000000000E+00 -0.29733750930E+04  0.29733750930E+04  0.50400001928E-02 0.  1.
    10030    2    1    2    0    0  0.00000000000E+00  0.00000000000E+00 -0.20828636902E+04  0.38638864957E+04  0.32544273997E+04 0.  0.
        2    1    3    3  502    0 -0.45395736275E+02 -0.80260611032E+03 -0.27211523255E+04  0.28374120814E+04  0.25500000920E-02 0.  1.
       -2    1    3    3    0  502  0.45395736275E+02  0.80260611032E+03  0.63828863532E+03  0.10264744143E+04  0.25500000920E-02 0. -1.
</event>
<event>
 5   0  0.2856440E-06  0.3405138E+04  0.7818609E-02  0.8136646E-01
       -2   -1    0    0    0  501  0.00000000000E+00  0.00000000000E+00  0.17265674983E+04  0.17265674983E+04  0.25500000920E-02 0.  1.
        2   -1    0    0  501    0  0.00000000000E+00  0.00000000000E+00 -0.16789039998E+04  0.16789039998E+04  0.25500000920E-02 0. -1.
    10030    2    1    2    0    0  0.00000000000E+00  0.00000000000E+00  0.47663498574E+02  0.34054714981E+04  0.34051379290E+04 0.  0.
        4    1    3    3  502    0  0.66046716220E+03 -0.83061727032E+03 -0.13076880028E+04  0.16840995955E+04  0.12699999809E+01 0. -1.
       -4    1    3    3    0  502 -0.66046716220E+03  0.83061727032E+03  0.13553515013E+04  0.17213719026E+04  0.12699999809E+01 0.  1.
</event>
<event>
 5   0  0.1003191E-06  0.2938910E+04  0.7818609E-02  0.8261394E-01
       -1   -1    0    0    0  501  0.00000000000E+00  0.00000000000E+00  0.17074979695E+04  0.17074979695E+04  0.50400001928E-02 0. -1.
        1   -1    0    0  501    0  0.00000000000E+00  0.00000000000E+00 -0.12645975070E+04  0.12645975070E+04  0.50400001928E-02 0.  1.
    10030    2    1    2    0    0  0.00000000000E+00  0.00000000000E+00  0.44290046247E+03  0.29720954765E+04  0.29389097811E+04 0.  0.
        5    1    3    3  502    0 -0.12951774245E+04  0.70666143268E+02 -0.47685196128E+03  0.13819870287E+04  0.46999998093E+01 0.  1.
       -5    1    3    3    0  502  0.12951774245E+04 -0.70666143268E+02  0.91975242375E+03  0.15901084478E+04  0.46999998093E+01 0. -1.
</event>
<event>
 5   0  0.1010551E-06  0.3409520E+04  0.7818609E-02  0.8135574E-01
        1   -1    0    0  501    0  0.00000000000E+00  0.00000000000E+00  0.25079804546E+04  0.25079804546E+04  0.50400001928E-02 0.  1.
       -1   -1    0    0    0  501  0.00000000000E+00  0.00000000000E+00 -0.11587835430E+04  0.11587835430E+04  0.50400001928E-02 0. -1.
    10030    2    1    2    0    0  0.00000000000E+00  0.00000000000E+00  0.13491969117E+04  0.36667639976E+04  0.34095198940E+04 0.  0.
        2    1    3    3  502    0 -0.90649671241E+03 -0.34880443997E+03 -0.83210706441E+03  0.12789851421E+04  0.25500000920E-02 0. -1.
       -2    1    3    3    0  502  0.90649671241E+03  0.34880443997E+03  0.21813039761E+04  0.23877788556E+04  0.25500000920E-02 0.  1.
</event>
<event>
 5   0  0.1010551E-06  0.3082881E+04  0.7818609E-02  0.8220452E-01
        1   -1    0    0  501    0  0.00000000000E+00  0.00000000000E+00  0.15005597932E+04  0.15005597932E+04  0.50400001928E-02 0.  1.
       -1   -1    0    0    0  501  0.00000000000E+00  0.00000000000E+00 -0.15834345372E+04  0.15834345372E+04  0.50400001928E-02 0. -1.
    10030    2    1    2    0    0  0.00000000000E+00  0.00000000000E+00 -0.82874743973E+02  0.30839943305E+04  0.30828806022E+04 0.  0.
        2    1    3    3  502    0 -0.10190884279E+04  0.11534074044E+04 -0.12601575725E+03  0.15442700008E+04  0.25500000920E-02 0.  1.
       -2    1    3    3    0  502  0.10190884279E+04 -0.11534074044E+04  0.43141013282E+02  0.15397243297E+04  0.25500000920E-02 0. -1.
</event>
<event>
 5   0  0.9232963E-07  0.3459787E+04  0.7818609E-02  0.8123386E-01
        1   -1    0    0  501    0  0.00000000000E+00  0.00000000000E+00  0.96499426058E+03  0.96499426060E+03  0.50400001928E-02 0.  1.
       -1   -1    0    0    0  501  0.00000000000E+00  0.00000000000E+00 -0.31010882335E+04  0.31010882335E+04  0.50400001928E-02 0. -1.
    10030    2    1    2    0    0  0.00000000000E+00  0.00000000000E+00 -0.21360939729E+04  0.40660824941E+04  0.34597874772E+04 0.  0.
        3    1    3    3  502    0 -0.16912064765E+04 -0.83022062820E+02 -0.65177232960E+03  0.18143536560E+04  0.10100000352E+00 0. -1.
       -3    1    3    3    0  502  0.16912064765E+04  0.83022062820E+02 -0.14843216433E+04  0.22517288381E+04  0.10100000352E+00 0.  1.
</event>
<event>
 5   0  0.1003191E-06  0.3526673E+04  0.7818609E-02  0.8107498E-01
        1   -1    0    0  501    0  0.00000000000E+00  0.00000000000E+00  0.22251255274E+04  0.22251255274E+04  0.50400001928E-02 0. -1.
       -1   -1    0    0    0  501  0.00000000000E+00  0.00000000000E+00 -0.13973839667E+04  0.13973839667E+04  0.50400001928E-02 0.  1.
    10030    2    1    2    0    0  0.00000000000E+00  0.00000000000E+00  0.82774156065E+03  0.36225094941E+04  0.35266725030E+04 0.  0.
        5    1    3    3  502    0 -0.10109244723E+04  0.13816124723E+04  0.84785835758E+03  0.19104206858E+04  0.46999998093E+01 0. -1.
       -5    1    3    3    0  502  0.10109244723E+04 -0.13816124723E+04 -0.20116796930E+02  0.17120888083E+04  0.46999998093E+01 0.  1.
</event>
<event>
 5   0  0.2906701E-06  0.2552491E+04  0.7818609E-02  0.8384520E-01
        2   -1    0    0  501    0  0.00000000000E+00  0.00000000000E+00  0.10346575023E+04  0.10346575023E+04  0.25500000920E-02 0.  1.
       -2   -1    0    0    0  501  0.00000000000E+00  0.00000000000E+00 -0.15742428173E+04  0.15742428173E+04  0.25500000920E-02 0. -1.
    10030    2    1    2    0    0  0.00000000000E+00  0.00000000000E+00 -0.53958531501E+03  0.26089003195E+04  0.25524906592E+04 0.  0.
        5    1    3    3  502    0 -0.11381314978E+04 -0.47986965353E+03  0.58493754869E+02  0.12365523846E+04  0.46999998093E+01 0.  1.
       -5    1    3    3    0  502  0.11381314978E+04  0.47986965353E+03 -0.59807906988E+03  0.13723479349E+04  0.46999998093E+01 0. -1.
</event>
<event>
 5   0  0.9232963E-07  0.2185153E+04  0.7818609E-02  0.8524633E-01
       -1   -1    0    0    0  501  0.00000000000E+00  0.00000000000E+00  0.80208661885E+03  0.80208661886E+03  0.50400001928E-02 0. -1.
        1   -1    0    0  501    0  0.00000000000E+00  0.00000000000E+00 -0.14882722147E+04  0.14882722147E+04  0.50400001928E-02 0.  1.
    10030    2    1    2    0    0  0.00000000000E+00  0.00000000000E+00 -0.68618559583E+03  0.22903588336E+04  0.21851528355E+04 0.  0.
        3    1    3    3  502    0  0.30285108640E+03  0.10489341625E+04 -0.38683402903E+03  0.11582841767E+04  0.10100000352E+00 0. -1.
       -3    1    3    3    0  502 -0.30285108640E+03 -0.10489341625E+04 -0.29935156680E+03  0.11320746568E+04  0.10100000352E+00 0.  1.
</event>
<event>
 5   0  0.1003191E-06  0.2836696E+04  0.7818609E-02  0.8291965E-01
       -1   -1    0    0    0  501  0.00000000000E+00  0.00000000000E+00  0.15542840317E+04  0.15542840317E+04  0.50400001928E-02 0.  1.
        1   -1    0    0  501    0  0.00000000000E+00  0.00000000000E+00 -0.12943007729E+04  0.12943007729E+04  0.50400001928E-02 0. -1.
    10030    2    1    2    0    0  0.00000000000E+00  0.00000000000E+00  0.25998325881E+03  0.28485848046E+04  0.28366959819E+04 0.  0.
        5    1    3    3  502    0  0.80715465234E+03 -0.10557835100E+04  0.62755942389E+03  0.14697041789E+04  0.46999998093E+01 0.  1.
       -5    1    3    3    0  502 -0.80715465234E+03  0.10557835100E+04 -0.36757616508E+03  0.13788806257E+04  0.46999998093E+01 0. -1.
</event>
<event>
 5   0  0.9714317E-07  0.3439826E+04  0.7818609E-02  0.8128200E-01
        1   -1    0    0  501    0  0.00000000000E+00  0.00000000000E+00  0.12009634680E+04  0.12009634680E+04  0.50400001928E-02 0. -1.
       -1   -1    0    0    0  501  0.00000000000E+00  0.00000000000E+00 -0.24631067331E+04  0.24631067331E+04  0.50400001928E-02 0.  1.
    10030    2    1    2    0    0  0.00000000000E+00  0.00000000000E+00 -0.12621432651E+04  0.36640702011E+04  0.34398262771E+04 0.  0.
        4    1    3    3  502    0 -0.10928663744E+04 -0.10367541293E+04  0.25302591249E+03  0.15274946030E+04  0.12699999809E+01 0. -1.
       -4    1    3    3    0  502  0.10928663744E+04  0.10367541293E+04 -0.15151691776E+04  0.21365755981E+04  0.12699999809E+01 0.  1.
</event>
<event>
 5   0  0.1010551E-06  0.3405616E+04  0.7818609E-02  0.8136529E-01
       -1   -1    0    0    0  501  0.00000000000E+00  0.00000000000E+00  0.98732828390E+03  0.98732828392E+03  0.50400001928E-02 0.  1.
        1   -1    0    0  501    0  0.00000000000E+00  0.00000000000E+00 -0.29367687599E+04  0.29367687599E+04  0.50400001928E-02 0. -1.
    10030    2    1    2    0    0  0.00000000000E+00  0.00000000000E+00 -0.19494404760E+04  0.39240970438E+04  0.34056158679E+04 0.  0.
        2    1    3    3  502    0  0.16452973165E+04 -0.39152940790E+03 -0.74642393043E+03  0.18486338796E+04  0.25500000920E-02 0.  1.
       -2    1    3    3    0  502 -0.16452973165E+04  0.39152940790E+03 -0.12030165456E+04  0.20754631642E+04  0.25500000920E-02 0. -1.
</event>
<event>
 5   0  0.2664083E-06  0.3446015E+04  0.7818609E-02  0.8126704E-01
       -2   -1    0    0    0  501  0.00000000000E+00  0.00000000000E+00  0.15150845431E+04  0.15150845431E+04  0.25500000920E-02 0.  1.
        2   -1    0    0  501    0  0.00000000000E+00  0.00000000000E+00 -0.19594650082E+04  0.19594650082E+04  0.25500000920E-02 0. -1.
    10030    2    1    2    0    0  0.00000000000E+00  0.00000000000E+00 -0.44438046511E+03  0.34745495514E+04  0.34460151751E+04 0.  0.
        2    1    3    3  502    0 -0.10800984732E+04 -0.13198790316E+04  0.24914129833E+02  0.17056711534E+04  0.25500000920E-02 0.  1.
       -2    1    3    3    0  502  0.10800984732E+04  0.13198790316E+04 -0.46929459494E+03  0.17688783979E+04  0.25500000920E-02 0. -1.
</event>
<event>
 5   0  0.2848685E-06  0.3391106E+04  0.7818609E-02  0.8140093E-01
       -2   -1    0    0    0  501  0.00000000000E+00  0.00000000000E+00  0.13567270871E+04  0.13567270871E+04  0.25500000920E-02 0.  1.
        2   -1    0    0  501    0  0.00000000000E+00  0.00000000000E+00 -0.21189964565E+04  0.21189964565E+04  0.25500000920E-02 0. -1.
    10030    2    1    2    0    0  0.00000000000E+00  0.00000000000E+00 -0.76226936940E+03  0.34757235435E+04  0.33911059493E+04 0.  0.
        3    1    3    3  502    0  0.22703551813E+03  0.71909934584E+03  0.11753940478E+04  0.13964956762E+04  0.10100000352E+00 0.  1.
       -3    1    3    3    0  502 -0.22703551813E+03 -0.71909934584E+03 -0.19376634172E+04  0.20792278674E+04  0.10100000352E+00 0. -1.
</event>
<event>
 5   0  0.2856440E-06  0.3645637E+04  0.7818609E-02  0.8080117E-01
       -2   -1    0    0    0  501  0.00000000000E+00  0.00000000000E+00  0.11053930646E+04  0.11053930646E+04  0.25500000920E-02 0. -1.
        2   -1    0    0  501    0  0.00000000000E+00  0.00000000000E+00 -0.30058694951E+04  0.30058694951E+04  0.25500000920E-02 0.  1.
    10030    2    1    2    0    0  0.00000000000E+00  0.00000000000E+00 -0.19004764305E+04  0.41112625597E+04  0.36456370050E+04 0.  0.
        4    1    3    3  502    0 -0.11777831125E+04 -0.68111022647E+03 -0.23182629382E+04  0.26880157857E+04  0.12699999809E+01 0.  1.
       -4    1    3    3    0  502  0.11777831125E+04  0.68111022647E+03  0.41778650777E+03  0.14232467740E+04  0.12699999809E+01 0. -1.
</event>
<event>
 5   0  0.1003191E-06  0.3315624E+04  0.7818609E-02  0.8158931E-01
        1   -1    0    0  501    0  0.00000000000E+00  0.00000000000E+00  0.22100854256E+04  0.22100854256E+04  0.50400001928E-02 0.  1.
       -1   -1    0    0    0  501  0.00000000000E+00  0.00000000000E+00 -0.12435448395E+04  0.12435448395E+04  0.50400001928E-02 0. -1.
    10030    2    1    2    0    0  0.00000000000E+00  0.00000000000E+00  0.96654058615E+03  0.34536302651E+04  0.33156238181E+04 0.  0.
        5    1    3    3  502    0 -0.68157564241E+03 -0.12789871098E+04 -0.35519736483E+03  0.14921597238E+04  0.46999998093E+01 0.  1.
       -5    1    3    3    0  502  0.68157564241E+03  0.12789871098E+04  0.13217379510E+04  0.19614705413E+04  0.46999998093E+01 0. -1.
</event>
<event>
 5   0  0.2767014E-06  0.3444465E+04  0.7818609E-02  0.8127079E-01
       -2   -1    0    0    0  501  0.00000000000E+00  0.00000000000E+00  0.13416707898E+04  0.13416707898E+04  0.25500000920E-02 0. -1.
        2   -1    0    0  501    0  0.00000000000E+00  0.00000000000E+00 -0.22107391594E+04  0.22107391594E+04  0.25500000920E-02 0.  1.
    10030    2    1    2    0    0  0.00000000000E+00  0.00000000000E+00 -0.86906836965E+03  0.35524099492E+04  0.34444646342E+04 0.  0.
        1    1    3    3  502    0 -0.10280843551E+04  0.62680478291E+03 -0.17044814209E+04  0.20868872972E+04  0.50400001928E-02 0.  1.
       -1    1    3    3    0  502  0.10280843551E+04 -0.62680478291E+03  0.83541305129E+03  0.14655226519E+04  0.50400001928E-02 0. -1.
</event>
<event>
 5   0  0.2906701E-06  0.3394516E+04  0.7818609E-02  0.8139253E-01
       -2   -1    0    0    0  501  0.00000000000E+00  0.00000000000E+00  0.12848488049E+04  0.12848488049E+04  0.25500000920E-02 0. -1.
        2   -1    0    0  501    0  0.00000000000E+00  0.00000000000E+00 -0.22420424253E+04  0.22420424253E+04  0.25500000920E-02 0.  1.
    10030    2    1    2    0    0  0.00000000000E+00  0.00000000000E+00 -0.95719362044E+03  0.35268912302E+04  0.33945164785E+04 0.  0.
        5    1    3    3  502    0  0.36595006846E+03 -0.11856612500E+04  0.72455564602E+03  0.14369116280E+04  0.46999998093E+01 0. -1.
       -5    1    3    3    0  502 -0.36595006846E+03  0.11856612500E+04 -0.16817492665E+04  0.20899796022E+04  0.46999998093E+01 0.  1.
</event>
<event>
 5   0  0.9714317E-07  0.3415382E+04  0.7818609E-02  0.8134141E-01
       -1   -1    0    0    0  501  0.00000000000E+00  0.00000000000E+00  0.18348977793E+04  0.18348977793E+04  0.50400001928E-02 0. -1.
        1   -1    0    0  501    0  0.00000000000E+00  0.00000000000E+00 -0.15893033601E+04  0.15893033601E+04  0.50400001928E-02 0.  1.
    10030    2    1    2    0    0  0.00000000000E+00  0.00000000000E+00  0.24559441920E+03  0.34242011394E+04  0.34153823833E+04 0.  0.
        4    1    3    3  502    0  0.74504825100E+03  0.12332826335E+03 -0.14127909632E+04  0.16019633814E+04  0.12699999809E+01 0.  1.
       -4    1    3    3    0  502 -0.74504825100E+03 -0.12332826335E+03  0.16583853824E+04  0.18222377579E+04  0.12699999809E+01 0. -1.
</event>
<event>
 5   0  0.1010551E-06  0.2892409E+04  0.7818609E-02  0.8275140E-01
       -1   -1    0    0    0  501  0.00000000000E+00  0.00000000000E+00  0.91973029749E+03  0.91973029750E+03  0.50400001928E-02 0.  1.
        1   -1    0    0  501    0  0.00000000000E+00  0.00000000000E+00 -0.22740438785E+04  0.22740438785E+04  0.50400001928E-02 0. -1.
    10030    2    1    2    0    0  0.00000000000E+00  0.00000000000E+00 -0.13543135810E+04  0.31937741760E+04  0.28924087214E+04 0.  0.
        2    1    3    3  502    0  0.73820447439E+03  0.30160186261E+02  0.69562130966E+03  0.10147632676E+04  0.25500000920E-02 0.  1.
       -2    1    3    3    0  502 -0.73820447439E+03 -0.30160186261E+02 -0.20499348907E+04  0.21790109084E+04  0.25500000920E-02 0. -1.
</event>
<event>
 5   0  0.1010551E-06  0.3135798E+04  0.7818609E-02  0.8205982E-01
       -1   -1    0    0    0  501  0.00000000000E+00  0.00000000000E+00  0.10125721837E+04  0.10125721838E+04  0.50400001928E-02 0. -1.
        1   -1    0    0  501    0  0.00000000000E+00  0.00000000000E+00 -0.24277841031E+04  0.24277841031E+04  0.50400001928E-02 0.  1.
    10030    2    1    2    0    0  0.00000000000E+00  0.00000000000E+00 -0.14152119194E+04  0.34403562869E+04  0.31357976025E+04 0.  0.
        2    1    3    3  502    0 -0.84475606348E+03  0.13184493582E+04 -0.61993809880E+03  0.16841154245E+04  0.25500000920E-02 0.  1.
       -2    1    3    3    0  502  0.84475606348E+03 -0.13184493582E+04 -0.79527382059E+03  0.17562408623E+04  0.25500000920E-02 0. -1.
</event>
<event>
 5   0  0.1003191E-06  0.3431949E+04  0.7818609E-02  0.8130109E-01
        1   -1    0    0  501    0  0.00000000000E+00  0.00000000000E+00  0.12702347269E+04  0.12702347269E+04  0.50400001928E-02 0. -1.
       -1   -1    0    0    0  501  0.00000000000E+00  0.00000000000E+00 -0.23181291029E+04  0.23181291029E+04  0.50400001928E-02 0.  1.
    10030    2    1    2    0    0  0.00000000000E+00  0.00000000000E+00 -0.10478943760E+04  0.35883638298E+04  0.34319487688E+04 0.  0.
        5    1    3    3  502    0  0.13333472163E+04 -0.97092057302E+03 -0.29041142252E+02  0.16496566419E+04  0.46999998093E+01 0. -1.
       -5    1    3    3    0  502 -0.13333472163E+04  0.97092057302E+03 -0.10188532337E+04  0.19387071879E+04  0.46999998093E+01 0.  1.
</event>
<event>
 5   0  0.1010551E-06  0.3396156E+04  0.7818609E-02  0.8138850E-01
        1   -1    0    0  501    0  0.00000000000E+00  0.00000000000E+00  0.15178155382E+04  0.15178155382E+04  0.50400001928E-02 0. -1.
       -1   -1    0    0    0  501  0.00000000000E+00  0.00000000000E+00 -0.18997496758E+04  0.18997496758E+04  0.50400001928E-02 0.  1.
    10030    2    1    2    0    0  0.00000000000E+00  0.00000000000E+00 -0.38193413764E+03  0.34175652140E+04  0.33961564019E+04 0.  0.
        2    1    3    3  502    0 -0.61476674298E+03  0.19232719938E+03 -0.17720307408E+04  0.18854762916E+04  0.25500000920E-02 0.  1.
       -2    1    3    3    0  502  0.61476674298E+03 -0.19232719938E+03  0.13900966032E+04  0.15320889224E+04  0.25500000920E-02 0. -1.
</event>
<event>
 5   0  0.2664083E-06  0.3332551E+04  0.7818609E-02  0.8154662E-01
       -2   -1    0    0    0  501  0.00000000000E+00  0.00000000000E+00  0.34399890556E+04  0.34399890556E+04  0.25500000920E-02 0.  1.
        2   -1    0    0  501    0  0.00000000000E+00  0.00000000000E+00 -0.80711734844E+03  0.80711734844E+03  0.25500000920E-02 0. -1.
    10030    2    1    2    0    0  0.00000000000E+00  0.00000000000E+00  0.26328717071E+04  0.42471064040E+04  0.33325514821E+04 0.  0.
        2    1    3    3  502    0 -0.10485215729E+04 -0.38435569805E+03  0.28924838593E+04  0.31005789246E+04  0.25500000920E-02 0.  1.
       -2    1    3    3    0  502  0.10485215729E+04  0.38435569805E+03 -0.25961215213E+03  0.11465274794E+04  0.25500000920E-02 0. -1.
</event>
<event>
 5   0  0.2664083E-06  0.3294333E+04  0.7818609E-02  0.8164339E-01
        2   -1    0    0  501    0  0.00000000000E+00  0.00000000000E+00  0.18760151692E+04  0.18760151692E+04  0.25500000920E-02 0.  1.
       -2   -1    0    0    0  501  0.00000000000E+00  0.00000000000E+00 -0.14462343465E+04  0.14462343465E+04  0.25500000920E-02 0. -1.
    10030    2    1    2    0    0  0.00000000000E+00  0.00000000000E+00  0.42978082274E+03  0.33222495157E+04  0.32943330568E+04 0.  0.
        2    1    3    3  502    0  0.10324324606E+04  0.95062625094E+02 -0.10758791583E+04  0.14941451240E+04  0.25500000920E-02 0. -1.
       -2    1    3    3    0  502 -0.10324324606E+04 -0.95062625094E+02  0.15056599810E+04  0.18281043917E+04  0.25500000920E-02 0.  1.
</event>
<event>
 5   0  0.2848685E-06  0.2547216E+04  0.7818609E-02  0.8386355E-01
       -2   -1    0    0    0  501  0.00000000000E+00  0.00000000000E+00  0.78357244934E+03  0.78357244934E+03  0.25500000920E-02 0. -1.
        2   -1    0    0  501    0  0.00000000000E+00  0.00000000000E+00 -0.20701048489E+04  0.20701048489E+04  0.25500000920E-02 0.  1.
    10030    2    1    2    0    0  0.00000000000E+00  0.00000000000E+00 -0.12865323995E+04  0.28536772982E+04  0.25472158345E+04 0.  0.
        3    1    3    3  502    0  0.77477906396E+03  0.53003117416E+03 -0.16075561041E+04  0.18615725292E+04  0.10100000352E+00 0.  1.
       -3    1    3    3    0  502 -0.77477906396E+03 -0.53003117416E+03  0.32102370458E+03  0.99210476898E+03  0.10100000352E+00 0. -1.
</event>
<event>
 5   0  0.1010855E-06  0.2798105E+04  0.7818609E-02  0.8303857E-01
        1   -1    0    0  501    0  0.00000000000E+00  0.00000000000E+00  0.22372629306E+04  0.22372629306E+04  0.50400001928E-02 0. -1.
       -1   -1    0    0    0  501  0.00000000000E+00  0.00000000000E+00 -0.87488479992E+03  0.87488479993E+03  0.50400001928E-02 0.  1.
    10030    2    1    2    0    0  0.00000000000E+00  0.00000000000E+00  0.13623781307E+04  0.31121477305E+04  0.27981045952E+04 0.  0.
        1    1    3    3  502    0 -0.83030609129E+02 -0.33399578482E+03 -0.82706784473E+03  0.89581721692E+03  0.50400001928E-02 0.  1.
       -1    1    3    3    0  502  0.83030609129E+02  0.33399578482E+03  0.21894459754E+04  0.22163305136E+04  0.50400001928E-02 0. -1.
</event>
<event>
 5   0  0.1010551E-06  0.3311415E+04  0.7818609E-02  0.8159997E-01
       -1   -1    0    0    0  501  0.00000000000E+00  0.00000000000E+00  0.14839089402E+04  0.14839089402E+04  0.50400001928E-02 0. -1.
        1   -1    0    0  501    0  0.00000000000E+00  0.00000000000E+00 -0.18473958769E+04  0.18473958769E+04  0.50400001928E-02 0.  1.
    10030    2    1    2    0    0  0.00000000000E+00  0.00000000000E+00 -0.36348693664E+03  0.33313048171E+04  0.33114149591E+04 0.  0.
        2    1    3    3  502    0 -0.10579309660E+04  0.78449678470E+03  0.82763456075E+03  0.15555166666E+04  0.25500000920E-02 0. -1.
       -2    1    3    3    0  502  0.10579309660E+04 -0.78449678470E+03 -0.11911214974E+04  0.17757881505E+04  0.25500000920E-02 0.  1.
</event>
<event>
 5   0  0.1010551E-06  0.3382996E+04  0.7818609E-02  0.8142092E-01
        1   -1    0    0  501    0  0.00000000000E+00  0.00000000000E+00  0.13093231204E+04  0.13093231204E+04  0.50400001928E-02 0. -1.
       -1   -1    0    0    0  501  0.00000000000E+00  0.00000000000E+00 -0.21852253169E+04  0.21852253169E+04  0.50400001928E-02 0.  1.
    10030    2    1    2    0    0  0.00000000000E+00  0.00000000000E+00 -0.87590219646E+03  0.34945484373E+04  0.33829963232E+04 0.  0.
        2    1    3    3  502    0  0.46306367434E+03  0.12435859553E+04 -0.15214579997E+04  0.20188532486E+04  0.25500000920E-02 0.  1.
       -2    1    3    3    0  502 -0.46306367434E+03 -0.12435859553E+04  0.64555580323E+03  0.14756951886E+04  0.25500000920E-02 0. -1.
</event>
<event>
 5   0  0.2848685E-06  0.3452653E+04  0.7818609E-02  0.8125103E-01
        2   -1    0    0  501    0  0.00000000000E+00  0.00000000000E+00  0.21718461619E+04  0.21718461619E+04  0.25500000920E-02 0.  1.
       -2   -1    0    0    0  501  0.00000000000E+00  0.00000000000E+00 -0.13721977223E+04  0.13721977223E+04  0.25500000920E-02 0. -1.
    10030    2    1    2    0    0  0.00000000000E+00  0.00000000000E+00  0.79964843961E+03  0.35440438842E+04  0.34526525203E+04 0.  0.
        3    1    3    3  502    0  0.11247156221E+04  0.10578878663E+03  0.17397609975E+04  0.20743540769E+04  0.10100000352E+00 0.  1.
       -3    1    3    3    0  502 -0.11247156221E+04 -0.10578878663E+03 -0.94011255788E+03  0.14696898073E+04  0.10100000352E+00 0. -1.
</event>
<event>
 5   0  0.2664083E-06  0.3447602E+04  0.7818609E-02  0.8126321E-01
        2   -1    0    0  501    0  0.00000000000E+00  0.00000000000E+00  0.18838001773E+04  0.18838001773E+04  0.25500000920E-02 0.  1.
       -2   -1    0    0    0  501  0.00000000000E+00  0.00000000000E+00 -0.15773914886E+04  0.15773914886E+04  0.25500000920E-02 0. -1.
    10030    2    1    2    0    0  0.00000000000E+00  0.00000000000E+00  0.30640868875E+03  0.34611916659E+04  0.34476022774E+04 0.  0.
        2    1    3    3  502    0  0.68768819829E+03  0.96305305800E+03 -0.11051732398E+04  0.16191955227E+04  0.25500000920E-02 0. -1.
       -2    1    3    3    0  502 -0.68768819829E+03 -0.96305305800E+03  0.14115819286E+04  0.18419961432E+04  0.25500000920E-02 0.  1.
</event>
<event>
 5   0  0.2664083E-06  0.3240091E+04  0.7818609E-02  0.8178309E-01
       -2   -1    0    0    0  501  0.00000000000E+00  0.00000000000E+00  0.12385671098E+04  0.12385671098E+04  0.25500000920E-02 0. -1.
        2   -1    0    0  501    0  0.00000000000E+00  0.00000000000E+00 -0.21190196901E+04  0.21190196901E+04  0.25500000920E-02 0.  1.
    10030    2    1    2    0    0  0.00000000000E+00  0.00000000000E+00 -0.88045258034E+03  0.33575867999E+04  0.32400914142E+04 0.  0.
        2    1    3    3  502    0  0.11078982214E+04 -0.84809976844E+03 -0.12933901121E+04  0.19025166670E+04  0.25500000920E-02 0.  1.
       -2    1    3    3    0  502 -0.11078982214E+04  0.84809976844E+03  0.41293753176E+03  0.14550701328E+04  0.25500000920E-02 0. -1.
</event>
<event>
 5   0  0.9714317E-07  0.2588430E+04  0.7818609E-02  0.8372142E-01
        1   -1    0    0  501    0  0.00000000000E+00  0.00000000000E+00  0.10991962137E+04  0.10991962137E+04  0.50400001928E-02 0.  1.
       -1   -1    0    0    0  501  0.00000000000E+00  0.00000000000E+00 -0.15238336635E+04  0.15238336635E+04  0.50400001928E-02 0. -1.
    10030    2    1    2    0    0  0.00000000000E+00  0.00000000000E+00 -0.42463744982E+03  0.26230298772E+04  0.25884297890E+04 0.  0.
        4    1    3    3  502    0  0.73150395136E+03 -0.36831958041E+03 -0.12278285824E+04  0.14759139490E+04  0.12699999809E+01 0. -1.
       -4    1    3    3    0  502 -0.73150395136E+03  0.36831958041E+03  0.80319113261E+03  0.11471159281E+04  0.12699999809E+01 0.  1.
</event>
<event>
 5   0  0.2767014E-06  0.3187423E+04  0.7818609E-02  0.8192147E-01
       -2   -1    0    0    0  501  0.00000000000E+00  0.00000000000E+00  0.11736271613E+04  0.11736271613E+04  0.25500000920E-02 0.  1.
        2   -1    0    0  501    0  0.00000000000E+00  0.00000000000E+00 -0.21641600801E+04  0.21641600801E+04  0.25500000920E-02 0. -1.
    10030    2    1    2    0    0  0.00000000000E+00  0.00000000000E+00 -0.99053291876E+03  0.33377872414E+04  0.31874234431E+04 0.  0.
        1    1    3    3  502    0  0.15178844452E+03  0.11439295766E+04 -0.16463496571E+04  0.20104929250E+04  0.50400001928E-02 0. -1.
       -1    1    3    3    0  502 -0.15178844452E+03 -0.11439295766E+04  0.65581673834E+03  0.13272943164E+04  0.50400001928E-02 0.  1.
</event>
<event>
 5   0  0.2848685E-06  0.3379813E+04  0.7818609E-02  0.8142879E-01
       -2   -1    0    0    0  501  0.00000000000E+00  0.00000000000E+00  0.16079711819E+04  0.16079711819E+04  0.25500000920E-02 0. -1.
        2   -1    0    0  501    0  0.00000000000E+00  0.00000000000E+00 -0.17760170324E+04  0.17760170324E+04  0.25500000920E-02 0.  1.
    10030    2    1    2    0    0  0.00000000000E+00  0.00000000000E+00 -0.16804585058E+03  0.33839882143E+04  0.33798131349E+04 0.  0.
        3    1    3    3  502    0  0.13517073430E+04  0.76768010799E+03 -0.74766801620E+03  0.17249501332E+04  0.10100000352E+00 0.  1.
       -3    1    3    3    0  502 -0.13517073430E+04 -0.76768010799E+03  0.57962216562E+03  0.16590380811E+04  0.10100000352E+00 0. -1.
</event>
<event>
 5   0  0.1010551E-06  0.3481492E+04  0.7818609E-02  0.8118190E-01
       -1   -1    0    0    0  501  0.00000000000E+00  0.00000000000E+00  0.25617826563E+04  0.25617826563E+04  0.50400001928E-02 0. -1.
        1   -1    0    0  501    0  0.00000000000E+00  0.00000000000E+00 -0.11828471076E+04  0.11828471076E+04  0.50400001928E-02 0.  1.
    10030    2    1    2    0    0  0.00000000000E+00  0.00000000000E+00  0.13789355487E+04  0.37446297639E+04  0.34814923267E+04 0.  0.
        2    1    3    3  502    0  0.10431821714E+04 -0.95324194452E+03  0.17828102692E+04  0.22749311426E+04  0.25500000920E-02 0.  1.
       -2    1    3    3    0  502 -0.10431821714E+04  0.95324194452E+03 -0.40387472050E+03  0.14696986213E+04  0.25500000920E-02 0. -1.
</event>
<event>
 5   0  0.2848685E-06  0.3092748E+04  0.7818609E-02  0.8217731E-01
       -2   -1    0    0    0  501  0.00000000000E+00  0.00000000000E+00  0.14258485162E+04  0.14258485162E+04  0.25500000920E-02 0.  1.
        2   -1    0    0  501    0  0.00000000000E+00  0.00000000000E+00 -0.16770872037E+04  0.16770872037E+04  0.25500000920E-02 0. -1.
    10030    2    1    2    0    0  0.00000000000E+00  0.00000000000E+00 -0.25123868755E+03  0.31029357199E+04  0.30927478403E+04 0.  0.
        3    1    3    3  502    0 -0.74510765919E+03  0.23823539589E+03  0.12126903086E+04  0.14431075228E+04  0.10100000352E+00 0.  1.
       -3    1    3    3    0  502  0.74510765919E+03 -0.23823539589E+03 -0.14639289962E+04  0.16598281970E+04  0.10100000352E+00 0. -1.
</event>
<event>
 5   0  0.2664083E-06  0.3488555E+04  0.7818609E-02  0.8116508E-01
       -2   -1    0    0    0  501  0.00000000000E+00  0.00000000000E+00  0.12403277148E+04  0.12403277148E+04  0.25500000920E-02 0.  1.
        2   -1    0    0  501    0  0.00000000000E+00  0.00000000000E+00 -0.24529841800E+04  0.24529841800E+04  0.25500000920E-02 0. -1.
    10030    2    1    2    0    0  0.00000000000E+00  0.00000000000E+00 -0.12126564652E+04  0.36933118948E+04  0.34885551521E+04 0.  0.
        2    1    3    3  502    0 -0.96538822258E+03 -0.37935778489E+03  0.87834316738E+03  0.13591811759E+04  0.25500000920E-02 0.  1.
       -2    1    3    3    0  502  0.96538822258E+03  0.37935778489E+03 -0.20909996326E+04  0.23341307189E+04  0.25500000920E-02 0. -1.
</event>
<event>
 5   0  0.2848685E-06  0.3389550E+04  0.7818609E-02  0.8140476E-01
        2   -1    0    0  501    0  0.00000000000E+00  0.00000000000E+00  0.23291187212E+04  0.23291187212E+04  0.25500000920E-02 0.  1.
       -2   -1    0    0    0  501  0.00000000000E+00  0.00000000000E+00 -0.12331969858E+04  0.12331969858E+04  0.25500000920E-02 0. -1.
    10030    2    1    2    0    0  0.00000000000E+00  0.00000000000E+00  0.10959217354E+04  0.35623157070E+04  0.33895499327E+04 0.  0.
        3    1    3    3  502    0  0.53116716113E+03 -0.47161699937E+03  0.21651238860E+04  0.22786668468E+04  0.10100000352E+00 0.  1.
       -3    1    3    3    0  502 -0.53116716113E+03  0.47161699937E+03 -0.10692021506E+04  0.12836488602E+04  0.10100000352E+00 0. -1.
</event>
<event>
 5   0  0.1003191E-06  0.3399582E+04  0.7818609E-02  0.8138009E-01
       -1   -1    0    0    0  501  0.00000000000E+00  0.00000000000E+00  0.20724735202E+04  0.20724735202E+04  0.50400001928E-02 0.  1.
        1   -1    0    0  501    0  0.00000000000E+00  0.00000000000E+00 -0.13941259589E+04  0.13941259589E+04  0.50400001928E-02 0. -1.
    10030    2    1    2    0    0  0.00000000000E+00  0.00000000000E+00  0.67834756123E+03  0.34665994791E+04  0.33995818176E+04 0.  0.
        5    1    3    3  502    0  0.69295669720E+03 -0.79530273841E+02  0.19198129260E+04  0.20426007465E+04  0.46999998093E+01 0.  1.
       -5    1    3    3    0  502 -0.69295669720E+03  0.79530273841E+02 -0.12414653648E+04  0.14239987326E+04  0.46999998093E+01 0. -1.
</event>
<event>
 5   0  0.1003191E-06  0.2106346E+04  0.7818609E-02  0.8558453E-01
       -1   -1    0    0    0  501  0.00000000000E+00  0.00000000000E+00  0.11965541994E+04  0.11965541994E+04  0.50400001928E-02 0. -1.
        1   -1    0    0  501    0  0.00000000000E+00  0.00000000000E+00 -0.92697298050E+03  0.92697298051E+03  0.50400001928E-02 0.  1.
    10030    2    1    2    0    0  0.00000000000E+00  0.00000000000E+00  0.26958121892E+03  0.21235271799E+04  0.21063460424E+04 0.  0.
        5    1    3    3  502    0  0.10406192591E+04  0.12802849282E+03  0.34624327903E+02  0.10490475068E+04  0.46999998093E+01 0. -1.
       -5    1    3    3    0  502 -0.10406192591E+04 -0.12802849282E+03  0.23495689102E+03  0.10744796732E+04  0.46999998093E+01 0.  1.
</event>
<event>
 5   0  0.2767014E-06  0.3383188E+04  0.7818609E-02  0.8142045E-01
       -2   -1    0    0    0  501  0.00000000000E+00  0.00000000000E+00  0.12501208250E+04  0.12501208250E+04  0.25500000920E-02 0.  1.
        2   -1    0    0  501    0  0.00000000000E+00  0.00000000000E+00 -0.22889708599E+04  0.22889708599E+04  0.25500000920E-02 0. -1.
    10030    2    1    2    0    0  0.00000000000E+00  0.00000000000E+00 -0.10388500350E+04  0.35390916849E+04  0.33831879284E+04 0.  0.
        1    1    3    3  502    0 -0.11610672659E+04 -0.12300322165E+04 -0.54120991695E+03  0.17759404899E+04  0.50400001928E-02 0. -1.
       -1    1    3    3    0  502  0.11610672659E+04  0.12300322165E+04 -0.49764011803E+03  0.17631511950E+04  0.50400001928E-02 0.  1.
</event>
<event>
 5   0  0.9714317E-07  0.3398319E+04  0.7818609E-02  0.8138319E-01
        1   -1    0    0  501    0  0.00000000000E+00  0.00000000000E+00  0.13047176873E+04  0.13047176873E+04  0.50400001928E-02 0. -1.
       -1   -1    0    0    0  501  0.00000000000E+00  0.00000000000E+00 -0.22128482574E+04  0.22128482574E+04  0.50400001928E-02 0.  1.
    10030    2    1    2    0    0  0.00000000000E+00  0.00000000000E+00 -0.90813057007E+03  0.35175659447E+04  0.33983185611E+04 0.  0.
        4    1    3    3  502    0 -0.67439767114E+03  0.62981460908E+03  0.10227663744E+04  0.13775091035E+04  0.12699999809E+01 0. -1.
       -4    1    3    3    0  502  0.67439767114E+03 -0.62981460908E+03 -0.19308969444E+04  0.21400568412E+04  0.12699999809E+01 0.  1.
</event>
<event>
 5   0  0.2664083E-06  0.3468590E+04  0.7818609E-02  0.8121274E-01
       -2   -1    0    0    0  501  0.00000000000E+00  0.00000000000E+00  0.13495960690E+04  0.13495960690E+04  0.25500000920E-02 0.  1.
        2   -1    0    0  501    0  0.00000000000E+00  0.00000000000E+00 -0.22286511715E+04  0.22286511715E+04  0.25500000920E-02 0. -1.
    10030    2    1    2    0    0  0.00000000000E+00  0.00000000000E+00 -0.87905510250E+03  0.35782472406E+04  0.34685898347E+04 0.  0.
        2    1    3    3  502    0 -0.85319712390E+03 -0.11656502890E+04 -0.14296048959E+04  0.20323523530E+04  0.25500000920E-02 0. -1.
       -2    1    3    3    0  502  0.85319712390E+03  0.11656502890E+04  0.55054979336E+03  0.15458948876E+04  0.25500000920E-02 0.  1.
</event>
<event>
 5   0  0.1010855E-06  0.3390233E+04  0.7818609E-02  0.8140308E-01
       -1   -1    0    0    0  501  0.00000000000E+00  0.00000000000E+00  0.13877740502E+04  0.13877740502E+04  0.50400001928E-02 0.  1.
        1   -1    0    0  501    0  0.00000000000E+00  0.00000000000E+00 -0.20705237381E+04  0.20705237381E+04  0.50400001928E-02 0. -1.
    10030    2    1    2    0    0  0.00000000000E+00  0.00000000000E+00 -0.68274968795E+03  0.34582977883E+04  0.33902325077E+04 0.  0.
        1    1    3    3  502    0  0.90897455389E+03  0.14258589117E+04 -0.46254837660E+03  0.17530714123E+04  0.50400001928E-02 0.  1.
       -1    1    3    3    0  502 -0.90897455389E+03 -0.14258589117E+04 -0.22020131135E+03  0.17052263760E+04  0.50400001928E-02 0. -1.
</event>
<event>
 5   0  0.2856440E-06  0.3430064E+04  0.7818609E-02  0.8130567E-01
       -2   -1    0    0    0  501  0.00000000000E+00  0.00000000000E+00  0.11827182226E+04  0.11827182226E+04  0.25500000920E-02 0.  1.
        2   -1    0    0  501    0  0.00000000000E+00  0.00000000000E+00 -0.24869279586E+04  0.24869279586E+04  0.25500000920E-02 0. -1.
    10030    2    1    2    0    0  0.00000000000E+00  0.00000000000E+00 -0.13042097360E+04  0.36696461811E+04  0.34300641480E+04 0.  0.
        4    1    3    3  502    0 -0.46215683563E+03  0.64733550212E+03  0.97346565551E+03  0.12570875818E+04  0.12699999809E+01 0.  1.
       -4    1    3    3    0  502  0.46215683563E+03 -0.64733550212E+03 -0.22776753915E+04  0.24125585993E+04  0.12699999809E+01 0. -1.
</event>
<event>
 5   0  0.9714317E-07  0.2966644E+04  0.7818609E-02  0.8253321E-01
        1   -1    0    0  501    0  0.00000000000E+00  0.00000000000E+00  0.14156772115E+04  0.14156772115E+04  0.50400001928E-02 0.  1.
       -1   -1    0    0    0  501  0.00000000000E+00  0.00000000000E+00 -0.15541985346E+04  0.15541985346E+04  0.50400001928E-02 0. -1.
    10030    2    1    2    0    0  0.00000000000E+00  0.00000000000E+00 -0.13852132312E+03  0.29698757461E+04  0.29666435227E+04 0.  0.
        4    1    3    3  502    0 -0.38598204618E+03  0.13774921947E+04 -0.46182939839E+03  0.15032481141E+04  0.12699999809E+01 0.  1.
       -4    1    3    3    0  502  0.38598204618E+03 -0.13774921947E+04  0.32330807527E+03  0.14666276320E+04  0.12699999809E+01 0. -1.
</event>
<event>
 5   0  0.2906701E-06  0.3331288E+04  0.7818609E-02  0.8154979E-01
        2   -1    0    0  501    0  0.00000000000E+00  0.00000000000E+00  0.13725709841E+04  0.13725709841E+04  0.25500000920E-02 0. -1.
       -2   -1    0    0    0  501  0.00000000000E+00  0.00000000000E+00 -0.20212946270E+04  0.20212946270E+04  0.25500000920E-02 0.  1.
    10030    2    1    2    0    0  0.00000000000E+00  0.00000000000E+00 -0.64872364283E+03  0.33938656111E+04  0.33312882525E+04 0.  0.
        5    1    3    3  502    0 -0.73948891582E+03  0.10679815711E+04  0.73777673082E+03  0.14939093303E+04  0.46999998093E+01 0. -1.
       -5    1    3    3    0  502  0.73948891582E+03 -0.10679815711E+04 -0.13865003737E+04  0.18999562808E+04  0.46999998093E+01 0.  1.
</event>
<event>
 5   0  0.9714317E-07  0.3172376E+04  0.7818609E-02  0.8196151E-01
        1   -1    0    0  501    0  0.00000000000E+00  0.00000000000E+00  0.12388580965E+04  0.12388580965E+04  0.50400001928E-02 0. -1.
       -1   -1    0    0    0  501  0.00000000000E+00  0.00000000000E+00 -0.20308967988E+04  0.20308967988E+04  0.50400001928E-02 0.  1.
    10030    2    1    2    0    0  0.00000000000E+00  0.00000000000E+00 -0.79203870233E+03  0.32697548953E+04  0.31723763600E+04 0.  0.
        4    1    3    3  502    0 -0.13227126602E+02 -0.41706509471E+03 -0.19733116063E+04  0.20169478324E+04  0.12699999809E+01 0.  1.
       -4    1    3    3    0  502  0.13227126602E+02  0.41706509471E+03  0.11812729040E+04  0.12528070629E+04  0.12699999809E+01 0. -1.
</event>
<event>
 5   0  0.1003191E-06  0.3479380E+04  0.7818609E-02  0.8118694E-01
       -1   -1    0    0    0  501  0.00000000000E+00  0.00000000000E+00  0.19979854348E+04  0.19979854348E+04  0.50400001928E-02 0.  1.
        1   -1    0    0  501    0  0.00000000000E+00  0.00000000000E+00 -0.15147865954E+04  0.15147865955E+04  0.50400001928E-02 0. -1.
    10030    2    1    2    0    0  0.00000000000E+00  0.00000000000E+00  0.48319883936E+03  0.35127720303E+04  0.34793801486E+04 0.  0.
        5    1    3    3  502    0  0.15555865151E+04 -0.48194105702E+03  0.85933991662E+03  0.18413592182E+04  0.46999998093E+01 0.  1.
       -5    1    3    3    0  502 -0.15555865151E+04  0.48194105702E+03 -0.37614107727E+03  0.16714128120E+04  0.46999998093E+01 0. -1.
</event>
<event>
 5   0  0.2767014E-06  0.3291584E+04  0.7818609E-02  0.8165040E-01
        2   -1    0    0  501    0  0.00000000000E+00  0.00000000000E+00  0.21859641841E+04  0.21859641841E+04  0.25500000920E-02 0. -1.
       -2   -1    0    0    0  501  0.00000000000E+00  0.00000000000E+00 -0.12391016861E+04  0.12391016861E+04  0.25500000920E-02 0.  1.
    10030    2    1    2    0    0  0.00000000000E+00  0.00000000000E+00  0.94686249795E+03  0.34250658702E+04  0.32915843640E+04 0.  0.
        1    1    3    3  502    0  0.60483381790E+03 -0.56928186890E+02 -0.11181605551E+04  0.12725359691E+04  0.50400001928E-02 0.  1.
       -1    1    3    3    0  502 -0.60483381790E+03  0.56928186890E+02  0.20650230530E+04  0.21525299011E+04  0.50400001928E-02 0. -1.
</event>
<event>
 5   0  0.1003191E-06  0.3372183E+04  0.7818609E-02  0.8144767E-01
       -1   -1    0    0    0  501  0.00000000000E+00  0.00000000000E+00  0.14530035233E+04  0.14530035233E+04  0.50400001928E-02 0.  1.
        1   -1    0    0  501    0  0.00000000000E+00  0.00000000000E+00 -0.19565709376E+04  0.19565709376E+04  0.50400001928E-02 0. -1.
    10030    2    1    2    0    0  0.00000000000E+00  0.00000000000E+00 -0.50356741429E+03  0.34095744609E+04  0.33721829523E+04 0.  0.
        5    1    3    3  502    0 -0.77864372081E+03  0.80715842408E+03 -0.15247480375E+04  0.18927940810E+04  0.46999998093E+01 0. -1.
       -5    1    3    3    0  502  0.77864372081E+03 -0.80715842408E+03  0.10211806232E+04  0.15167803798E+04  0.46999998093E+01 0.  1.
</event>
<event>
 5   0  0.2767014E-06  0.3394451E+04  0.7818609E-02  0.8139270E-01
       -2   -1    0    0    0  501  0.00000000000E+00  0.00000000000E+00  0.17806280060E+04  0.17806280060E+04  0.25500000920E-02 0.  1.
        2   -1    0    0  501    0  0.00000000000E+00  0.00000000000E+00 -0.16177295046E+04  0.16177295046E+04  0.25500000920E-02 0. -1.
    10030    2    1    2    0    0  0.00000000000E+00  0.00000000000E+00  0.16289850139E+03  0.33983575106E+04  0.33944510378E+04 0.  0.
        1    1    3    3  502    0 -0.22013477266E+03  0.12288585804E+04 -0.10696660160E+04  0.16440006431E+04  0.50400001928E-02 0. -1.
       -1    1    3    3    0  502  0.22013477266E+03 -0.12288585804E+04  0.12325645174E+04  0.17543568675E+04  0.50400001928E-02 0.  1.
</event>
<event>
 5   0  0.9232963E-07  0.3395078E+04  0.7818609E-02  0.8139115E-01
        1   -1    0    0  501    0  0.00000000000E+00  0.00000000000E+00  0.19293665250E+04  0.19293665251E+04  0.50400001928E-02 0. -1.
       -1   -1    0    0    0  501  0.00000000000E+00  0.00000000000E+00 -0.14935674488E+04  0.14935674488E+04  0.50400001928E-02 0.  1.
    10030    2    1    2    0    0  0.00000000000E+00  0.00000000000E+00  0.43579907623E+03  0.34229339739E+04  0.33950782251E+04 0.  0.
        3    1    3    3  502    0  0.86409942613E+03  0.13771389492E+04 -0.27443020531E+03  0.16487848409E+04  0.10100000352E+00 0.  1.
       -3    1    3    3    0  502 -0.86409942613E+03 -0.13771389492E+04  0.71022928154E+03  0.17741491330E+04  0.10100000352E+00 0. -1.
</event>
<event>
 5   0  0.1003191E-06  0.2981840E+04  0.7818609E-02  0.8248936E-01
        1   -1    0    0  501    0  0.00000000000E+00  0.00000000000E+00  0.18975392566E+04  0.18975392566E+04  0.50400001928E-02 0. -1.
       -1   -1    0    0    0  501  0.00000000000E+00  0.00000000000E+00 -0.11714339844E+04  0.11714339844E+04  0.50400001928E-02 0.  1.
    10030    2    1    2    0    0  0.00000000000E+00  0.00000000000E+00  0.72610527224E+03  0.30689732410E+04  0.29818396818E+04 0.  0.
        5    1    3    3  502    0 -0.14460961415E+03 -0.80382570786E+01  0.18902740981E+04  0.18958203528E+04  0.46999998093E+01 0. -1.
       -5    1    3    3    0  502  0.14460961415E+03  0.80382570786E+01 -0.11641688259E+04  0.11731528883E+04  0.46999998093E+01 0.  1.
</event>
<event>
 5   0  0.2856440E-06  0.3402049E+04  0.7818609E-02  0.8137404E-01
        2   -1    0    0  501    0  0.00000000000E+00  0.00000000000E+00  0.19604201569E+04  0.19604201569E+04  0.25500000920E-02 0. -1.
       -2   -1    0    0    0  501  0.00000000000E+00  0.00000000000E+00 -0.14759508324E+04  0.14759508324E+04  0.25500000920E-02 0.  1.
    10030    2    1    2    0    0  0.00000000000E+00  0.00000000000E+00  0.48446932445E+03  0.34363709893E+04  0.34020486548E+04 0.  0.
        4    1    3    3  502    0 -0.15084514877E+02  0.14247356191E+04  0.11807930078E+04  0.18505061111E+04  0.12699999809E+01 0. -1.
       -4    1    3    3    0  502  0.15084514877E+02 -0.14247356191E+04 -0.69632368333E+03  0.15858648782E+04  0.12699999809E+01 0.  1.
</event>
<event>
 5   0  0.2664083E-06  0.3425768E+04  0.7818609E-02  0.8131611E-01
        2   -1    0    0  501    0  0.00000000000E+00  0.00000000000E+00  0.21673326720E+04  0.21673326720E+04  0.25500000920E-02 0. -1.
       -2   -1    0    0    0  501  0.00000000000E+00  0.00000000000E+00 -0.13537248987E+04  0.13537248987E+04  0.25500000920E-02 0.  1.
    10030    2    1    2    0    0  0.00000000000E+00  0.00000000000E+00  0.81360777328E+03  0.35210575707E+04  0.34257683528E+04 0.  0.
        2    1    3    3  502    0 -0.15257203453E+04 -0.39696102978E+03 -0.28158049087E+03  0.16014643937E+04  0.25500000920E-02 0.  1.
       -2    1    3    3    0  502  0.15257203453E+04  0.39696102978E+03  0.10951882642E+04  0.19195931770E+04  0.25500000920E-02 0. -1.
</event>
<event>
 5   0  0.9714317E-07  0.2929322E+04  0.7818609E-02  0.8264207E-01
        1   -1    0    0  501    0  0.00000000000E+00  0.00000000000E+00  0.16442432411E+04  0.16442432411E+04  0.50400001928E-02 0. -1.
       -1   -1    0    0    0  501  0.00000000000E+00  0.00000000000E+00 -0.13046922548E+04  0.13046922549E+04  0.50400001928E-02 0.  1.
    10030    2    1    2    0    0  0.00000000000E+00  0.00000000000E+00  0.33955098625E+03  0.29489354960E+04  0.29293217111E+04 0.  0.
        4    1    3    3  502    0  0.10592100535E+04 -0.10044912199E+04  0.49386893693E+02  0.14606057738E+04  0.12699999809E+01 0.  1.
       -4    1    3    3    0  502 -0.10592100535E+04  0.10044912199E+04  0.29016409255E+03  0.14883297221E+04  0.12699999809E+01 0. -1.
</event>
<event>
 5   0  0.2906701E-06  0.3396008E+04  0.7818609E-02  0.8138887E-01
       -2   -1    0    0    0  501  0.00000000000E+00  0.00000000000E+00  0.15078982937E+04  0.15078982937E+04  0.25500000920E-02 0.  1.
        2   -1    0    0  501    0  0.00000000000E+00  0.00000000000E+00 -0.19120765683E+04  0.19120765683E+04  0.25500000920E-02 0. -1.
    10030    2    1    2    0    0  0.00000000000E+00  0.00000000000E+00 -0.40417827460E+03  0.34199748620E+04  0.33960076530E+04 0.  0.
        5    1    3    3  502    0 -0.33188435501E+03 -0.82274808809E+02  0.14728622507E+04  0.15120389111E+04  0.46999998093E+01 0.  1.
       -5    1    3    3    0  502  0.33188435501E+03  0.82274808809E+02 -0.18770405253E+04  0.19079359509E+04  0.46999998093E+01 0. -1.
</event>
<event>
 5   0  0.1010855E-06  0.3348931E+04  0.7818609E-02  0.8150555E-01
       -1   -1    0    0    0  501  0.00000000000E+00  0.00000000000E+00  0.12026081780E+04  0.12026081780E+04  0.50400001928E-02 0. -1.
        1   -1    0    0  501    0  0.00000000000E+00  0.00000000000E+00 -0.23314611313E+04  0.23314611313E+04  0.50400001928E-02 0.  1.
    10030    2    1    2    0    0  0.00000000000E+00  0.00000000000E+00 -0.11288529533E+04  0.35340693093E+04  0.33489307089E+04 0.  0.
        1    1    3    3  502    0  0.33069916626E+02 -0.65603986173E+03 -0.21898198792E+04  0.22862180612E+04  0.50400001928E-02 0.  1.
       -1    1    3    3    0  502 -0.33069916626E+02  0.65603986173E+03  0.10609669259E+04  0.12478512481E+04  0.50400001928E-02 0. -1.
</event>
<event>
 5   0  0.2856440E-06  0.2483416E+04  0.7818609E-02  0.8408918E-01
        2   -1    0    0  501    0  0.00000000000E+00  0.00000000000E+00  0.24713221979E+04  0.24713221979E+04  0.25500000920E-02 0.  1.
       -2   -1    0    0    0  501  0.00000000000E+00  0.00000000000E+00 -0.62389209881E+03  0.62389209882E+03  0.25500000920E-02 0. -1.
    10030    2    1    2    0    0  0.00000000000E+00  0.00000000000E+00  0.18474300991E+04  0.30952142968E+04  0.24834157066E+04 0.  0.
        4    1    3    3  502    0 -0.18039874403E+03  0.45051678737E+03  0.23482311650E+04  0.23978532690E+04  0.12699999809E+01 0.  1.
       -4    1    3    3    0  502  0.18039874403E+03 -0.45051678737E+03 -0.50080106586E+03  0.69736102775E+03  0.12699999809E+01 0. -1.
</event>
<event>
 5   0  0.1010551E-06  0.3319109E+04  0.7818609E-02  0.8158050E-01
       -1   -1    0    0    0  501  0.00000000000E+00  0.00000000000E+00  0.26579986234E+04  0.26579986234E+04  0.50400001928E-02 0. -1.
        1   -1    0    0  501    0  0.00000000000E+00  0.00000000000E+00 -0.10361631863E+04  0.10361631863E+04  0.50400001928E-02 0.  1.
    10030    2    1    2    0    0  0.00000000000E+00  0.00000000000E+00  0.16218354372E+04  0.36941618097E+04  0.33191085085E+04 0.  0.
        2    1    3    3  502    0 -0.22400445204E+03  0.13752735001E+04  0.18142009504E+04  0.22875489684E+04  0.25500000920E-02 0. -1.
       -2    1    3    3    0  502  0.22400445204E+03 -0.13752735001E+04 -0.19236551318E+03  0.14066128413E+04  0.25500000920E-02 0.  1.
</event>
<event>
 5   0  0.1010551E-06  0.3199124E+04  0.7818609E-02  0.8189049E-01
        1   -1    0    0  501    0  0.00000000000E+00  0.00000000000E+00  0.19271965517E+04  0.19271965517E+04  0.50400001928E-02 0. -1.
       -1   -1    0    0    0  501  0.00000000000E+00  0.00000000000E+00 -0.13276269632E+04  0.13276269633E+04  0.50400001928E-02 0.  1.
    10030    2    1    2    0    0  0.00000000000E+00  0.00000000000E+00  0.59956958847E+03  0.32548235150E+04  0.31991236960E+04 0.  0.
        2    1    3    3  502    0 -0.48718098017E+03 -0.26420297517E+03 -0.12268231769E+04  0.13461959838E+04  0.25500000920E-02 0.  1.
       -2    1    3    3    0  502  0.48718098017E+03  0.26420297517E+03  0.18263927653E+04  0.19086275312E+04  0.25500000920E-02 0. -1.
</event>
<event>
 5   0  0.2664083E-06  0.3396467E+04  0.7818609E-02  0.8138774E-01
       -2   -1    0    0    0  501  0.00000000000E+00  0.00000000000E+00  0.12111356580E+04  0.12111356580E+04  0.25500000920E-02 0. -1.
        2   -1    0    0  501    0  0.00000000000E+00  0.00000000000E+00 -0.23812334152E+04  0.23812334152E+04  0.25500000920E-02 0.  1.
    10030    2    1    2    0    0  0.00000000000E+00  0.00000000000E+00 -0.11700977571E+04  0.35923690732E+04  0.33964668108E+04 0.  0.
        2    1    3    3  502    0 -0.14281101490E+04  0.73864776190E+03 -0.11632977276E+04  0.19845303517E+04  0.25500000920E-02 0.  1.
       -2    1    3    3    0  502  0.14281101490E+04 -0.73864776190E+03 -0.68000295011E+01  0.16078387215E+04  0.25500000920E-02 0. -1.
</event>
<event>
 5   0  0.9070500E-07  0.3535540E+04  0.7818609E-02  0.8105419E-01
       -3   -1    0    0    0  501  0.00000000000E+00  0.00000000000E+00  0.15876064051E+04  0.15876064083E+04  0.10100000352E+00 0.  1.
        3   -1    0    0  501    0  0.00000000000E+00  0.00000000000E+00 -0.19683790228E+04  0.19683790254E+04  0.10100000352E+00 0. -1.
    10030    2    1    2    0    0  0.00000000000E+00  0.00000000000E+00 -0.38077261770E+03  0.35559854338E+04  0.35355402160E+04 0.  0.
        2    1    3    3  502    0 -0.11780406598E+04 -0.18810279027E+03  0.11217068321E+04  0.16374946330E+04  0.25500000920E-02 0. -1.
       -2    1    3    3    0  502  0.11780406598E+04  0.18810279027E+03 -0.15024794498E+04  0.19184908008E+04  0.25500000920E-02 0.  1.
</event>
<event>
 5   0  0.1010855E-06  0.3498249E+04  0.7818609E-02  0.8114205E-01
        1   -1    0    0  501    0  0.00000000000E+00  0.00000000000E+00  0.11865647375E+04  0.11865647375E+04  0.50400001928E-02 0.  1.
       -1   -1    0    0    0  501  0.00000000000E+00  0.00000000000E+00 -0.25783986049E+04  0.25783986049E+04  0.50400001928E-02 0. -1.
    10030    2    1    2    0    0  0.00000000000E+00  0.00000000000E+00 -0.13918338674E+04  0.37649633424E+04  0.34982491985E+04 0.  0.
        1    1    3    3  502    0 -0.96671671337E+03 -0.10320181250E+04 -0.18038894400E+04  0.22920776003E+04  0.50400001928E-02 0.  1.
       -1    1    3    3    0  502  0.96671671337E+03  0.10320181250E+04  0.41205557258E+03  0.14728857420E+04  0.50400001928E-02 0. -1.
</event>
<event>
 5   0  0.1003191E-06  0.3361062E+04  0.7818609E-02  0.8147530E-01
        1   -1    0    0  501    0  0.00000000000E+00  0.00000000000E+00  0.15872402989E+04  0.15872402990E+04  0.50400001928E-02 0.  1.
       -1   -1    0    0    0  501  0.00000000000E+00  0.00000000000E+00 -0.17793044805E+04  0.17793044805E+04  0.50400001928E-02 0. -1.
    10030    2    1    2    0    0  0.00000000000E+00  0.00000000000E+00 -0.19206418158E+03  0.33665447795E+04  0.33610616035E+04 0.  0.
        5    1    3    3  502    0 -0.11693724706E+04 -0.70225482159E+03  0.88718423100E+03  0.16271790803E+04  0.46999998093E+01 0.  1.
       -5    1    3    3    0  502  0.11693724706E+04  0.70225482159E+03 -0.10792484126E+04  0.17393656992E+04  0.46999998093E+01 0. -1.
</event>
<event>
 5   0  0.2664083E-06  0.2917453E+04  0.7818609E-02  0.8267704E-01
       -2   -1    0    0    0  501  0.00000000000E+00  0.00000000000E+00  0.10728263713E+04  0.10728263713E+04  0.25500000920E-02 0. -1.
        2   -1    0    0  501    0  0.00000000000E+00  0.00000000000E+00 -0.19834358993E+04  0.19834358993E+04  0.25500000920E-02 0.  1.
    10030    2    1    2    0    0  0.00000000000E+00  0.00000000000E+00 -0.91060952807E+03  0.30562622706E+04  0.29174525453E+04 0.  0.
        2    1    3    3  502    0  0.15916718296E+03  0.11604513620E+04  0.45548725645E+03  0.12567617898E+04  0.25500000920E-02 0. -1.
       -2    1    3    3    0  502 -0.15916718296E+03 -0.11604513620E+04 -0.13660967845E+04  0.17995004808E+04  0.25500000920E-02 0.  1.
</event>
<event>
 5   0  0.2664083E-06  0.3375047E+04  0.7818609E-02  0.8144058E-01
        2   -1    0    0  501    0  0.00000000000E+00  0.00000000000E+00  0.21341859024E+04  0.21341859024E+04  0.25500000920E-02 0. -1.
       -2   -1    0    0    0  501  0.00000000000E+00  0.00000000000E+00 -0.13343429054E+04  0.13343429054E+04  0.25500000920E-02 0.  1.
    10030    2    1    2    0    0  0.00000000000E+00  0.00000000000E+00  0.79984299707E+03  0.34685288078E+04  0.33750471508E+04 0.  0.
        2    1    3    3  502    0 -0.88731410866E+03 -0.25314965102E+03  0.18519697772E+04  0.20691068433E+04  0.25500000920E-02 0. -1.
       -2    1    3    3    0  502  0.88731410866E+03  0.25314965102E+03 -0.10521267801E+04  0.13994219645E+04  0.25500000920E-02 0.  1.
</event>
<event>
 5   0  0.1010855E-06  0.3453624E+04  0.7818609E-02  0.8124869E-01
       -1   -1    0    0    0  501  0.00000000000E+00  0.00000000000E+00  0.10514994924E+04  0.10514994924E+04  0.50400001928E-02 0. -1.
        1   -1    0    0  501    0  0.00000000000E+00  0.00000000000E+00 -0.28358356908E+04  0.28358356908E+04  0.50400001928E-02 0.  1.
    10030    2    1    2    0    0  0.00000000000E+00  0.00000000000E+00 -0.17843361984E+04  0.38873351832E+04  0.34536240614E+04 0.  0.
        1    1    3    3  502    0 -0.29717629258E+03 -0.85157885001E+03 -0.25496338928E+04  0.27044654322E+04  0.50400001928E-02 0.  1.
       -1    1    3    3    0  502  0.29717629258E+03  0.85157885001E+03  0.76529769439E+03  0.11828697509E+04  0.50400001928E-02 0. -1.
</event>
<event>
 5   0  0.2848685E-06  0.3358526E+04  0.7818609E-02  0.8148161E-01
        2   -1    0    0  501    0  0.00000000000E+00  0.00000000000E+00  0.26847086368E+04  0.26847086368E+04  0.25500000920E-02 0. -1.
       -2   -1    0    0    0  501  0.00000000000E+00  0.00000000000E+00 -0.10503653249E+04  0.10503653249E+04  0.25500000920E-02 0.  1.
    10030    2    1    2    0    0  0.00000000000E+00  0.00000000000E+00  0.16343433119E+04  0.37350739617E+04  0.33585263790E+04 0.  0.
        3    1    3    3  502    0 -0.38133190301E+02 -0.41763708039E+03 -0.99118992746E+03  0.10762584976E+04  0.10100000352E+00 0.  1.
       -3    1    3    3    0  502  0.38133190301E+02  0.41763708039E+03  0.26255332393E+04  0.26588154641E+04  0.10100000352E+00 0. -1.
</event>
<event>
 5   0  0.2848685E-06  0.3369676E+04  0.7818609E-02  0.8145389E-01
        2   -1    0    0  501    0  0.00000000000E+00  0.00000000000E+00  0.24576857673E+04  0.24576857673E+04  0.25500000920E-02 0.  1.
       -2   -1    0    0    0  501  0.00000000000E+00  0.00000000000E+00 -0.11550213616E+04  0.11550213616E+04  0.25500000920E-02 0. -1.
    10030    2    1    2    0    0  0.00000000000E+00  0.00000000000E+00  0.13026644056E+04  0.36127071289E+04  0.33696762820E+04 0.  0.
        3    1    3    3  502    0  0.74103188820E+02  0.10654882426E+03 -0.11496541850E+04  0.11569566500E+04  0.10100000352E+00 0. -1.
       -3    1    3    3    0  502 -0.74103188820E+02 -0.10654882426E+03  0.24523185907E+04  0.24557504789E+04  0.10100000352E+00 0.  1.
</event>
<event>
 5   0  0.2856440E-06  0.3372952E+04  0.7818609E-02  0.8144577E-01
       -2   -1    0    0    0  501  0.00000000000E+00  0.00000000000E+00  0.23293993554E+04  0.23293993554E+04  0.25500000920E-02 0. -1.
        2   -1    0    0  501    0  0.00000000000E+00  0.00000000000E+00 -0.12210018100E+04  0.12210018100E+04  0.25500000920E-02 0.  1.
    10030    2    1    2    0    0  0.00000000000E+00  0.00000000000E+00  0.11083975453E+04  0.35504011654E+04  0.33729517217E+04 0.  0.
        4    1    3    3  502    0  0.61276771819E+02 -0.16750501994E+03 -0.12110454558E+04  0.12241100781E+04  0.12699999809E+01 0.  1.
       -4    1    3    3    0  502 -0.61276771819E+02  0.16750501994E+03  0.23194430011E+04  0.23262910873E+04  0.12699999809E+01 0. -1.
</event>
<event>
 5   0  0.9714317E-07  0.3400451E+04  0.7818609E-02  0.8137796E-01
       -1   -1    0    0    0  501  0.00000000000E+00  0.00000000000E+00  0.10931775854E+04  0.10931775854E+04  0.50400001928E-02 0. -1.
        1   -1    0    0  501    0  0.00000000000E+00  0.00000000000E+00 -0.26443712075E+04  0.26443712075E+04  0.50400001928E-02 0.  1.
    10030    2    1    2    0    0  0.00000000000E+00  0.00000000000E+00 -0.15511936221E+04  0.37375487929E+04  0.34004513415E+04 0.  0.
        4    1    3    3  502    0 -0.13899575736E+04  0.67230889306E+03 -0.15580564256E+04  0.21935183479E+04  0.12699999809E+01 0.  1.
       -4    1    3    3    0  502  0.13899575736E+04 -0.67230889306E+03  0.68628035587E+01  0.15440304450E+04  0.12699999809E+01 0. -1.
</event>
<event>
 5   0  0.9714317E-07  0.3376501E+04  0.7818609E-02  0.8143698E-01
       -1   -1    0    0    0  501  0.00000000000E+00  0.00000000000E+00  0.18290902241E+04  0.18290902241E+04  0.50400001928E-02 0.  1.
        1   -1    0    0  501    0  0.00000000000E+00  0.00000000000E+00 -0.15582556772E+04  0.15582556772E+04  0.50400001928E-02 0. -1.
    10030    2    1    2    0    0  0.00000000000E+00  0.00000000000E+00  0.27083454689E+03  0.33873459013E+04  0.33765012813E+04 0.  0.
        4    1    3    3  502    0  0.10506551914E+04 -0.10352631913E+04  0.95936044181E+03  0.17595511577E+04  0.12699999809E+01 0.  1.
       -4    1    3    3    0  502 -0.10506551914E+04  0.10352631913E+04 -0.68852589492E+03  0.16277947436E+04  0.12699999809E+01 0. -1.
</event>
<event>
 5   0  0.2906701E-06  0.2178536E+04  0.7818609E-02  0.8527415E-01
        2   -1    0    0  501    0  0.00000000000E+00  0.00000000000E+00  0.75852690267E+03  0.75852690268E+03  0.25500000920E-02 0. -1.
       -2   -1    0    0    0  501  0.00000000000E+00  0.00000000000E+00 -0.15642230003E+04  0.15642230003E+04  0.25500000920E-02 0.  1.
    10030    2    1    2    0    0  0.00000000000E+00  0.00000000000E+00 -0.80569609761E+03  0.23227499030E+04  0.21785364147E+04 0.  0.
        5    1    3    3  502    0  0.55933458106E+03  0.93106516791E+03 -0.49041666118E+03  0.11917500208E+04  0.46999998093E+01 0.  1.
       -5    1    3    3    0  502 -0.55933458106E+03 -0.93106516791E+03 -0.31527943643E+03  0.11309998822E+04  0.46999998093E+01 0. -1.
</event>
<event>
 5   0  0.9714317E-07  0.3334305E+04  0.7818609E-02  0.8154221E-01
       -1   -1    0    0    0  501  0.00000000000E+00  0.00000000000E+00  0.20098446594E+04  0.20098446594E+04  0.50400001928E-02 0.  1.
        1   -1    0    0  501    0  0.00000000000E+00  0.00000000000E+00 -0.13828919587E+04  0.13828919587E+04  0.50400001928E-02 0. -1.
    10030    2    1    2    0    0  0.00000000000E+00  0.00000000000E+00  0.62695270066E+03  0.33927366182E+04  0.33343053356E+04 0.  0.
        4    1    3    3  502    0  0.16243353769E+04  0.37371179441E+03  0.34974482007E+03  0.17030704548E+04  0.12699999809E+01 0.  1.
       -4    1    3    3    0  502 -0.16243353769E+04 -0.37371179441E+03  0.27720788059E+03  0.16896661634E+04  0.12699999809E+01 0. -1.
</event>
<event>
 5   0  0.2848685E-06  0.3402190E+04  0.7818609E-02  0.8137369E-01
        2   -1    0    0  501    0  0.00000000000E+00  0.00000000000E+00  0.10801393880E+04  0.10801393880E+04  0.25500000920E-02 0.  1.
       -2   -1    0    0    0  501  0.00000000000E+00  0.00000000000E+00 -0.26790287761E+04  0.26790287761E+04  0.25500000920E-02 0. -1.
    10030    2    1    2    0    0  0.00000000000E+00  0.00000000000E+00 -0.15988893882E+04  0.37591681641E+04  0.34021901785E+04 0.  0.
        3    1    3    3  502    0  0.11961136504E+04 -0.12087215822E+04 -0.84921255702E+03  0.19007518789E+04  0.10100000352E+00 0. -1.
       -3    1    3    3    0  502 -0.11961136504E+04  0.12087215822E+04 -0.74967683114E+03  0.18584162852E+04  0.10100000352E+00 0.  1.
</event>
<event>
 5   0  0.2848685E-06  0.3342029E+04  0.7818609E-02  0.8152283E-01
       -2   -1    0    0    0  501  0.00000000000E+00  0.00000000000E+00  0.23233055979E+04  0.23233055979E+04  0.25500000920E-02 0. -1.
        2   -1    0    0  501    0  0.00000000000E+00  0.00000000000E+00 -0.12018605908E+04  0.12018605908E+04  0.25500000920E-02 0.  1.
    10030    2    1    2    0    0  0.00000000000E+00  0.00000000000E+00  0.11214450071E+04  0.35251661887E+04  0.33420289876E+04 0.  0.
        3    1    3    3  502    0  0.66856142724E+03  0.11293580644E+04  0.16517456300E+04  0.21096652948E+04  0.10100000352E+00 0. -1.
       -3    1    3    3    0  502 -0.66856142724E+03 -0.11293580644E+04 -0.53030062291E+03  0.14155008939E+04  0.10100000352E+00 0.  1.
</event>
<event>
 5   0  0.9714317E-07  0.3095029E+04  0.7818609E-02  0.8217104E-01
        1   -1    0    0  501    0  0.00000000000E+00  0.00000000000E+00  0.17563832954E+04  0.17563832954E+04  0.50400001928E-02 0. -1.
       -1   -1    0    0    0  501  0.00000000000E+00  0.00000000000E+00 -0.13634840815E+04  0.13634840815E+04  0.50400001928E-02 0.  1.
    10030    2    1    2    0    0  0.00000000000E+00  0.00000000000E+00  0.39289921392E+03  0.31198673769E+04  0.30950287006E+04 0.  0.
        4    1    3    3  502    0 -0.11829622551E+04  0.90311932818E+03  0.62385096699E+03  0.16137583028E+04  0.12699999809E+01 0. -1.
       -4    1    3    3    0  502  0.11829622551E+04 -0.90311932818E+03 -0.23095175308E+03  0.15061090741E+04  0.12699999809E+01 0.  1.
</event>
<event>
 5   0  0.9232963E-07  0.3406463E+04  0.7818609E-02  0.8136322E-01
       -1   -1    0    0    0  501  0.00000000000E+00  0.00000000000E+00  0.32307182703E+04  0.32307182703E+04  0.50400001928E-02 0. -1.
        1   -1    0    0  501    0  0.00000000000E+00  0.00000000000E+00 -0.89794173401E+03  0.89794173402E+03  0.50400001928E-02 0.  1.
    10030    2    1    2    0    0  0.00000000000E+00  0.00000000000E+00  0.23327765363E+04  0.41286600044E+04  0.34064625439E+04 0.  0.
        3    1    3    3  502    0  0.55668963270E+03 -0.19357011207E+03 -0.77040817809E+03  0.97000077655E+03  0.10100000352E+00 0.  1.
       -3    1    3    3    0  502 -0.55668963270E+03  0.19357011207E+03  0.31031847144E+04  0.31586592278E+04  0.10100000352E+00 0. -1.
</event>
<event>
 5   0  0.9714317E-07  0.3413050E+04  0.7818609E-02  0.8134711E-01
       -1   -1    0    0    0  501  0.00000000000E+00  0.00000000000E+00  0.12922329912E+04  0.12922329912E+04  0.50400001928E-02 0. -1.
        1   -1    0    0  501    0  0.00000000000E+00  0.00000000000E+00 -0.22536403505E+04  0.22536403505E+04  0.50400001928E-02 0.  1.
    10030    2    1    2    0    0  0.00000000000E+00  0.00000000000E+00 -0.96140735934E+03  0.35458733418E+04  0.34130504897E+04 0.  0.
        4    1    3    3  502    0  0.30187102444E+03  0.13552971638E+04  0.55000917343E+03  0.14934752162E+04  0.12699999809E+01 0. -1.
       -4    1    3    3    0  502 -0.30187102444E+03 -0.13552971638E+04 -0.15114165328E+04  0.20523981256E+04  0.12699999809E+01 0.  1.
</event>
<event>
 5   0  0.2906701E-06  0.3350047E+04  0.7818609E-02  0.8150276E-01
        2   -1    0    0  501    0  0.00000000000E+00  0.00000000000E+00  0.16324288654E+04  0.16324288654E+04  0.25500000920E-02 0.  1.
       -2   -1    0    0    0  501  0.00000000000E+00  0.00000000000E+00 -0.17187293931E+04  0.17187293931E+04  0.25500000920E-02 0. -1.
    10030    2    1    2    0    0  0.00000000000E+00  0.00000000000E+00 -0.86300527649E+02  0.33511582585E+04  0.33500468493E+04 0.  0.
        5    1    3    3  502    0  0.65947468575E+03  0.35981319649E+03 -0.15407471330E+04  0.17141459142E+04  0.46999998093E+01 0. -1.
       -5    1    3    3    0  502 -0.65947468575E+03 -0.35981319649E+03  0.14544466053E+04  0.16370123443E+04  0.46999998093E+01 0.  1.
</event>
<event>
 5   0  0.9714317E-07  0.2501502E+04  0.7818609E-02  0.8402451E-01
       -1   -1    0    0    0  501  0.00000000000E+00  0.00000000000E+00  0.13966734998E+04  0.13966734998E+04  0.50400001928E-02 0.  1.
        1   -1    0    0  501    0  0.00000000000E+00  0.00000000000E+00 -0.11200744236E+04  0.11200744236E+04  0.50400001928E-02 0. -1.
    10030    2    1    2    0    0  0.00000000000E+00  0.00000000000E+00  0.27659907616E+03  0.25167479234E+04  0.25015021609E+04 0.  0.
        4    1    3    3  502    0  0.95590293910E+03  0.51908471111E+03  0.75945791052E+03  0.13266413596E+04  0.12699999809E+01 0.  1.
       -4    1    3    3    0  502 -0.95590293910E+03 -0.51908471111E+03 -0.48285883436E+03  0.11901065638E+04  0.12699999809E+01 0. -1.
</event>
<event>
 5   0  0.1010551E-06  0.3346080E+04  0.7818609E-02  0.8151268E-01
        1   -1    0    0  501    0  0.00000000000E+00  0.00000000000E+00  0.11886500982E+04  0.11886500982E+04  0.50400001928E-02 0. -1.
       -1   -1    0    0    0  501  0.00000000000E+00  0.00000000000E+00 -0.23548243489E+04  0.23548243489E+04  0.50400001928E-02 0.  1.
    10030    2    1    2    0    0  0.00000000000E+00  0.00000000000E+00 -0.11661742507E+04  0.35434744472E+04  0.33460796127E+04 0.  0.
        2    1    3    3  502    0 -0.94425838747E+03 -0.11174541525E+04  0.27641754906E+03  0.14888701578E+04  0.25500000920E-02 0. -1.
       -2    1    3    3    0  502  0.94425838747E+03  0.11174541525E+04 -0.14425917997E+04  0.20546042894E+04  0.25500000920E-02 0.  1.
</event>
<event>
 5   0  0.1003191E-06  0.3204121E+04  0.7818609E-02  0.8187730E-01
       -1   -1    0    0    0  501  0.00000000000E+00  0.00000000000E+00  0.11897821066E+04  0.11897821067E+04  0.50400001928E-02 0. -1.
        1   -1    0    0  501    0  0.00000000000E+00  0.00000000000E+00 -0.21571996337E+04  0.21571996337E+04  0.50400001928E-02 0.  1.
    10030    2    1    2    0    0  0.00000000000E+00  0.00000000000E+00 -0.96741752709E+03  0.33469817404E+04  0.32041207997E+04 0.  0.
        5    1    3    3  502    0 -0.24950467622E+03  0.14965750478E+03 -0.21293639047E+04  0.21491539453E+04  0.46999998093E+01 0.  1.
       -5    1    3    3    0  502  0.24950467622E+03 -0.14965750478E+03  0.11619463776E+04  0.11978277951E+04  0.46999998093E+01 0. -1.
</event>
<event>
 5   0  0.2664083E-06  0.2238868E+04  0.7818609E-02  0.8502423E-01
        2   -1    0    0  501    0  0.00000000000E+00  0.00000000000E+00  0.24534890073E+04  0.24534890073E+04  0.25500000920E-02 0.  1.
       -2   -1    0    0    0  501  0.00000000000E+00  0.00000000000E+00 -0.51075505886E+03  0.51075505886E+03  0.25500000920E-02 0. -1.
    10030    2    1    2    0    0  0.00000000000E+00  0.00000000000E+00  0.19427339484E+04  0.29642440661E+04  0.22388675015E+04 0.  0.
        2    1    3    3  502    0 -0.51989421557E+03 -0.52079910553E+03 -0.14551338754E+03  0.75013055508E+03  0.25500000920E-02 0. -1.
       -2    1    3    3    0  502  0.51989421557E+03  0.52079910553E+03  0.20882473360E+04  0.22141135111E+04  0.25500000920E-02 0.  1.
</event>
<event>
 5   0  0.2856440E-06  0.3451848E+04  0.7818609E-02  0.8125297E-01
       -2   -1    0    0    0  501  0.00000000000E+00  0.00000000000E+00  0.13078976694E+04  0.13078976694E+04  0.25500000920E-02 0. -1.
        2   -1    0    0  501    0  0.00000000000E+00  0.00000000000E+00 -0.22775592515E+04  0.22775592515E+04  0.25500000920E-02 0.  1.
    10030    2    1    2    0    0  0.00000000000E+00  0.00000000000E+00 -0.96966158207E+03  0.35854569209E+04  0.34518484538E+04 0.  0.
        4    1    3    3  502    0 -0.15804973766E+04 -0.56780164213E+03 -0.89828571433E+03  0.19045444337E+04  0.12699999809E+01 0.  1.
       -4    1    3    3    0  502  0.15804973766E+04  0.56780164213E+03 -0.71375867739E+02  0.16809124872E+04  0.12699999809E+01 0. -1.
</event>
<event>
 5   0  0.2848685E-06  0.3403888E+04  0.7818609E-02  0.8136953E-01
       -2   -1    0    0    0  501  0.00000000000E+00  0.00000000000E+00  0.14358239894E+04  0.14358239894E+04  0.25500000920E-02 0. -1.
        2   -1    0    0  501    0  0.00000000000E+00  0.00000000000E+00 -0.20173876522E+04  0.20173876522E+04  0.25500000920E-02 0.  1.
    10030    2    1    2    0    0  0.00000000000E+00  0.00000000000E+00 -0.58156366280E+03  0.34532116416E+04  0.34038881221E+04 0.  0.
        3    1    3    3  502    0 -0.47053870815E+02 -0.16874007027E+04 -0.70662255814E+02  0.16895349546E+04  0.10100000352E+00 0.  1.
       -3    1    3    3    0  502  0.47053870815E+02  0.16874007027E+04 -0.51090140698E+03  0.17636766870E+04  0.10100000352E+00 0. -1.
</event>
<event>
 5   0  0.1010855E-06  0.3222627E+04  0.7818609E-02  0.8182867E-01
        1   -1    0    0  501    0  0.00000000000E+00  0.00000000000E+00  0.20150992614E+04  0.20150992614E+04  0.50400001928E-02 0.  1.
       -1   -1    0    0    0  501  0.00000000000E+00  0.00000000000E+00 -0.12884387307E+04  0.12884387307E+04  0.50400001928E-02 0. -1.
    10030    2    1    2    0    0  0.00000000000E+00  0.00000000000E+00  0.72666053067E+03  0.33035379922E+04  0.32226274589E+04 0.  0.
        1    1    3    3  502    0  0.76339352664E+03 -0.57636639610E+03 -0.96589956574E+03  0.13593858430E+04  0.50400001928E-02 0. -1.
       -1    1    3    3    0  502 -0.76339352664E+03  0.57636639610E+03  0.16925600964E+04  0.19441521491E+04  0.50400001928E-02 0.  1.
</event>
<event>
 5   0  0.9232963E-07  0.3391742E+04  0.7818609E-02  0.8139936E-01
       -1   -1    0    0    0  501  0.00000000000E+00  0.00000000000E+00  0.14780268428E+04  0.14780268429E+04  0.50400001928E-02 0.  1.
        1   -1    0    0  501    0  0.00000000000E+00  0.00000000000E+00 -0.19458229794E+04  0.19458229794E+04  0.50400001928E-02 0. -1.
    10030    2    1    2    0    0  0.00000000000E+00  0.00000000000E+00 -0.46779613659E+03  0.34238498223E+04  0.33917420863E+04 0.  0.
        3    1    3    3  502    0 -0.15603891668E+04 -0.44822271144E+03  0.26090592540E+03  0.16443204867E+04  0.10100000352E+00 0.  1.
       -3    1    3    3    0  502  0.15603891668E+04  0.44822271144E+03 -0.72870206198E+03  0.17795293356E+04  0.10100000352E+00 0. -1.
</event>
<event>
 5   0  0.1003191E-06  0.3352387E+04  0.7818609E-02  0.8149692E-01
       -1   -1    0    0    0  501  0.00000000000E+00  0.00000000000E+00  0.15909786663E+04  0.15909786663E+04  0.50400001928E-02 0.  1.
        1   -1    0    0  501    0  0.00000000000E+00  0.00000000000E+00 -0.17659726192E+04  0.17659726192E+04  0.50400001928E-02 0. -1.
    10030    2    1    2    0    0  0.00000000000E+00  0.00000000000E+00 -0.17499395291E+03  0.33569512855E+04  0.33523870674E+04 0.  0.
        5    1    3    3  502    0  0.80761599813E+03  0.30883871492E+03 -0.15254108256E+04  0.17534324136E+04  0.46999998093E+01 0. -1.
       -5    1    3    3    0  502 -0.80761599813E+03 -0.30883871492E+03  0.13504168727E+04  0.16035188718E+04  0.46999998093E+01 0.  1.
</event>
<event>
 5   0  0.1003191E-06  0.3420384E+04  0.7818609E-02  0.8132921E-01
       -1   -1    0    0    0  501  0.00000000000E+00  0.00000000000E+00  0.16194628605E+04  0.16194628605E+04  0.50400001928E-02 0.  1.
        1   -1    0    0  501    0  0.00000000000E+00  0.00000000000E+00 -0.18060041016E+04  0.18060041016E+04  0.50400001928E-02 0. -1.
    10030    2    1    2    0    0  0.00000000000E+00  0.00000000000E+00 -0.18654124107E+03  0.34254669621E+04  0.34203839366E+04 0.  0.
        5    1    3    3  502    0  0.16015051018E+04  0.43347181884E+03  0.32209635090E+03  0.16901137708E+04  0.46999998093E+01 0. -1.
       -5    1    3    3    0  502 -0.16015051018E+04 -0.43347181884E+03 -0.50863759196E+03  0.17353531914E+04  0.46999998093E+01 0.  1.
</event>
<event>
 5   0  0.2664083E-06  0.3367963E+04  0.7818609E-02  0.8145814E-01
       -2   -1    0    0    0  501  0.00000000000E+00  0.00000000000E+00  0.10037443419E+04  0.10037443419E+04  0.25500000920E-02 0. -1.
        2   -1    0    0  501    0  0.00000000000E+00  0.00000000000E+00 -0.28252157235E+04  0.28252157235E+04  0.25500000920E-02 0.  1.
    10030    2    1    2    0    0  0.00000000000E+00  0.00000000000E+00 -0.18214713815E+04  0.38289600654E+04  0.33679633592E+04 0.  0.
        2    1    3    3  502    0 -0.16752018696E+04  0.29448308725E+02 -0.11030857042E+04  0.20059826963E+04  0.25500000920E-02 0. -1.
       -2    1    3    3    0  502  0.16752018696E+04 -0.29448308725E+02 -0.71838567738E+03  0.18229773691E+04  0.25500000920E-02 0.  1.
</event>
<event>
 5   0  0.2664083E-06  0.2561538E+04  0.7818609E-02  0.8381384E-01
       -2   -1    0    0    0  501  0.00000000000E+00  0.00000000000E+00  0.12256624448E+04  0.12256624448E+04  0.25500000920E-02 0. -1.
        2   -1    0    0  501    0  0.00000000000E+00  0.00000000000E+00 -0.13383534996E+04  0.13383534996E+04  0.25500000920E-02 0.  1.
    10030    2    1    2    0    0  0.00000000000E+00  0.00000000000E+00 -0.11269105480E+03  0.25640159443E+04  0.25615383052E+04 0.  0.
        2    1    3    3  502    0 -0.44088034728E+03  0.54182615406E+03 -0.11308914707E+04  0.13292353367E+04  0.25500000920E-02 0.  1.
       -2    1    3    3    0  502  0.44088034728E+03 -0.54182615406E+03  0.10182004159E+04  0.12347806076E+04  0.25500000920E-02 0. -1.
</event>
<event>
 5   0  0.9232963E-07  0.3150002E+04  0.7818609E-02  0.8202148E-01
        1   -1    0    0  501    0  0.00000000000E+00  0.00000000000E+00  0.10287314030E+04  0.10287314030E+04  0.50400001928E-02 0. -1.
       -1   -1    0    0    0  501  0.00000000000E+00  0.00000000000E+00 -0.24113464739E+04  0.24113464739E+04  0.50400001928E-02 0.  1.
    10030    2    1    2    0    0  0.00000000000E+00  0.00000000000E+00 -0.13826150709E+04  0.34400778769E+04  0.31500018040E+04 0.  0.
        3    1    3    3  502    0 -0.75614728971E+03 -0.13384025360E+04 -0.31688269916E+03  0.15695523972E+04  0.10100000352E+00 0. -1.
       -3    1    3    3    0  502  0.75614728971E+03  0.13384025360E+04 -0.10657323717E+04  0.18705254798E+04  0.10100000352E+00 0.  1.
</event>
<event>
 5   0  0.1010855E-06  0.3408999E+04  0.7818609E-02  0.8135701E-01
       -1   -1    0    0    0  501  0.00000000000E+00  0.00000000000E+00  0.14960430845E+04  0.14960430845E+04  0.50400001928E-02 0.  1.
        1   -1    0    0  501    0  0.00000000000E+00  0.00000000000E+00 -0.19420018184E+04  0.19420018184E+04  0.50400001928E-02 0. -1.
    10030    2    1    2    0    0  0.00000000000E+00  0.00000000000E+00 -0.44595873386E+03  0.34380449030E+04  0.34089989091E+04 0.  0.
        1    1    3    3  502    0 -0.14876645371E+03  0.64976082824E+03 -0.18051025520E+04  0.19242442192E+04  0.50400001928E-02 0. -1.
       -1    1    3    3    0  502  0.14876645371E+03 -0.64976082824E+03  0.13591438182E+04  0.15138006838E+04  0.50400001928E-02 0.  1.
</event>
<event>
 5   0  0.2767014E-06  0.3318515E+04  0.7818609E-02  0.8158200E-01
       -2   -1    0    0    0  501  0.00000000000E+00  0.00000000000E+00  0.22086434792E+04  0.22086434792E+04  0.25500000920E-02 0. -1.
        2   -1    0    0  501    0  0.00000000000E+00  0.00000000000E+00 -0.12465278617E+04  0.12465278617E+04  0.25500000920E-02 0.  1.
    10030    2    1    2    0    0  0.00000000000E+00  0.00000000000E+00  0.96211561753E+03  0.34551713409E+04  0.33185151097E+04 0.  0.
        1    1    3    3  502    0  0.99960412666E+03 -0.79698219026E+03 -0.62020673231E+03  0.14209311779E+04  0.50400001928E-02 0.  1.
       -1    1    3    3    0  502 -0.99960412666E+03  0.79698219026E+03  0.15823223498E+04  0.20342401629E+04  0.50400001928E-02 0. -1.
</event>
<event>
 5   0  0.2906701E-06  0.3260971E+04  0.7818609E-02  0.8172898E-01
       -2   -1    0    0    0  501  0.00000000000E+00  0.00000000000E+00  0.14184834683E+04  0.14184834683E+04  0.25500000920E-02 0.  1.
        2   -1    0    0  501    0  0.00000000000E+00  0.00000000000E+00 -0.18741732480E+04  0.18741732480E+04  0.25500000920E-02 0. -1.
    10030    2    1    2    0    0  0.00000000000E+00  0.00000000000E+00 -0.45568977966E+03  0.32926567163E+04  0.32609714927E+04 0.  0.
        5    1    3    3  502    0 -0.11215150597E+04  0.10901674786E+04 -0.69297309180E+03  0.17107001364E+04  0.46999998093E+01 0. -1.
       -5    1    3    3    0  502  0.11215150597E+04 -0.10901674786E+04  0.23728331214E+03  0.15819565799E+04  0.46999998093E+01 0.  1.
</event>
<event>
 5   0  0.1010551E-06  0.3246017E+04  0.7818609E-02  0.8176769E-01
       -1   -1    0    0    0  501  0.00000000000E+00  0.00000000000E+00  0.99709939465E+03  0.99709939466E+03  0.50400001928E-02 0.  1.
        1   -1    0    0  501    0  0.00000000000E+00  0.00000000000E+00 -0.26418202584E+04  0.26418202584E+04  0.50400001928E-02 0. -1.
    10030    2    1    2    0    0  0.00000000000E+00  0.00000000000E+00 -0.16447208637E+04  0.36389196530E+04  0.32460174864E+04 0.  0.
        2    1    3    3  502    0 -0.15224644395E+04 -0.33646422800E+03 -0.31720569683E+03  0.15911397174E+04  0.25500000920E-02 0.  1.
       -2    1    3    3    0  502  0.15224644395E+04  0.33646422800E+03 -0.13275151669E+04  0.20477799356E+04  0.25500000920E-02 0. -1.
</event>
<event>
 5   0  0.1010551E-06  0.3329674E+04  0.7818609E-02  0.8155386E-01
        1   -1    0    0  501    0  0.00000000000E+00  0.00000000000E+00  0.78170471394E+03  0.78170471396E+03  0.50400001928E-02 0. -1.
       -1   -1    0    0    0  501  0.00000000000E+00  0.00000000000E+00 -0.35456899944E+04  0.35456899944E+04  0.50400001928E-02 0.  1.
    10030    2    1    2    0    0  0.00000000000E+00  0.00000000000E+00 -0.27639852804E+04  0.43273947083E+04  0.33296742080E+04 0.  0.
        2    1    3    3  502    0 -0.27624753872E+03 -0.46033531975E+03  0.66611823531E+03  0.85553188876E+03  0.25500000920E-02 0. -1.
       -2    1    3    3    0  502  0.27624753872E+03  0.46033531975E+03 -0.34301035158E+04  0.34718628196E+04  0.25500000920E-02 0.  1.
</event>
<event>
 5   0  0.9232963E-07  0.3446162E+04  0.7818609E-02  0.8126669E-01
       -1   -1    0    0    0  501  0.00000000000E+00  0.00000000000E+00  0.25157684168E+04  0.25157684168E+04  0.50400001928E-02 0.  1.
        1   -1    0    0  501    0  0.00000000000E+00  0.00000000000E+00 -0.11801596539E+04  0.11801596539E+04  0.50400001928E-02 0. -1.
    10030    2    1    2    0    0  0.00000000000E+00  0.00000000000E+00  0.13356087630E+04  0.36959280707E+04  0.34461621459E+04 0.  0.
        3    1    3    3  502    0 -0.13941901935E+04  0.51736064283E+01 -0.41810939988E+03  0.14555440709E+04  0.10100000352E+00 0. -1.
       -3    1    3    3    0  502  0.13941901935E+04 -0.51736064283E+01  0.17537181628E+04  0.22403839998E+04  0.10100000352E+00 0.  1.
</event>
<event>
 5   0  0.2848685E-06  0.3135667E+04  0.7818609E-02  0.8206017E-01
        2   -1    0    0  501    0  0.00000000000E+00  0.00000000000E+00  0.13379549198E+04  0.13379549198E+04  0.25500000920E-02 0. -1.
       -2   -1    0    0    0  501  0.00000000000E+00  0.00000000000E+00 -0.18372080824E+04  0.18372080824E+04  0.25500000920E-02 0.  1.
    10030    2    1    2    0    0  0.00000000000E+00  0.00000000000E+00 -0.49925316259E+03  0.31751630021E+04  0.31356668142E+04 0.  0.
        3    1    3    3  502    0  0.10833372460E+04 -0.11125018548E+04 -0.46873512763E+03  0.16220334755E+04  0.10100000352E+00 0. -1.
       -3    1    3    3    0  502 -0.10833372460E+04  0.11125018548E+04 -0.30518034963E+02  0.15531295266E+04  0.10100000352E+00 0.  1.
</event>
<event>
 5   0  0.1003191E-06  0.3398720E+04  0.7818609E-02  0.8138221E-01
       -1   -1    0    0    0  501  0.00000000000E+00  0.00000000000E+00  0.14913164443E+04  0.14913164443E+04  0.50400001928E-02 0.  1.
        1   -1    0    0  501    0  0.00000000000E+00  0.00000000000E+00 -0.19364263390E+04  0.19364263390E+04  0.50400001928E-02 0. -1.
    10030    2    1    2    0    0  0.00000000000E+00  0.00000000000E+00 -0.44510989468E+03  0.34277427833E+04  0.33987200194E+04 0.  0.
        5    1    3    3  502    0 -0.97429954213E+03  0.13664921812E+04 -0.49174592616E+03  0.17488272141E+04  0.46999998093E+01 0. -1.
       -5    1    3    3    0  502  0.97429954213E+03 -0.13664921812E+04  0.46636031483E+02  0.16789155692E+04  0.46999998093E+01 0.  1.
</event>
<event>
 5   0  0.9714317E-07  0.3386027E+04  0.7818609E-02  0.8141344E-01
       -1   -1    0    0    0  501  0.00000000000E+00  0.00000000000E+00  0.11834646734E+04  0.11834646734E+04  0.50400001928E-02 0.  1.
        1   -1    0    0  501    0  0.00000000000E+00  0.00000000000E+00 -0.24219523571E+04  0.24219523571E+04  0.50400001928E-02 0. -1.
    10030    2    1    2    0    0  0.00000000000E+00  0.00000000000E+00 -0.12384876837E+04  0.36054170306E+04  0.33860272033E+04 0.  0.
        4    1    3    3  502    0  0.53352248117E+02 -0.93313898228E+03 -0.21223369134E+04  0.23190322140E+04  0.12699999809E+01 0. -1.
       -4    1    3    3    0  502 -0.53352248117E+02  0.93313898228E+03  0.88384922968E+03  0.12863848166E+04  0.12699999809E+01 0.  1.
</event>
<event>
 5   0  0.2848685E-06  0.3411492E+04  0.7818609E-02  0.8135091E-01
       -2   -1    0    0    0  501  0.00000000000E+00  0.00000000000E+00  0.18018737917E+04  0.18018737917E+04  0.25500000920E-02 0.  1.
        2   -1    0    0  501    0  0.00000000000E+00  0.00000000000E+00 -0.16147469568E+04  0.16147469568E+04  0.25500000920E-02 0. -1.
    10030    2    1    2    0    0  0.00000000000E+00  0.00000000000E+00  0.18712683498E+03  0.34166207485E+04  0.34114924720E+04 0.  0.
        3    1    3    3  502    0 -0.18360835235E+03  0.10074969990E+04 -0.12726015255E+04  0.16334861135E+04  0.10100000352E+00 0. -1.
       -3    1    3    3    0  502  0.18360835235E+03 -0.10074969990E+04  0.14597283604E+04  0.17831346350E+04  0.10100000352E+00 0.  1.
</event>
<event>
 5   0  0.2906701E-06  0.3404860E+04  0.7818609E-02  0.8136714E-01
       -2   -1    0    0    0  501  0.00000000000E+00  0.00000000000E+00  0.15958899774E+04  0.15958899774E+04  0.25500000920E-02 0.  1.
        2   -1    0    0  501    0  0.00000000000E+00  0.00000000000E+00 -0.18160827721E+04  0.18160827721E+04  0.25500000920E-02 0. -1.
    10030    2    1    2    0    0  0.00000000000E+00  0.00000000000E+00 -0.22019279465E+03  0.34119727495E+04  0.34048602286E+04 0.  0.
        5    1    3    3  502    0  0.15022784634E+04 -0.62004213329E+03 -0.61806097566E+03  0.17387680375E+04  0.46999998093E+01 0. -1.
       -5    1    3    3    0  502 -0.15022784634E+04  0.62004213329E+03  0.39786818101E+03  0.16732047120E+04  0.46999998093E+01 0.  1.
</event>
<event>
 5   0  0.2906701E-06  0.2091041E+04  0.7818609E-02  0.8565200E-01
        2   -1    0    0  501    0  0.00000000000E+00  0.00000000000E+00  0.17174094000E+04  0.17174094000E+04  0.25500000920E-02 0.  1.
       -2   -1    0    0    0  501  0.00000000000E+00  0.00000000000E+00 -0.63648971726E+03  0.63648971727E+03  0.25500000920E-02 0. -1.
    10030    2    1    2    0    0  0.00000000000E+00  0.00000000000E+00  0.10809196827E+04  0.23538991173E+04  0.20910412941E+04 0.  0.
        5    1    3    3  502    0  0.91001605536E+00 -0.99876418377E+03  0.88844818310E+03  0.13367471664E+04  0.46999998093E+01 0.  1.
       -5    1    3    3    0  502 -0.91001605536E+00  0.99876418377E+03  0.19247149964E+03  0.10171519508E+04  0.46999998093E+01 0. -1.
</event>
<event>
 5   0  0.2906701E-06  0.2294853E+04  0.7818609E-02  0.8479953E-01
       -2   -1    0    0    0  501  0.00000000000E+00  0.00000000000E+00  0.95732643802E+03  0.95732643802E+03  0.25500000920E-02 0. -1.
        2   -1    0    0  501    0  0.00000000000E+00  0.00000000000E+00 -0.13752755052E+04  0.13752755052E+04  0.25500000920E-02 0.  1.
    10030    2    1    2    0    0  0.00000000000E+00  0.00000000000E+00 -0.41794906722E+03  0.23326019433E+04  0.22948530243E+04 0.  0.
        5    1    3    3  502    0 -0.84730889607E+03 -0.20630180899E+03  0.54899464757E+03  0.10304901818E+04  0.46999998093E+01 0. -1.
       -5    1    3    3    0  502  0.84730889607E+03  0.20630180899E+03 -0.96694371479E+03  0.13021117615E+04  0.46999998093E+01 0.  1.
</event>
<event>
 5   0  0.2664083E-06  0.3388711E+04  0.7818609E-02  0.8140683E-01
        2   -1    0    0  501    0  0.00000000000E+00  0.00000000000E+00  0.21639241769E+04  0.21639241769E+04  0.25500000920E-02 0. -1.
       -2   -1    0    0    0  501  0.00000000000E+00  0.00000000000E+00 -0.13266823185E+04  0.13266823185E+04  0.25500000920E-02 0.  1.
    10030    2    1    2    0    0  0.00000000000E+00  0.00000000000E+00  0.83724185836E+03  0.34906064954E+04  0.33887106362E+04 0.  0.
        2    1    3    3  502    0 -0.82030420354E+03 -0.13740441488E+04 -0.15484519402E+03  0.16077541303E+04  0.25500000920E-02 0. -1.
       -2    1    3    3    0  502  0.82030420354E+03  0.13740441488E+04  0.99208705238E+03  0.18828523651E+04  0.25500000920E-02 0.  1.
</event>
<event>
 5   0  0.2856440E-06  0.3033086E+04  0.7818609E-02  0.8234346E-01
       -2   -1    0    0    0  501  0.00000000000E+00  0.00000000000E+00  0.89285307331E+03  0.89285307331E+03  0.25500000920E-02 0. -1.
        2   -1    0    0  501    0  0.00000000000E+00  0.00000000000E+00 -0.25759028742E+04  0.25759028742E+04  0.25500000920E-02 0.  1.
    10030    2    1    2    0    0  0.00000000000E+00  0.00000000000E+00 -0.16830498009E+04  0.34687559475E+04  0.30330860837E+04 0.  0.
        4    1    3    3  502    0 -0.73012904785E+02 -0.12786785745E+04  0.87256122471E+02  0.12837309005E+04  0.12699999809E+01 0. -1.
       -4    1    3    3    0  502  0.73012904785E+02  0.12786785745E+04 -0.17703059234E+04  0.21850250471E+04  0.12699999809E+01 0.  1.
</event>
<event>
 5   0  0.2848685E-06  0.3445004E+04  0.7818609E-02  0.8126948E-01
       -2   -1    0    0    0  501  0.00000000000E+00  0.00000000000E+00  0.22899190130E+04  0.22899190130E+04  0.25500000920E-02 0. -1.
        2   -1    0    0  501    0  0.00000000000E+00  0.00000000000E+00 -0.12956844400E+04  0.12956844400E+04  0.25500000920E-02 0.  1.
    10030    2    1    2    0    0  0.00000000000E+00  0.00000000000E+00  0.99423457300E+03  0.35856034530E+04  0.34450035901E+04 0.  0.
        3    1    3    3  502    0 -0.44368416850E+03 -0.38184250264E+02 -0.12347333380E+04  0.13125852751E+04  0.10100000352E+00 0.  1.
       -3    1    3    3    0  502  0.44368416850E+03  0.38184250264E+02  0.22289679110E+04  0.22730181778E+04  0.10100000352E+00 0. -1.
</event>
<event>
 5   0  0.2906701E-06  0.3407285E+04  0.7818609E-02  0.8136121E-01
        2   -1    0    0  501    0  0.00000000000E+00  0.00000000000E+00  0.25709763805E+04  0.25709763805E+04  0.25500000920E-02 0.  1.
       -2   -1    0    0    0  501  0.00000000000E+00  0.00000000000E+00 -0.11289087580E+04  0.11289087581E+04  0.25500000920E-02 0. -1.
    10030    2    1    2    0    0  0.00000000000E+00  0.00000000000E+00  0.14420676225E+04  0.36998851386E+04  0.34072849911E+04 0.  0.
        5    1    3    3  502    0  0.26703307424E+03 -0.16739538069E+04  0.53628295666E+03  0.17779340567E+04  0.46999998093E+01 0.  1.
       -5    1    3    3    0  502 -0.26703307424E+03  0.16739538069E+04  0.90578466582E+03  0.19219510819E+04  0.46999998093E+01 0. -1.
</event>
<event>
 5   0  0.2856440E-06  0.3364490E+04  0.7818609E-02  0.8146677E-01
       -2   -1    0    0    0  501  0.00000000000E+00  0.00000000000E+00  0.18965818568E+04  0.18965818568E+04  0.25500000920E-02 0. -1.
        2   -1    0    0  501    0  0.00000000000E+00  0.00000000000E+00 -0.14921310017E+04  0.14921310017E+04  0.25500000920E-02 0.  1.
    10030    2    1    2    0    0  0.00000000000E+00  0.00000000000E+00  0.40445085515E+03  0.33887128585E+04  0.33644902055E+04 0.  0.
        4    1    3    3  502    0 -0.84253249720E+02 -0.12994667652E+04 -0.87044652873E+03  0.15663305067E+04  0.12699999809E+01 0.  1.
       -4    1    3    3    0  502  0.84253249720E+02  0.12994667652E+04  0.12748973839E+04  0.18223823518E+04  0.12699999809E+01 0. -1.
</event>
<event>
 5   0  0.2767014E-06  0.3473535E+04  0.7818609E-02  0.8120091E-01
        2   -1    0    0  501    0  0.00000000000E+00  0.00000000000E+00  0.20017896247E+04  0.20017896247E+04  0.25500000920E-02 0.  1.
       -2   -1    0    0    0  501  0.00000000000E+00  0.00000000000E+00 -0.15068325481E+04  0.15068325481E+04  0.25500000920E-02 0. -1.
    10030    2    1    2    0    0  0.00000000000E+00  0.00000000000E+00  0.49495707656E+03  0.35086221728E+04  0.34735352372E+04 0.  0.
        1    1    3    3  502    0 -0.12621158867E+04 -0.98671846378E+03  0.92493341904E+03  0.18498788252E+04  0.50400001928E-02 0.  1.
       -1    1    3    3    0  502  0.12621158867E+04  0.98671846378E+03 -0.42997634249E+03  0.16587433476E+04  0.50400001928E-02 0. -1.
</event>
<event>
 5   0  0.1010551E-06  0.3466614E+04  0.7818609E-02  0.8121748E-01
        1   -1    0    0  501    0  0.00000000000E+00  0.00000000000E+00  0.19853489937E+04  0.19853489937E+04  0.50400001928E-02 0. -1.
       -1   -1    0    0    0  501  0.00000000000E+00  0.00000000000E+00 -0.15132620867E+04  0.15132620868E+04  0.50400001928E-02 0.  1.
    10030    2    1    2    0    0  0.00000000000E+00  0.00000000000E+00  0.47208690692E+03  0.34986110804E+04  0.34666141182E+04 0.  0.
        2    1    3    3  502    0  0.27583914909E+03 -0.16736038983E+03 -0.14826894041E+04  0.15173874276E+04  0.25500000920E-02 0.  1.
       -2    1    3    3    0  502 -0.27583914909E+03  0.16736038983E+03  0.19547763111E+04  0.19812236528E+04  0.25500000920E-02 0. -1.
</event>
<event>
 5   0  0.2848685E-06  0.3453334E+04  0.7818609E-02  0.8124939E-01
        2   -1    0    0  501    0  0.00000000000E+00  0.00000000000E+00  0.19519416350E+04  0.19519416350E+04  0.25500000920E-02 0.  1.
       -2   -1    0    0    0  501  0.00000000000E+00  0.00000000000E+00 -0.15273914414E+04  0.15273914414E+04  0.25500000920E-02 0. -1.
    10030    2    1    2    0    0  0.00000000000E+00  0.00000000000E+00  0.42455019359E+03  0.34793330765E+04  0.34533340108E+04 0.  0.
        3    1    3    3  502    0  0.14066502453E+04  0.31264572932E+03  0.11707344784E+04  0.18566182951E+04  0.10100000352E+00 0.  1.
       -3    1    3    3    0  502 -0.14066502453E+04 -0.31264572932E+03 -0.74618428483E+03  0.16227147814E+04  0.10100000352E+00 0. -1.
</event>
<event>
 5   0  0.9714317E-07  0.3375868E+04  0.7818609E-02  0.8143855E-01
       -1   -1    0    0    0  501  0.00000000000E+00  0.00000000000E+00  0.92969071142E+03  0.92969071143E+03  0.50400001928E-02 0.  1.
        1   -1    0    0  501    0  0.00000000000E+00  0.00000000000E+00 -0.30645909927E+04  0.30645909927E+04  0.50400001928E-02 0. -1.
    10030    2    1    2    0    0  0.00000000000E+00  0.00000000000E+00 -0.21349002813E+04  0.39942817042E+04  0.33758683507E+04 0.  0.
        4    1    3    3  502    0  0.75693012038E+03  0.12546509436E+04 -0.20588078694E+04  0.25270108139E+04  0.12699999809E+01 0. -1.
       -4    1    3    3    0  502 -0.75693012038E+03 -0.12546509436E+04 -0.76092411933E+02  0.14672708903E+04  0.12699999809E+01 0.  1.
</event>
<event>
 5   0  0.1010855E-06  0.3346743E+04  0.7818609E-02  0.8151102E-01
       -1   -1    0    0    0  501  0.00000000000E+00  0.00000000000E+00  0.12109157551E+04  0.12109157551E+04  0.50400001928E-02 0. -1.
        1   -1    0    0  501    0  0.00000000000E+00  0.00000000000E+00 -0.23124418421E+04  0.23124418421E+04  0.50400001928E-02 0.  1.
    10030    2    1    2    0    0  0.00000000000E+00  0.00000000000E+00 -0.11015260870E+04  0.35233575972E+04  0.33467430492E+04 0.  0.
        1    1    3    3  502    0 -0.13826534142E+04  0.93527251091E+03 -0.42750719019E+03  0.17231446635E+04  0.50400001928E-02 0. -1.
       -1    1    3    3    0  502  0.13826534142E+04 -0.93527251091E+03 -0.67401889678E+03  0.18002129337E+04  0.50400001928E-02 0.  1.
</event>
<event>
 5   0  0.1003191E-06  0.3415960E+04  0.7818609E-02  0.8134000E-01
       -1   -1    0    0    0  501  0.00000000000E+00  0.00000000000E+00  0.14017228646E+04  0.14017228646E+04  0.50400001928E-02 0.  1.
        1   -1    0    0  501    0  0.00000000000E+00  0.00000000000E+00 -0.20811495382E+04  0.20811495382E+04  0.50400001928E-02 0. -1.
    10030    2    1    2    0    0  0.00000000000E+00  0.00000000000E+00 -0.67942667358E+03  0.34828724028E+04  0.34159595386E+04 0.  0.
        5    1    3    3  502    0  0.10843979919E+04  0.85587188024E+03 -0.13637460907E+04  0.19412009608E+04  0.46999998093E+01 0. -1.
       -5    1    3    3    0  502 -0.10843979919E+04 -0.85587188024E+03  0.68431941712E+03  0.15416714420E+04  0.46999998093E+01 0.  1.
</event>
<event>
 5   0  0.2856440E-06  0.3303236E+04  0.7818609E-02  0.8162072E-01
        2   -1    0    0  501    0  0.00000000000E+00  0.00000000000E+00  0.17884070792E+04  0.17884070792E+04  0.25500000920E-02 0.  1.
       -2   -1    0    0    0  501  0.00000000000E+00  0.00000000000E+00 -0.15252915928E+04  0.15252915928E+04  0.25500000920E-02 0. -1.
    10030    2    1    2    0    0  0.00000000000E+00  0.00000000000E+00  0.26311548643E+03  0.33136986720E+04  0.33032361601E+04 0.  0.
        4    1    3    3  502    0  0.16408974759E+04 -0.15486380725E+03  0.23825884108E+03  0.16653216547E+04  0.12699999809E+01 0.  1.
       -4    1    3    3    0  502 -0.16408974759E+04  0.15486380725E+03  0.24856645351E+02  0.16483770173E+04  0.12699999809E+01 0. -1.
</event>
<event>
 5   0  0.9714317E-07  0.3458770E+04  0.7818609E-02  0.8123631E-01
        1   -1    0    0  501    0  0.00000000000E+00  0.00000000000E+00  0.18271015422E+04  0.18271015422E+04  0.50400001928E-02 0. -1.
       -1   -1    0    0    0  501  0.00000000000E+00  0.00000000000E+00 -0.16368940902E+04  0.16368940902E+04  0.50400001928E-02 0.  1.
    10030    2    1    2    0    0  0.00000000000E+00  0.00000000000E+00  0.19020745203E+03  0.34639956324E+04  0.34587695596E+04 0.  0.
        4    1    3    3  502    0 -0.20020316417E+03  0.20846093950E+03 -0.16125335051E+04  0.16382317261E+04  0.12699999809E+01 0.  1.
       -4    1    3    3    0  502  0.20020316417E+03 -0.20846093950E+03  0.18027409571E+04  0.18257639063E+04  0.12699999809E+01 0. -1.
</event>
<event>
 5   0  0.2664083E-06  0.3379136E+04  0.7818609E-02  0.8143046E-01
        2   -1    0    0  501    0  0.00000000000E+00  0.00000000000E+00  0.19993766551E+04  0.19993766551E+04  0.25500000920E-02 0. -1.
       -2   -1    0    0    0  501  0.00000000000E+00  0.00000000000E+00 -0.14277648385E+04  0.14277648385E+04  0.25500000920E-02 0.  1.
    10030    2    1    2    0    0  0.00000000000E+00  0.00000000000E+00  0.57161181659E+03  0.34271414936E+04  0.33791357991E+04 0.  0.
        2    1    3    3  502    0 -0.14265886443E+04  0.36047164366E+03 -0.55637929885E+03  0.15731029497E+04  0.25500000920E-02 0.  1.
       -2    1    3    3    0  502  0.14265886443E+04 -0.36047164366E+03  0.11279911154E+04  0.18540385440E+04  0.25500000920E-02 0. -1.
</event>
<event>
 5   0  0.2767014E-06  0.2914105E+04  0.7818609E-02  0.8268693E-01
       -2   -1    0    0    0  501  0.00000000000E+00  0.00000000000E+00  0.10643072463E+04  0.10643072463E+04  0.25500000920E-02 0. -1.
        2   -1    0    0  501    0  0.00000000000E+00  0.00000000000E+00 -0.19947260992E+04  0.19947260992E+04  0.25500000920E-02 0.  1.
    10030    2    1    2    0    0  0.00000000000E+00  0.00000000000E+00 -0.93041885294E+03  0.30590333455E+04  0.29141046253E+04 0.  0.
        1    1    3    3  502    0 -0.20829130884E+03 -0.12338075531E+04  0.31846787173E+03  0.12911576716E+04  0.50400001928E-02 0. -1.
       -1    1    3    3    0  502  0.20829130884E+03  0.12338075531E+04 -0.12488867247E+04  0.17678756740E+04  0.50400001928E-02 0.  1.
</event>
<event>
 5   0  0.2906701E-06  0.2695011E+04  0.7818609E-02  0.8336625E-01
        2   -1    0    0  501    0  0.00000000000E+00  0.00000000000E+00  0.19739204303E+04  0.19739204303E+04  0.25500000920E-02 0.  1.
       -2   -1    0    0    0  501  0.00000000000E+00  0.00000000000E+00 -0.91988085570E+03  0.91988085570E+03  0.25500000920E-02 0. -1.
    10030    2    1    2    0    0  0.00000000000E+00  0.00000000000E+00  0.10540395746E+04  0.28938012860E+04  0.26950114022E+04 0.  0.
        5    1    3    3  502    0 -0.10503342449E+04 -0.79650245414E+03  0.22688196131E+03  0.13375782967E+04  0.46999998093E+01 0.  1.
       -5    1    3    3    0  502  0.10503342449E+04  0.79650245414E+03  0.82715761333E+03  0.15562229894E+04  0.46999998093E+01 0. -1.
</event>
<event>
 5   0  0.1010551E-06  0.3239422E+04  0.7818609E-02  0.8178483E-01
       -1   -1    0    0    0  501  0.00000000000E+00  0.00000000000E+00  0.13430135861E+04  0.13430135861E+04  0.50400001928E-02 0.  1.
        1   -1    0    0  501    0  0.00000000000E+00  0.00000000000E+00 -0.19534159683E+04  0.19534159683E+04  0.50400001928E-02 0. -1.
    10030    2    1    2    0    0  0.00000000000E+00  0.00000000000E+00 -0.61040238220E+03  0.32964295543E+04  0.32394222847E+04 0.  0.
        2    1    3    3  502    0  0.37996043201E+03  0.19271106950E+03  0.12849748767E+04  0.13537606583E+04  0.25500000920E-02 0.  1.
       -2    1    3    3    0  502 -0.37996043201E+03 -0.19271106950E+03 -0.18953772589E+04  0.19426688960E+04  0.25500000920E-02 0. -1.
</event>
<event>
 5   0  0.9714317E-07  0.3474397E+04  0.7818609E-02  0.8119884E-01
        1   -1    0    0  501    0  0.00000000000E+00  0.00000000000E+00  0.19365421105E+04  0.19365421105E+04  0.50400001928E-02 0.  1.
       -1   -1    0    0    0  501  0.00000000000E+00  0.00000000000E+00 -0.15583749505E+04  0.15583749505E+04  0.50400001928E-02 0. -1.
    10030    2    1    2    0    0  0.00000000000E+00  0.00000000000E+00  0.37816716008E+03  0.34949170610E+04  0.34743970502E+04 0.  0.
        4    1    3    3  502    0 -0.67292057638E+03 -0.15645727350E+04 -0.15520554423E+03  0.17102047594E+04  0.12699999809E+01 0. -1.
       -4    1    3    3    0  502  0.67292057638E+03  0.15645727350E+04  0.53337270431E+03  0.17847123017E+04  0.12699999809E+01 0.  1.
</event>
<event>
 5   0  0.2856440E-06  0.3248301E+04  0.7818609E-02  0.8176176E-01
       -2   -1    0    0    0  501  0.00000000000E+00  0.00000000000E+00  0.18995577730E+04  0.18995577730E+04  0.25500000920E-02 0.  1.
        2   -1    0    0  501    0  0.00000000000E+00  0.00000000000E+00 -0.13886729174E+04  0.13886729174E+04  0.25500000920E-02 0. -1.
    10030    2    1    2    0    0  0.00000000000E+00  0.00000000000E+00  0.51088485566E+03  0.32882306904E+04  0.32483007462E+04 0.  0.
        4    1    3    3  502    0 -0.49316267140E+03  0.15426122921E+04  0.13145945130E+03  0.16248523947E+04  0.12699999809E+01 0. -1.
       -4    1    3    3    0  502  0.49316267140E+03 -0.15426122921E+04  0.37942540436E+03  0.16633782957E+04  0.12699999809E+01 0.  1.
</event>
<event>
 5   0  0.2848685E-06  0.2741050E+04  0.7818609E-02  0.8321807E-01
       -2   -1    0    0    0  501  0.00000000000E+00  0.00000000000E+00  0.71801538442E+03  0.71801538443E+03  0.25500000920E-02 0.  1.
        2   -1    0    0  501    0  0.00000000000E+00  0.00000000000E+00 -0.26160146649E+04  0.26160146650E+04  0.25500000920E-02 0. -1.
    10030    2    1    2    0    0  0.00000000000E+00  0.00000000000E+00 -0.18979992805E+04  0.33340300494E+04  0.27410499998E+04 0.  0.
        3    1    3    3  502    0  0.12513261766E+03  0.20829097744E+03  0.69160588652E+03  0.73304980441E+03  0.10100000352E+00 0.  1.
       -3    1    3    3    0  502 -0.12513261766E+03 -0.20829097744E+03 -0.25896051670E+04  0.26009802450E+04  0.10100000352E+00 0. -1.
</event>
<event>
 5   0  0.1010855E-06  0.2400880E+04  0.7818609E-02  0.8439174E-01
        1   -1    0    0  501    0  0.00000000000E+00  0.00000000000E+00  0.16873797409E+04  0.16873797409E+04  0.50400001928E-02 0. -1.
       -1   -1    0    0    0  501  0.00000000000E+00  0.00000000000E+00 -0.85401986450E+03  0.85401986452E+03  0.50400001928E-02 0.  1.
    10030    2    1    2    0    0  0.00000000000E+00  0.00000000000E+00  0.83335987641E+03  0.25413996054E+04  0.24008796869E+04 0.  0.
        1    1    3    3  502    0 -0.10545718947E+04 -0.39714973462E+03 -0.21307931833E+02  0.11270775575E+04  0.50400001928E-02 0.  1.
       -1    1    3    3    0  502  0.10545718947E+04  0.39714973462E+03  0.85466780824E+03  0.14143220479E+04  0.50400001928E-02 0. -1.
</event>
<event>
 5   0  0.9232963E-07  0.3406029E+04  0.7818609E-02  0.8136428E-01
        1   -1    0    0  501    0  0.00000000000E+00  0.00000000000E+00  0.19223908480E+04  0.19223908480E+04  0.50400001928E-02 0. -1.
       -1   -1    0    0    0  501  0.00000000000E+00  0.00000000000E+00 -0.15086725291E+04  0.15086725291E+04  0.50400001928E-02 0.  1.
    10030    2    1    2    0    0  0.00000000000E+00  0.00000000000E+00  0.41371831885E+03  0.34310633771E+04  0.34060289268E+04 0.  0.
        3    1    3    3  502    0 -0.24632811251E+03 -0.16830649644E+04  0.29037229827E+03  0.17256017198E+04  0.10100000352E+00 0. -1.
       -3    1    3    3    0  502  0.24632811251E+03  0.16830649644E+04  0.12334602057E+03  0.17054616573E+04  0.10100000352E+00 0.  1.
</event>
<event>
 5   0  0.1010551E-06  0.2330293E+04  0.7818609E-02  0.8466072E-01
        1   -1    0    0  501    0  0.00000000000E+00  0.00000000000E+00  0.77098143738E+03  0.77098143739E+03  0.50400001928E-02 0.  1.
       -1   -1    0    0    0  501  0.00000000000E+00  0.00000000000E+00 -0.17608294378E+04  0.17608294378E+04  0.50400001928E-02 0. -1.
    10030    2    1    2    0    0  0.00000000000E+00  0.00000000000E+00 -0.98984800042E+03  0.25318108752E+04  0.23302933815E+04 0.  0.
        2    1    3    3  502    0  0.53637569053E+03 -0.78111387880E+03 -0.12315916988E+04  0.15539163059E+04  0.25500000920E-02 0. -1.
       -2    1    3    3    0  502 -0.53637569053E+03  0.78111387880E+03  0.24174369838E+03  0.97789456934E+03  0.25500000920E-02 0.  1.
</event>
<event>
 5   0  0.1010551E-06  0.3217422E+04  0.7818609E-02  0.8184231E-01
       -1   -1    0    0    0  501  0.00000000000E+00  0.00000000000E+00  0.13516480967E+04  0.13516480967E+04  0.50400001928E-02 0.  1.
        1   -1    0    0  501    0  0.00000000000E+00  0.00000000000E+00 -0.19146637256E+04  0.19146637256E+04  0.50400001928E-02 0. -1.
    10030    2    1    2    0    0  0.00000000000E+00  0.00000000000E+00 -0.56301562886E+03  0.32663118224E+04  0.32174223102E+04 0.  0.
        2    1    3    3  502    0  0.77707753428E+03  0.13167850723E+04 -0.78928728517E+03  0.17206820855E+04  0.25500000920E-02 0. -1.
       -2    1    3    3    0  502 -0.77707753428E+03 -0.13167850723E+04  0.22627165632E+03  0.15456297368E+04  0.25500000920E-02 0.  1.
</event>
<event>
 5   0  0.2906701E-06  0.3424660E+04  0.7818609E-02  0.8131880E-01
        2   -1    0    0  501    0  0.00000000000E+00  0.00000000000E+00  0.24466171665E+04  0.24466171665E+04  0.25500000920E-02 0.  1.
       -2   -1    0    0    0  501  0.00000000000E+00  0.00000000000E+00 -0.11984193524E+04  0.11984193524E+04  0.25500000920E-02 0. -1.
    10030    2    1    2    0    0  0.00000000000E+00  0.00000000000E+00  0.12481978142E+04  0.36450365189E+04  0.34246596095E+04 0.  0.
        5    1    3    3  502    0 -0.12104617618E+04  0.78836121863E+03  0.16026761031E+04  0.21576199548E+04  0.46999998093E+01 0.  1.
       -5    1    3    3    0  502  0.12104617618E+04 -0.78836121863E+03 -0.35447828891E+03  0.14874165641E+04  0.46999998093E+01 0. -1.
</event>
<event>
 5   0  0.1003191E-06  0.2228619E+04  0.7818609E-02  0.8506610E-01
        1   -1    0    0  501    0  0.00000000000E+00  0.00000000000E+00  0.11092445918E+04  0.11092445918E+04  0.50400001928E-02 0. -1.
       -1   -1    0    0    0  501  0.00000000000E+00  0.00000000000E+00 -0.11193973379E+04  0.11193973379E+04  0.50400001928E-02 0.  1.
    10030    2    1    2    0    0  0.00000000000E+00  0.00000000000E+00 -0.10152746064E+02  0.22286419297E+04  0.22286188038E+04 0.  0.
        5    1    3    3  502    0 -0.94811891719E+03 -0.37265771285E+03 -0.45658975265E+03  0.11163778681E+04  0.46999998093E+01 0.  1.
       -5    1    3    3    0  502  0.94811891719E+03  0.37265771285E+03  0.44643700658E+03  0.11122640617E+04  0.46999998093E+01 0. -1.
</event>
<event>
 5   0  0.9232963E-07  0.3382922E+04  0.7818609E-02  0.8142110E-01
        1   -1    0    0  501    0  0.00000000000E+00  0.00000000000E+00  0.19137055619E+04  0.19137055619E+04  0.50400001928E-02 0.  1.
       -1   -1    0    0    0  501  0.00000000000E+00  0.00000000000E+00 -0.14950267127E+04  0.14950267127E+04  0.50400001928E-02 0. -1.
    10030    2    1    2    0    0  0.00000000000E+00  0.00000000000E+00  0.41867884918E+03  0.34087322746E+04  0.33829223670E+04 0.  0.
        3    1    3    3  502    0  0.16082369954E+04 -0.52180420133E+03  0.25803063385E+03  0.17103466537E+04  0.10100000352E+00 0.  1.
       -3    1    3    3    0  502 -0.16082369954E+04  0.52180420133E+03  0.16064821533E+03  0.16983856208E+04  0.10100000352E+00 0. -1.
</event>
<event>
 5   0  0.1003191E-06  0.3359423E+04  0.7818609E-02  0.8147938E-01
       -1   -1    0    0    0  501  0.00000000000E+00  0.00000000000E+00  0.13023631350E+04  0.13023631351E+04  0.50400001928E-02 0.  1.
        1   -1    0    0  501    0  0.00000000000E+00  0.00000000000E+00 -0.21663936160E+04  0.21663936160E+04  0.50400001928E-02 0. -1.
    10030    2    1    2    0    0  0.00000000000E+00  0.00000000000E+00 -0.86403048095E+03  0.34687567510E+04  0.33594232728E+04 0.  0.
        5    1    3    3  502    0 -0.19962027062E+03  0.94329855000E+03 -0.18521868927E+04  0.20881280570E+04  0.46999998093E+01 0. -1.
       -5    1    3    3    0  502  0.19962027062E+03 -0.94329855000E+03  0.98815641173E+03  0.13806286941E+04  0.46999998093E+01 0.  1.
</event>
<event>
 5   0  0.1010855E-06  0.3422549E+04  0.7818609E-02  0.8132394E-01
        1   -1    0    0  501    0  0.00000000000E+00  0.00000000000E+00  0.20502010270E+04  0.20502010270E+04  0.50400001928E-02 0.  1.
       -1   -1    0    0    0  501  0.00000000000E+00  0.00000000000E+00 -0.14283774395E+04  0.14283774395E+04  0.50400001928E-02 0. -1.
    10030    2    1    2    0    0  0.00000000000E+00  0.00000000000E+00  0.62182358753E+03  0.34785784665E+04  0.34225492800E+04 0.  0.
        1    1    3    3  502    0  0.21745107184E+03  0.97101249757E+03  0.17259357276E+04  0.19922360239E+04  0.50400001928E-02 0.  1.
       -1    1    3    3    0  502 -0.21745107184E+03 -0.97101249757E+03 -0.11041121400E+04  0.14863424427E+04  0.50400001928E-02 0. -1.
</event>
<event>
 5   0  0.2664083E-06  0.3437182E+04  0.7818609E-02  0.8128841E-01
       -2   -1    0    0    0  501  0.00000000000E+00  0.00000000000E+00  0.13985980800E+04  0.13985980800E+04  0.25500000920E-02 0.  1.
        2   -1    0    0  501    0  0.00000000000E+00  0.00000000000E+00 -0.21117967141E+04  0.21117967141E+04  0.25500000920E-02 0. -1.
    10030    2    1    2    0    0  0.00000000000E+00  0.00000000000E+00 -0.71319863409E+03  0.35103947941E+04  0.34371818862E+04 0.  0.
        2    1    3    3  502    0 -0.13861521438E+04  0.71838614404E+03 -0.10902728939E+04  0.19042561279E+04  0.25500000920E-02 0. -1.
       -2    1    3    3    0  502  0.13861521438E+04 -0.71838614404E+03  0.37707425978E+03  0.16061386662E+04  0.25500000920E-02 0.  1.
</event>
<event>
 5   0  0.2767014E-06  0.3408808E+04  0.7818609E-02  0.8135748E-01
       -2   -1    0    0    0  501  0.00000000000E+00  0.00000000000E+00  0.90256028945E+03  0.90256028945E+03  0.25500000920E-02 0.  1.
        2   -1    0    0  501    0  0.00000000000E+00  0.00000000000E+00 -0.32186144162E+04  0.32186144162E+04  0.25500000920E-02 0. -1.
    10030    2    1    2    0    0  0.00000000000E+00  0.00000000000E+00 -0.23160541267E+04  0.41211747057E+04  0.34088083309E+04 0.  0.
        1    1    3    3  502    0 -0.11297061557E+04  0.12368789544E+04 -0.77784618587E+03  0.18469299485E+04  0.50400001928E-02 0.  1.
       -1    1    3    3    0  502  0.11297061557E+04 -0.12368789544E+04 -0.15382079409E+04  0.22742447571E+04  0.50400001928E-02 0. -1.
</event>
<event>
 5   0  0.9070500E-07  0.3484964E+04  0.7818609E-02  0.8117363E-01
        3   -1    0    0  501    0  0.00000000000E+00  0.00000000000E+00  0.12871834280E+04  0.12871834320E+04  0.10100000352E+00 0. -1.
       -3   -1    0    0    0  501  0.00000000000E+00  0.00000000000E+00 -0.23588276175E+04  0.23588276197E+04  0.10100000352E+00 0.  1.
    10030    2    1    2    0    0  0.00000000000E+00  0.00000000000E+00 -0.10716441895E+04  0.36460110516E+04  0.34849641777E+04 0.  0.
        4    1    3    3  502    0  0.12538753176E+04  0.11867455578E+04 -0.28896510450E+03  0.17504487355E+04  0.12699999809E+01 0. -1.
       -4    1    3    3    0  502 -0.12538753176E+04 -0.11867455578E+04 -0.78267908499E+03  0.18955623161E+04  0.12699999809E+01 0.  1.
</event>
<event>
 5   0  0.1010551E-06  0.2437772E+04  0.7818609E-02  0.8425496E-01
       -1   -1    0    0    0  501  0.00000000000E+00  0.00000000000E+00  0.98009176738E+03  0.98009176739E+03  0.50400001928E-02 0.  1.
        1   -1    0    0  501    0  0.00000000000E+00  0.00000000000E+00 -0.15158614950E+04  0.15158614950E+04  0.50400001928E-02 0. -1.
    10030    2    1    2    0    0  0.00000000000E+00  0.00000000000E+00 -0.53576972757E+03  0.24959532624E+04  0.24377722385E+04 0.  0.
        2    1    3    3  502    0  0.33074580278E+03 -0.10283597977E+04 -0.84595402774E+03  0.13720622714E+04  0.25500000920E-02 0. -1.
       -2    1    3    3    0  502 -0.33074580278E+03  0.10283597977E+04  0.31018430017E+03  0.11238909910E+04  0.25500000920E-02 0.  1.
</event>
<event>
 5   0  0.9232963E-07  0.3631095E+04  0.7818609E-02  0.8083406E-01
       -1   -1    0    0    0  501  0.00000000000E+00  0.00000000000E+00  0.17021273426E+04  0.17021273426E+04  0.50400001928E-02 0.  1.
        1   -1    0    0  501    0  0.00000000000E+00  0.00000000000E+00 -0.19365251080E+04  0.19365251080E+04  0.50400001928E-02 0. -1.
    10030    2    1    2    0    0  0.00000000000E+00  0.00000000000E+00 -0.23439776537E+03  0.36386524507E+04  0.36310947859E+04 0.  0.
        3    1    3    3  502    0  0.18609636018E+03 -0.16689793649E+04  0.57422880547E+03  0.17747852566E+04  0.10100000352E+00 0.  1.
       -3    1    3    3    0  502 -0.18609636018E+03  0.16689793649E+04 -0.80862657084E+03  0.18638671941E+04  0.10100000352E+00 0. -1.
</event>
<event>
 5   0  0.2664083E-06  0.3360080E+04  0.7818609E-02  0.8147774E-01
        2   -1    0    0  501    0  0.00000000000E+00  0.00000000000E+00  0.27092389555E+04  0.27092389555E+04  0.25500000920E-02 0. -1.
       -2   -1    0    0    0  501  0.00000000000E+00  0.00000000000E+00 -0.10418182557E+04  0.10418182557E+04  0.25500000920E-02 0.  1.
    10030    2    1    2    0    0  0.00000000000E+00  0.00000000000E+00  0.16674206998E+04  0.37510572112E+04  0.33600801198E+04 0.  0.
        2    1    3    3  502    0 -0.89178951694E+03 -0.13229729287E+04  0.14212471496E+04  0.21367005810E+04  0.25500000920E-02 0.  1.
       -2    1    3    3    0  502  0.89178951694E+03  0.13229729287E+04  0.24617355023E+03  0.16143566302E+04  0.25500000920E-02 0. -1.
</event>
<event>
 5   0  0.2767014E-06  0.3318267E+04  0.7818609E-02  0.8158263E-01
       -2   -1    0    0    0  501  0.00000000000E+00  0.00000000000E+00  0.15536324767E+04  0.15536324767E+04  0.25500000920E-02 0. -1.
        2   -1    0    0  501    0  0.00000000000E+00  0.00000000000E+00 -0.17717984370E+04  0.17717984370E+04  0.25500000920E-02 0.  1.
    10030    2    1    2    0    0  0.00000000000E+00  0.00000000000E+00 -0.21816596031E+03  0.33254309136E+04  0.33182667728E+04 0.  0.
        1    1    3    3  502    0 -0.13978621408E+03 -0.16489184272E+04 -0.22872006796E+03  0.16705642863E+04  0.50400001928E-02 0.  1.
       -1    1    3    3    0  502  0.13978621408E+03  0.16489184272E+04  0.10554107648E+02  0.16548666274E+04  0.50400001928E-02 0. -1.
</event>
<event>
 5   0  0.1010855E-06  0.3495965E+04  0.7818609E-02  0.8114747E-01
        1   -1    0    0  501    0  0.00000000000E+00  0.00000000000E+00  0.20113016150E+04  0.20113016150E+04  0.50400001928E-02 0. -1.
       -1   -1    0    0    0  501  0.00000000000E+00  0.00000000000E+00 -0.15191367548E+04  0.15191367548E+04  0.50400001928E-02 0.  1.
    10030    2    1    2    0    0  0.00000000000E+00  0.00000000000E+00  0.49216486025E+03  0.35304383698E+04  0.34959646499E+04 0.  0.
        1    1    3    3  502    0  0.14001516275E+04  0.82498990162E+03  0.89617670832E+03  0.18558463326E+04  0.50400001928E-02 0. -1.
       -1    1    3    3    0  502 -0.14001516275E+04 -0.82498990162E+03 -0.40401184807E+03  0.16745920372E+04  0.50400001928E-02 0.  1.
</event>
<event>
 5   0  0.2664083E-06  0.2807466E+04  0.7818609E-02  0.8300954E-01
        2   -1    0    0  501    0  0.00000000000E+00  0.00000000000E+00  0.17800869025E+04  0.17800869025E+04  0.25500000920E-02 0. -1.
       -2   -1    0    0    0  501  0.00000000000E+00  0.00000000000E+00 -0.11069491613E+04  0.11069491613E+04  0.25500000920E-02 0.  1.
    10030    2    1    2    0    0  0.00000000000E+00  0.00000000000E+00  0.67313774124E+03  0.28870360637E+04  0.28074655500E+04 0.  0.
        2    1    3    3  502    0 -0.80133358062E+03  0.10630630024E+04 -0.12127715684E+03  0.13367672210E+04  0.25500000920E-02 0.  1.
       -2    1    3    3    0  502  0.80133358062E+03 -0.10630630024E+04  0.79441489808E+03  0.15502688427E+04  0.25500000920E-02 0. -1.
</event>
<event>
 5   0  0.9714317E-07  0.2665860E+04  0.7818609E-02  0.8346168E-01
        1   -1    0    0  501    0  0.00000000000E+00  0.00000000000E+00  0.17075145883E+04  0.17075145883E+04  0.50400001928E-02 0. -1.
       -1   -1    0    0    0  501  0.00000000000E+00  0.00000000000E+00 -0.10405197528E+04  0.10405197528E+04  0.50400001928E-02 0.  1.
    10030    2    1    2    0    0  0.00000000000E+00  0.00000000000E+00  0.66699483546E+03  0.27480343411E+04  0.26658602044E+04 0.  0.
        4    1    3    3  502    0 -0.40224801087E+03 -0.10529671787E+04  0.10668751331E+04  0.15520204587E+04  0.12699999809E+01 0. -1.
       -4    1    3    3    0  502  0.40224801087E+03  0.10529671787E+04 -0.39988029761E+03  0.11960138824E+04  0.12699999809E+01 0.  1.
</event>
<event>
 5   0  0.9232963E-07  0.2610314E+04  0.7818609E-02  0.8364706E-01
        1   -1    0    0  501    0  0.00000000000E+00  0.00000000000E+00  0.16570885519E+04  0.16570885519E+04  0.50400001928E-02 0. -1.
       -1   -1    0    0    0  501  0.00000000000E+00  0.00000000000E+00 -0.10279686117E+04  0.10279686118E+04  0.50400001928E-02 0.  1.
    10030    2    1    2    0    0  0.00000000000E+00  0.00000000000E+00  0.62911994014E+03  0.26850571636E+04  0.26103141713E+04 0.  0.
        3    1    3    3  502    0  0.43527803931E+03 -0.11380845031E+04 -0.16651927354E+03  0.12298097358E+04  0.10100000352E+00 0.  1.
       -3    1    3    3    0  502 -0.43527803931E+03  0.11380845031E+04  0.79563921368E+03  0.14552474278E+04  0.10100000352E+00 0. -1.
</event>
<event>
 5   0  0.2906701E-06  0.3587869E+04  0.7818609E-02  0.8093276E-01
       -2   -1    0    0    0  501  0.00000000000E+00  0.00000000000E+00  0.11119722998E+04  0.11119722999E+04  0.25500000920E-02 0.  1.
        2   -1    0    0  501    0  0.00000000000E+00  0.00000000000E+00 -0.28941382357E+04  0.28941382357E+04  0.25500000920E-02 0. -1.
    10030    2    1    2    0    0  0.00000000000E+00  0.00000000000E+00 -0.17821659358E+04  0.40061105355E+04  0.35878693120E+04 0.  0.
        5    1    3    3  502    0  0.67883628741E+03  0.11770920449E+04 -0.21988611803E+04  0.25848359653E+04  0.46999998093E+01 0. -1.
       -5    1    3    3    0  502 -0.67883628741E+03 -0.11770920449E+04  0.41669524445E+03  0.14212745703E+04  0.46999998093E+01 0.  1.
</event>
<event>
 5   0  0.2664083E-06  0.3459333E+04  0.7818609E-02  0.8123496E-01
       -2   -1    0    0    0  501  0.00000000000E+00  0.00000000000E+00  0.95245681583E+03  0.95245681583E+03  0.25500000920E-02 0.  1.
        2   -1    0    0  501    0  0.00000000000E+00  0.00000000000E+00 -0.31410828368E+04  0.31410828368E+04  0.25500000920E-02 0. -1.
    10030    2    1    2    0    0  0.00000000000E+00  0.00000000000E+00 -0.21886260210E+04  0.40935396527E+04  0.34593327432E+04 0.  0.
        2    1    3    3  502    0  0.16791957700E+04  0.28115470859E+03 -0.14551795603E+04  0.22397084535E+04  0.25500000920E-02 0.  1.
       -2    1    3    3    0  502 -0.16791957700E+04 -0.28115470859E+03 -0.73344646072E+03  0.18538311991E+04  0.25500000920E-02 0. -1.
</event>
<event>
 5   0  0.9070500E-07  0.3408000E+04  0.7818609E-02  0.8135946E-01
        3   -1    0    0  501    0  0.00000000000E+00  0.00000000000E+00  0.13191955411E+04  0.13191955450E+04  0.10100000352E+00 0. -1.
       -3   -1    0    0    0  501  0.00000000000E+00  0.00000000000E+00 -0.22010507210E+04  0.22010507233E+04  0.10100000352E+00 0.  1.
    10030    2    1    2    0    0  0.00000000000E+00  0.00000000000E+00 -0.88185517987E+03  0.35202462683E+04  0.34080001806E+04 0.  0.
        2    1    3    3  502    0 -0.17000898395E+04 -0.40740137018E+02 -0.32943226606E+03  0.17321924948E+04  0.25500000920E-02 0. -1.
       -2    1    3    3    0  502  0.17000898395E+04  0.40740137018E+02 -0.55242291381E+03  0.17880537735E+04  0.25500000920E-02 0.  1.
</event>
<event>
 5   0  0.1010551E-06  0.3406763E+04  0.7818609E-02  0.8136248E-01
        1   -1    0    0  501    0  0.00000000000E+00  0.00000000000E+00  0.91222482407E+03  0.91222482408E+03  0.50400001928E-02 0.  1.
       -1   -1    0    0    0  501  0.00000000000E+00  0.00000000000E+00 -0.31806948558E+04  0.31806948558E+04  0.50400001928E-02 0. -1.
    10030    2    1    2    0    0  0.00000000000E+00  0.00000000000E+00 -0.22684700317E+04  0.40929196799E+04  0.34067631589E+04 0.  0.
        2    1    3    3  502    0  0.41752536925E+02 -0.70291784942E+03 -0.29976495957E+04  0.30792433934E+04  0.25500000920E-02 0. -1.
       -2    1    3    3    0  502 -0.41752536925E+02  0.70291784942E+03  0.72917956392E+03  0.10136762865E+04  0.25500000920E-02 0.  1.
</event>
<event>
 5   0  0.1010855E-06  0.3315136E+04  0.7818609E-02  0.8159055E-01
       -1   -1    0    0    0  501  0.00000000000E+00  0.00000000000E+00  0.18557933406E+04  0.18557933406E+04  0.50400001928E-02 0. -1.
        1   -1    0    0  501    0  0.00000000000E+00  0.00000000000E+00 -0.14805161791E+04  0.14805161791E+04  0.50400001928E-02 0.  1.
    10030    2    1    2    0    0  0.00000000000E+00  0.00000000000E+00  0.37527716156E+03  0.33363095197E+04  0.33151362360E+04 0.  0.
        1    1    3    3  502    0  0.35439297999E+03 -0.83606490320E+03 -0.12079167128E+04  0.15111789079E+04  0.50400001928E-02 0.  1.
       -1    1    3    3    0  502 -0.35439297999E+03  0.83606490320E+03  0.15831938743E+04  0.18251306119E+04  0.50400001928E-02 0. -1.
</event>
<event>
 5   0  0.2664083E-06  0.3443782E+04  0.7818609E-02  0.8127244E-01
       -2   -1    0    0    0  501  0.00000000000E+00  0.00000000000E+00  0.14116499128E+04  0.14116499128E+04  0.25500000920E-02 0.  1.
        2   -1    0    0  501    0  0.00000000000E+00  0.00000000000E+00 -0.21003146168E+04  0.21003146168E+04  0.25500000920E-02 0. -1.
    10030    2    1    2    0    0  0.00000000000E+00  0.00000000000E+00 -0.68866470398E+03  0.35119645295E+04  0.34437821915E+04 0.  0.
        2    1    3    3  502    0 -0.14583543764E+04  0.35266489580E+03 -0.12058895947E+04  0.19249259026E+04  0.25500000920E-02 0.  1.
       -2    1    3    3    0  502  0.14583543764E+04 -0.35266489580E+03  0.51722489068E+03  0.15870386270E+04  0.25500000920E-02 0. -1.
</event>
<event>
 5   0  0.1010855E-06  0.3353411E+04  0.7818609E-02  0.8149436E-01
        1   -1    0    0  501    0  0.00000000000E+00  0.00000000000E+00  0.23877696613E+04  0.23877696613E+04  0.50400001928E-02 0.  1.
       -1   -1    0    0    0  501  0.00000000000E+00  0.00000000000E+00 -0.11773922344E+04  0.11773922344E+04  0.50400001928E-02 0. -1.
    10030    2    1    2    0    0  0.00000000000E+00  0.00000000000E+00  0.12103774269E+04  0.35651618956E+04  0.33534110733E+04 0.  0.
        1    1    3    3  502    0  0.34998971820E+03  0.37662860718E+03  0.23018958863E+04  0.23586153951E+04  0.50400001928E-02 0.  1.
       -1    1    3    3    0  502 -0.34998971820E+03 -0.37662860718E+03 -0.10915184594E+04  0.12065465005E+04  0.50400001928E-02 0. -1.
</event>
<event>
 5   0  0.2906701E-06  0.3387638E+04  0.7818609E-02  0.8140947E-01
       -2   -1    0    0    0  501  0.00000000000E+00  0.00000000000E+00  0.17973862990E+04  0.17973862990E+04  0.25500000920E-02 0.  1.
        2   -1    0    0  501    0  0.00000000000E+00  0.00000000000E+00 -0.15962192008E+04  0.15962192008E+04  0.25500000920E-02 0. -1.
    10030    2    1    2    0    0  0.00000000000E+00  0.00000000000E+00  0.20116709814E+03  0.33936054998E+04  0.33876378329E+04 0.  0.
        5    1    3    3  502    0  0.40543102122E+03 -0.92995154260E+03  0.14593712446E+04  0.17773493478E+04  0.46999998093E+01 0.  1.
       -5    1    3    3    0  502 -0.40543102122E+03  0.92995154260E+03 -0.12582041465E+04  0.16162561520E+04  0.46999998093E+01 0. -1.
</event>
<event>
 5   0  0.9232963E-07  0.3494035E+04  0.7818609E-02  0.8115205E-01
        1   -1    0    0  501    0  0.00000000000E+00  0.00000000000E+00  0.95487683320E+03  0.95487683322E+03  0.50400001928E-02 0.  1.
       -1   -1    0    0    0  501  0.00000000000E+00  0.00000000000E+00 -0.31962973050E+04  0.31962973050E+04  0.50400001928E-02 0. -1.
    10030    2    1    2    0    0  0.00000000000E+00  0.00000000000E+00 -0.22414204718E+04  0.41511741383E+04  0.34940350592E+04 0.  0.
        3    1    3    3  502    0  0.51663408636E+03  0.73912428098E+03 -0.28984027914E+04  0.30354495933E+04  0.10100000352E+00 0. -1.
       -3    1    3    3    0  502 -0.51663408636E+03 -0.73912428098E+03  0.65698231955E+03  0.11157245450E+04  0.10100000352E+00 0.  1.
</event>
<event>
 5   0  0.9070500E-07  0.3390806E+04  0.7818609E-02  0.8140167E-01
       -3   -1    0    0    0  501  0.00000000000E+00  0.00000000000E+00  0.22583964068E+04  0.22583964091E+04  0.10100000352E+00 0.  1.
        3   -1    0    0  501    0  0.00000000000E+00  0.00000000000E+00 -0.12727574290E+04  0.12727574330E+04  0.10100000352E+00 0. -1.
    10030    2    1    2    0    0  0.00000000000E+00  0.00000000000E+00  0.98563897780E+03  0.35311538421E+04  0.33908056951E+04 0.  0.
        5    1    3    3  502    0  0.11590596581E+04  0.71936132083E+03 -0.55556095335E+03  0.14729460492E+04  0.46999998093E+01 0. -1.
       -5    1    3    3    0  502 -0.11590596581E+04 -0.71936132083E+03  0.15411999311E+04  0.20582077929E+04  0.46999998093E+01 0.  1.
</event>
<event>
 5   0  0.1003191E-06  0.3467040E+04  0.7818609E-02  0.8121646E-01
       -1   -1    0    0    0  501  0.00000000000E+00  0.00000000000E+00  0.11860848413E+04  0.11860848413E+04  0.50400001928E-02 0. -1.
        1   -1    0    0  501    0  0.00000000000E+00  0.00000000000E+00 -0.25336223591E+04  0.25336223591E+04  0.50400001928E-02 0.  1.
    10030    2    1    2    0    0  0.00000000000E+00  0.00000000000E+00 -0.13475375179E+04  0.37197072004E+04  0.34670397019E+04 0.  0.
        5    1    3    3  502    0  0.13298522543E+04  0.67760999398E+03 -0.16197315835E+04  0.22025473468E+04  0.46999998093E+01 0.  1.
       -5    1    3    3    0  502 -0.13298522543E+04 -0.67760999398E+03  0.27219406564E+03  0.15171598536E+04  0.46999998093E+01 0. -1.
</event>
<event>
 5   0  0.2664083E-06  0.3354031E+04  0.7818609E-02  0.8149282E-01
        2   -1    0    0  501    0  0.00000000000E+00  0.00000000000E+00  0.19029250223E+04  0.19029250223E+04  0.25500000920E-02 0. -1.
       -2   -1    0    0    0  501  0.00000000000E+00  0.00000000000E+00 -0.14779252410E+04  0.14779252410E+04  0.25500000920E-02 0.  1.
    10030    2    1    2    0    0  0.00000000000E+00  0.00000000000E+00  0.42499978130E+03  0.33808502633E+04  0.33540309612E+04 0.  0.
        2    1    3    3  502    0  0.15606471857E+04 -0.33967087470E+03  0.72784621620E+03  0.17552082656E+04  0.25500000920E-02 0. -1.
       -2    1    3    3    0  502 -0.15606471857E+04  0.33967087470E+03 -0.30284643490E+03  0.16256419976E+04  0.25500000920E-02 0.  1.
</event>
<event>
 5   0  0.1010855E-06  0.3380175E+04  0.7818609E-02  0.8142789E-01
       -1   -1    0    0    0  501  0.00000000000E+00  0.00000000000E+00  0.12900273323E+04  0.12900273324E+04  0.50400001928E-02 0.  1.
        1   -1    0    0  501    0  0.00000000000E+00  0.00000000000E+00 -0.22142135553E+04  0.22142135553E+04  0.50400001928E-02 0. -1.
    10030    2    1    2    0    0  0.00000000000E+00  0.00000000000E+00 -0.92418622298E+03  0.35042408877E+04  0.33801751470E+04 0.  0.
        1    1    3    3  502    0 -0.45193860593E+03  0.14832441386E+04 -0.11591825281E+04  0.19359663767E+04  0.50400001928E-02 0. -1.
       -1    1    3    3    0  502  0.45193860593E+03 -0.14832441386E+04  0.23499630508E+03  0.15682745110E+04  0.50400001928E-02 0.  1.
</event>
<event>
 5   0  0.2664083E-06  0.2890142E+04  0.7818609E-02  0.8275816E-01
       -2   -1    0    0    0  501  0.00000000000E+00  0.00000000000E+00  0.15304353948E+04  0.15304353948E+04  0.25500000920E-02 0.  1.
        2   -1    0    0  501    0  0.00000000000E+00  0.00000000000E+00 -0.13644684128E+04  0.13644684128E+04  0.25500000920E-02 0. -1.
    10030    2    1    2    0    0  0.00000000000E+00  0.00000000000E+00  0.16596698201E+03  0.28949038076E+04  0.28901423868E+04 0.  0.
        2    1    3    3  502    0  0.33773473723E+03 -0.30807960912E+03  0.14561004122E+04  0.15261737151E+04  0.25500000920E-02 0.  1.
       -2    1    3    3    0  502 -0.33773473723E+03  0.30807960912E+03 -0.12901334302E+04  0.13687300925E+04  0.25500000920E-02 0. -1.
</event>
<event>
 5   0  0.1010551E-06  0.3394040E+04  0.7818609E-02  0.8139371E-01
        1   -1    0    0  501    0  0.00000000000E+00  0.00000000000E+00  0.17541947805E+04  0.17541947805E+04  0.50400001928E-02 0. -1.
       -1   -1    0    0    0  501  0.00000000000E+00  0.00000000000E+00 -0.16417089223E+04  0.16417089223E+04  0.50400001928E-02 0.  1.
    10030    2    1    2    0    0  0.00000000000E+00  0.00000000000E+00  0.11248585819E+03  0.33959037029E+04  0.33940402017E+04 0.  0.
        2    1    3    3  502    0 -0.99867309849E+03 -0.52330811845E+03 -0.12127901105E+04  0.16559164220E+04  0.25500000920E-02 0.  1.
       -2    1    3    3    0  502  0.99867309849E+03  0.52330811845E+03  0.13252759687E+04  0.17399872809E+04  0.25500000920E-02 0. -1.
</event>
<event>
 5   0  0.1010551E-06  0.3309927E+04  0.7818609E-02  0.8160374E-01
        1   -1    0    0  501    0  0.00000000000E+00  0.00000000000E+00  0.31654398252E+04  0.31654398252E+04  0.50400001928E-02 0.  1.
       -1   -1    0    0    0  501  0.00000000000E+00  0.00000000000E+00 -0.86525241422E+03  0.86525241424E+03  0.50400001928E-02 0. -1.
    10030    2    1    2    0    0  0.00000000000E+00  0.00000000000E+00  0.23001874110E+04  0.40306922394E+04  0.33099271598E+04 0.  0.
        2    1    3    3  502    0 -0.14847975853E+04  0.11309880430E+03  0.20294884777E+04  0.25171886480E+04  0.25500000920E-02 0.  1.
       -2    1    3    3    0  502  0.14847975853E+04 -0.11309880430E+03  0.27069893331E+03  0.15135035914E+04  0.25500000920E-02 0. -1.
</event>
<event>
 5   0  0.9714317E-07  0.3268267E+04  0.7818609E-02  0.8171017E-01
        1   -1    0    0  501    0  0.00000000000E+00  0.00000000000E+00  0.24069634108E+04  0.24069634108E+04  0.50400001928E-02 0. -1.
       -1   -1    0    0    0  501  0.00000000000E+00  0.00000000000E+00 -0.11094447953E+04  0.11094447953E+04  0.50400001928E-02 0.  1.
    10030    2    1    2    0    0  0.00000000000E+00  0.00000000000E+00  0.12975186155E+04  0.35164082061E+04  0.32682674485E+04 0.  0.
        4    1    3    3  502    0  0.14377004643E+04  0.63687143037E+03  0.11272778394E+04  0.19347725406E+04  0.12699999809E+01 0.  1.
       -4    1    3    3    0  502 -0.14377004643E+04 -0.63687143037E+03  0.17024077609E+03  0.15816356655E+04  0.12699999809E+01 0. -1.
</event>
<event>
 5   0  0.9714317E-07  0.2084708E+04  0.7818609E-02  0.8568010E-01
        1   -1    0    0  501    0  0.00000000000E+00  0.00000000000E+00  0.77478974659E+03  0.77478974661E+03  0.50400001928E-02 0.  1.
       -1   -1    0    0    0  501  0.00000000000E+00  0.00000000000E+00 -0.14023176582E+04  0.14023176582E+04  0.50400001928E-02 0. -1.
    10030    2    1    2    0    0  0.00000000000E+00  0.00000000000E+00 -0.62752791164E+03  0.21771074048E+04  0.20847075028E+04 0.  0.
        4    1    3    3  502    0  0.31776832975E+03  0.15474637743E+03 -0.13378269285E+04  0.13837288955E+04  0.12699999809E+01 0. -1.
       -4    1    3    3    0  502 -0.31776832975E+03 -0.15474637743E+03  0.71029901690E+03  0.79337850931E+03  0.12699999809E+01 0.  1.
</event>
<event>
 5   0  0.1003191E-06  0.3447434E+04  0.7818609E-02  0.8126362E-01
       -1   -1    0    0    0  501  0.00000000000E+00  0.00000000000E+00  0.14731292160E+04  0.14731292161E+04  0.50400001928E-02 0.  1.
        1   -1    0    0  501    0  0.00000000000E+00  0.00000000000E+00 -0.20169311494E+04  0.20169311494E+04  0.50400001928E-02 0. -1.
    10030    2    1    2    0    0  0.00000000000E+00  0.00000000000E+00 -0.54380193334E+03  0.34900603655E+04  0.34474339460E+04 0.  0.
        5    1    3    3  502    0 -0.11542107609E+04  0.25761037743E+03  0.99764330522E+03  0.15472168050E+04  0.46999998093E+01 0.  1.
       -5    1    3    3    0  502  0.11542107609E+04 -0.25761037743E+03 -0.15414452386E+04  0.19428435605E+04  0.46999998093E+01 0. -1.
</event>
<event>
 5   0  0.9232963E-07  0.2354532E+04  0.7818609E-02  0.8456725E-01
       -1   -1    0    0    0  501  0.00000000000E+00  0.00000000000E+00  0.15913546626E+04  0.15913546626E+04  0.50400001928E-02 0. -1.
        1   -1    0    0  501    0  0.00000000000E+00  0.00000000000E+00 -0.87092793446E+03  0.87092793448E+03  0.50400001928E-02 0.  1.
    10030    2    1    2    0    0  0.00000000000E+00  0.00000000000E+00  0.72042672811E+03  0.24622825971E+04  0.23545319954E+04 0.  0.
        3    1    3    3  502    0  0.30902582930E+03 -0.10695755194E+04 -0.40009963039E+02  0.11140419930E+04  0.10100000352E+00 0.  1.
       -3    1    3    3    0  502 -0.30902582930E+03  0.10695755194E+04  0.76043669115E+03  0.13482406040E+04  0.10100000352E+00 0. -1.
</event>
<event>
 5   0  0.2906701E-06  0.3401930E+04  0.7818609E-02  0.8137433E-01
        2   -1    0    0  501    0  0.00000000000E+00  0.00000000000E+00  0.21681169462E+04  0.21681169462E+04  0.25500000920E-02 0.  1.
       -2   -1    0    0    0  501  0.00000000000E+00  0.00000000000E+00 -0.13344678456E+04  0.13344678456E+04  0.25500000920E-02 0. -1.
    10030    2    1    2    0    0  0.00000000000E+00  0.00000000000E+00  0.83364910066E+03  0.35025847918E+04  0.34019302463E+04 0.  0.
        5    1    3    3  502    0  0.22179165869E+03 -0.42355162559E+03 -0.12638560715E+04  0.13512741316E+04  0.46999998093E+01 0. -1.
       -5    1    3    3    0  502 -0.22179165869E+03  0.42355162559E+03  0.20975051721E+04  0.21513106602E+04  0.46999998093E+01 0.  1.
</event>
<event>
 5   0  0.1003191E-06  0.3380863E+04  0.7818609E-02  0.8142619E-01
       -1   -1    0    0    0  501  0.00000000000E+00  0.00000000000E+00  0.13649067413E+04  0.13649067413E+04  0.50400001928E-02 0.  1.
        1   -1    0    0  501    0  0.00000000000E+00  0.00000000000E+00 -0.20935923861E+04  0.20935923861E+04  0.50400001928E-02 0. -1.
    10030    2    1    2    0    0  0.00000000000E+00  0.00000000000E+00 -0.72868564484E+03  0.34584991274E+04  0.33808628256E+04 0.  0.
        5    1    3    3  502    0 -0.81806936334E+02  0.10536089186E+04 -0.17140159144E+04  0.20136178319E+04  0.46999998093E+01 0. -1.
       -5    1    3    3    0  502  0.81806936334E+02 -0.10536089186E+04  0.98533026954E+03  0.14448812955E+04  0.46999998093E+01 0.  1.
</event>
<event>
 5   0  0.2767014E-06  0.3384507E+04  0.7818609E-02  0.8141719E-01
        2   -1    0    0  501    0  0.00000000000E+00  0.00000000000E+00  0.23852693430E+04  0.23852693430E+04  0.25500000920E-02 0. -1.
       -2   -1    0    0    0  501  0.00000000000E+00  0.00000000000E+00 -0.12005866184E+04  0.12005866184E+04  0.25500000920E-02 0.  1.
    10030    2    1    2    0    0  0.00000000000E+00  0.00000000000E+00  0.11846827247E+04  0.35858559614E+04  0.33845073227E+04 0.  0.
        1    1    3    3  502    0 -0.69945057910E+03 -0.51430910915E+03 -0.94665039129E+03  0.12844811932E+04  0.50400001928E-02 0.  1.
       -1    1    3    3    0  502  0.69945057910E+03  0.51430910915E+03  0.21313331159E+04  0.23013747682E+04  0.50400001928E-02 0. -1.
</event>
<event>
 5   0  0.9232963E-07  0.2475601E+04  0.7818609E-02  0.8411730E-01
        1   -1    0    0  501    0  0.00000000000E+00  0.00000000000E+00  0.11923272669E+04  0.11923272669E+04  0.50400001928E-02 0. -1.
       -1   -1    0    0    0  501  0.00000000000E+00  0.00000000000E+00 -0.12850082348E+04  0.12850082349E+04  0.50400001928E-02 0.  1.
    10030    2    1    2    0    0  0.00000000000E+00  0.00000000000E+00 -0.92680967988E+02  0.24773355017E+04  0.24756012252E+04 0.  0.
        3    1    3    3  502    0  0.94443092140E+03  0.79154790850E+03 -0.16326620727E+03  0.12430421237E+04  0.10100000352E+00 0.  1.
       -3    1    3    3    0  502 -0.94443092140E+03 -0.79154790850E+03  0.70585239281E+02  0.12342933780E+04  0.10100000352E+00 0. -1.
</event>
<event>
 5   0  0.9714317E-07  0.3379456E+04  0.7818609E-02  0.8142967E-01
        1   -1    0    0  501    0  0.00000000000E+00  0.00000000000E+00  0.19597893052E+04  0.19597893053E+04  0.50400001928E-02 0. -1.
       -1   -1    0    0    0  501  0.00000000000E+00  0.00000000000E+00 -0.14568817803E+04  0.14568817803E+04  0.50400001928E-02 0.  1.
    10030    2    1    2    0    0  0.00000000000E+00  0.00000000000E+00  0.50290752493E+03  0.34166710856E+04  0.33794563658E+04 0.  0.
        4    1    3    3  502    0 -0.56905353054E+03 -0.34843487286E+03 -0.13180430196E+04  0.14773177707E+04  0.12699999809E+01 0.  1.
       -4    1    3    3    0  502  0.56905353054E+03  0.34843487286E+03  0.18209505445E+04  0.19393533148E+04  0.12699999809E+01 0. -1.
</event>
<event>
 5   0  0.2767014E-06  0.3398794E+04  0.7818609E-02  0.8138202E-01
        2   -1    0    0  501    0  0.00000000000E+00  0.00000000000E+00  0.18380528539E+04  0.18380528539E+04  0.25500000920E-02 0. -1.
       -2   -1    0    0    0  501  0.00000000000E+00  0.00000000000E+00 -0.15712004912E+04  0.15712004912E+04  0.25500000920E-02 0.  1.
    10030    2    1    2    0    0  0.00000000000E+00  0.00000000000E+00  0.26685236262E+03  0.34092533451E+04  0.33987936371E+04 0.  0.
        1    1    3    3  502    0  0.82872747187E+02  0.37339327415E+03  0.17943174683E+04  0.18346295556E+04  0.50400001928E-02 0. -1.
       -1    1    3    3    0  502 -0.82872747187E+02 -0.37339327415E+03 -0.15274651057E+04  0.15746237895E+04  0.50400001928E-02 0.  1.
</event>
<event>
 5   0  0.2848685E-06  0.3343253E+04  0.7818609E-02  0.8151976E-01
        2   -1    0    0  501    0  0.00000000000E+00  0.00000000000E+00  0.21753979638E+04  0.21753979638E+04  0.25500000920E-02 0.  1.
       -2   -1    0    0    0  501  0.00000000000E+00  0.00000000000E+00 -0.12845168010E+04  0.12845168010E+04  0.25500000920E-02 0. -1.
    10030    2    1    2    0    0  0.00000000000E+00  0.00000000000E+00  0.89088116285E+03  0.34599147648E+04  0.33432530466E+04 0.  0.
        3    1    3    3  502    0  0.11653243031E+04  0.21891920247E+03 -0.77399249116E+03  0.14159698921E+04  0.10100000352E+00 0. -1.
       -3    1    3    3    0  502 -0.11653243031E+04 -0.21891920247E+03  0.16648736540E+04  0.20439448727E+04  0.10100000352E+00 0.  1.
</event>
<event>
 5   0  0.2767014E-06  0.3395622E+04  0.7818609E-02  0.8138982E-01
       -2   -1    0    0    0  501  0.00000000000E+00  0.00000000000E+00  0.20600960898E+04  0.20600960898E+04  0.25500000920E-02 0. -1.
        2   -1    0    0  501    0  0.00000000000E+00  0.00000000000E+00 -0.13992366033E+04  0.13992366033E+04  0.25500000920E-02 0.  1.
    10030    2    1    2    0    0  0.00000000000E+00  0.00000000000E+00  0.66085948646E+03  0.34593326931E+04  0.33956218018E+04 0.  0.
        1    1    3    3  502    0 -0.80733035477E+03  0.84352407198E+03 -0.92527393913E+03  0.14897808645E+04  0.50400001928E-02 0.  1.
       -1    1    3    3    0  502  0.80733035477E+03 -0.84352407198E+03  0.15861334256E+04  0.19695518286E+04  0.50400001928E-02 0. -1.
</event>
<event>
 5   0  0.2848685E-06  0.2498306E+04  0.7818609E-02  0.8403589E-01
       -2   -1    0    0    0  501  0.00000000000E+00  0.00000000000E+00  0.62694338400E+03  0.62694338400E+03  0.25500000920E-02 0. -1.
        2   -1    0    0  501    0  0.00000000000E+00  0.00000000000E+00 -0.24888741644E+04  0.24888741644E+04  0.25500000920E-02 0.  1.
    10030    2    1    2    0    0  0.00000000000E+00  0.00000000000E+00 -0.18619307804E+04  0.31158175484E+04  0.24983059788E+04 0.  0.
        3    1    3    3  502    0  0.41354050028E+03  0.80764603280E+03 -0.20017011982E+04  0.21977523875E+04  0.10100000352E+00 0.  1.
       -3    1    3    3    0  502 -0.41354050028E+03 -0.80764603280E+03  0.13977041786E+03  0.91806516085E+03  0.10100000352E+00 0. -1.
</event>
<event>
 5   0  0.2664083E-06  0.3370754E+04  0.7818609E-02  0.8145122E-01
        2   -1    0    0  501    0  0.00000000000E+00  0.00000000000E+00  0.13662265548E+04  0.13662265548E+04  0.25500000920E-02 0.  1.
       -2   -1    0    0    0  501  0.00000000000E+00  0.00000000000E+00 -0.20790806507E+04  0.20790806507E+04  0.25500000920E-02 0. -1.
    10030    2    1    2    0    0  0.00000000000E+00  0.00000000000E+00 -0.71285409589E+03  0.34453072054E+04  0.33707537403E+04 0.  0.
        2    1    3    3  502    0 -0.17578352081E+03 -0.10767045487E+04  0.95662737696E+03  0.14509750066E+04  0.25500000920E-02 0.  1.
       -2    1    3    3    0  502  0.17578352081E+03  0.10767045487E+04 -0.16694814728E+04  0.19943321989E+04  0.25500000920E-02 0. -1.
</event>
<event>
 5   0  0.2767014E-06  0.3361212E+04  0.7818609E-02  0.8147492E-01
       -2   -1    0    0    0  501  0.00000000000E+00  0.00000000000E+00  0.13960573808E+04  0.13960573808E+04  0.25500000920E-02 0. -1.
        2   -1    0    0  501    0  0.00000000000E+00  0.00000000000E+00 -0.20231523066E+04  0.20231523066E+04  0.25500000920E-02 0.  1.
    10030    2    1    2    0    0  0.00000000000E+00  0.00000000000E+00 -0.62709492581E+03  0.34192096874E+04  0.33612121088E+04 0.  0.
        1    1    3    3  502    0  0.13169842868E+04 -0.46958857287E+03 -0.12620937600E+04  0.18835715273E+04  0.50400001928E-02 0.  1.
       -1    1    3    3    0  502 -0.13169842868E+04  0.46958857287E+03  0.63499883419E+03  0.15356381601E+04  0.50400001928E-02 0. -1.
</event>
<event>
 5   0  0.1003191E-06  0.2504411E+04  0.7818609E-02  0.8401416E-01
        1   -1    0    0  501    0  0.00000000000E+00  0.00000000000E+00  0.10357554766E+04  0.10357554766E+04  0.50400001928E-02 0. -1.
       -1   -1    0    0    0  501  0.00000000000E+00  0.00000000000E+00 -0.15138883873E+04  0.15138883873E+04  0.50400001928E-02 0.  1.
    10030    2    1    2    0    0  0.00000000000E+00  0.00000000000E+00 -0.47813291071E+03  0.25496438639E+04  0.25044106597E+04 0.  0.
        5    1    3    3  502    0  0.50287730926E+03 -0.11217205693E+04  0.36797687154E+01  0.12292999042E+04  0.46999998093E+01 0. -1.
       -5    1    3    3    0  502 -0.50287730926E+03  0.11217205693E+04 -0.48181267942E+03  0.13203439597E+04  0.46999998093E+01 0.  1.
</event>
<event>
 5   0  0.1003191E-06  0.2790107E+04  0.7818609E-02  0.8306346E-01
       -1   -1    0    0    0  501  0.00000000000E+00  0.00000000000E+00  0.75546644501E+03  0.75546644502E+03  0.50400001928E-02 0.  1.
        1   -1    0    0  501    0  0.00000000000E+00  0.00000000000E+00 -0.25761231605E+04  0.25761231605E+04  0.50400001928E-02 0. -1.
    10030    2    1    2    0    0  0.00000000000E+00  0.00000000000E+00 -0.18206567155E+04  0.33315896056E+04  0.27901072424E+04 0.  0.
        5    1    3    3  502    0 -0.69171948754E+03 -0.11670849312E+04 -0.12983364868E+04  0.18778346064E+04  0.46999998093E+01 0. -1.
       -5    1    3    3    0  502  0.69171948754E+03  0.11670849312E+04 -0.52232022873E+03  0.14537549991E+04  0.46999998093E+01 0.  1.
</event>
<event>
 5   0  0.2664083E-06  0.3449613E+04  0.7818609E-02  0.8125836E-01
       -2   -1    0    0    0  501  0.00000000000E+00  0.00000000000E+00  0.13251570557E+04  0.13251570557E+04  0.25500000920E-02 0. -1.
        2   -1    0    0  501    0  0.00000000000E+00  0.00000000000E+00 -0.22449845981E+04  0.22449845981E+04  0.25500000920E-02 0.  1.
    10030    2    1    2    0    0  0.00000000000E+00  0.00000000000E+00 -0.91982754246E+03  0.35701416538E+04  0.34496128363E+04 0.  0.
        2    1    3    3  502    0  0.15279828225E+04 -0.27142697346E+03 -0.12389100668E+04  0.19857749775E+04  0.25500000920E-02 0.  1.
       -2    1    3    3    0  502 -0.15279828225E+04  0.27142697346E+03  0.31908252431E+03  0.15843666763E+04  0.25500000920E-02 0. -1.
</event>
<event>
 5   0  0.9232963E-07  0.2918836E+04  0.7818609E-02  0.8267295E-01
        1   -1    0    0  501    0  0.00000000000E+00  0.00000000000E+00  0.10362584403E+04  0.10362584403E+04  0.50400001928E-02 0.  1.
       -1   -1    0    0    0  501  0.00000000000E+00  0.00000000000E+00 -0.20553755507E+04  0.20553755507E+04  0.50400001928E-02 0. -1.
    10030    2    1    2    0    0  0.00000000000E+00  0.00000000000E+00 -0.10191171104E+04  0.30916339911E+04  0.29188355640E+04 0.  0.
        3    1    3    3  502    0 -0.63444057474E+03  0.12875553459E+04 -0.23014891909E+03  0.14537132272E+04  0.10100000352E+00 0.  1.
       -3    1    3    3    0  502  0.63444057474E+03 -0.12875553459E+04 -0.78896819135E+03  0.16379207639E+04  0.10100000352E+00 0. -1.
</event>
<event>
 5   0  0.1003191E-06  0.3305830E+04  0.7818609E-02  0.8161414E-01
        1   -1    0    0  501    0  0.00000000000E+00  0.00000000000E+00  0.14209041448E+04  0.14209041449E+04  0.50400001928E-02 0. -1.
       -1   -1    0    0    0  501  0.00000000000E+00  0.00000000000E+00 -0.19228089852E+04  0.19228089852E+04  0.50400001928E-02 0.  1.
    10030    2    1    2    0    0  0.00000000000E+00  0.00000000000E+00 -0.50190484038E+03  0.33437131301E+04  0.33058295521E+04 0.  0.
        5    1    3    3  502    0  0.10403963845E+04 -0.61538334198E+03 -0.13912509721E+04  0.18430199814E+04  0.46999998093E+01 0.  1.
       -5    1    3    3    0  502 -0.10403963845E+04  0.61538334198E+03  0.88934613175E+03  0.15006931487E+04  0.46999998093E+01 0. -1.
</event>
<event>
 5   0  0.9070500E-07  0.3379302E+04  0.7818609E-02  0.8143005E-01
        4   -1    0    0  501    0  0.00000000000E+00  0.00000000000E+00  0.17590453739E+04  0.17590458324E+04  0.12699999809E+01 0. -1.
       -4   -1    0    0    0  501  0.00000000000E+00  0.00000000000E+00 -0.16229937010E+04  0.16229941978E+04  0.12699999809E+01 0.  1.
    10030    2    1    2    0    0  0.00000000000E+00  0.00000000000E+00  0.13605167295E+03  0.33820400302E+04  0.33793023996E+04 0.  0.
        4    1    3    3  502    0 -0.10273411341E+04  0.13251412581E+04  0.27673831210E+03  0.16994160368E+04  0.12699999809E+01 0.  1.
       -4    1    3    3    0  502  0.10273411341E+04 -0.13251412581E+04 -0.14068663914E+03  0.16826239934E+04  0.12699999809E+01 0. -1.
</event>
<event>
 5   0  0.2848685E-06  0.3355041E+04  0.7818609E-02  0.8149030E-01
       -2   -1    0    0    0  501  0.00000000000E+00  0.00000000000E+00  0.14888208529E+04  0.14888208529E+04  0.25500000920E-02 0. -1.
        2   -1    0    0  501    0  0.00000000000E+00  0.00000000000E+00 -0.18901366771E+04  0.18901366771E+04  0.25500000920E-02 0.  1.
    10030    2    1    2    0    0  0.00000000000E+00  0.00000000000E+00 -0.40131582414E+03  0.33789575300E+04  0.33550409235E+04 0.  0.
        3    1    3    3  502    0 -0.11463391536E+04 -0.99062671277E+03 -0.92595841487E+03  0.17756220700E+04  0.10100000352E+00 0.  1.
       -3    1    3    3    0  502  0.11463391536E+04  0.99062671277E+03  0.52464259073E+03  0.16033354600E+04  0.10100000352E+00 0. -1.
</event>
<event>
 5   0  0.9070500E-07  0.2711074E+04  0.7818609E-02  0.8331421E-01
        3   -1    0    0  501    0  0.00000000000E+00  0.00000000000E+00  0.24359824962E+04  0.24359824983E+04  0.10100000352E+00 0. -1.
       -3   -1    0    0    0  501  0.00000000000E+00  0.00000000000E+00 -0.75430791478E+03  0.75430792154E+03  0.10100000352E+00 0.  1.
    10030    2    1    2    0    0  0.00000000000E+00  0.00000000000E+00  0.16816745814E+04  0.31902904198E+04  0.27110742456E+04 0.  0.
        4    1    3    3  502    0  0.17957141550E+03  0.11782791630E+04  0.16006391994E+04  0.19956540629E+04  0.12699999809E+01 0.  1.
       -4    1    3    3    0  502 -0.17957141550E+03 -0.11782791630E+04  0.81035382028E+02  0.11946363569E+04  0.12699999809E+01 0. -1.
</event>
<event>
 5   0  0.2664083E-06  0.3389702E+04  0.7818609E-02  0.8140438E-01
       -2   -1    0    0    0  501  0.00000000000E+00  0.00000000000E+00  0.23401894710E+04  0.23401894710E+04  0.25500000920E-02 0. -1.
        2   -1    0    0  501    0  0.00000000000E+00  0.00000000000E+00 -0.12274730331E+04  0.12274730331E+04  0.25500000920E-02 0.  1.
    10030    2    1    2    0    0  0.00000000000E+00  0.00000000000E+00  0.11127164379E+04  0.35676625041E+04  0.33897017379E+04 0.  0.
        2    1    3    3  502    0 -0.16620596018E+04  0.14098387641E+03  0.87246055108E+03  0.18824202471E+04  0.25500000920E-02 0. -1.
       -2    1    3    3    0  502  0.16620596018E+04 -0.14098387641E+03  0.24025588678E+03  0.16852422570E+04  0.25500000920E-02 0.  1.
</event>
<event>
 5   0  0.9232963E-07  0.3346063E+04  0.7818609E-02  0.8151273E-01
        1   -1    0    0  501    0  0.00000000000E+00  0.00000000000E+00  0.10067359082E+04  0.10067359082E+04  0.50400001928E-02 0. -1.
       -1   -1    0    0    0  501  0.00000000000E+00  0.00000000000E+00 -0.27803061880E+04  0.27803061880E+04  0.50400001928E-02 0.  1.
    10030    2    1    2    0    0  0.00000000000E+00  0.00000000000E+00 -0.17735702798E+04  0.37870420962E+04  0.33460628059E+04 0.  0.
        3    1    3    3  502    0  0.94823783445E+03 -0.72004011407E+03  0.44345215489E+03  0.12705363357E+04  0.10100000352E+00 0. -1.
       -3    1    3    3    0  502 -0.94823783445E+03  0.72004011407E+03 -0.22170224347E+04  0.25165057605E+04  0.10100000352E+00 0.  1.
</event>
<event>
 5   0  0.2767014E-06  0.3341914E+04  0.7818609E-02  0.8152311E-01
        2   -1    0    0  501    0  0.00000000000E+00  0.00000000000E+00  0.15926934276E+04  0.15926934276E+04  0.25500000920E-02 0. -1.
       -2   -1    0    0    0  501  0.00000000000E+00  0.00000000000E+00 -0.17530664603E+04  0.17530664603E+04  0.25500000920E-02 0.  1.
    10030    2    1    2    0    0  0.00000000000E+00  0.00000000000E+00 -0.16037303263E+03  0.33457598879E+04  0.33419140800E+04 0.  0.
        1    1    3    3  502    0  0.86920502854E+02 -0.15582356274E+04  0.51752983308E+03  0.16442294769E+04  0.50400001928E-02 0. -1.
       -1    1    3    3    0  502 -0.86920502854E+02  0.15582356274E+04 -0.67790286571E+03  0.17015304111E+04  0.50400001928E-02 0.  1.
</event>
<event>
 5   0  0.1010551E-06  0.3428057E+04  0.7818609E-02  0.8131054E-01
       -1   -1    0    0    0  501  0.00000000000E+00  0.00000000000E+00  0.12562210481E+04  0.12562210482E+04  0.50400001928E-02 0. -1.
        1   -1    0    0  501    0  0.00000000000E+00  0.00000000000E+00 -0.23386758293E+04  0.23386758293E+04  0.50400001928E-02 0.  1.
    10030    2    1    2    0    0  0.00000000000E+00  0.00000000000E+00 -0.10824547811E+04  0.35948968774E+04  0.34280570599E+04 0.  0.
        2    1    3    3  502    0 -0.99819679462E+03  0.87864439048E+03  0.59282985876E+03  0.14559739171E+04  0.25500000920E-02 0. -1.
       -2    1    3    3    0  502  0.99819679462E+03 -0.87864439048E+03 -0.16752846399E+04  0.21389229604E+04  0.25500000920E-02 0.  1.
</event>
<event>
 5   0  0.9232963E-07  0.2675870E+04  0.7818609E-02  0.8342877E-01
        1   -1    0    0  501    0  0.00000000000E+00  0.00000000000E+00  0.15928510561E+04  0.15928510561E+04  0.50400001928E-02 0.  1.
       -1   -1    0    0    0  501  0.00000000000E+00  0.00000000000E+00 -0.11238147363E+04  0.11238147364E+04  0.50400001928E-02 0. -1.
    10030    2    1    2    0    0  0.00000000000E+00  0.00000000000E+00  0.46903631975E+03  0.27166657925E+04  0.26758695706E+04 0.  0.
        3    1    3    3  502    0  0.12251859834E+04  0.86558460025E+02 -0.30413313749E+03  0.12653339624E+04  0.10100000352E+00 0. -1.
       -3    1    3    3    0  502 -0.12251859834E+04 -0.86558460025E+02  0.77316945724E+03  0.14513318300E+04  0.10100000352E+00 0.  1.
</event>
<event>
 5   0  0.1003191E-06  0.3394413E+04  0.7818609E-02  0.8139279E-01
       -1   -1    0    0    0  501  0.00000000000E+00  0.00000000000E+00  0.15281655983E+04  0.15281655983E+04  0.50400001928E-02 0. -1.
        1   -1    0    0  501    0  0.00000000000E+00  0.00000000000E+00 -0.18849465476E+04  0.18849465476E+04  0.50400001928E-02 0.  1.
    10030    2    1    2    0    0  0.00000000000E+00  0.00000000000E+00 -0.35678094929E+03  0.34131121459E+04  0.33944133329E+04 0.  0.
        5    1    3    3  502    0  0.70023093516E+03  0.25921263799E+03 -0.17109169704E+04  0.18667548108E+04  0.46999998093E+01 0.  1.
       -5    1    3    3    0  502 -0.70023093516E+03 -0.25921263799E+03  0.13541360211E+04  0.15463573351E+04  0.46999998093E+01 0. -1.
</event>
<event>
 5   0  0.1010551E-06  0.3259357E+04  0.7818609E-02  0.8173315E-01
        1   -1    0    0  501    0  0.00000000000E+00  0.00000000000E+00  0.24807751076E+04  0.24807751076E+04  0.50400001928E-02 0. -1.
       -1   -1    0    0    0  501  0.00000000000E+00  0.00000000000E+00 -0.10705736178E+04  0.10705736178E+04  0.50400001928E-02 0.  1.
    10030    2    1    2    0    0  0.00000000000E+00  0.00000000000E+00  0.14102014899E+04  0.35513487254E+04  0.32593572261E+04 0.  0.
        2    1    3    3  502    0  0.11265599944E+04  0.79461809430E+03  0.16520359239E+04  0.21516918996E+04  0.25500000920E-02 0.  1.
       -2    1    3    3    0  502 -0.11265599944E+04 -0.79461809430E+03 -0.24183443409E+03  0.13996568259E+04  0.25500000920E-02 0. -1.
</event>
<event>
 5   0  0.2856440E-06  0.3347204E+04  0.7818609E-02  0.8150987E-01
        2   -1    0    0  501    0  0.00000000000E+00  0.00000000000E+00  0.15350014008E+04  0.15350014008E+04  0.25500000920E-02 0.  1.
       -2   -1    0    0    0  501  0.00000000000E+00  0.00000000000E+00 -0.18247176457E+04  0.18247176457E+04  0.25500000920E-02 0. -1.
    10030    2    1    2    0    0  0.00000000000E+00  0.00000000000E+00 -0.28971624495E+03  0.33597190465E+04  0.33472042915E+04 0.  0.
        4    1    3    3  502    0 -0.44708020713E+03  0.94205596463E+03  0.11690787570E+04  0.15665557459E+04  0.12699999809E+01 0.  1.
       -4    1    3    3    0  502  0.44708020713E+03 -0.94205596463E+03 -0.14587950019E+04  0.17931633006E+04  0.12699999809E+01 0. -1.
</event>
<event>
 5   0  0.9714317E-07  0.3360447E+04  0.7818609E-02  0.8147683E-01
       -1   -1    0    0    0  501  0.00000000000E+00  0.00000000000E+00  0.13761474928E+04  0.13761474928E+04  0.50400001928E-02 0. -1.
        1   -1    0    0  501    0  0.00000000000E+00  0.00000000000E+00 -0.20514883182E+04  0.20514883182E+04  0.50400001928E-02 0.  1.
    10030    2    1    2    0    0  0.00000000000E+00  0.00000000000E+00 -0.67534082538E+03  0.34276358110E+04  0.33604466998E+04 0.  0.
        4    1    3    3  502    0  0.39520648210E+03  0.11881960373E+04  0.80506485795E+03  0.14886668616E+04  0.12699999809E+01 0. -1.
       -4    1    3    3    0  502 -0.39520648210E+03 -0.11881960373E+04 -0.14804056833E+04  0.19389689494E+04  0.12699999809E+01 0.  1.
</event>
<event>
 5   0  0.1003191E-06  0.3367582E+04  0.7818609E-02  0.8145909E-01
       -1   -1    0    0    0  501  0.00000000000E+00  0.00000000000E+00  0.14570557221E+04  0.14570557221E+04  0.50400001928E-02 0.  1.
        1   -1    0    0  501    0  0.00000000000E+00  0.00000000000E+00 -0.19458087714E+04  0.19458087714E+04  0.50400001928E-02 0. -1.
    10030    2    1    2    0    0  0.00000000000E+00  0.00000000000E+00 -0.48875304933E+03  0.34028644935E+04  0.33675818056E+04 0.  0.
        5    1    3    3  502    0 -0.15301947259E+03 -0.90797493385E+02 -0.19362757889E+04  0.19444395502E+04  0.46999998093E+01 0. -1.
       -5    1    3    3    0  502  0.15301947259E+03  0.90797493385E+02  0.14475227395E+04  0.14584249433E+04  0.46999998093E+01 0.  1.
</event>
<event>
 5   0  0.1010551E-06  0.3437483E+04  0.7818609E-02  0.8128768E-01
        1   -1    0    0  501    0  0.00000000000E+00  0.00000000000E+00  0.10981999084E+04  0.10981999084E+04  0.50400001928E-02 0.  1.
       -1   -1    0    0    0  501  0.00000000000E+00  0.00000000000E+00 -0.26899217839E+04  0.26899217839E+04  0.50400001928E-02 0. -1.
    10030    2    1    2    0    0  0.00000000000E+00  0.00000000000E+00 -0.15917218755E+04  0.37881216924E+04  0.34374827166E+04 0.  0.
        2    1    3    3  502    0 -0.66796177695E+03 -0.14672831251E+04 -0.13928521153E+03  0.16181758480E+04  0.25500000920E-02 0.  1.
       -2    1    3    3    0  502  0.66796177695E+03  0.14672831251E+04 -0.14524366640E+04  0.21699458444E+04  0.25500000920E-02 0. -1.
</event>
<event>
 5   0  0.2767014E-06  0.2220880E+04  0.7818609E-02  0.8509787E-01
        2   -1    0    0  501    0  0.00000000000E+00  0.00000000000E+00  0.13662167178E+04  0.13662167178E+04  0.25500000920E-02 0. -1.
       -2   -1    0    0    0  501  0.00000000000E+00  0.00000000000E+00 -0.90254844466E+03  0.90254844466E+03  0.25500000920E-02 0.  1.
    10030    2    1    2    0    0  0.00000000000E+00  0.00000000000E+00  0.46366827312E+03  0.22687651624E+04  0.22208798020E+04 0.  0.
        1    1    3    3  502    0 -0.49205951337E+03  0.41446982760E+03  0.11564284907E+04  0.13233422297E+04  0.50400001928E-02 0. -1.
       -1    1    3    3    0  502  0.49205951337E+03 -0.41446982760E+03 -0.69276021759E+03  0.94542293276E+03  0.50400001928E-02 0.  1.
</event>
<event>
 5   0  0.2848685E-06  0.3199141E+04  0.7818609E-02  0.8189044E-01
       -2   -1    0    0    0  501  0.00000000000E+00  0.00000000000E+00  0.11662853923E+04  0.11662853924E+04  0.25500000920E-02 0. -1.
        2   -1    0    0  501    0  0.00000000000E+00  0.00000000000E+00 -0.21938254135E+04  0.21938254135E+04  0.25500000920E-02 0.  1.
    10030    2    1    2    0    0  0.00000000000E+00  0.00000000000E+00 -0.10275400211E+04  0.33601108058E+04  0.31991414680E+04 0.  0.
        3    1    3    3  502    0  0.87279775138E+03  0.13126355674E+04 -0.22836505202E+03  0.15927770261E+04  0.10100000352E+00 0. -1.
       -3    1    3    3    0  502 -0.87279775138E+03 -0.13126355674E+04 -0.79917496912E+03  0.17673337798E+04  0.10100000352E+00 0.  1.
</event>
<event>
 5   0  0.2848685E-06  0.3436510E+04  0.7818609E-02  0.8129003E-01
       -2   -1    0    0    0  501  0.00000000000E+00  0.00000000000E+00  0.11325234092E+04  0.11325234092E+04  0.25500000920E-02 0. -1.
        2   -1    0    0  501    0  0.00000000000E+00  0.00000000000E+00 -0.26069220309E+04  0.26069220309E+04  0.25500000920E-02 0.  1.
    10030    2    1    2    0    0  0.00000000000E+00  0.00000000000E+00 -0.14743986217E+04  0.37394454401E+04  0.34365099889E+04 0.  0.
        3    1    3    3  502    0  0.27995043024E+03  0.10260242548E+04 -0.22057217828E+04  0.24487357163E+04  0.10100000352E+00 0.  1.
       -3    1    3    3    0  502 -0.27995043024E+03 -0.10260242548E+04  0.73132316114E+03  0.12907097238E+04  0.10100000352E+00 0. -1.
</event>
<event>
 5   0  0.9714317E-07  0.3412408E+04  0.7818609E-02  0.8134868E-01
        1   -1    0    0  501    0  0.00000000000E+00  0.00000000000E+00  0.28855533981E+04  0.28855533981E+04  0.50400001928E-02 0. -1.
       -1   -1    0    0    0  501  0.00000000000E+00  0.00000000000E+00 -0.10088644721E+04  0.10088644721E+04  0.50400001928E-02 0.  1.
    10030    2    1    2    0    0  0.00000000000E+00  0.00000000000E+00  0.18766889259E+04  0.38944178702E+04  0.34124081267E+04 0.  0.
        4    1    3    3  502    0  0.82635907341E+03 -0.10302266077E+04 -0.29446903383E+03  0.13531259388E+04  0.12699999809E+01 0.  1.
       -4    1    3    3    0  502 -0.82635907341E+03  0.10302266077E+04  0.21711579598E+04  0.25412919314E+04  0.12699999809E+01 0. -1.
</event>
<event>
 5   0  0.2767014E-06  0.3357810E+04  0.7818609E-02  0.8148340E-01
       -2   -1    0    0    0  501  0.00000000000E+00  0.00000000000E+00  0.17324322455E+04  0.17324322455E+04  0.25500000920E-02 0. -1.
        2   -1    0    0  501    0  0.00000000000E+00  0.00000000000E+00 -0.16270313017E+04  0.16270313017E+04  0.25500000920E-02 0.  1.
    10030    2    1    2    0    0  0.00000000000E+00  0.00000000000E+00  0.10540094381E+03  0.33594635472E+04  0.33578096977E+04 0.  0.
        1    1    3    3  502    0 -0.12965197540E+04 -0.81931304137E+03  0.73603333001E+03  0.17011708894E+04  0.50400001928E-02 0. -1.
       -1    1    3    3    0  502  0.12965197540E+04  0.81931304137E+03 -0.63063238620E+03  0.16582926577E+04  0.50400001928E-02 0.  1.
</event>
<event>
 5   0  0.1010551E-06  0.3213420E+04  0.7818609E-02  0.8185282E-01
        1   -1    0    0  501    0  0.00000000000E+00  0.00000000000E+00  0.25467445149E+04  0.25467445149E+04  0.50400001928E-02 0. -1.
       -1   -1    0    0    0  501  0.00000000000E+00  0.00000000000E+00 -0.10136536897E+04  0.10136536897E+04  0.50400001928E-02 0.  1.
    10030    2    1    2    0    0  0.00000000000E+00  0.00000000000E+00  0.15330908252E+04  0.35603982046E+04  0.32134199690E+04 0.  0.
        2    1    3    3  502    0 -0.63124528769E+03  0.11562701138E+04  0.17856958248E+04  0.22190405062E+04  0.25500000920E-02 0. -1.
       -2    1    3    3    0  502  0.63124528769E+03 -0.11562701138E+04 -0.25260499967E+03  0.13413576984E+04  0.25500000920E-02 0.  1.
</event>
<event>
 5   0  0.9232963E-07  0.3387967E+04  0.7818609E-02  0.8140866E-01
       -1   -1    0    0    0  501  0.00000000000E+00  0.00000000000E+00  0.14386166727E+04  0.14386166728E+04  0.50400001928E-02 0.  1.
        1   -1    0    0  501    0  0.00000000000E+00  0.00000000000E+00 -0.19946800417E+04  0.19946800417E+04  0.50400001928E-02 0. -1.
    10030    2    1    2    0    0  0.00000000000E+00  0.00000000000E+00 -0.55606336893E+03  0.34332967144E+04  0.33879669212E+04 0.  0.
        3    1    3    3  502    0  0.35908567899E+03  0.64585404186E+03 -0.18227327574E+04  0.19668311273E+04  0.10100000352E+00 0. -1.
       -3    1    3    3    0  502 -0.35908567899E+03 -0.64585404186E+03  0.12666693885E+04  0.14664655871E+04  0.10100000352E+00 0.  1.
</event>
<event>
 5   0  0.1003191E-06  0.3354665E+04  0.7818609E-02  0.8149124E-01
        1   -1    0    0  501    0  0.00000000000E+00  0.00000000000E+00  0.17423434478E+04  0.17423434478E+04  0.50400001928E-02 0. -1.
       -1   -1    0    0    0  501  0.00000000000E+00  0.00000000000E+00 -0.16147470798E+04  0.16147470798E+04  0.50400001928E-02 0.  1.
    10030    2    1    2    0    0  0.00000000000E+00  0.00000000000E+00  0.12759636801E+03  0.33570905275E+04  0.33546648084E+04 0.  0.
        5    1    3    3  502    0 -0.33135992388E+03  0.15099343208E+04  0.71520730941E+03  0.17033040356E+04  0.46999998093E+01 0. -1.
       -5    1    3    3    0  502  0.33135992388E+03 -0.15099343208E+04 -0.58761094141E+03  0.16537864919E+04  0.46999998093E+01 0.  1.
</event>
<event>
 5   0  0.2664083E-06  0.3482284E+04  0.7818609E-02  0.8118001E-01
        2   -1    0    0  501    0  0.00000000000E+00  0.00000000000E+00  0.11891770258E+04  0.11891770258E+04  0.25500000920E-02 0. -1.
       -2   -1    0    0    0  501  0.00000000000E+00  0.00000000000E+00 -0.25493061539E+04  0.25493061539E+04  0.25500000920E-02 0.  1.
    10030    2    1    2    0    0  0.00000000000E+00  0.00000000000E+00 -0.13601291281E+04  0.37384831797E+04  0.34822844858E+04 0.  0.
        2    1    3    3  502    0 -0.66315826620E+03 -0.18626051942E+03 -0.23968080825E+04  0.24938245431E+04  0.25500000920E-02 0.  1.
       -2    1    3    3    0  502  0.66315826620E+03  0.18626051942E+03  0.10366789545E+04  0.12446586366E+04  0.25500000920E-02 0. -1.
</event>
<event>
 5   0  0.2767014E-06  0.3404397E+04  0.7818609E-02  0.8136828E-01
       -2   -1    0    0    0  501  0.00000000000E+00  0.00000000000E+00  0.18443993762E+04  0.18443993762E+04  0.25500000920E-02 0. -1.
        2   -1    0    0  501    0  0.00000000000E+00  0.00000000000E+00 -0.15709613678E+04  0.15709613678E+04  0.25500000920E-02 0.  1.
    10030    2    1    2    0    0  0.00000000000E+00  0.00000000000E+00  0.27343800840E+03  0.34153607440E+04  0.34043972546E+04 0.  0.
        1    1    3    3  502    0 -0.81025729732E+03  0.46921613072E+02 -0.13643486937E+04  0.15875030342E+04  0.50400001928E-02 0.  1.
       -1    1    3    3    0  502  0.81025729732E+03 -0.46921613072E+02  0.16377867021E+04  0.18278577098E+04  0.50400001928E-02 0. -1.
</event>
<event>
 5   0  0.2848685E-06  0.3408222E+04  0.7818609E-02  0.8135891E-01
       -2   -1    0    0    0  501  0.00000000000E+00  0.00000000000E+00  0.10172564591E+04  0.10172564591E+04  0.25500000920E-02 0.  1.
        2   -1    0    0  501    0  0.00000000000E+00  0.00000000000E+00 -0.28547324902E+04  0.28547324902E+04  0.25500000920E-02 0. -1.
    10030    2    1    2    0    0  0.00000000000E+00  0.00000000000E+00 -0.18374760310E+04  0.38719889493E+04  0.34082224486E+04 0.  0.
        3    1    3    3  502    0 -0.41382124423E+03 -0.10380168979E+04  0.54290168236E+03  0.12423644189E+04  0.10100000352E+00 0.  1.
       -3    1    3    3    0  502  0.41382124423E+03  0.10380168979E+04 -0.23803777134E+04  0.26296245304E+04  0.10100000352E+00 0. -1.
</event>
<event>
 5   0  0.1010551E-06  0.3395626E+04  0.7818609E-02  0.8138981E-01
       -1   -1    0    0    0  501  0.00000000000E+00  0.00000000000E+00  0.21938681015E+04  0.21938681015E+04  0.50400001928E-02 0.  1.
        1   -1    0    0  501    0  0.00000000000E+00  0.00000000000E+00 -0.13139207991E+04  0.13139207992E+04  0.50400001928E-02 0. -1.
    10030    2    1    2    0    0  0.00000000000E+00  0.00000000000E+00  0.87994730236E+03  0.35077889007E+04  0.33956259683E+04 0.  0.
        2    1    3    3  502    0  0.10919530256E+04 -0.14327472538E+03 -0.89486941301E+03  0.14190420443E+04  0.25500000920E-02 0. -1.
       -2    1    3    3    0  502 -0.10919530256E+04  0.14327472538E+03  0.17748167154E+04  0.20887468564E+04  0.25500000920E-02 0.  1.
</event>
<event>
 5   0  0.2856440E-06  0.3420467E+04  0.7818609E-02  0.8132901E-01
        2   -1    0    0  501    0  0.00000000000E+00  0.00000000000E+00  0.18987165985E+04  0.18987165985E+04  0.25500000920E-02 0. -1.
       -2   -1    0    0    0  501  0.00000000000E+00  0.00000000000E+00 -0.15404611987E+04  0.15404611987E+04  0.25500000920E-02 0.  1.
    10030    2    1    2    0    0  0.00000000000E+00  0.00000000000E+00  0.35825539977E+03  0.34391777972E+04  0.34204673641E+04 0.  0.
        4    1    3    3  502    0 -0.96142681453E+03 -0.29523623833E+03 -0.12116929103E+04  0.15747086327E+04  0.12699999809E+01 0.  1.
       -4    1    3    3    0  502  0.96142681453E+03  0.29523623833E+03  0.15699483101E+04  0.18644691645E+04  0.12699999809E+01 0. -1.
</event>
<event>
 5   0  0.2767014E-06  0.3203378E+04  0.7818609E-02  0.8187926E-01
        2   -1    0    0  501    0  0.00000000000E+00  0.00000000000E+00  0.12109063975E+04  0.12109063975E+04  0.25500000920E-02 0.  1.
       -2   -1    0    0    0  501  0.00000000000E+00  0.00000000000E+00 -0.21185843848E+04  0.21185843848E+04  0.25500000920E-02 0. -1.
    10030    2    1    2    0    0  0.00000000000E+00  0.00000000000E+00 -0.90767798730E+03  0.33294907822E+04  0.32033778329E+04 0.  0.
        1    1    3    3  502    0 -0.99491735110E+03 -0.12548461517E+04 -0.48515807370E+03  0.16732835254E+04  0.50400001928E-02 0.  1.
       -1    1    3    3    0  502  0.99491735110E+03  0.12548461517E+04 -0.42251991360E+03  0.16562072568E+04  0.50400001928E-02 0. -1.
</event>
<event>
 5   0  0.1010855E-06  0.3416322E+04  0.7818609E-02  0.8133912E-01
       -1   -1    0    0    0  501  0.00000000000E+00  0.00000000000E+00  0.24572344675E+04  0.24572344675E+04  0.50400001928E-02 0. -1.
        1   -1    0    0  501    0  0.00000000000E+00  0.00000000000E+00 -0.11874381708E+04  0.11874381708E+04  0.50400001928E-02 0.  1.
    10030    2    1    2    0    0  0.00000000000E+00  0.00000000000E+00  0.12697962967E+04  0.36446726383E+04  0.34163219996E+04 0.  0.
        1    1    3    3  502    0  0.11991665853E+04  0.11631043787E+04  0.10150914900E+04  0.19547948813E+04  0.50400001928E-02 0. -1.
       -1    1    3    3    0  502 -0.11991665853E+04 -0.11631043787E+04  0.25470480676E+03  0.16898777570E+04  0.50400001928E-02 0.  1.
</event>
<event>
 5   0  0.1003191E-06  0.2227982E+04  0.7818609E-02  0.8506871E-01
       -1   -1    0    0    0  501  0.00000000000E+00  0.00000000000E+00  0.86564437636E+03  0.86564437638E+03  0.50400001928E-02 0.  1.
        1   -1    0    0  501    0  0.00000000000E+00  0.00000000000E+00 -0.14335860432E+04  0.14335860432E+04  0.50400001928E-02 0. -1.
    10030    2    1    2    0    0  0.00000000000E+00  0.00000000000E+00 -0.56794166685E+03  0.22992304196E+04  0.22279817740E+04 0.  0.
        5    1    3    3  502    0 -0.16525229883E+03  0.10443024644E+04  0.78072416775E+02  0.10601855271E+04  0.46999998093E+01 0. -1.
       -5    1    3    3    0  502  0.16525229883E+03 -0.10443024644E+04 -0.64601408363E+03  0.12390448926E+04  0.46999998093E+01 0.  1.
</event>
<event>
 5   0  0.2906701E-06  0.3461871E+04  0.7818609E-02  0.8122886E-01
        2   -1    0    0  501    0  0.00000000000E+00  0.00000000000E+00  0.18459792737E+04  0.18459792737E+04  0.25500000920E-02 0. -1.
       -2   -1    0    0    0  501  0.00000000000E+00  0.00000000000E+00 -0.16230617802E+04  0.16230617802E+04  0.25500000920E-02 0.  1.
    10030    2    1    2    0    0  0.00000000000E+00  0.00000000000E+00  0.22291749350E+03  0.34690410539E+04  0.34618714050E+04 0.  0.
        5    1    3    3  502    0 -0.15484317273E+03 -0.55254999258E+01  0.18390098448E+04  0.18455314244E+04  0.46999998093E+01 0. -1.
       -5    1    3    3    0  502  0.15484317273E+03  0.55254999258E+01 -0.16160923513E+04  0.16235096295E+04  0.46999998093E+01 0.  1.
</event>
<event>
 5   0  0.2906701E-06  0.2084068E+04  0.7818609E-02  0.8568294E-01
       -2   -1    0    0    0  501  0.00000000000E+00  0.00000000000E+00  0.15867051379E+04  0.15867051379E+04  0.25500000920E-02 0. -1.
        2   -1    0    0  501    0  0.00000000000E+00  0.00000000000E+00 -0.68433331910E+03  0.68433331911E+03  0.25500000920E-02 0.  1.
    10030    2    1    2    0    0  0.00000000000E+00  0.00000000000E+00  0.90237181878E+03  0.22710384570E+04  0.20840683227E+04 0.  0.
        5    1    3    3  502    0 -0.60847881983E+03 -0.84424427234E+03  0.39333617604E+03  0.11125332817E+04  0.46999998093E+01 0.  1.
       -5    1    3    3    0  502  0.60847881983E+03  0.84424427234E+03  0.50903564274E+03  0.11585051753E+04  0.46999998093E+01 0. -1.
</event>
<event>
 5   0  0.2906701E-06  0.3468205E+04  0.7818609E-02  0.8121366E-01
        2   -1    0    0  501    0  0.00000000000E+00  0.00000000000E+00  0.23276659962E+04  0.23276659962E+04  0.25500000920E-02 0. -1.
       -2   -1    0    0    0  501  0.00000000000E+00  0.00000000000E+00 -0.12919001748E+04  0.12919001748E+04  0.25500000920E-02 0.  1.
    10030    2    1    2    0    0  0.00000000000E+00  0.00000000000E+00  0.10357658214E+04  0.36195661710E+04  0.34682053615E+04 0.  0.
        5    1    3    3  502    0 -0.23187184484E+03  0.12093830973E+04  0.17921177099E+04  0.21744148648E+04  0.46999998093E+01 0. -1.
       -5    1    3    3    0  502  0.23187184484E+03 -0.12093830973E+04 -0.75635188849E+03  0.14451513061E+04  0.46999998093E+01 0.  1.
</event>
<event>
 5   0  0.2856440E-06  0.3401732E+04  0.7818609E-02  0.8137481E-01
       -2   -1    0    0    0  501  0.00000000000E+00  0.00000000000E+00  0.14108779475E+04  0.14108779475E+04  0.25500000920E-02 0. -1.
        2   -1    0    0  501    0  0.00000000000E+00  0.00000000000E+00 -0.20504572628E+04  0.20504572628E+04  0.25500000920E-02 0.  1.
    10030    2    1    2    0    0  0.00000000000E+00  0.00000000000E+00 -0.63957931538E+03  0.34613352103E+04  0.34017318732E+04 0.  0.
        4    1    3    3  502    0  0.11455962341E+03  0.15587429996E+04 -0.10024697329E+04  0.18568120057E+04  0.12699999809E+01 0.  1.
       -4    1    3    3    0  502 -0.11455962341E+03 -0.15587429996E+04  0.36289041750E+03  0.16045232046E+04  0.12699999809E+01 0. -1.
</event>
<event>
 5   0  0.2856440E-06  0.3059679E+04  0.7818609E-02  0.8226892E-01
        2   -1    0    0  501    0  0.00000000000E+00  0.00000000000E+00  0.14765698443E+04  0.14765698443E+04  0.25500000920E-02 0.  1.
       -2   -1    0    0    0  501  0.00000000000E+00  0.00000000000E+00 -0.15850305565E+04  0.15850305566E+04  0.25500000920E-02 0. -1.
    10030    2    1    2    0    0  0.00000000000E+00  0.00000000000E+00 -0.10846071224E+03  0.30616004009E+04  0.30596786250E+04 0.  0.
        4    1    3    3  502    0  0.49828023805E+03 -0.14334423973E+04 -0.24765569409E+03  0.15376525153E+04  0.12699999809E+01 0. -1.
       -4    1    3    3    0  502 -0.49828023805E+03  0.14334423973E+04  0.13919498185E+03  0.15239478856E+04  0.12699999809E+01 0.  1.
</event>
<event>
 5   0  0.1003191E-06  0.3109873E+04  0.7818609E-02  0.8213033E-01
        1   -1    0    0  501    0  0.00000000000E+00  0.00000000000E+00  0.21299154286E+04  0.21299154286E+04  0.50400001928E-02 0.  1.
       -1   -1    0    0    0  501  0.00000000000E+00  0.00000000000E+00 -0.11351757254E+04  0.11351757254E+04  0.50400001928E-02 0. -1.
    10030    2    1    2    0    0  0.00000000000E+00  0.00000000000E+00  0.99473970328E+03  0.32650911540E+04  0.31098734969E+04 0.  0.
        5    1    3    3  502    0  0.12791542566E+04  0.87426123765E+03  0.63521595311E+03  0.16745416450E+04  0.46999998093E+01 0. -1.
       -5    1    3    3    0  502 -0.12791542566E+04 -0.87426123765E+03  0.35952375018E+03  0.15905495090E+04  0.46999998093E+01 0.  1.
</event>
<event>
 5   0  0.2848685E-06  0.3342007E+04  0.7818609E-02  0.8152288E-01
        2   -1    0    0  501    0  0.00000000000E+00  0.00000000000E+00  0.24315246251E+04  0.24315246251E+04  0.25500000920E-02 0.  1.
       -2   -1    0    0    0  501  0.00000000000E+00  0.00000000000E+00 -0.11483543935E+04  0.11483543935E+04  0.25500000920E-02 0. -1.
    10030    2    1    2    0    0  0.00000000000E+00  0.00000000000E+00  0.12831702315E+04  0.35798790186E+04  0.33420065746E+04 0.  0.
        3    1    3    3  502    0 -0.10240176318E+04  0.13147642319E+04  0.77292935659E+03  0.18370184801E+04  0.10100000352E+00 0. -1.
       -3    1    3    3    0  502  0.10240176318E+04 -0.13147642319E+04  0.51024087495E+03  0.17428605385E+04  0.10100000352E+00 0.  1.
</event>
<event>
 5   0  0.2664083E-06  0.3588552E+04  0.7818609E-02  0.8093119E-01
       -2   -1    0    0    0  501  0.00000000000E+00  0.00000000000E+00  0.11241558064E+04  0.11241558064E+04  0.25500000920E-02 0.  1.
        2   -1    0    0  501    0  0.00000000000E+00  0.00000000000E+00 -0.28638608704E+04  0.28638608704E+04  0.25500000920E-02 0. -1.
    10030    2    1    2    0    0  0.00000000000E+00  0.00000000000E+00 -0.17397050640E+04  0.39880166768E+04  0.35885517002E+04 0.  0.
        2    1    3    3  502    0  0.57069791306E+03  0.58244441165E+03  0.90633865502E+03  0.12191748678E+04  0.25500000920E-02 0.  1.
       -2    1    3    3    0  502 -0.57069791306E+03 -0.58244441165E+03 -0.26460437190E+04  0.27688418090E+04  0.25500000920E-02 0. -1.
</event>
<event>
 5   0  0.9232963E-07  0.3415790E+04  0.7818609E-02  0.8134042E-01
       -1   -1    0    0    0  501  0.00000000000E+00  0.00000000000E+00  0.13264191389E+04  0.13264191389E+04  0.50400001928E-02 0. -1.
        1   -1    0    0  501    0  0.00000000000E+00  0.00000000000E+00 -0.21990830043E+04  0.21990830043E+04  0.50400001928E-02 0.  1.
    10030    2    1    2    0    0  0.00000000000E+00  0.00000000000E+00 -0.87266386546E+03  0.35255021432E+04  0.34157902658E+04 0.  0.
        3    1    3    3  502    0 -0.31971770647E+03 -0.15371699948E+04  0.25741389790E+03  0.15910288903E+04  0.10100000352E+00 0. -1.
       -3    1    3    3    0  502  0.31971770647E+03  0.15371699948E+04 -0.11300777634E+04  0.19344732529E+04  0.10100000352E+00 0.  1.
</event>
<event>
 5   0  0.2906701E-06  0.3376023E+04  0.7818609E-02  0.8143816E-01
        2   -1    0    0  501    0  0.00000000000E+00  0.00000000000E+00  0.18573142603E+04  0.18573142603E+04  0.25500000920E-02 0.  1.
       -2   -1    0    0    0  501  0.00000000000E+00  0.00000000000E+00 -0.15341417530E+04  0.15341417530E+04  0.25500000920E-02 0. -1.
    10030    2    1    2    0    0  0.00000000000E+00  0.00000000000E+00  0.32317250728E+03  0.33914560133E+04  0.33760233146E+04 0.  0.
        5    1    3    3  502    0 -0.82040256351E+03  0.14704868763E+04  0.28031810139E+03  0.17070419876E+04  0.46999998093E+01 0.  1.
       -5    1    3    3    0  502  0.82040256351E+03 -0.14704868763E+04  0.42854405898E+02  0.16844140256E+04  0.46999998093E+01 0. -1.
</event>
<event>
 5   0  0.2664083E-06  0.3334170E+04  0.7818609E-02  0.8154255E-01
       -2   -1    0    0    0  501  0.00000000000E+00  0.00000000000E+00  0.11789876832E+04  0.11789876832E+04  0.25500000920E-02 0.  1.
        2   -1    0    0  501    0  0.00000000000E+00  0.00000000000E+00 -0.23572531058E+04  0.23572531058E+04  0.25500000920E-02 0. -1.
    10030    2    1    2    0    0  0.00000000000E+00  0.00000000000E+00 -0.11782654226E+04  0.35362407890E+04  0.33341699885E+04 0.  0.
        2    1    3    3  502    0 -0.54473370772E+03  0.14369765290E+04  0.96199374739E+02  0.15397696831E+04  0.25500000920E-02 0.  1.
       -2    1    3    3    0  502  0.54473370772E+03 -0.14369765290E+04 -0.12744647973E+04  0.19964711059E+04  0.25500000920E-02 0. -1.
</event>
<event>
 5   0  0.1010855E-06  0.3390384E+04  0.7818609E-02  0.8140271E-01
        1   -1    0    0  501    0  0.00000000000E+00  0.00000000000E+00  0.25442185301E+04  0.25442185301E+04  0.50400001928E-02 0.  1.
       -1   -1    0    0    0  501  0.00000000000E+00  0.00000000000E+00 -0.11294922564E+04  0.11294922564E+04  0.50400001928E-02 0. -1.
    10030    2    1    2    0    0  0.00000000000E+00  0.00000000000E+00  0.14147262737E+04  0.36737107865E+04  0.33903835348E+04 0.  0.
        1    1    3    3  502    0  0.32891195227E+03 -0.15774642271E+04  0.13697123306E+03  0.16172005376E+04  0.50400001928E-02 0. -1.
       -1    1    3    3    0  502 -0.32891195227E+03  0.15774642271E+04  0.12777550407E+04  0.20565102489E+04  0.50400001928E-02 0.  1.
</event>
<event>
 5   0  0.2906701E-06  0.3314384E+04  0.7818609E-02  0.8159245E-01
        2   -1    0    0  501    0  0.00000000000E+00  0.00000000000E+00  0.21544718561E+04  0.21544718561E+04  0.25500000920E-02 0.  1.
       -2   -1    0    0    0  501  0.00000000000E+00  0.00000000000E+00 -0.12746907814E+04  0.12746907814E+04  0.25500000920E-02 0. -1.
    10030    2    1    2    0    0  0.00000000000E+00  0.00000000000E+00  0.87978107474E+03  0.34291626375E+04  0.33143840536E+04 0.  0.
        5    1    3    3  502    0 -0.16465222449E+04 -0.18246080284E+03  0.48541281968E+03  0.17262604506E+04  0.46999998093E+01 0.  1.
       -5    1    3    3    0  502  0.16465222449E+04  0.18246080284E+03  0.39436825506E+03  0.17029021869E+04  0.46999998093E+01 0. -1.
</event>
<event>
 5   0  0.9070500E-07  0.3399214E+04  0.7818609E-02  0.8138099E-01
        4   -1    0    0  501    0  0.00000000000E+00  0.00000000000E+00  0.26209656129E+04  0.26209659206E+04  0.12699999809E+01 0.  1.
       -4   -1    0    0    0  501  0.00000000000E+00  0.00000000000E+00 -0.11021366040E+04  0.11021373358E+04  0.12699999809E+01 0. -1.
    10030    2    1    2    0    0  0.00000000000E+00  0.00000000000E+00  0.15188290088E+04  0.37231032563E+04  0.33992140708E+04 0.  0.
        2    1    3    3  502    0 -0.47202468749E+03  0.16254525845E+04  0.92824692918E+03  0.19304263186E+04  0.25500000920E-02 0. -1.
       -2    1    3    3    0  502  0.47202468749E+03 -0.16254525845E+04  0.59058207964E+03  0.17926769377E+04  0.25500000920E-02 0.  1.
</event>
<event>
 5   0  0.2848685E-06  0.3315487E+04  0.7818609E-02  0.8158966E-01
        2   -1    0    0  501    0  0.00000000000E+00  0.00000000000E+00  0.26501507597E+04  0.26501507597E+04  0.25500000920E-02 0. -1.
       -2   -1    0    0    0  501  0.00000000000E+00  0.00000000000E+00 -0.10369647236E+04  0.10369647236E+04  0.25500000920E-02 0.  1.
    10030    2    1    2    0    0  0.00000000000E+00  0.00000000000E+00  0.16131860361E+04  0.36871154833E+04  0.33154866008E+04 0.  0.
        3    1    3    3  502    0  0.10848057997E+04 -0.12450168262E+04  0.96867712429E+03  0.19144727477E+04  0.10100000352E+00 0. -1.
       -3    1    3    3    0  502 -0.10848057997E+04  0.12450168262E+04  0.64450891176E+03  0.17726427356E+04  0.10100000352E+00 0.  1.
</event>
<event>
 5   0  0.1010551E-06  0.2388863E+04  0.7818609E-02  0.8443685E-01
        1   -1    0    0  501    0  0.00000000000E+00  0.00000000000E+00  0.20445024651E+04  0.20445024651E+04  0.50400001928E-02 0. -1.
       -1   -1    0    0    0  501  0.00000000000E+00  0.00000000000E+00 -0.69780626351E+03  0.69780626353E+03  0.50400001928E-02 0.  1.
    10030    2    1    2    0    0  0.00000000000E+00  0.00000000000E+00  0.13466962016E+04  0.27423087286E+04  0.23888630148E+04 0.  0.
        2    1    3    3  502    0  0.89230690510E+03  0.56227153467E+03  0.13169261924E+04  0.16872034518E+04  0.25500000920E-02 0. -1.
       -2    1    3    3    0  502 -0.89230690510E+03 -0.56227153467E+03  0.29770009123E+02  0.10551052768E+04  0.25500000920E-02 0.  1.
</event>
<event>
 5   0  0.1003191E-06  0.3456845E+04  0.7818609E-02  0.8124094E-01
        1   -1    0    0  501    0  0.00000000000E+00  0.00000000000E+00  0.19079106078E+04  0.19079106078E+04  0.50400001928E-02 0.  1.
       -1   -1    0    0    0  501  0.00000000000E+00  0.00000000000E+00 -0.15658200774E+04  0.15658200774E+04  0.50400001928E-02 0. -1.
    10030    2    1    2    0    0  0.00000000000E+00  0.00000000000E+00  0.34209053038E+03  0.34737306852E+04  0.34568452297E+04 0.  0.
        5    1    3    3  502    0 -0.14316892296E+04  0.89744175378E+02  0.11399305142E+04  0.18322804737E+04  0.46999998093E+01 0.  1.
       -5    1    3    3    0  502  0.14316892296E+04 -0.89744175378E+02 -0.79783998379E+03  0.16414502115E+04  0.46999998093E+01 0. -1.
</event>
<event>
 5   0  0.2664083E-06  0.3363976E+04  0.7818609E-02  0.8146805E-01
       -2   -1    0    0    0  501  0.00000000000E+00  0.00000000000E+00  0.11175247367E+04  0.11175247367E+04  0.25500000920E-02 0.  1.
        2   -1    0    0  501    0  0.00000000000E+00  0.00000000000E+00 -0.25315624276E+04  0.25315624276E+04  0.25500000920E-02 0. -1.
    10030    2    1    2    0    0  0.00000000000E+00  0.00000000000E+00 -0.14140376909E+04  0.36490871642E+04  0.33639760018E+04 0.  0.
        2    1    3    3  502    0 -0.43288881239E+03  0.93607845100E+03  0.73429586445E+03  0.12660276485E+04  0.25500000920E-02 0.  1.
       -2    1    3    3    0  502  0.43288881239E+03 -0.93607845100E+03 -0.21483335553E+04  0.23830595157E+04  0.25500000920E-02 0. -1.
</event>
<event>
 5   0  0.2767014E-06  0.3326788E+04  0.7818609E-02  0.8156113E-01
       -2   -1    0    0    0  501  0.00000000000E+00  0.00000000000E+00  0.16297050800E+04  0.16297050800E+04  0.25500000920E-02 0.  1.
        2   -1    0    0  501    0  0.00000000000E+00  0.00000000000E+00 -0.16977789224E+04  0.16977789224E+04  0.25500000920E-02 0. -1.
    10030    2    1    2    0    0  0.00000000000E+00  0.00000000000E+00 -0.68073842347E+02  0.33274840024E+04  0.33267876004E+04 0.  0.
        1    1    3    3  502    0  0.31130179200E+03 -0.63807806033E+03  0.14705474000E+04  0.16329611362E+04  0.50400001928E-02 0.  1.
       -1    1    3    3    0  502 -0.31130179200E+03  0.63807806033E+03 -0.15386212423E+04  0.16945228662E+04  0.50400001928E-02 0. -1.
</event>
<event>
 5   0  0.9714317E-07  0.2812618E+04  0.7818609E-02  0.8299362E-01
        1   -1    0    0  501    0  0.00000000000E+00  0.00000000000E+00  0.18225239190E+04  0.18225239190E+04  0.50400001928E-02 0.  1.
       -1   -1    0    0    0  501  0.00000000000E+00  0.00000000000E+00 -0.10851461676E+04  0.10851461676E+04  0.50400001928E-02 0. -1.
    10030    2    1    2    0    0  0.00000000000E+00  0.00000000000E+00  0.73737775138E+03  0.29076700866E+04  0.28126178880E+04 0.  0.
        4    1    3    3  502    0 -0.11260445147E+04 -0.36531228307E+03  0.11534705926E+04  0.16528536941E+04  0.12699999809E+01 0.  1.
       -4    1    3    3    0  502  0.11260445147E+04  0.36531228307E+03 -0.41609284118E+03  0.12548163924E+04  0.12699999809E+01 0. -1.
</event>
<event>
 5   0  0.9232963E-07  0.3293088E+04  0.7818609E-02  0.8164656E-01
       -1   -1    0    0    0  501  0.00000000000E+00  0.00000000000E+00  0.15523838300E+04  0.15523838300E+04  0.50400001928E-02 0. -1.
        1   -1    0    0  501    0  0.00000000000E+00  0.00000000000E+00 -0.17464158390E+04  0.17464158390E+04  0.50400001928E-02 0.  1.
    10030    2    1    2    0    0  0.00000000000E+00  0.00000000000E+00 -0.19403200894E+03  0.32987996690E+04  0.32930883431E+04 0.  0.
        3    1    3    3  502    0  0.11828478350E+04 -0.91969719198E+03 -0.78094147445E+03  0.16896276283E+04  0.10100000352E+00 0.  1.
       -3    1    3    3    0  502 -0.11828478350E+04  0.91969719198E+03  0.58690946552E+03  0.16091720407E+04  0.10100000352E+00 0. -1.
</event>
<event>
 5   0  0.2664083E-06  0.3277248E+04  0.7818609E-02  0.8168709E-01
       -2   -1    0    0    0  501  0.00000000000E+00  0.00000000000E+00  0.19691930707E+04  0.19691930707E+04  0.25500000920E-02 0. -1.
        2   -1    0    0  501    0  0.00000000000E+00  0.00000000000E+00 -0.13635479838E+04  0.13635479838E+04  0.25500000920E-02 0.  1.
    10030    2    1    2    0    0  0.00000000000E+00  0.00000000000E+00  0.60564508696E+03  0.33327410545E+04  0.32772483831E+04 0.  0.
        2    1    3    3  502    0 -0.77493203378E+03 -0.81260770325E+03 -0.91079974696E+03  0.14458240264E+04  0.25500000920E-02 0.  1.
       -2    1    3    3    0  502  0.77493203378E+03  0.81260770325E+03  0.15164448339E+04  0.18869170280E+04  0.25500000920E-02 0. -1.
</event>
<event>
 5   0  0.9232963E-07  0.3407051E+04  0.7818609E-02  0.8136178E-01
        1   -1    0    0  501    0  0.00000000000E+00  0.00000000000E+00  0.20521276952E+04  0.20521276952E+04  0.50400001928E-02 0. -1.
       -1   -1    0    0    0  501  0.00000000000E+00  0.00000000000E+00 -0.14141414426E+04  0.14141414426E+04  0.50400001928E-02 0.  1.
    10030    2    1    2    0    0  0.00000000000E+00  0.00000000000E+00  0.63798625259E+03  0.34662691378E+04  0.34070508181E+04 0.  0.
        3    1    3    3  502    0  0.68912285881E+03  0.11710938266E+04 -0.72631224239E+03  0.15407402601E+04  0.10100000352E+00 0.  1.
       -3    1    3    3    0  502 -0.68912285881E+03 -0.11710938266E+04  0.13642984950E+04  0.19255288777E+04  0.10100000352E+00 0. -1.
</event>
<event>
 5   0  0.1010855E-06  0.3243354E+04  0.7818609E-02  0.8177460E-01
       -1   -1    0    0    0  501  0.00000000000E+00  0.00000000000E+00  0.11161984646E+04  0.11161984646E+04  0.50400001928E-02 0. -1.
        1   -1    0    0  501    0  0.00000000000E+00  0.00000000000E+00 -0.23560653013E+04  0.23560653013E+04  0.50400001928E-02 0.  1.
    10030    2    1    2    0    0  0.00000000000E+00  0.00000000000E+00 -0.12398668367E+04  0.34722637659E+04  0.32433541106E+04 0.  0.
        1    1    3    3  502    0 -0.23362584353E+03 -0.85517249861E+03  0.83382149562E+03  0.12170288919E+04  0.50400001928E-02 0. -1.
       -1    1    3    3    0  502  0.23362584353E+03  0.85517249861E+03 -0.20736883323E+04  0.22552348740E+04  0.50400001928E-02 0.  1.
</event>
<event>
 5   0  0.1010551E-06  0.3441723E+04  0.7818609E-02  0.8127741E-01
       -1   -1    0    0    0  501  0.00000000000E+00  0.00000000000E+00  0.15091455475E+04  0.15091455475E+04  0.50400001928E-02 0.  1.
        1   -1    0    0  501    0  0.00000000000E+00  0.00000000000E+00 -0.19622791789E+04  0.19622791789E+04  0.50400001928E-02 0. -1.
    10030    2    1    2    0    0  0.00000000000E+00  0.00000000000E+00 -0.45313363139E+03  0.34714247265E+04  0.34417233392E+04 0.  0.
        2    1    3    3  502    0  0.11253663589E+04 -0.16985857281E+03 -0.15284666504E+04  0.19056525596E+04  0.25500000920E-02 0. -1.
       -2    1    3    3    0  502 -0.11253663589E+04  0.16985857281E+03  0.10753330190E+04  0.15657721668E+04  0.25500000920E-02 0.  1.
</event>
<event>
 5   0  0.2856440E-06  0.3408050E+04  0.7818609E-02  0.8135933E-01
       -2   -1    0    0    0  501  0.00000000000E+00  0.00000000000E+00  0.13743075195E+04  0.13743075195E+04  0.25500000920E-02 0.  1.
        2   -1    0    0  501    0  0.00000000000E+00  0.00000000000E+00 -0.21128473115E+04  0.21128473115E+04  0.25500000920E-02 0. -1.
    10030    2    1    2    0    0  0.00000000000E+00  0.00000000000E+00 -0.73853979207E+03  0.34871548310E+04  0.34080504384E+04 0.  0.
        4    1    3    3  502    0  0.73149625707E+03 -0.13057980615E+04  0.46419499737E+03  0.15670590161E+04  0.12699999809E+01 0. -1.
       -4    1    3    3    0  502 -0.73149625707E+03  0.13057980615E+04 -0.12027347894E+04  0.19200958148E+04  0.12699999809E+01 0.  1.
</event>
<event>
 5   0  0.9070500E-07  0.3426738E+04  0.7818609E-02  0.8131375E-01
       -4   -1    0    0    0  501  0.00000000000E+00  0.00000000000E+00  0.19766581481E+04  0.19766585561E+04  0.12699999809E+01 0.  1.
        4   -1    0    0  501    0  0.00000000000E+00  0.00000000000E+00 -0.14851490176E+04  0.14851495606E+04  0.12699999809E+01 0. -1.
    10030    2    1    2    0    0  0.00000000000E+00  0.00000000000E+00  0.49150913049E+03  0.34618081167E+04  0.34267381300E+04 0.  0.
        5    1    3    3  502    0 -0.70733554352E+03  0.14493999925E+04 -0.33854830824E+03  0.16479444640E+04  0.46999998093E+01 0. -1.
       -5    1    3    3    0  502  0.70733554352E+03 -0.14493999925E+04  0.83005743873E+03  0.18138636528E+04  0.46999998093E+01 0.  1.
</event>
<event>
 5   0  0.2856440E-06  0.2245831E+04  0.7818609E-02  0.8499591E-01
        2   -1    0    0  501    0  0.00000000000E+00  0.00000000000E+00  0.92022003079E+03  0.92022003079E+03  0.25500000920E-02 0.  1.
       -2   -1    0    0    0  501  0.00000000000E+00  0.00000000000E+00 -0.13702581746E+04  0.13702581746E+04  0.25500000920E-02 0. -1.
    10030    2    1    2    0    0  0.00000000000E+00  0.00000000000E+00 -0.45003814379E+03  0.22904782054E+04  0.22458308214E+04 0.  0.
        4    1    3    3  502    0 -0.89796633541E+03 -0.66562236523E+03 -0.11545558564E+03  0.11237118304E+04  0.12699999809E+01 0. -1.
       -4    1    3    3    0  502  0.89796633541E+03  0.66562236523E+03 -0.33458255815E+03  0.11667663750E+04  0.12699999809E+01 0.  1.
</event>
<event>
 5   0  0.2767014E-06  0.2150144E+04  0.7818609E-02  0.8539471E-01
       -2   -1    0    0    0  501  0.00000000000E+00  0.00000000000E+00  0.14887648275E+04  0.14887648275E+04  0.25500000920E-02 0. -1.
        2   -1    0    0  501    0  0.00000000000E+00  0.00000000000E+00 -0.77633469561E+03  0.77633469562E+03  0.25500000920E-02 0.  1.
    10030    2    1    2    0    0  0.00000000000E+00  0.00000000000E+00  0.71243013192E+03  0.22650995232E+04  0.21501439852E+04 0.  0.
        1    1    3    3  502    0  0.53283728251E+02 -0.26002537615E+03  0.14537039652E+04  0.14777373144E+04  0.50400001928E-02 0. -1.
       -1    1    3    3    0  502 -0.53283728251E+02  0.26002537615E+03 -0.74127383324E+03  0.78736220878E+03  0.50400001928E-02 0.  1.
</event>
<event>
 5   0  0.2906701E-06  0.3438055E+04  0.7818609E-02  0.8128629E-01
       -2   -1    0    0    0  501  0.00000000000E+00  0.00000000000E+00  0.26490252926E+04  0.26490252926E+04  0.25500000920E-02 0.  1.
        2   -1    0    0  501    0  0.00000000000E+00  0.00000000000E+00 -0.11155256057E+04  0.11155256057E+04  0.25500000920E-02 0. -1.
    10030    2    1    2    0    0  0.00000000000E+00  0.00000000000E+00  0.15334996869E+04  0.37645508982E+04  0.34380549989E+04 0.  0.
        5    1    3    3  502    0 -0.12062830181E+04  0.21601202035E+03 -0.55324139467E+03  0.13445735545E+04  0.46999998093E+01 0. -1.
       -5    1    3    3    0  502  0.12062830181E+04 -0.21601202035E+03  0.20867410816E+04  0.24199773437E+04  0.46999998093E+01 0.  1.
</event>
<event>
 5   0  0.2848685E-06  0.3417761E+04  0.7818609E-02  0.8133561E-01
        2   -1    0    0  501    0  0.00000000000E+00  0.00000000000E+00  0.23202438791E+04  0.23202438791E+04  0.25500000920E-02 0.  1.
       -2   -1    0    0    0  501  0.00000000000E+00  0.00000000000E+00 -0.12586062139E+04  0.12586062139E+04  0.25500000920E-02 0. -1.
    10030    2    1    2    0    0  0.00000000000E+00  0.00000000000E+00  0.10616376652E+04  0.35788500929E+04  0.34177614685E+04 0.  0.
        3    1    3    3  502    0  0.83040809615E+03  0.69855862255E+03 -0.85152003391E+03  0.13793651198E+04  0.10100000352E+00 0. -1.
       -3    1    3    3    0  502 -0.83040809615E+03 -0.69855862255E+03  0.19131576991E+04  0.21994849732E+04  0.10100000352E+00 0.  1.
</event>
<event>
 5   0  0.2856440E-06  0.3375026E+04  0.7818609E-02  0.8144063E-01
       -2   -1    0    0    0  501  0.00000000000E+00  0.00000000000E+00  0.17171709770E+04  0.17171709770E+04  0.25500000920E-02 0. -1.
        2   -1    0    0  501    0  0.00000000000E+00  0.00000000000E+00 -0.16583672959E+04  0.16583672959E+04  0.25500000920E-02 0.  1.
    10030    2    1    2    0    0  0.00000000000E+00  0.00000000000E+00  0.58803681049E+02  0.33755382729E+04  0.33750260382E+04 0.  0.
        4    1    3    3  502    0 -0.11927601752E+03  0.12744520152E+04  0.11292249882E+04  0.17069286436E+04  0.12699999809E+01 0. -1.
       -4    1    3    3    0  502  0.11927601752E+03 -0.12744520152E+04 -0.10704213071E+04  0.16686096293E+04  0.12699999809E+01 0.  1.
</event>
<event>
 5   0  0.9232963E-07  0.3432085E+04  0.7818609E-02  0.8130076E-01
        1   -1    0    0  501    0  0.00000000000E+00  0.00000000000E+00  0.26021892629E+04  0.26021892629E+04  0.50400001928E-02 0.  1.
       -1   -1    0    0    0  501  0.00000000000E+00  0.00000000000E+00 -0.11316634772E+04  0.11316634772E+04  0.50400001928E-02 0. -1.
    10030    2    1    2    0    0  0.00000000000E+00  0.00000000000E+00  0.14705257857E+04  0.37338527401E+04  0.34320854008E+04 0.  0.
        3    1    3    3  502    0  0.79413442820E+02  0.16359759035E+04  0.17831429095E+03  0.16475799369E+04  0.10100000352E+00 0. -1.
       -3    1    3    3    0  502 -0.79413442820E+02 -0.16359759035E+04  0.12922114948E+04  0.20862728032E+04  0.10100000352E+00 0.  1.
</event>
<event>
 5   0  0.1010551E-06  0.2306288E+04  0.7818609E-02  0.8475446E-01
       -1   -1    0    0    0  501  0.00000000000E+00  0.00000000000E+00  0.81348814673E+03  0.81348814675E+03  0.50400001928E-02 0.  1.
        1   -1    0    0  501    0  0.00000000000E+00  0.00000000000E+00 -0.16346171053E+04  0.16346171053E+04  0.50400001928E-02 0. -1.
    10030    2    1    2    0    0  0.00000000000E+00  0.00000000000E+00 -0.82112895852E+03  0.24481052520E+04  0.23062884812E+04 0.  0.
        2    1    3    3  502    0  0.11300792217E+04  0.17284121152E+03 -0.25032320080E+03  0.11703054458E+04  0.25500000920E-02 0. -1.
       -2    1    3    3    0  502 -0.11300792217E+04 -0.17284121152E+03 -0.57080575773E+03  0.12777998062E+04  0.25500000920E-02 0.  1.
</event>
<event>
 5   0  0.1003191E-06  0.3510398E+04  0.7818609E-02  0.8111330E-01
       -1   -1    0    0    0  501  0.00000000000E+00  0.00000000000E+00  0.13053039485E+04  0.13053039485E+04  0.50400001928E-02 0. -1.
        1   -1    0    0  501    0  0.00000000000E+00  0.00000000000E+00 -0.23601584673E+04  0.23601584673E+04  0.50400001928E-02 0.  1.
    10030    2    1    2    0    0  0.00000000000E+00  0.00000000000E+00 -0.10548545189E+04  0.36654624158E+04  0.35103983628E+04 0.  0.
        5    1    3    3  502    0 -0.95514896574E+03  0.14690340557E+04 -0.42129351524E+03  0.18021878148E+04  0.46999998093E+01 0.  1.
       -5    1    3    3    0  502  0.95514896574E+03 -0.14690340557E+04 -0.63356100362E+03  0.18632746011E+04  0.46999998093E+01 0. -1.
</event>
<event>
 5   0  0.2856440E-06  0.2388720E+04  0.7818609E-02  0.8443739E-01
        2   -1    0    0  501    0  0.00000000000E+00  0.00000000000E+00  0.21802929937E+04  0.21802929937E+04  0.25500000920E-02 0. -1.
       -2   -1    0    0    0  501  0.00000000000E+00  0.00000000000E+00 -0.65426794634E+03  0.65426794634E+03  0.25500000920E-02 0.  1.
    10030    2    1    2    0    0  0.00000000000E+00  0.00000000000E+00  0.15260250473E+04  0.28345609400E+04  0.23887200082E+04 0.  0.
        4    1    3    3  502    0  0.10292823361E+04 -0.59279152407E+03  0.61446718104E+03  0.13373090323E+04  0.12699999809E+01 0.  1.
       -4    1    3    3    0  502 -0.10292823361E+04  0.59279152407E+03  0.91155786627E+03  0.14972519077E+04  0.12699999809E+01 0. -1.
</event>
<event>
 5   0  0.1010855E-06  0.3164619E+04  0.7818609E-02  0.8198224E-01
       -1   -1    0    0    0  501  0.00000000000E+00  0.00000000000E+00  0.16642452325E+04  0.16642452326E+04  0.50400001928E-02 0.  1.
        1   -1    0    0  501    0  0.00000000000E+00  0.00000000000E+00 -0.15044080284E+04  0.15044080284E+04  0.50400001928E-02 0. -1.
    10030    2    1    2    0    0  0.00000000000E+00  0.00000000000E+00  0.15983720418E+03  0.31686532609E+04  0.31646193383E+04 0.  0.
        1    1    3    3  502    0  0.10877279400E+04 -0.64484344771E+03 -0.87246615256E+03  0.15362852375E+04  0.50400001928E-02 0. -1.
       -1    1    3    3    0  502 -0.10877279400E+04  0.64484344771E+03  0.10323033567E+04  0.16323680234E+04  0.50400001928E-02 0.  1.
</event>
<event>
 5   0  0.1003191E-06  0.2308084E+04  0.7818609E-02  0.8474741E-01
        1   -1    0    0  501    0  0.00000000000E+00  0.00000000000E+00  0.11767466014E+04  0.11767466014E+04  0.50400001928E-02 0.  1.
       -1   -1    0    0    0  501  0.00000000000E+00  0.00000000000E+00 -0.11317750374E+04  0.11317750374E+04  0.50400001928E-02 0. -1.
    10030    2    1    2    0    0  0.00000000000E+00  0.00000000000E+00  0.44971563979E+02  0.23085216388E+04  0.23080835590E+04 0.  0.
        5    1    3    3  502    0  0.95126096554E+03 -0.64053146700E+03  0.15139916686E+03  0.11567721394E+04  0.46999998093E+01 0.  1.
       -5    1    3    3    0  502 -0.95126096554E+03  0.64053146700E+03 -0.10642760288E+03  0.11517494994E+04  0.46999998093E+01 0. -1.
</event>
<event>
 5   0  0.1010855E-06  0.2859628E+04  0.7818609E-02  0.8284992E-01
       -1   -1    0    0    0  501  0.00000000000E+00  0.00000000000E+00  0.12319972419E+04  0.12319972419E+04  0.50400001928E-02 0. -1.
        1   -1    0    0  501    0  0.00000000000E+00  0.00000000000E+00 -0.16593936637E+04  0.16593936637E+04  0.50400001928E-02 0.  1.
    10030    2    1    2    0    0  0.00000000000E+00  0.00000000000E+00 -0.42739642181E+03  0.28913909056E+04  0.28596282394E+04 0.  0.
        1    1    3    3  502    0 -0.11588475732E+04 -0.30601984122E+03  0.57457166288E+03  0.13291758487E+04  0.50400001928E-02 0. -1.
       -1    1    3    3    0  502  0.11588475732E+04  0.30601984122E+03 -0.10019680847E+04  0.15622150568E+04  0.50400001928E-02 0.  1.
</event>
<event>
 5   0  0.1010551E-06  0.3248775E+04  0.7818609E-02  0.8176053E-01
        1   -1    0    0  501    0  0.00000000000E+00  0.00000000000E+00  0.21393949460E+04  0.21393949460E+04  0.50400001928E-02 0.  1.
       -1   -1    0    0    0  501  0.00000000000E+00  0.00000000000E+00 -0.12333557162E+04  0.12333557162E+04  0.50400001928E-02 0. -1.
    10030    2    1    2    0    0  0.00000000000E+00  0.00000000000E+00  0.90603922976E+03  0.33727506622E+04  0.32487751451E+04 0.  0.
        2    1    3    3  502    0  0.11043794021E+04 -0.11899327928E+04  0.39576930421E+03  0.16709958879E+04  0.25500000920E-02 0. -1.
       -2    1    3    3    0  502 -0.11043794021E+04  0.11899327928E+04  0.51026992555E+03  0.17017547744E+04  0.25500000920E-02 0.  1.
</event>
<event>
 5   0  0.2906701E-06  0.3438054E+04  0.7818609E-02  0.8128629E-01
        2   -1    0    0  501    0  0.00000000000E+00  0.00000000000E+00  0.26491281654E+04  0.26491281654E+04  0.25500000920E-02 0. -1.
       -2   -1    0    0    0  501  0.00000000000E+00  0.00000000000E+00 -0.11154815405E+04  0.11154815405E+04  0.25500000920E-02 0.  1.
    10030    2    1    2    0    0  0.00000000000E+00  0.00000000000E+00  0.15336466248E+04  0.37646097059E+04  0.34380538489E+04 0.  0.
        5    1    3    3  502    0  0.14275796605E+04  0.16850729654E+03  0.17990460193E+04  0.23028172019E+04  0.46999998093E+01 0. -1.
       -5    1    3    3    0  502 -0.14275796605E+04 -0.16850729654E+03 -0.26539939448E+03  0.14617925039E+04  0.46999998093E+01 0.  1.
</event>
<event>
 5   0  0.2856440E-06  0.3419719E+04  0.7818609E-02  0.8133084E-01
       -2   -1    0    0    0  501  0.00000000000E+00  0.00000000000E+00  0.15419351857E+04  0.15419351857E+04  0.25500000920E-02 0.  1.
        2   -1    0    0  501    0  0.00000000000E+00  0.00000000000E+00 -0.18960713793E+04  0.18960713793E+04  0.25500000920E-02 0. -1.
    10030    2    1    2    0    0  0.00000000000E+00  0.00000000000E+00 -0.35413619359E+03  0.34380065650E+04  0.34197188038E+04 0.  0.
        4    1    3    3  502    0  0.93493534282E+03  0.96074651611E+02  0.12589553280E+04  0.15710838821E+04  0.12699999809E+01 0.  1.
       -4    1    3    3    0  502 -0.93493534282E+03 -0.96074651611E+02 -0.16130915216E+04  0.18669226829E+04  0.12699999809E+01 0. -1.
</event>
<event>
 5   0  0.9232963E-07  0.2451867E+04  0.7818609E-02  0.8420337E-01
       -1   -1    0    0    0  501  0.00000000000E+00  0.00000000000E+00  0.12148827082E+04  0.12148827082E+04  0.50400001928E-02 0.  1.
        1   -1    0    0  501    0  0.00000000000E+00  0.00000000000E+00 -0.12370846983E+04  0.12370846983E+04  0.50400001928E-02 0. -1.
    10030    2    1    2    0    0  0.00000000000E+00  0.00000000000E+00 -0.22201990154E+02  0.24519674065E+04  0.24518668876E+04 0.  0.
        3    1    3    3  502    0 -0.32926998224E+03 -0.56958926087E+03  0.10233794984E+04  0.12166167249E+04  0.10100000352E+00 0.  1.
       -3    1    3    3    0  502  0.32926998224E+03  0.56958926087E+03 -0.10455814885E+04  0.12353506817E+04  0.10100000352E+00 0. -1.
</event>
<event>
 5   0  0.1010551E-06  0.2869731E+04  0.7818609E-02  0.8281941E-01
       -1   -1    0    0    0  501  0.00000000000E+00  0.00000000000E+00  0.10088839133E+04  0.10088839133E+04  0.50400001928E-02 0. -1.
        1   -1    0    0  501    0  0.00000000000E+00  0.00000000000E+00 -0.20407095019E+04  0.20407095019E+04  0.50400001928E-02 0.  1.
    10030    2    1    2    0    0  0.00000000000E+00  0.00000000000E+00 -0.10318255887E+04  0.30495934152E+04  0.28697309896E+04 0.  0.
        2    1    3    3  502    0  0.11330763367E+04  0.18077613502E+01  0.41958818328E+03  0.12082712842E+04  0.25500000920E-02 0. -1.
       -2    1    3    3    0  502 -0.11330763367E+04 -0.18077613502E+01 -0.14514137720E+04  0.18413221310E+04  0.25500000920E-02 0.  1.
</event>
<event>
 5   0  0.2664083E-06  0.3434001E+04  0.7818609E-02  0.8129611E-01
        2   -1    0    0  501    0  0.00000000000E+00  0.00000000000E+00  0.19770720961E+04  0.19770720961E+04  0.25500000920E-02 0.  1.
       -2   -1    0    0    0  501  0.00000000000E+00  0.00000000000E+00 -0.14911397931E+04  0.14911397931E+04  0.25500000920E-02 0. -1.
    10030    2    1    2    0    0  0.00000000000E+00  0.00000000000E+00  0.48593230296E+03  0.34682118892E+04  0.34340010928E+04 0.  0.
        2    1    3    3  502    0  0.91559870615E+03 -0.15574508888E+03 -0.12155514718E+04  0.15297525630E+04  0.25500000920E-02 0. -1.
       -2    1    3    3    0  502 -0.91559870615E+03  0.15574508888E+03  0.17014837748E+04  0.19384593262E+04  0.25500000920E-02 0.  1.
</event>
<event>
 5   0  0.1010855E-06  0.3264261E+04  0.7818609E-02  0.8172049E-01
       -1   -1    0    0    0  501  0.00000000000E+00  0.00000000000E+00  0.16296981257E+04  0.16296981257E+04  0.50400001928E-02 0.  1.
        1   -1    0    0  501    0  0.00000000000E+00  0.00000000000E+00 -0.16345665920E+04  0.16345665920E+04  0.50400001928E-02 0. -1.
    10030    2    1    2    0    0  0.00000000000E+00  0.00000000000E+00 -0.48684663213E+01  0.32642647177E+04  0.32642610872E+04 0.  0.
        1    1    3    3  502    0 -0.78910252038E+03 -0.76569685411E+02 -0.14290767722E+04  0.16342601156E+04  0.50400001928E-02 0. -1.
       -1    1    3    3    0  502  0.78910252038E+03  0.76569685411E+02  0.14242083059E+04  0.16300046021E+04  0.50400001928E-02 0.  1.
</event>
<event>
 5   0  0.2856440E-06  0.3385685E+04  0.7818609E-02  0.8141429E-01
       -2   -1    0    0    0  501  0.00000000000E+00  0.00000000000E+00  0.14153044744E+04  0.14153044744E+04  0.25500000920E-02 0. -1.
        2   -1    0    0  501    0  0.00000000000E+00  0.00000000000E+00 -0.20248050164E+04  0.20248050164E+04  0.25500000920E-02 0.  1.
    10030    2    1    2    0    0  0.00000000000E+00  0.00000000000E+00 -0.60950054199E+03  0.34401094909E+04  0.33856849231E+04 0.  0.
        4    1    3    3  502    0 -0.57277189607E+03 -0.53174127157E+03  0.12210199500E+04  0.14497267867E+04  0.12699999809E+01 0. -1.
       -4    1    3    3    0  502  0.57277189607E+03  0.53174127157E+03 -0.18305204920E+04  0.19903827042E+04  0.12699999809E+01 0.  1.
</event>
<event>
 5   0  0.1010855E-06  0.3406803E+04  0.7818609E-02  0.8136239E-01
       -1   -1    0    0    0  501  0.00000000000E+00  0.00000000000E+00  0.16946543371E+04  0.16946543371E+04  0.50400001928E-02 0.  1.
        1   -1    0    0  501    0  0.00000000000E+00  0.00000000000E+00 -0.17121935856E+04  0.17121935856E+04  0.50400001928E-02 0. -1.
    10030    2    1    2    0    0  0.00000000000E+00  0.00000000000E+00 -0.17539248468E+02  0.34068479227E+04  0.34068027744E+04 0.  0.
        1    1    3    3  502    0 -0.74858885160E+02  0.16641802231E+04  0.34687060174E+03  0.17015930425E+04  0.50400001928E-02 0. -1.
       -1    1    3    3    0  502  0.74858885160E+02 -0.16641802231E+04 -0.36440985021E+03  0.17052548803E+04  0.50400001928E-02 0.  1.
</event>
<event>
 5   0  0.1010855E-06  0.3354644E+04  0.7818609E-02  0.8149129E-01
        1   -1    0    0  501    0  0.00000000000E+00  0.00000000000E+00  0.17329828471E+04  0.17329828471E+04  0.50400001928E-02 0. -1.
       -1   -1    0    0    0  501  0.00000000000E+00  0.00000000000E+00 -0.16234493298E+04  0.16234493298E+04  0.50400001928E-02 0.  1.
    10030    2    1    2    0    0  0.00000000000E+00  0.00000000000E+00  0.10953351735E+03  0.33564321769E+04  0.33546444472E+04 0.  0.
        1    1    3    3  502    0  0.33504826438E+03  0.50486890624E+03 -0.15101191369E+04  0.16271477375E+04  0.50400001928E-02 0.  1.
       -1    1    3    3    0  502 -0.33504826438E+03 -0.50486890624E+03  0.16196526543E+04  0.17292844394E+04  0.50400001928E-02 0. -1.
</event>
<event>
 5   0  0.2848685E-06  0.3330397E+04  0.7818609E-02  0.8155204E-01
       -2   -1    0    0    0  501  0.00000000000E+00  0.00000000000E+00  0.10691907998E+04  0.10691907998E+04  0.25500000920E-02 0. -1.
        2   -1    0    0  501    0  0.00000000000E+00  0.00000000000E+00 -0.25934437484E+04  0.25934437484E+04  0.25500000920E-02 0.  1.
    10030    2    1    2    0    0  0.00000000000E+00  0.00000000000E+00 -0.15242529486E+04  0.36626345482E+04  0.33303970908E+04 0.  0.
        3    1    3    3  502    0  0.45729769997E+03 -0.13517386943E+03  0.99249534114E+03  0.11011086112E+04  0.10100000352E+00 0. -1.
       -3    1    3    3    0  502 -0.45729769997E+03  0.13517386943E+03 -0.25167482897E+04  0.25615259369E+04  0.10100000352E+00 0.  1.
</event>
<event>
 5   0  0.9070500E-07  0.3375672E+04  0.7818609E-02  0.8143903E-01
       -3   -1    0    0    0  501  0.00000000000E+00  0.00000000000E+00  0.14801045305E+04  0.14801045340E+04  0.10100000352E+00 0. -1.
        3   -1    0    0  501    0  0.00000000000E+00  0.00000000000E+00 -0.19247226856E+04  0.19247226882E+04  0.10100000352E+00 0.  1.
    10030    2    1    2    0    0  0.00000000000E+00  0.00000000000E+00 -0.44461815505E+03  0.34048272222E+04  0.33756722455E+04 0.  0.
        4    1    3    3  502    0  0.84505147088E+03 -0.30882832972E+03  0.12180660175E+04  0.15143227402E+04  0.12699999809E+01 0. -1.
       -4    1    3    3    0  502 -0.84505147088E+03  0.30882832972E+03 -0.16626841726E+04  0.18905044820E+04  0.12699999809E+01 0.  1.
</event>
<event>
 5   0  0.2848685E-06  0.3285074E+04  0.7818609E-02  0.8166704E-01
       -2   -1    0    0    0  501  0.00000000000E+00  0.00000000000E+00  0.11620905562E+04  0.11620905562E+04  0.25500000920E-02 0.  1.
        2   -1    0    0  501    0  0.00000000000E+00  0.00000000000E+00 -0.23216151377E+04  0.23216151377E+04  0.25500000920E-02 0. -1.
    10030    2    1    2    0    0  0.00000000000E+00  0.00000000000E+00 -0.11595245816E+04  0.34837056939E+04  0.32850735314E+04 0.  0.
        3    1    3    3  502    0 -0.34292401375E+03  0.86555079297E+03 -0.20147842824E+04  0.22194888531E+04  0.10100000352E+00 0. -1.
       -3    1    3    3    0  502  0.34292401375E+03 -0.86555079297E+03  0.85525970084E+03  0.12642168408E+04  0.10100000352E+00 0.  1.
</event>
<event>
 5   0  0.2856440E-06  0.3326227E+04  0.7818609E-02  0.8156254E-01
        2   -1    0    0  501    0  0.00000000000E+00  0.00000000000E+00  0.21497598160E+04  0.21497598160E+04  0.25500000920E-02 0. -1.
       -2   -1    0    0    0  501  0.00000000000E+00  0.00000000000E+00 -0.12866306667E+04  0.12866306667E+04  0.25500000920E-02 0.  1.
    10030    2    1    2    0    0  0.00000000000E+00  0.00000000000E+00  0.86312914926E+03  0.34363904827E+04  0.33262272354E+04 0.  0.
        4    1    3    3  502    0 -0.11627513638E+04  0.11731608910E+04  0.23110720795E+03  0.16678457257E+04  0.12699999809E+01 0.  1.
       -4    1    3    3    0  502  0.11627513638E+04 -0.11731608910E+04  0.63202194131E+03  0.17685447570E+04  0.12699999809E+01 0. -1.
</event>
<event>
 5   0  0.2848685E-06  0.3220083E+04  0.7818609E-02  0.8183533E-01
        2   -1    0    0  501    0  0.00000000000E+00  0.00000000000E+00  0.28367200536E+04  0.28367200536E+04  0.25500000920E-02 0.  1.
       -2   -1    0    0    0  501  0.00000000000E+00  0.00000000000E+00 -0.91381342822E+03  0.91381342823E+03  0.25500000920E-02 0. -1.
    10030    2    1    2    0    0  0.00000000000E+00  0.00000000000E+00  0.19229066254E+04  0.37505334818E+04  0.32200825313E+04 0.  0.
        3    1    3    3  502    0  0.44473079620E+03 -0.27890518225E+03 -0.81133600863E+03  0.96635382282E+03  0.10100000352E+00 0. -1.
       -3    1    3    3    0  502 -0.44473079620E+03  0.27890518225E+03  0.27342426340E+04  0.27841796590E+04  0.10100000352E+00 0.  1.
</event>
<event>
 5   0  0.2767014E-06  0.3408764E+04  0.7818609E-02  0.8135759E-01
        2   -1    0    0  501    0  0.00000000000E+00  0.00000000000E+00  0.17753062717E+04  0.17753062717E+04  0.25500000920E-02 0. -1.
       -2   -1    0    0    0  501  0.00000000000E+00  0.00000000000E+00 -0.16362915038E+04  0.16362915038E+04  0.25500000920E-02 0.  1.
    10030    2    1    2    0    0  0.00000000000E+00  0.00000000000E+00  0.13901476794E+03  0.34115977756E+04  0.34087643328E+04 0.  0.
        1    1    3    3  502    0 -0.51041843367E+03  0.85384489487E+03 -0.13156012616E+04  0.16493588941E+04  0.50400001928E-02 0.  1.
       -1    1    3    3    0  502  0.51041843367E+03 -0.85384489487E+03  0.14546160295E+04  0.17622388815E+04  0.50400001928E-02 0. -1.
</event>
<event>
 5   0  0.1010551E-06  0.3803053E+04  0.7818609E-02  0.8045500E-01
        1   -1    0    0  501    0  0.00000000000E+00  0.00000000000E+00  0.25285785894E+04  0.25285785894E+04  0.50400001928E-02 0.  1.
       -1   -1    0    0    0  501  0.00000000000E+00  0.00000000000E+00 -0.14299742021E+04  0.14299742021E+04  0.50400001928E-02 0. -1.
    10030    2    1    2    0    0  0.00000000000E+00  0.00000000000E+00  0.10986043873E+04  0.39585527915E+04  0.38030525375E+04 0.  0.
        2    1    3    3  502    0  0.83202661982E+03 -0.47014742375E+03  0.22604463011E+04  0.24541647003E+04  0.25500000920E-02 0.  1.
       -2    1    3    3    0  502 -0.83202661982E+03  0.47014742375E+03 -0.11618419138E+04  0.15043880911E+04  0.25500000920E-02 0. -1.
</event>
<event>
 5   0  0.9714317E-07  0.3381330E+04  0.7818609E-02  0.8142504E-01
        1   -1    0    0  501    0  0.00000000000E+00  0.00000000000E+00  0.24664986406E+04  0.24664986406E+04  0.50400001928E-02 0. -1.
       -1   -1    0    0    0  501  0.00000000000E+00  0.00000000000E+00 -0.11588685748E+04  0.11588685749E+04  0.50400001928E-02 0.  1.
    10030    2    1    2    0    0  0.00000000000E+00  0.00000000000E+00  0.13076300658E+04  0.36253672155E+04  0.33813297766E+04 0.  0.
        4    1    3    3  502    0  0.13324463794E+04  0.67920526487E+03 -0.19151153825E+03  0.15077836144E+04  0.12699999809E+01 0.  1.
       -4    1    3    3    0  502 -0.13324463794E+04 -0.67920526487E+03  0.14991416040E+04  0.21175836011E+04  0.12699999809E+01 0. -1.
</event>
<event>
 5   0  0.2906701E-06  0.3401991E+04  0.7818609E-02  0.8137418E-01
        2   -1    0    0  501    0  0.00000000000E+00  0.00000000000E+00  0.26040042614E+04  0.26040042614E+04  0.25500000920E-02 0. -1.
       -2   -1    0    0    0  501  0.00000000000E+00  0.00000000000E+00 -0.11111291946E+04  0.11111291946E+04  0.25500000920E-02 0.  1.
    10030    2    1    2    0    0  0.00000000000E+00  0.00000000000E+00  0.14928750668E+04  0.37151334560E+04  0.34019906864E+04 0.  0.
        5    1    3    3  502    0 -0.40215208268E+03 -0.12897364216E+04  0.18751179432E+04  0.23111113616E+04  0.46999998093E+01 0. -1.
       -5    1    3    3    0  502  0.40215208268E+03  0.12897364216E+04 -0.38224287639E+03  0.14040220944E+04  0.46999998093E+01 0.  1.
</event>
<event>
 5   0  0.1010855E-06  0.2090442E+04  0.7818609E-02  0.8565466E-01
       -1   -1    0    0    0  501  0.00000000000E+00  0.00000000000E+00  0.90512110323E+03  0.90512110324E+03  0.50400001928E-02 0.  1.
        1   -1    0    0  501    0  0.00000000000E+00  0.00000000000E+00 -0.12070060059E+04  0.12070060059E+04  0.50400001928E-02 0. -1.
    10030    2    1    2    0    0  0.00000000000E+00  0.00000000000E+00 -0.30188490270E+03  0.21121271092E+04  0.20904416832E+04 0.  0.
        1    1    3    3  502    0  0.56184037291E+03  0.49127546657E+02 -0.10400761001E+04  0.11831468271E+04  0.50400001928E-02 0. -1.
       -1    1    3    3    0  502 -0.56184037291E+03 -0.49127546657E+02  0.73819119742E+03  0.92898028205E+03  0.50400001928E-02 0.  1.
</event>
<event>
 5   0  0.9714317E-07  0.3146142E+04  0.7818609E-02  0.8203187E-01
       -1   -1    0    0    0  501  0.00000000000E+00  0.00000000000E+00  0.14022845609E+04  0.14022845609E+04  0.50400001928E-02 0.  1.
        1   -1    0    0  501    0  0.00000000000E+00  0.00000000000E+00 -0.17646580143E+04  0.17646580144E+04  0.50400001928E-02 0. -1.
    10030    2    1    2    0    0  0.00000000000E+00  0.00000000000E+00 -0.36237345350E+03  0.31669425752E+04  0.31461422020E+04 0.  0.
        4    1    3    3  502    0  0.53048584235E+03 -0.10894602849E+04 -0.11909198788E+04  0.16990087439E+04  0.12699999809E+01 0. -1.
       -4    1    3    3    0  502 -0.53048584235E+03  0.10894602849E+04  0.82854642534E+03  0.14679338313E+04  0.12699999809E+01 0.  1.
</event>
<event>
 5   0  0.1003191E-06  0.2995672E+04  0.7818609E-02  0.8244968E-01
        1   -1    0    0  501    0  0.00000000000E+00  0.00000000000E+00  0.15377995474E+04  0.15377995475E+04  0.50400001928E-02 0.  1.
       -1   -1    0    0    0  501  0.00000000000E+00  0.00000000000E+00 -0.14589109461E+04  0.14589109461E+04  0.50400001928E-02 0. -1.
    10030    2    1    2    0    0  0.00000000000E+00  0.00000000000E+00  0.78888601357E+02  0.29967104935E+04  0.29956719398E+04 0.  0.
        5    1    3    3  502    0 -0.61064449913E+03 -0.95603423500E+03  0.10178438784E+04  0.15241116802E+04  0.46999998093E+01 0.  1.
       -5    1    3    3    0  502  0.61064449913E+03  0.95603423500E+03 -0.93895527706E+03  0.14725988134E+04  0.46999998093E+01 0. -1.
</event>
<event>
 5   0  0.2856440E-06  0.3321767E+04  0.7818609E-02  0.8157379E-01
       -2   -1    0    0    0  501  0.00000000000E+00  0.00000000000E+00  0.14926724746E+04  0.14926724746E+04  0.25500000920E-02 0.  1.
        2   -1    0    0  501    0  0.00000000000E+00  0.00000000000E+00 -0.18480507824E+04  0.18480507824E+04  0.25500000920E-02 0. -1.
    10030    2    1    2    0    0  0.00000000000E+00  0.00000000000E+00 -0.35537830782E+03  0.33407232570E+04  0.33217673215E+04 0.  0.
        4    1    3    3  502    0 -0.13700724197E+04  0.28916932058E+03 -0.10759915365E+04  0.17659209299E+04  0.12699999809E+01 0. -1.
       -4    1    3    3    0  502  0.13700724197E+04 -0.28916932058E+03  0.72061322867E+03  0.15748023271E+04  0.12699999809E+01 0.  1.
</event>
<event>
 5   0  0.1010855E-06  0.3465830E+04  0.7818609E-02  0.8121936E-01
        1   -1    0    0  501    0  0.00000000000E+00  0.00000000000E+00  0.18676166538E+04  0.18676166538E+04  0.50400001928E-02 0. -1.
       -1   -1    0    0    0  501  0.00000000000E+00  0.00000000000E+00 -0.16079290789E+04  0.16079290790E+04  0.50400001928E-02 0.  1.
    10030    2    1    2    0    0  0.00000000000E+00  0.00000000000E+00  0.25968757486E+03  0.34755457328E+04  0.34658304206E+04 0.  0.
        1    1    3    3  502    0 -0.25294887301E+03  0.64458534573E+03  0.17228564290E+04  0.18568003865E+04  0.50400001928E-02 0. -1.
       -1    1    3    3    0  502  0.25294887301E+03 -0.64458534573E+03 -0.14631688542E+04  0.16187453463E+04  0.50400001928E-02 0.  1.
</event>
<event>
 5   0  0.2664083E-06  0.3273058E+04  0.7818609E-02  0.8169785E-01
       -2   -1    0    0    0  501  0.00000000000E+00  0.00000000000E+00  0.16148753402E+04  0.16148753402E+04  0.25500000920E-02 0. -1.
        2   -1    0    0  501    0  0.00000000000E+00  0.00000000000E+00 -0.16584731144E+04  0.16584731144E+04  0.25500000920E-02 0.  1.
    10030    2    1    2    0    0  0.00000000000E+00  0.00000000000E+00 -0.43597774171E+02  0.32733484546E+04  0.32730581021E+04 0.  0.
        2    1    3    3  502    0 -0.78550708391E+01 -0.30335882262E+03 -0.16300892558E+04  0.16580950694E+04  0.25500000920E-02 0.  1.
       -2    1    3    3    0  502  0.78550708391E+01  0.30335882262E+03  0.15864914816E+04  0.16152533852E+04  0.25500000920E-02 0. -1.
</event>
<event>
 5   0  0.2906701E-06  0.3400229E+04  0.7818609E-02  0.8137850E-01
       -2   -1    0    0    0  501  0.00000000000E+00  0.00000000000E+00  0.18100312216E+04  0.18100312216E+04  0.25500000920E-02 0.  1.
        2   -1    0    0  501    0  0.00000000000E+00  0.00000000000E+00 -0.15968725375E+04  0.15968725375E+04  0.25500000920E-02 0. -1.
    10030    2    1    2    0    0  0.00000000000E+00  0.00000000000E+00  0.21315868407E+03  0.34069037591E+04  0.34002289040E+04 0.  0.
        5    1    3    3  502    0 -0.14631857028E+04 -0.19860035982E+03 -0.73769720476E+03  0.16506282924E+04  0.46999998093E+01 0. -1.
       -5    1    3    3    0  502  0.14631857028E+04  0.19860035982E+03  0.95085588883E+03  0.17562754667E+04  0.46999998093E+01 0.  1.
</event>
<event>
 5   0  0.9232963E-07  0.2823251E+04  0.7818609E-02  0.8296086E-01
        1   -1    0    0  501    0  0.00000000000E+00  0.00000000000E+00  0.15392344923E+04  0.15392344923E+04  0.50400001928E-02 0. -1.
       -1   -1    0    0    0  501  0.00000000000E+00  0.00000000000E+00 -0.12945962596E+04  0.12945962596E+04  0.50400001928E-02 0.  1.
    10030    2    1    2    0    0  0.00000000000E+00  0.00000000000E+00  0.24463823278E+03  0.28338307519E+04  0.28232514705E+04 0.  0.
        3    1    3    3  502    0  0.46171221612E+03  0.36155556530E+03 -0.11665433352E+04  0.13056507804E+04  0.10100000352E+00 0.  1.
       -3    1    3    3    0  502 -0.46171221612E+03 -0.36155556530E+03  0.14111815680E+04  0.15281799715E+04  0.10100000352E+00 0. -1.
</event>
<event>
 5   0  0.1003191E-06  0.2967306E+04  0.7818609E-02  0.8253129E-01
       -1   -1    0    0    0  501  0.00000000000E+00  0.00000000000E+00  0.75149225757E+03  0.75149225759E+03  0.50400001928E-02 0.  1.
        1   -1    0    0  501    0  0.00000000000E+00  0.00000000000E+00 -0.29291407008E+04  0.29291407008E+04  0.50400001928E-02 0. -1.
    10030    2    1    2    0    0  0.00000000000E+00  0.00000000000E+00 -0.21776484432E+04  0.36806329584E+04  0.29673062248E+04 0.  0.
        5    1    3    3  502    0 -0.49568014833E+03 -0.12071980598E+04 -0.19643171342E+04  0.23583023256E+04  0.46999998093E+01 0. -1.
       -5    1    3    3    0  502  0.49568014833E+03  0.12071980598E+04 -0.21333130903E+03  0.13223306328E+04  0.46999998093E+01 0.  1.
</event>
<event>
 5   0  0.2664083E-06  0.3395244E+04  0.7818609E-02  0.8139075E-01
       -2   -1    0    0    0  501  0.00000000000E+00  0.00000000000E+00  0.17306419435E+04  0.17306419435E+04  0.25500000920E-02 0. -1.
        2   -1    0    0  501    0  0.00000000000E+00  0.00000000000E+00 -0.16652317023E+04  0.16652317023E+04  0.25500000920E-02 0.  1.
    10030    2    1    2    0    0  0.00000000000E+00  0.00000000000E+00  0.65410241187E+02  0.33958736458E+04  0.33952436317E+04 0.  0.
        2    1    3    3  502    0  0.14531527656E+04 -0.11211957002E+03  0.90332403294E+03  0.17147064083E+04  0.25500000920E-02 0. -1.
       -2    1    3    3    0  502 -0.14531527656E+04  0.11211957002E+03 -0.83791379175E+03  0.16811672375E+04  0.25500000920E-02 0.  1.
</event>
<event>
 5   0  0.9714317E-07  0.3349344E+04  0.7818609E-02  0.8150452E-01
       -1   -1    0    0    0  501  0.00000000000E+00  0.00000000000E+00  0.14383517853E+04  0.14383517853E+04  0.50400001928E-02 0.  1.
        1   -1    0    0  501    0  0.00000000000E+00  0.00000000000E+00 -0.19498197674E+04  0.19498197674E+04  0.50400001928E-02 0. -1.
    10030    2    1    2    0    0  0.00000000000E+00  0.00000000000E+00 -0.51146798213E+03  0.33881715528E+04  0.33493442603E+04 0.  0.
        4    1    3    3  502    0  0.38786488695E+03 -0.70256835005E+03 -0.17426317183E+04  0.19185432952E+04  0.12699999809E+01 0. -1.
       -4    1    3    3    0  502 -0.38786488695E+03  0.70256835005E+03  0.12311637362E+04  0.14696282575E+04  0.12699999809E+01 0.  1.
</event>
<event>
 5   0  0.2848685E-06  0.3374544E+04  0.7818609E-02  0.8144183E-01
        2   -1    0    0  501    0  0.00000000000E+00  0.00000000000E+00  0.16571921749E+04  0.16571921749E+04  0.25500000920E-02 0. -1.
       -2   -1    0    0    0  501  0.00000000000E+00  0.00000000000E+00 -0.17178973200E+04  0.17178973200E+04  0.25500000920E-02 0.  1.
    10030    2    1    2    0    0  0.00000000000E+00  0.00000000000E+00 -0.60705145058E+02  0.33750894949E+04  0.33745435223E+04 0.  0.
        3    1    3    3  502    0  0.22875659202E+02  0.16254825071E+04  0.42157151441E+03  0.16794163357E+04  0.10100000352E+00 0. -1.
       -3    1    3    3    0  502 -0.22875659202E+02 -0.16254825071E+04 -0.48227665947E+03  0.16956731592E+04  0.10100000352E+00 0.  1.
</event>
<event>
 5   0  0.2906701E-06  0.3437530E+04  0.7818609E-02  0.8128756E-01
       -2   -1    0    0    0  501  0.00000000000E+00  0.00000000000E+00  0.18716996062E+04  0.18716996062E+04  0.25500000920E-02 0.  1.
        2   -1    0    0  501    0  0.00000000000E+00  0.00000000000E+00 -0.15783265653E+04  0.15783265653E+04  0.25500000920E-02 0. -1.
    10030    2    1    2    0    0  0.00000000000E+00  0.00000000000E+00  0.29337304098E+03  0.34500261715E+04  0.34375300497E+04 0.  0.
        5    1    3    3  502    0 -0.54342913664E+03  0.13893277565E+04 -0.70998787017E+03  0.16521657627E+04  0.46999998093E+01 0.  1.
       -5    1    3    3    0  502  0.54342913664E+03 -0.13893277565E+04  0.10033609111E+04  0.17978604088E+04  0.46999998093E+01 0. -1.
</event>
<event>
 5   0  0.2856440E-06  0.3352904E+04  0.7818609E-02  0.8149563E-01
        2   -1    0    0  501    0  0.00000000000E+00  0.00000000000E+00  0.20985997042E+04  0.20985997042E+04  0.25500000920E-02 0. -1.
       -2   -1    0    0    0  501  0.00000000000E+00  0.00000000000E+00 -0.13392218590E+04  0.13392218590E+04  0.25500000920E-02 0.  1.
    10030    2    1    2    0    0  0.00000000000E+00  0.00000000000E+00  0.75937784517E+03  0.34378215632E+04  0.33529035758E+04 0.  0.
        4    1    3    3  502    0  0.24232671185E+03  0.55189537087E+02  0.20796054126E+04  0.20944040693E+04  0.12699999809E+01 0. -1.
       -4    1    3    3    0  502 -0.24232671185E+03 -0.55189537087E+02 -0.13202275675E+04  0.13434174939E+04  0.12699999809E+01 0.  1.
</event>
<event>
 5   0  0.1010855E-06  0.3422031E+04  0.7818609E-02  0.8132520E-01
        1   -1    0    0  501    0  0.00000000000E+00  0.00000000000E+00  0.15022440193E+04  0.15022440193E+04  0.50400001928E-02 0. -1.
       -1   -1    0    0    0  501  0.00000000000E+00  0.00000000000E+00 -0.19488007802E+04  0.19488007802E+04  0.50400001928E-02 0.  1.
    10030    2    1    2    0    0  0.00000000000E+00  0.00000000000E+00 -0.44655676092E+03  0.34510447996E+04  0.34220311611E+04 0.  0.
        1    1    3    3  502    0 -0.15512695590E+04 -0.44351090731E+03  0.35114298578E+03  0.16511936792E+04  0.50400001928E-02 0. -1.
       -1    1    3    3    0  502  0.15512695590E+04  0.44351090731E+03 -0.79769974670E+03  0.17998511204E+04  0.50400001928E-02 0.  1.
</event>
<event>
 5   0  0.2767014E-06  0.3377142E+04  0.7818609E-02  0.8143539E-01
        2   -1    0    0  501    0  0.00000000000E+00  0.00000000000E+00  0.18174666876E+04  0.18174666876E+04  0.25500000920E-02 0.  1.
       -2   -1    0    0    0  501  0.00000000000E+00  0.00000000000E+00 -0.15688164200E+04  0.15688164200E+04  0.25500000920E-02 0. -1.
    10030    2    1    2    0    0  0.00000000000E+00  0.00000000000E+00  0.24865026762E+03  0.33862831076E+04  0.33771417396E+04 0.  0.
        1    1    3    3  502    0 -0.11063511818E+04  0.10617649722E+04  0.83328480855E+03  0.17451995204E+04  0.50400001928E-02 0.  1.
       -1    1    3    3    0  502  0.11063511818E+04 -0.10617649722E+04 -0.58463454093E+03  0.16410835872E+04  0.50400001928E-02 0. -1.
</event>
<event>
 5   0  0.1010855E-06  0.3442698E+04  0.7818609E-02  0.8127506E-01
        1   -1    0    0  501    0  0.00000000000E+00  0.00000000000E+00  0.30745447458E+04  0.30745447458E+04  0.50400001928E-02 0.  1.
       -1   -1    0    0    0  501  0.00000000000E+00  0.00000000000E+00 -0.96373342061E+03  0.96373342062E+03  0.50400001928E-02 0. -1.
    10030    2    1    2    0    0  0.00000000000E+00  0.00000000000E+00  0.21108113252E+04  0.40382781665E+04  0.34426975033E+04 0.  0.
        1    1    3    3  502    0 -0.12598551436E+04  0.11129356706E+04  0.62095153375E+03  0.17920495521E+04  0.50400001928E-02 0. -1.
       -1    1    3    3    0  502  0.12598551436E+04 -0.11129356706E+04  0.14898597915E+04  0.22462286144E+04  0.50400001928E-02 0.  1.
</event>
<event>
 5   0  0.2856440E-06  0.3211658E+04  0.7818609E-02  0.8185745E-01
        2   -1    0    0  501    0  0.00000000000E+00  0.00000000000E+00  0.23730556063E+04  0.23730556063E+04  0.25500000920E-02 0. -1.
       -2   -1    0    0    0  501  0.00000000000E+00  0.00000000000E+00 -0.10866522232E+04  0.10866522232E+04  0.25500000920E-02 0.  1.
    10030    2    1    2    0    0  0.00000000000E+00  0.00000000000E+00  0.12864033831E+04  0.34597078295E+04  0.32116576096E+04 0.  0.
        4    1    3    3  502    0  0.27782350734E+03  0.46279742540E+03 -0.98599447966E+03  0.11240792165E+04  0.12699999809E+01 0.  1.
       -4    1    3    3    0  502 -0.27782350734E+03 -0.46279742540E+03  0.22723978627E+04  0.23356286130E+04  0.12699999809E+01 0. -1.
</event>
<event>
 5   0  0.1010855E-06  0.3469367E+04  0.7818609E-02  0.8121088E-01
        1   -1    0    0  501    0  0.00000000000E+00  0.00000000000E+00  0.17921459752E+04  0.17921459752E+04  0.50400001928E-02 0. -1.
       -1   -1    0    0    0  501  0.00000000000E+00  0.00000000000E+00 -0.16790637267E+04  0.16790637267E+04  0.50400001928E-02 0.  1.
    10030    2    1    2    0    0  0.00000000000E+00  0.00000000000E+00  0.11308224854E+03  0.34712097020E+04  0.34693672622E+04 0.  0.
        1    1    3    3  502    0 -0.45391951949E+03 -0.14196754345E+04  0.94448413130E+03  0.17645315366E+04  0.50400001928E-02 0. -1.
       -1    1    3    3    0  502  0.45391951949E+03  0.14196754345E+04 -0.83140188275E+03  0.17066781653E+04  0.50400001928E-02 0.  1.
</event>
<event>
 5   0  0.2906701E-06  0.3342906E+04  0.7818609E-02  0.8152063E-01
        2   -1    0    0  501    0  0.00000000000E+00  0.00000000000E+00  0.19540693223E+04  0.19540693223E+04  0.25500000920E-02 0.  1.
       -2   -1    0    0    0  501  0.00000000000E+00  0.00000000000E+00 -0.14297112669E+04  0.14297112669E+04  0.25500000920E-02 0. -1.
    10030    2    1    2    0    0  0.00000000000E+00  0.00000000000E+00  0.52435805539E+03  0.33837805891E+04  0.33429058774E+04 0.  0.
        5    1    3    3  502    0  0.15217581531E+04 -0.62506132528E+03  0.56122890126E+03  0.17382317183E+04  0.46999998093E+01 0.  1.
       -5    1    3    3    0  502 -0.15217581531E+04  0.62506132528E+03 -0.36870845869E+02  0.16455488708E+04  0.46999998093E+01 0. -1.
</event>
<event>
 5   0  0.2906701E-06  0.3383824E+04  0.7818609E-02  0.8141888E-01
        2   -1    0    0  501    0  0.00000000000E+00  0.00000000000E+00  0.28354771850E+04  0.28354771850E+04  0.25500000920E-02 0. -1.
       -2   -1    0    0    0  501  0.00000000000E+00  0.00000000000E+00 -0.10095533569E+04  0.10095533569E+04  0.25500000920E-02 0.  1.
    10030    2    1    2    0    0  0.00000000000E+00  0.00000000000E+00  0.18259238281E+04  0.38450305419E+04  0.33838235833E+04 0.  0.
        5    1    3    3  502    0 -0.12245206847E+04 -0.11870413997E+03 -0.40680838983E+03  0.12957842167E+04  0.46999998093E+01 0.  1.
       -5    1    3    3    0  502  0.12245206847E+04  0.11870413997E+03  0.22327322179E+04  0.25492463253E+04  0.46999998093E+01 0. -1.
</event>
<event>
 5   0  0.2664083E-06  0.2786378E+04  0.7818609E-02  0.8307510E-01
        2   -1    0    0  501    0  0.00000000000E+00  0.00000000000E+00  0.21814530572E+04  0.21814530572E+04  0.25500000920E-02 0. -1.
       -2   -1    0    0    0  501  0.00000000000E+00  0.00000000000E+00 -0.88976257614E+03  0.88976257614E+03  0.25500000920E-02 0.  1.
    10030    2    1    2    0    0  0.00000000000E+00  0.00000000000E+00  0.12916904811E+04  0.30712156334E+04  0.27863777863E+04 0.  0.
        2    1    3    3  502    0  0.72939199169E+03 -0.10279387408E+04 -0.83832343291E+01  0.12604527008E+04  0.25500000920E-02 0.  1.
       -2    1    3    3    0  502 -0.72939199169E+03  0.10279387408E+04  0.13000737154E+04  0.18107629326E+04  0.25500000920E-02 0. -1.
</event>
<event>
 5   0  0.2664083E-06  0.3467623E+04  0.7818609E-02  0.8121506E-01
       -2   -1    0    0    0  501  0.00000000000E+00  0.00000000000E+00  0.18073296373E+04  0.18073296373E+04  0.25500000920E-02 0. -1.
        2   -1    0    0  501    0  0.00000000000E+00  0.00000000000E+00 -0.16632837216E+04  0.16632837216E+04  0.25500000920E-02 0.  1.
    10030    2    1    2    0    0  0.00000000000E+00  0.00000000000E+00  0.14404591571E+03  0.34706133589E+04  0.34676227968E+04 0.  0.
        2    1    3    3  502    0  0.14721198205E+04 -0.19679345166E+03  0.96735441620E+03  0.17724669236E+04  0.25500000920E-02 0. -1.
       -2    1    3    3    0  502 -0.14721198205E+04  0.19679345166E+03 -0.82330850049E+03  0.16981464353E+04  0.25500000920E-02 0.  1.
</event>
<event>
 5   0  0.2767014E-06  0.3461223E+04  0.7818609E-02  0.8123041E-01
       -2   -1    0    0    0  501  0.00000000000E+00  0.00000000000E+00  0.14800925100E+04  0.14800925100E+04  0.25500000920E-02 0. -1.
        2   -1    0    0  501    0  0.00000000000E+00  0.00000000000E+00 -0.20235335020E+04  0.20235335020E+04  0.25500000920E-02 0.  1.
    10030    2    1    2    0    0  0.00000000000E+00  0.00000000000E+00 -0.54344099207E+03  0.35036260120E+04  0.34612233560E+04 0.  0.
        1    1    3    3  502    0 -0.76020267369E+03 -0.15228791895E+04 -0.58852046091E+03  0.18009512664E+04  0.50400001928E-02 0.  1.
       -1    1    3    3    0  502  0.76020267369E+03  0.15228791895E+04  0.45079468841E+02  0.17026747456E+04  0.50400001928E-02 0. -1.
</event>
<event>
 5   0  0.1003191E-06  0.3381760E+04  0.7818609E-02  0.8142397E-01
       -1   -1    0    0    0  501  0.00000000000E+00  0.00000000000E+00  0.19848116467E+04  0.19848116467E+04  0.50400001928E-02 0.  1.
        1   -1    0    0  501    0  0.00000000000E+00  0.00000000000E+00 -0.14404771688E+04  0.14404771688E+04  0.50400001928E-02 0. -1.
    10030    2    1    2    0    0  0.00000000000E+00  0.00000000000E+00  0.54433447791E+03  0.34252888154E+04  0.33817604063E+04 0.  0.
        5    1    3    3  502    0 -0.13270717366E+04  0.93856029948E+03  0.74403813587E+03  0.17876324196E+04  0.46999998093E+01 0.  1.
       -5    1    3    3    0  502  0.13270717366E+04 -0.93856029948E+03 -0.19970365796E+03  0.16376563959E+04  0.46999998093E+01 0. -1.
</event>
<event>
 5   0  0.9232963E-07  0.3445838E+04  0.7818609E-02  0.8126747E-01
        1   -1    0    0  501    0  0.00000000000E+00  0.00000000000E+00  0.23371782436E+04  0.23371782436E+04  0.50400001928E-02 0. -1.
       -1   -1    0    0    0  501  0.00000000000E+00  0.00000000000E+00 -0.12701001455E+04  0.12701001455E+04  0.50400001928E-02 0.  1.
    10030    2    1    2    0    0  0.00000000000E+00  0.00000000000E+00  0.10670780981E+04  0.36072783891E+04  0.34458383173E+04 0.  0.
        3    1    3    3  502    0 -0.51992262984E+03  0.13876740377E+04 -0.38655380626E+03  0.15314642116E+04  0.10100000352E+00 0.  1.
       -3    1    3    3    0  502  0.51992262984E+03 -0.13876740377E+04  0.14536319044E+04  0.20758141775E+04  0.10100000352E+00 0. -1.
</event>
<event>
 5   0  0.2848685E-06  0.3445994E+04  0.7818609E-02  0.8126709E-01
        2   -1    0    0  501    0  0.00000000000E+00  0.00000000000E+00  0.18218306155E+04  0.18218306155E+04  0.25500000920E-02 0. -1.
       -2   -1    0    0    0  501  0.00000000000E+00  0.00000000000E+00 -0.16295247493E+04  0.16295247493E+04  0.25500000920E-02 0.  1.
    10030    2    1    2    0    0  0.00000000000E+00  0.00000000000E+00  0.19230586617E+03  0.34513553648E+04  0.34459936605E+04 0.  0.
        3    1    3    3  502    0 -0.79665415340E+03  0.15306207534E+03 -0.14262885791E+04  0.16408488535E+04  0.10100000352E+00 0.  1.
       -3    1    3    3    0  502  0.79665415340E+03 -0.15306207534E+03  0.16185944453E+04  0.18105065113E+04  0.10100000352E+00 0. -1.
</event>
<event>
 5   0  0.1010855E-06  0.3429276E+04  0.7818609E-02  0.8130758E-01
       -1   -1    0    0    0  501  0.00000000000E+00  0.00000000000E+00  0.13487562135E+04  0.13487562135E+04  0.50400001928E-02 0. -1.
        1   -1    0    0  501    0  0.00000000000E+00  0.00000000000E+00 -0.21797741457E+04  0.21797741457E+04  0.50400001928E-02 0.  1.
    10030    2    1    2    0    0  0.00000000000E+00  0.00000000000E+00 -0.83101793221E+03  0.35285303592E+04  0.34292762636E+04 0.  0.
        1    1    3    3  502    0 -0.61165196505E+03  0.71825014622E+03  0.10577071610E+04  0.14173023098E+04  0.50400001928E-02 0. -1.
       -1    1    3    3    0  502  0.61165196505E+03 -0.71825014622E+03 -0.18887250932E+04  0.21112280494E+04  0.50400001928E-02 0.  1.
</event>
<event>
 5   0  0.2664083E-06  0.3419728E+04  0.7818609E-02  0.8133081E-01
        2   -1    0    0  501    0  0.00000000000E+00  0.00000000000E+00  0.15661439744E+04  0.15661439744E+04  0.25500000920E-02 0. -1.
       -2   -1    0    0    0  501  0.00000000000E+00  0.00000000000E+00 -0.18667732241E+04  0.18667732241E+04  0.25500000920E-02 0.  1.
    10030    2    1    2    0    0  0.00000000000E+00  0.00000000000E+00 -0.30062924964E+03  0.34329171985E+04  0.34197284316E+04 0.  0.
        2    1    3    3  502    0  0.10123353843E+04  0.13760673110E+04 -0.22306107664E+03  0.17228291902E+04  0.25500000920E-02 0. -1.
       -2    1    3    3    0  502 -0.10123353843E+04 -0.13760673110E+04 -0.77568172999E+02  0.17100880083E+04  0.25500000920E-02 0.  1.
</event>
<event>
 5   0  0.9714317E-07  0.2106122E+04  0.7818609E-02  0.8558551E-01
       -1   -1    0    0    0  501  0.00000000000E+00  0.00000000000E+00  0.14029629763E+04  0.14029629763E+04  0.50400001928E-02 0. -1.
        1   -1    0    0  501    0  0.00000000000E+00  0.00000000000E+00 -0.79042518378E+03  0.79042518380E+03  0.50400001928E-02 0.  1.
    10030    2    1    2    0    0  0.00000000000E+00  0.00000000000E+00  0.61253779255E+03  0.21933881601E+04  0.21061218089E+04 0.  0.
        4    1    3    3  502    0  0.34259409930E+03  0.97234257929E+03  0.82627396332E+02  0.10342387093E+04  0.12699999809E+01 0. -1.
       -4    1    3    3    0  502 -0.34259409930E+03 -0.97234257929E+03  0.52991039622E+03  0.11591494508E+04  0.12699999809E+01 0.  1.
</event>
<event>
 5   0  0.1010855E-06  0.2175025E+04  0.7818609E-02  0.8528896E-01
        1   -1    0    0  501    0  0.00000000000E+00  0.00000000000E+00  0.13007738791E+04  0.13007738791E+04  0.50400001928E-02 0.  1.
       -1   -1    0    0    0  501  0.00000000000E+00  0.00000000000E+00 -0.90921516607E+03  0.90921516609E+03  0.50400001928E-02 0. -1.
    10030    2    1    2    0    0  0.00000000000E+00  0.00000000000E+00  0.39155871303E+03  0.22099890452E+04  0.21750249089E+04 0.  0.
        1    1    3    3  502    0 -0.38775954521E+03 -0.91034092971E+03  0.65425934905E+03  0.11862265252E+04  0.50400001928E-02 0.  1.
       -1    1    3    3    0  502  0.38775954521E+03  0.91034092971E+03 -0.26270063602E+03  0.10237625200E+04  0.50400001928E-02 0. -1.
</event>
<event>
 5   0  0.1010551E-06  0.3146643E+04  0.7818609E-02  0.8203052E-01
       -1   -1    0    0    0  501  0.00000000000E+00  0.00000000000E+00  0.21942460191E+04  0.21942460191E+04  0.50400001928E-02 0. -1.
        1   -1    0    0  501    0  0.00000000000E+00  0.00000000000E+00 -0.11281053485E+04  0.11281053485E+04  0.50400001928E-02 0.  1.
    10030    2    1    2    0    0  0.00000000000E+00  0.00000000000E+00  0.10661406706E+04  0.33223513676E+04  0.31466430811E+04 0.  0.
        2    1    3    3  502    0  0.16378735965E+03  0.12609828387E+04  0.15113256196E+04  0.19750972500E+04  0.25500000920E-02 0. -1.
       -2    1    3    3    0  502 -0.16378735965E+03 -0.12609828387E+04 -0.44518494894E+03  0.13472541176E+04  0.25500000920E-02 0.  1.
</event>
<event>
 5   0  0.1003191E-06  0.2368765E+04  0.7818609E-02  0.8451291E-01
        1   -1    0    0  501    0  0.00000000000E+00  0.00000000000E+00  0.14732952049E+04  0.14732952049E+04  0.50400001928E-02 0. -1.
       -1   -1    0    0    0  501  0.00000000000E+00  0.00000000000E+00 -0.95212570671E+03  0.95212570672E+03  0.50400001928E-02 0.  1.
    10030    2    1    2    0    0  0.00000000000E+00  0.00000000000E+00  0.52116949820E+03  0.24254209116E+04  0.23687652802E+04 0.  0.
        5    1    3    3  502    0 -0.52157138983E+03 -0.10190111319E+04 -0.50524118911E+02  0.11458600168E+04  0.46999998093E+01 0.  1.
       -5    1    3    3    0  502  0.52157138983E+03  0.10190111319E+04  0.57169361711E+03  0.12795608948E+04  0.46999998093E+01 0. -1.
</event>
<event>
 5   0  0.2856440E-06  0.3357443E+04  0.7818609E-02  0.8148431E-01
        2   -1    0    0  501    0  0.00000000000E+00  0.00000000000E+00  0.16330621204E+04  0.16330621204E+04  0.25500000920E-02 0.  1.
       -2   -1    0    0    0  501  0.00000000000E+00  0.00000000000E+00 -0.17256572606E+04  0.17256572606E+04  0.25500000920E-02 0. -1.
    10030    2    1    2    0    0  0.00000000000E+00  0.00000000000E+00 -0.92595140248E+02  0.33587193810E+04  0.33574427799E+04 0.  0.
        4    1    3    3  502    0  0.11770318890E+04  0.96609382262E+03 -0.75322215445E+03  0.16988486009E+04  0.12699999809E+01 0. -1.
       -4    1    3    3    0  502 -0.11770318890E+04 -0.96609382262E+03  0.66062701420E+03  0.16598707801E+04  0.12699999809E+01 0.  1.
</event>
<event>
 5   0  0.2856440E-06  0.3393327E+04  0.7818609E-02  0.8139546E-01
        2   -1    0    0  501    0  0.00000000000E+00  0.00000000000E+00  0.22830004251E+04  0.22830004251E+04  0.25500000920E-02 0.  1.
       -2   -1    0    0    0  501  0.00000000000E+00  0.00000000000E+00 -0.12609136329E+04  0.12609136329E+04  0.25500000920E-02 0. -1.
    10030    2    1    2    0    0  0.00000000000E+00  0.00000000000E+00  0.10220867922E+04  0.35439140579E+04  0.33933266037E+04 0.  0.
        4    1    3    3  502    0 -0.89534404997E+02  0.97452740868E+03  0.19585313128E+04  0.21894215209E+04  0.12699999809E+01 0.  1.
       -4    1    3    3    0  502  0.89534404997E+02 -0.97452740868E+03 -0.93644452059E+03  0.13544925371E+04  0.12699999809E+01 0. -1.
</event>
<event>
 5   0  0.1010551E-06  0.2152903E+04  0.7818609E-02  0.8538290E-01
        1   -1    0    0  501    0  0.00000000000E+00  0.00000000000E+00  0.24171135159E+04  0.24171135159E+04  0.50400001928E-02 0.  1.
       -1   -1    0    0    0  501  0.00000000000E+00  0.00000000000E+00 -0.47939340625E+03  0.47939340628E+03  0.50400001928E-02 0. -1.
    10030    2    1    2    0    0  0.00000000000E+00  0.00000000000E+00  0.19377201096E+04  0.28965069222E+04  0.21529034179E+04 0.  0.
        2    1    3    3  502    0 -0.55110878269E+03 -0.34476531889E+03  0.21232097428E+04  0.22204962570E+04  0.25500000920E-02 0.  1.
       -2    1    3    3    0  502  0.55110878269E+03  0.34476531889E+03 -0.18548963312E+03  0.67601066521E+03  0.25500000920E-02 0. -1.
</event>
<event>
 5   0  0.2856440E-06  0.3348424E+04  0.7818609E-02  0.8150682E-01
        2   -1    0    0  501    0  0.00000000000E+00  0.00000000000E+00  0.20949490393E+04  0.20949490393E+04  0.25500000920E-02 0.  1.
       -2   -1    0    0    0  501  0.00000000000E+00  0.00000000000E+00 -0.13379733850E+04  0.13379733850E+04  0.25500000920E-02 0. -1.
    10030    2    1    2    0    0  0.00000000000E+00  0.00000000000E+00  0.75697565436E+03  0.34329224243E+04  0.33484241413E+04 0.  0.
        4    1    3    3  502    0  0.82678487374E+03  0.26798023348E+03 -0.10885653406E+04  0.13929690401E+04  0.12699999809E+01 0. -1.
       -4    1    3    3    0  502 -0.82678487374E+03 -0.26798023348E+03  0.18455409949E+04  0.20399533842E+04  0.12699999809E+01 0.  1.
</event>
<event>
 5   0  0.2767014E-06  0.3428963E+04  0.7818609E-02  0.8130834E-01
       -2   -1    0    0    0  501  0.00000000000E+00  0.00000000000E+00  0.88108507114E+03  0.88108507114E+03  0.25500000920E-02 0. -1.
        2   -1    0    0  501    0  0.00000000000E+00  0.00000000000E+00 -0.33361669779E+04  0.33361669779E+04  0.25500000920E-02 0.  1.
    10030    2    1    2    0    0  0.00000000000E+00  0.00000000000E+00 -0.24550819067E+04  0.42172520490E+04  0.34289630614E+04 0.  0.
        1    1    3    3  502    0  0.16594723367E+04  0.22880003407E+03 -0.77859012781E+03  0.18472683831E+04  0.50400001928E-02 0. -1.
       -1    1    3    3    0  502 -0.16594723367E+04 -0.22880003407E+03 -0.16764917789E+04  0.23699836659E+04  0.50400001928E-02 0.  1.
</event>
<event>
 5   0  0.2856440E-06  0.2595056E+04  0.7818609E-02  0.8369883E-01
       -2   -1    0    0    0  501  0.00000000000E+00  0.00000000000E+00  0.10655200974E+04  0.10655200975E+04  0.25500000920E-02 0.  1.
        2   -1    0    0  501    0  0.00000000000E+00  0.00000000000E+00 -0.15800534151E+04  0.15800534151E+04  0.25500000920E-02 0. -1.
    10030    2    1    2    0    0  0.00000000000E+00  0.00000000000E+00 -0.51453331760E+03  0.26455735125E+04  0.25950558135E+04 0.  0.
        4    1    3    3  502    0  0.90514058656E+03 -0.91855769735E+03 -0.11112569215E+03  0.12943640358E+04  0.12699999809E+01 0.  1.
       -4    1    3    3    0  502 -0.90514058656E+03  0.91855769735E+03 -0.40340762545E+03  0.13512094767E+04  0.12699999809E+01 0. -1.
</event>
<event>
 5   0  0.1003191E-06  0.3386644E+04  0.7818609E-02  0.8141192E-01
        1   -1    0    0  501    0  0.00000000000E+00  0.00000000000E+00  0.18793544562E+04  0.18793544562E+04  0.50400001928E-02 0.  1.
       -1   -1    0    0    0  501  0.00000000000E+00  0.00000000000E+00 -0.15257046898E+04  0.15257046898E+04  0.50400001928E-02 0. -1.
    10030    2    1    2    0    0  0.00000000000E+00  0.00000000000E+00  0.35364976647E+03  0.34050591460E+04  0.33866443023E+04 0.  0.
        5    1    3    3  502    0  0.15940049703E+04 -0.53103963943E+03 -0.35183893097E+02  0.16805103214E+04  0.46999998093E+01 0. -1.
       -5    1    3    3    0  502 -0.15940049703E+04  0.53103963943E+03  0.38883365957E+03  0.17245488247E+04  0.46999998093E+01 0.  1.
</event>
<event>
 5   0  0.2906701E-06  0.3379273E+04  0.7818609E-02  0.8143012E-01
        2   -1    0    0  501    0  0.00000000000E+00  0.00000000000E+00  0.19776166187E+04  0.19776166187E+04  0.25500000920E-02 0.  1.
       -2   -1    0    0    0  501  0.00000000000E+00  0.00000000000E+00 -0.14435917843E+04  0.14435917843E+04  0.25500000920E-02 0. -1.
    10030    2    1    2    0    0  0.00000000000E+00  0.00000000000E+00  0.53402483440E+03  0.34212084031E+04  0.33792727640E+04 0.  0.
        5    1    3    3  502    0 -0.74687319470E+03 -0.13214281090E+04 -0.48439555080E+03  0.15933150837E+04  0.46999998093E+01 0. -1.
       -5    1    3    3    0  502  0.74687319470E+03  0.13214281090E+04  0.10184203852E+04  0.18278933194E+04  0.46999998093E+01 0.  1.
</event>
<event>
 5   0  0.1003191E-06  0.3393612E+04  0.7818609E-02  0.8139476E-01
        1   -1    0    0  501    0  0.00000000000E+00  0.00000000000E+00  0.98788897621E+03  0.98788897622E+03  0.50400001928E-02 0.  1.
       -1   -1    0    0    0  501  0.00000000000E+00  0.00000000000E+00 -0.29144478069E+04  0.29144478069E+04  0.50400001928E-02 0. -1.
    10030    2    1    2    0    0  0.00000000000E+00  0.00000000000E+00 -0.19265588307E+04  0.39023367831E+04  0.33936121524E+04 0.  0.
        5    1    3    3  502    0 -0.32687870085E+03  0.16633112031E+04 -0.10499042997E+04  0.19939345456E+04  0.46999998093E+01 0.  1.
       -5    1    3    3    0  502  0.32687870085E+03 -0.16633112031E+04 -0.87665453102E+03  0.19084022376E+04  0.46999998093E+01 0. -1.
</event>
<event>
 5   0  0.9232963E-07  0.3390811E+04  0.7818609E-02  0.8140165E-01
       -1   -1    0    0    0  501  0.00000000000E+00  0.00000000000E+00  0.15530030589E+04  0.15530030589E+04  0.50400001928E-02 0. -1.
        1   -1    0    0  501    0  0.00000000000E+00  0.00000000000E+00 -0.18508660247E+04  0.18508660247E+04  0.50400001928E-02 0.  1.
    10030    2    1    2    0    0  0.00000000000E+00  0.00000000000E+00 -0.29786296587E+03  0.34038690836E+04  0.33908114651E+04 0.  0.
        3    1    3    3  502    0 -0.12270164910E+03  0.15082930644E+04  0.61847094066E+03  0.16347813240E+04  0.10100000352E+00 0. -1.
       -3    1    3    3    0  502  0.12270164910E+03 -0.15082930644E+04 -0.91633390653E+03  0.17690877596E+04  0.10100000352E+00 0.  1.
</event>
<event>
 5   0  0.2848685E-06  0.3399845E+04  0.7818609E-02  0.8137944E-01
        2   -1    0    0  501    0  0.00000000000E+00  0.00000000000E+00  0.15489278113E+04  0.15489278113E+04  0.25500000920E-02 0.  1.
       -2   -1    0    0    0  501  0.00000000000E+00  0.00000000000E+00 -0.18656364394E+04  0.18656364394E+04  0.25500000920E-02 0. -1.
    10030    2    1    2    0    0  0.00000000000E+00  0.00000000000E+00 -0.31670862810E+03  0.34145642508E+04  0.33998448005E+04 0.  0.
        3    1    3    3  502    0 -0.10514747536E+04  0.13097290366E+04  0.10497705569E+03  0.16828575398E+04  0.10100000352E+00 0. -1.
       -3    1    3    3    0  502  0.10514747536E+04 -0.13097290366E+04 -0.42168568379E+03  0.17317067110E+04  0.10100000352E+00 0.  1.
</event>
<event>
 5   0  0.1010855E-06  0.2636892E+04  0.7818609E-02  0.8355777E-01
        1   -1    0    0  501    0  0.00000000000E+00  0.00000000000E+00  0.15351086149E+04  0.15351086149E+04  0.50400001928E-02 0. -1.
       -1   -1    0    0    0  501  0.00000000000E+00  0.00000000000E+00 -0.11323630474E+04  0.11323630474E+04  0.50400001928E-02 0.  1.
    10030    2    1    2    0    0  0.00000000000E+00  0.00000000000E+00  0.40274556752E+03  0.26674716623E+04  0.26368923143E+04 0.  0.
        1    1    3    3  502    0  0.99275933344E+02 -0.12883320788E+04 -0.63667517136E+02  0.12937189838E+04  0.50400001928E-02 0.  1.
       -1    1    3    3    0  502 -0.99275933344E+02  0.12883320788E+04  0.46641308466E+03  0.13737526785E+04  0.50400001928E-02 0. -1.
</event>
<event>
 5   0  0.9714317E-07  0.3263151E+04  0.7818609E-02  0.8172335E-01
       -1   -1    0    0    0  501  0.00000000000E+00  0.00000000000E+00  0.97608558994E+03  0.97608558995E+03  0.50400001928E-02 0. -1.
        1   -1    0    0  501    0  0.00000000000E+00  0.00000000000E+00 -0.27272600751E+04  0.27272600751E+04  0.50400001928E-02 0.  1.
    10030    2    1    2    0    0  0.00000000000E+00  0.00000000000E+00 -0.17511744851E+04  0.37033456650E+04  0.32631513966E+04 0.  0.
        4    1    3    3  502    0  0.10609550572E+04  0.77255541261E+03 -0.19756605616E+04  0.23718566075E+04  0.12699999809E+01 0. -1.
       -4    1    3    3    0  502 -0.10609550572E+04 -0.77255541261E+03  0.22448607651E+03  0.13314890575E+04  0.12699999809E+01 0.  1.
</event>
<event>
 5   0  0.1003191E-06  0.3319856E+04  0.7818609E-02  0.8157861E-01
        1   -1    0    0  501    0  0.00000000000E+00  0.00000000000E+00  0.18853088287E+04  0.18853088287E+04  0.50400001928E-02 0.  1.
       -1   -1    0    0    0  501  0.00000000000E+00  0.00000000000E+00 -0.14614902595E+04  0.14614902595E+04  0.50400001928E-02 0. -1.
    10030    2    1    2    0    0  0.00000000000E+00  0.00000000000E+00  0.42381856920E+03  0.33467990883E+04  0.33198557134E+04 0.  0.
        5    1    3    3  502    0 -0.62895103288E+03 -0.15175596754E+04  0.45211100434E+03  0.17038172497E+04  0.46999998093E+01 0. -1.
       -5    1    3    3    0  502  0.62895103288E+03  0.15175596754E+04 -0.28292435138E+02  0.16429818386E+04  0.46999998093E+01 0.  1.
</event>
<event>
 5   0  0.1010855E-06  0.3322645E+04  0.7818609E-02  0.8157157E-01
        1   -1    0    0  501    0  0.00000000000E+00  0.00000000000E+00  0.14901948015E+04  0.14901948015E+04  0.50400001928E-02 0. -1.
       -1   -1    0    0    0  501  0.00000000000E+00  0.00000000000E+00 -0.18521021359E+04  0.18521021360E+04  0.50400001928E-02 0.  1.
    10030    2    1    2    0    0  0.00000000000E+00  0.00000000000E+00 -0.36190733447E+03  0.33422969374E+04  0.33226453165E+04 0.  0.
        1    1    3    3  502    0  0.33092846053E+02 -0.34232847597E+03 -0.18159001422E+04  0.18481821470E+04  0.50400001928E-02 0.  1.
       -1    1    3    3    0  502 -0.33092846053E+02  0.34232847597E+03  0.14539928078E+04  0.14941147904E+04  0.50400001928E-02 0. -1.
</event>
<event>
 5   0  0.1010855E-06  0.2910219E+04  0.7818609E-02  0.8269844E-01
        1   -1    0    0  501    0  0.00000000000E+00  0.00000000000E+00  0.14554178825E+04  0.14554178825E+04  0.50400001928E-02 0.  1.
       -1   -1    0    0    0  501  0.00000000000E+00  0.00000000000E+00 -0.14548006965E+04  0.14548006965E+04  0.50400001928E-02 0. -1.
    10030    2    1    2    0    0  0.00000000000E+00  0.00000000000E+00  0.61718595394E+00  0.29102185790E+04  0.29102185135E+04 0.  0.
        1    1    3    3  502    0 -0.64088435566E+03  0.70032062318E+03 -0.11024884288E+04  0.14548754133E+04  0.50400001928E-02 0. -1.
       -1    1    3    3    0  502  0.64088435566E+03 -0.70032062318E+03  0.11031056147E+04  0.14553431657E+04  0.50400001928E-02 0.  1.
</event>
<event>
 5   0  0.2856440E-06  0.3263094E+04  0.7818609E-02  0.8172350E-01
        2   -1    0    0  501    0  0.00000000000E+00  0.00000000000E+00  0.13891035215E+04  0.13891035215E+04  0.25500000920E-02 0. -1.
       -2   -1    0    0    0  501  0.00000000000E+00  0.00000000000E+00 -0.19163048668E+04  0.19163048668E+04  0.25500000920E-02 0.  1.
    10030    2    1    2    0    0  0.00000000000E+00  0.00000000000E+00 -0.52720134531E+03  0.33054083883E+04  0.32630941383E+04 0.  0.
        4    1    3    3  502    0  0.10724847074E+04  0.27204003664E+02  0.98155881833E+03  0.14541055093E+04  0.12699999809E+01 0. -1.
       -4    1    3    3    0  502 -0.10724847074E+04 -0.27204003664E+02 -0.15087601636E+04  0.18513028790E+04  0.12699999809E+01 0.  1.
</event>
<event>
 5   0  0.9714317E-07  0.3570566E+04  0.7818609E-02  0.8097267E-01
       -1   -1    0    0    0  501  0.00000000000E+00  0.00000000000E+00  0.26295849916E+04  0.26295849916E+04  0.50400001928E-02 0.  1.
        1   -1    0    0  501    0  0.00000000000E+00  0.00000000000E+00 -0.12120677959E+04  0.12120677959E+04  0.50400001928E-02 0. -1.
    10030    2    1    2    0    0  0.00000000000E+00  0.00000000000E+00  0.14175171957E+04  0.38416527875E+04  0.35705659411E+04 0.  0.
        4    1    3    3  502    0 -0.57653196477E+03 -0.94439844966E+03 -0.79866860968E+03  0.13646064265E+04  0.12699999809E+01 0. -1.
       -4    1    3    3    0  502  0.57653196477E+03  0.94439844966E+03  0.22161858053E+04  0.24770463611E+04  0.12699999809E+01 0.  1.
</event>
<event>
 5   0  0.1010855E-06  0.3492666E+04  0.7818609E-02  0.8115530E-01
        1   -1    0    0  501    0  0.00000000000E+00  0.00000000000E+00  0.13178798231E+04  0.13178798231E+04  0.50400001928E-02 0.  1.
       -1   -1    0    0    0  501  0.00000000000E+00  0.00000000000E+00 -0.23140796049E+04  0.23140796049E+04  0.50400001928E-02 0. -1.
    10030    2    1    2    0    0  0.00000000000E+00  0.00000000000E+00 -0.99619978173E+03  0.36319594280E+04  0.34926659276E+04 0.  0.
        1    1    3    3  502    0 -0.13427784527E+04 -0.11047993364E+04 -0.33028452358E+03  0.17699501161E+04  0.50400001928E-02 0. -1.
       -1    1    3    3    0  502  0.13427784527E+04  0.11047993364E+04 -0.66591525815E+03  0.18620093120E+04  0.50400001928E-02 0.  1.
</event>
<event>
 5   0  0.9232963E-07  0.3179595E+04  0.7818609E-02  0.8194227E-01
       -1   -1    0    0    0  501  0.00000000000E+00  0.00000000000E+00  0.11762256896E+04  0.11762256896E+04  0.50400001928E-02 0.  1.
        1   -1    0    0  501    0  0.00000000000E+00  0.00000000000E+00 -0.21487845111E+04  0.21487845111E+04  0.50400001928E-02 0. -1.
    10030    2    1    2    0    0  0.00000000000E+00  0.00000000000E+00 -0.97255882149E+03  0.33250102007E+04  0.31795946555E+04 0.  0.
        3    1    3    3  502    0 -0.13805578654E+04  0.24891211687E+03  0.29596754862E+03  0.14336994321E+04  0.10100000352E+00 0.  1.
       -3    1    3    3    0  502  0.13805578654E+04 -0.24891211687E+03 -0.12685263701E+04  0.18913107686E+04  0.10100000352E+00 0. -1.
</event>
<event>
 5   0  0.1003191E-06  0.3592813E+04  0.7818609E-02  0.8092140E-01
       -1   -1    0    0    0  501  0.00000000000E+00  0.00000000000E+00  0.15162054525E+04  0.15162054525E+04  0.50400001928E-02 0. -1.
        1   -1    0    0  501    0  0.00000000000E+00  0.00000000000E+00 -0.21283896156E+04  0.21283896156E+04  0.50400001928E-02 0.  1.
    10030    2    1    2    0    0  0.00000000000E+00  0.00000000000E+00 -0.61218416315E+03  0.36445950681E+04  0.35928127923E+04 0.  0.
        5    1    3    3  502    0 -0.50895062099E+03  0.39233645867E+02 -0.20532641895E+04  0.21157707663E+04  0.46999998093E+01 0.  1.
       -5    1    3    3    0  502  0.50895062099E+03 -0.39233645867E+02  0.14410800263E+04  0.15288243018E+04  0.46999998093E+01 0. -1.
</event>
<event>
 5   0  0.2856440E-06  0.3499380E+04  0.7818609E-02  0.8113937E-01
       -2   -1    0    0    0  501  0.00000000000E+00  0.00000000000E+00  0.17459490308E+04  0.17459490308E+04  0.25500000920E-02 0. -1.
        2   -1    0    0  501    0  0.00000000000E+00  0.00000000000E+00 -0.17534393532E+04  0.17534393532E+04  0.25500000920E-02 0.  1.
    10030    2    1    2    0    0  0.00000000000E+00  0.00000000000E+00 -0.74903224289E+01  0.34993883840E+04  0.34993803676E+04 0.  0.
        4    1    3    3  502    0  0.58476326287E+03  0.14568111964E+04 -0.77651286675E+03  0.17513482751E+04  0.12699999809E+01 0.  1.
       -4    1    3    3    0  502 -0.58476326287E+03 -0.14568111964E+04  0.76902254432E+03  0.17480401089E+04  0.12699999809E+01 0. -1.
</event>
<event>
 5   0  0.1010551E-06  0.3333080E+04  0.7818609E-02  0.8154529E-01
        1   -1    0    0  501    0  0.00000000000E+00  0.00000000000E+00  0.16720803656E+04  0.16720803656E+04  0.50400001928E-02 0. -1.
       -1   -1    0    0    0  501  0.00000000000E+00  0.00000000000E+00 -0.16610179864E+04  0.16610179864E+04  0.50400001928E-02 0.  1.
    10030    2    1    2    0    0  0.00000000000E+00  0.00000000000E+00  0.11062379224E+02  0.33330983520E+04  0.33330799942E+04 0.  0.
        2    1    3    3  502    0  0.11210598012E+04  0.10999995678E+04 -0.55177021554E+03  0.16646995218E+04  0.25500000920E-02 0.  1.
       -2    1    3    3    0  502 -0.11210598012E+04 -0.10999995678E+04  0.56283259476E+03  0.16683988302E+04  0.25500000920E-02 0. -1.
</event>
<event>
 5   0  0.9714317E-07  0.3394986E+04  0.7818609E-02  0.8139138E-01
       -1   -1    0    0    0  501  0.00000000000E+00  0.00000000000E+00  0.11521709336E+04  0.11521709336E+04  0.50400001928E-02 0. -1.
        1   -1    0    0  501    0  0.00000000000E+00  0.00000000000E+00 -0.25009157158E+04  0.25009157158E+04  0.50400001928E-02 0.  1.
    10030    2    1    2    0    0  0.00000000000E+00  0.00000000000E+00 -0.13487447822E+04  0.36530866494E+04  0.33949859470E+04 0.  0.
        4    1    3    3  502    0 -0.61805620275E+03 -0.73848329053E+03 -0.21785485126E+04  0.23818955214E+04  0.12699999809E+01 0.  1.
       -4    1    3    3    0  502  0.61805620275E+03  0.73848329053E+03  0.82980373037E+03  0.12711911280E+04  0.12699999809E+01 0. -1.
</event>
<event>
 5   0  0.2856440E-06  0.3359369E+04  0.7818609E-02  0.8147951E-01
        2   -1    0    0  501    0  0.00000000000E+00  0.00000000000E+00  0.19354589616E+04  0.19354589616E+04  0.25500000920E-02 0. -1.
       -2   -1    0    0    0  501  0.00000000000E+00  0.00000000000E+00 -0.14577111502E+04  0.14577111502E+04  0.25500000920E-02 0.  1.
    10030    2    1    2    0    0  0.00000000000E+00  0.00000000000E+00  0.47774781139E+03  0.33931701118E+04  0.33593690533E+04 0.  0.
        4    1    3    3  502    0  0.38901647972E+03 -0.81942381576E+03  0.16667987407E+04  0.18976324371E+04  0.12699999809E+01 0. -1.
       -4    1    3    3    0  502 -0.38901647972E+03  0.81942381576E+03 -0.11890509293E+04  0.14955376748E+04  0.12699999809E+01 0.  1.
</event>
<event>
 5   0  0.2906701E-06  0.3442830E+04  0.7818609E-02  0.8127474E-01
       -2   -1    0    0    0  501  0.00000000000E+00  0.00000000000E+00  0.10749164402E+04  0.10749164402E+04  0.25500000920E-02 0. -1.
        2   -1    0    0  501    0  0.00000000000E+00  0.00000000000E+00 -0.27567445191E+04  0.27567445191E+04  0.25500000920E-02 0.  1.
    10030    2    1    2    0    0  0.00000000000E+00  0.00000000000E+00 -0.16818280789E+04  0.38316609593E+04  0.34428302340E+04 0.  0.
        5    1    3    3  502    0  0.44422991131E+03  0.59204301393E+03  0.88876430017E+03  0.11566240598E+04  0.46999998093E+01 0. -1.
       -5    1    3    3    0  502 -0.44422991131E+03 -0.59204301393E+03 -0.25705923790E+04  0.26750368995E+04  0.46999998093E+01 0.  1.
</event>
<event>
 5   0  0.9714317E-07  0.3260593E+04  0.7818609E-02  0.8172995E-01
        1   -1    0    0  501    0  0.00000000000E+00  0.00000000000E+00  0.20466152902E+04  0.20466152903E+04  0.50400001928E-02 0.  1.
       -1   -1    0    0    0  501  0.00000000000E+00  0.00000000000E+00 -0.12986646145E+04  0.12986646145E+04  0.50400001928E-02 0. -1.
    10030    2    1    2    0    0  0.00000000000E+00  0.00000000000E+00  0.74795067579E+03  0.33452799047E+04  0.32605931098E+04 0.  0.
        4    1    3    3  502    0  0.62508769512E+03 -0.15056045436E+04  0.39131323231E+03  0.16765164261E+04  0.12699999809E+01 0.  1.
       -4    1    3    3    0  502 -0.62508769512E+03  0.15056045436E+04  0.35663744348E+03  0.16687634786E+04  0.12699999809E+01 0. -1.
</event>
<event>
 5   0  0.2856440E-06  0.3380160E+04  0.7818609E-02  0.8142793E-01
       -2   -1    0    0    0  501  0.00000000000E+00  0.00000000000E+00  0.21170097166E+04  0.21170097166E+04  0.25500000920E-02 0. -1.
        2   -1    0    0  501    0  0.00000000000E+00  0.00000000000E+00 -0.13492478738E+04  0.13492478738E+04  0.25500000920E-02 0.  1.
    10030    2    1    2    0    0  0.00000000000E+00  0.00000000000E+00  0.76776184279E+03  0.34662575904E+04  0.33801602678E+04 0.  0.
        4    1    3    3  502    0 -0.54816269062E+03  0.15972139284E+04  0.45488752264E+03  0.17488564662E+04  0.12699999809E+01 0. -1.
       -4    1    3    3    0  502  0.54816269062E+03 -0.15972139284E+04  0.31287432014E+03  0.17174011242E+04  0.12699999809E+01 0.  1.
</event>
<event>
 5   0  0.2848685E-06  0.3414935E+04  0.7818609E-02  0.8134251E-01
       -2   -1    0    0    0  501  0.00000000000E+00  0.00000000000E+00  0.15673722302E+04  0.15673722302E+04  0.25500000920E-02 0. -1.
        2   -1    0    0  501    0  0.00000000000E+00  0.00000000000E+00 -0.18600845424E+04  0.18600845424E+04  0.25500000920E-02 0.  1.
    10030    2    1    2    0    0  0.00000000000E+00  0.00000000000E+00 -0.29271231222E+03  0.34274567726E+04  0.34149347623E+04 0.  0.
        3    1    3    3  502    0  0.17009951510E+04  0.12041046175E+03 -0.23363284717E+03  0.17211820068E+04  0.10100000352E+00 0.  1.
       -3    1    3    3    0  502 -0.17009951510E+04 -0.12041046175E+03 -0.59079465042E+02  0.17062747658E+04  0.10100000352E+00 0. -1.
</event>
<event>
 5   0  0.1003191E-06  0.3248433E+04  0.7818609E-02  0.8176142E-01
        1   -1    0    0  501    0  0.00000000000E+00  0.00000000000E+00  0.19362856787E+04  0.19362856787E+04  0.50400001928E-02 0.  1.
       -1   -1    0    0    0  501  0.00000000000E+00  0.00000000000E+00 -0.13624435670E+04  0.13624435670E+04  0.50400001928E-02 0. -1.
    10030    2    1    2    0    0  0.00000000000E+00  0.00000000000E+00  0.57384211167E+03  0.32987292457E+04  0.32484334482E+04 0.  0.
        5    1    3    3  502    0  0.87020021619E+03  0.23178943524E+03  0.16595458822E+04  0.18881444287E+04  0.46999998093E+01 0.  1.
       -5    1    3    3    0  502 -0.87020021619E+03 -0.23178943524E+03 -0.10857037705E+04  0.14105848170E+04  0.46999998093E+01 0. -1.
</event>
<event>
 5   0  0.2664083E-06  0.3412978E+04  0.7818609E-02  0.8134729E-01
        2   -1    0    0  501    0  0.00000000000E+00  0.00000000000E+00  0.22608312516E+04  0.22608312516E+04  0.25500000920E-02 0.  1.
       -2   -1    0    0    0  501  0.00000000000E+00  0.00000000000E+00 -0.12880678446E+04  0.12880678446E+04  0.25500000920E-02 0. -1.
    10030    2    1    2    0    0  0.00000000000E+00  0.00000000000E+00  0.97276340707E+03  0.35488990962E+04  0.34129776075E+04 0.  0.
        2    1    3    3  502    0  0.52168859266E+03  0.14003378032E+04 -0.37044857978E+03  0.15395899133E+04  0.25500000920E-02 0. -1.
       -2    1    3    3    0  502 -0.52168859266E+03 -0.14003378032E+04  0.13432119869E+04  0.20093091829E+04  0.25500000920E-02 0.  1.
</event>
<event>
 5   0  0.9070500E-07  0.2345990E+04  0.7818609E-02  0.8460006E-01
        3   -1    0    0  501    0  0.00000000000E+00  0.00000000000E+00  0.24704690565E+04  0.24704690586E+04  0.10100000352E+00 0. -1.
       -3   -1    0    0    0  501  0.00000000000E+00  0.00000000000E+00 -0.55694571651E+03  0.55694572566E+03  0.10100000352E+00 0.  1.
    10030    2    1    2    0    0  0.00000000000E+00  0.00000000000E+00  0.19135233400E+04  0.30274147843E+04  0.23459899197E+04 0.  0.
        3    1    3    3  502    0  0.58121685982E+03 -0.86818595965E+03  0.16449034895E+04  0.19486578455E+04  0.10100000352E+00 0. -1.
       -3    1    3    3    0  502 -0.58121685982E+03  0.86818595965E+03  0.26861985048E+03  0.10787569388E+04  0.10100000352E+00 0.  1.
</event>
<event>
 5   0  0.2664083E-06  0.3295811E+04  0.7818609E-02  0.8163962E-01
       -2   -1    0    0    0  501  0.00000000000E+00  0.00000000000E+00  0.13541208953E+04  0.13541208953E+04  0.25500000920E-02 0.  1.
        2   -1    0    0  501    0  0.00000000000E+00  0.00000000000E+00 -0.20054281339E+04  0.20054281339E+04  0.25500000920E-02 0. -1.
    10030    2    1    2    0    0  0.00000000000E+00  0.00000000000E+00 -0.65130723868E+03  0.33595490292E+04  0.32958107592E+04 0.  0.
        2    1    3    3  502    0  0.10780261882E+04  0.73433897988E+03 -0.13522035512E+04  0.18787891430E+04  0.25500000920E-02 0. -1.
       -2    1    3    3    0  502 -0.10780261882E+04 -0.73433897988E+03  0.70089631255E+03  0.14807598862E+04  0.25500000920E-02 0.  1.
</event>
<event>
 5   0  0.9232963E-07  0.3369055E+04  0.7818609E-02  0.8145543E-01
       -1   -1    0    0    0  501  0.00000000000E+00  0.00000000000E+00  0.17558147467E+04  0.17558147467E+04  0.50400001928E-02 0.  1.
        1   -1    0    0  501    0  0.00000000000E+00  0.00000000000E+00 -0.16161340875E+04  0.16161340875E+04  0.50400001928E-02 0. -1.
    10030    2    1    2    0    0  0.00000000000E+00  0.00000000000E+00  0.13968065926E+03  0.33719488342E+04  0.33690545044E+04 0.  0.
        3    1    3    3  502    0  0.12021167055E+04 -0.97794585561E+03 -0.59115825184E+03  0.16585930059E+04  0.10100000352E+00 0. -1.
       -3    1    3    3    0  502 -0.12021167055E+04  0.97794585561E+03  0.73083891110E+03  0.17133558283E+04  0.10100000352E+00 0.  1.
</event>
<event>
 5   0  0.2848685E-06  0.3480958E+04  0.7818609E-02  0.8118317E-01
        2   -1    0    0  501    0  0.00000000000E+00  0.00000000000E+00  0.21873081019E+04  0.21873081019E+04  0.25500000920E-02 0.  1.
       -2   -1    0    0    0  501  0.00000000000E+00  0.00000000000E+00 -0.13849295298E+04  0.13849295298E+04  0.25500000920E-02 0. -1.
    10030    2    1    2    0    0  0.00000000000E+00  0.00000000000E+00  0.80237857208E+03  0.35722376317E+04  0.34809582480E+04 0.  0.
        3    1    3    3  502    0 -0.13415827541E+04  0.55057315972E+03 -0.58648920540E+03  0.15642712964E+04  0.10100000352E+00 0. -1.
       -3    1    3    3    0  502  0.13415827541E+04 -0.55057315972E+03  0.13888677775E+04  0.20079663354E+04  0.10100000352E+00 0.  1.
</event>
<event>
 5   0  0.9714317E-07  0.3276477E+04  0.7818609E-02  0.8168907E-01
       -1   -1    0    0    0  501  0.00000000000E+00  0.00000000000E+00  0.29737358459E+04  0.29737358459E+04  0.50400001928E-02 0. -1.
        1   -1    0    0  501    0  0.00000000000E+00  0.00000000000E+00 -0.90250961963E+03  0.90250961965E+03  0.50400001928E-02 0.  1.
    10030    2    1    2    0    0  0.00000000000E+00  0.00000000000E+00  0.20712262263E+04  0.38762454656E+04  0.32764768928E+04 0.  0.
        4    1    3    3  502    0 -0.15954278708E+04 -0.13132371611E+03  0.14474575719E+04  0.21581869809E+04  0.12699999809E+01 0. -1.
       -4    1    3    3    0  502  0.15954278708E+04  0.13132371611E+03  0.62376865441E+03  0.17180584846E+04  0.12699999809E+01 0.  1.
</event>
<event>
 5   0  0.9232963E-07  0.3394738E+04  0.7818609E-02  0.8139199E-01
       -1   -1    0    0    0  501  0.00000000000E+00  0.00000000000E+00  0.14711522881E+04  0.14711522881E+04  0.50400001928E-02 0.  1.
        1   -1    0    0  501    0  0.00000000000E+00  0.00000000000E+00 -0.19583707047E+04  0.19583707047E+04  0.50400001928E-02 0. -1.
    10030    2    1    2    0    0  0.00000000000E+00  0.00000000000E+00 -0.48721841663E+03  0.34295229928E+04  0.33947380124E+04 0.  0.
        3    1    3    3  502    0  0.12189380107E+04 -0.10360018739E+04 -0.81683123237E+03  0.17961968236E+04  0.10100000352E+00 0. -1.
       -3    1    3    3    0  502 -0.12189380107E+04  0.10360018739E+04  0.32961281574E+03  0.16333261692E+04  0.10100000352E+00 0.  1.
</event>
<event>
 5   0  0.2664083E-06  0.2255079E+04  0.7818609E-02  0.8495847E-01
        2   -1    0    0  501    0  0.00000000000E+00  0.00000000000E+00  0.18822601156E+04  0.18822601156E+04  0.25500000920E-02 0. -1.
       -2   -1    0    0    0  501  0.00000000000E+00  0.00000000000E+00 -0.67543539913E+03  0.67543539913E+03  0.25500000920E-02 0.  1.
    10030    2    1    2    0    0  0.00000000000E+00  0.00000000000E+00  0.12068247165E+04  0.25576955147E+04  0.22550788123E+04 0.  0.
        2    1    3    3  502    0  0.69049450489E+02  0.76128689965E+02 -0.67011144593E+03  0.67794745668E+03  0.25500000920E-02 0.  1.
       -2    1    3    3    0  502 -0.69049450489E+02 -0.76128689965E+02  0.18769361624E+04  0.18797480581E+04  0.25500000920E-02 0. -1.
</event>
<event>
 5   0  0.1003191E-06  0.3178934E+04  0.7818609E-02  0.8194403E-01
       -1   -1    0    0    0  501  0.00000000000E+00  0.00000000000E+00  0.13732171839E+04  0.13732171839E+04  0.50400001928E-02 0.  1.
        1   -1    0    0  501    0  0.00000000000E+00  0.00000000000E+00 -0.18397712543E+04  0.18397712543E+04  0.50400001928E-02 0. -1.
    10030    2    1    2    0    0  0.00000000000E+00  0.00000000000E+00 -0.46655407040E+03  0.32129884382E+04  0.31789340986E+04 0.  0.
        5    1    3    3  502    0  0.13048029998E+04  0.65179926855E+03 -0.87173241588E+03  0.16992035339E+04  0.46999998093E+01 0. -1.
       -5    1    3    3    0  502 -0.13048029998E+04 -0.65179926855E+03  0.40517834549E+03  0.15137849043E+04  0.46999998093E+01 0.  1.
</event>
<event>
 5   0  0.2856440E-06  0.3427925E+04  0.7818609E-02  0.8131087E-01
        2   -1    0    0  501    0  0.00000000000E+00  0.00000000000E+00  0.24704096006E+04  0.24704096006E+04  0.25500000920E-02 0. -1.
       -2   -1    0    0    0  501  0.00000000000E+00  0.00000000000E+00 -0.11891415396E+04  0.11891415396E+04  0.25500000920E-02 0.  1.
    10030    2    1    2    0    0  0.00000000000E+00  0.00000000000E+00  0.12812680609E+04  0.36595511402E+04  0.34279245476E+04 0.  0.
        4    1    3    3  502    0 -0.68381592932E+03 -0.12552768810E+04  0.16502311109E+04  0.21832518419E+04  0.12699999809E+01 0. -1.
       -4    1    3    3    0  502  0.68381592932E+03  0.12552768810E+04 -0.36896304992E+03  0.14762992983E+04  0.12699999809E+01 0.  1.
</event>
<event>
 5   0  0.2848685E-06  0.2418999E+04  0.7818609E-02  0.8432425E-01
       -2   -1    0    0    0  501  0.00000000000E+00  0.00000000000E+00  0.41975000830E+03  0.41975000831E+03  0.25500000920E-02 0.  1.
        2   -1    0    0  501    0  0.00000000000E+00  0.00000000000E+00 -0.34851426415E+04  0.34851426415E+04  0.25500000920E-02 0. -1.
    10030    2    1    2    0    0  0.00000000000E+00  0.00000000000E+00 -0.30653926332E+04  0.39048926499E+04  0.24189986794E+04 0.  0.
        3    1    3    3  502    0 -0.15000344400E+03  0.11036358164E+04 -0.77146433080E+03  0.13548690979E+04  0.10100000352E+00 0.  1.
       -3    1    3    3    0  502  0.15000344400E+03 -0.11036358164E+04 -0.22939283024E+04  0.25500235519E+04  0.10100000352E+00 0. -1.
</event>
<event>
 5   0  0.2906701E-06  0.3514641E+04  0.7818609E-02  0.8110329E-01
       -2   -1    0    0    0  501  0.00000000000E+00  0.00000000000E+00  0.25132650890E+04  0.25132650890E+04  0.25500000920E-02 0.  1.
        2   -1    0    0  501    0  0.00000000000E+00  0.00000000000E+00 -0.12287506137E+04  0.12287506137E+04  0.25500000920E-02 0. -1.
    10030    2    1    2    0    0  0.00000000000E+00  0.00000000000E+00  0.12845144753E+04  0.37420157026E+04  0.35146413873E+04 0.  0.
        5    1    3    3  502    0 -0.29864347133E+03 -0.16830468335E+04  0.20805106373E+03  0.17219587398E+04  0.46999998093E+01 0.  1.
       -5    1    3    3    0  502  0.29864347133E+03  0.16830468335E+04  0.10764634115E+04  0.20200569628E+04  0.46999998093E+01 0. -1.
</event>
<event>
 5   0  0.9714317E-07  0.3600766E+04  0.7818609E-02  0.8090316E-01
        1   -1    0    0  501    0  0.00000000000E+00  0.00000000000E+00  0.19489261078E+04  0.19489261078E+04  0.50400001928E-02 0. -1.
       -1   -1    0    0    0  501  0.00000000000E+00  0.00000000000E+00 -0.16631612828E+04  0.16631612828E+04  0.50400001928E-02 0.  1.
    10030    2    1    2    0    0  0.00000000000E+00  0.00000000000E+00  0.28576482504E+03  0.36120873906E+04  0.36007657216E+04 0.  0.
        4    1    3    3  502    0  0.13786122973E+04  0.62185426633E+03 -0.83697039357E+03  0.17285241241E+04  0.12699999809E+01 0.  1.
       -4    1    3    3    0  502 -0.13786122973E+04 -0.62185426633E+03  0.11227352186E+04  0.18835632665E+04  0.12699999809E+01 0. -1.
</event>
<event>
 5   0  0.9232963E-07  0.3458610E+04  0.7818609E-02  0.8123669E-01
        1   -1    0    0  501    0  0.00000000000E+00  0.00000000000E+00  0.27423117612E+04  0.27423117612E+04  0.50400001928E-02 0.  1.
       -1   -1    0    0    0  501  0.00000000000E+00  0.00000000000E+00 -0.10905019946E+04  0.10905019946E+04  0.50400001928E-02 0. -1.
    10030    2    1    2    0    0  0.00000000000E+00  0.00000000000E+00  0.16518097665E+04  0.38328137558E+04  0.34586103831E+04 0.  0.
        3    1    3    3  502    0  0.10173739902E+04 -0.13446304437E+04  0.40041645581E+03  0.17330361261E+04  0.10100000352E+00 0. -1.
       -3    1    3    3    0  502 -0.10173739902E+04  0.13446304437E+04  0.12513933107E+04  0.20997776297E+04  0.10100000352E+00 0.  1.
</event>
<event>
 5   0  0.1003191E-06  0.3314334E+04  0.7818609E-02  0.8159258E-01
       -1   -1    0    0    0  501  0.00000000000E+00  0.00000000000E+00  0.17425511050E+04  0.17425511050E+04  0.50400001928E-02 0. -1.
        1   -1    0    0  501    0  0.00000000000E+00  0.00000000000E+00 -0.15759671059E+04  0.15759671059E+04  0.50400001928E-02 0.  1.
    10030    2    1    2    0    0  0.00000000000E+00  0.00000000000E+00  0.16658399914E+03  0.33185182109E+04  0.33143344561E+04 0.  0.
        5    1    3    3  502    0 -0.11505039356E+03 -0.16529330479E+04  0.55745857665E+02  0.16578763357E+04  0.46999998093E+01 0.  1.
       -5    1    3    3    0  502  0.11505039356E+03  0.16529330479E+04  0.11083814148E+03  0.16606418751E+04  0.46999998093E+01 0. -1.
</event>
<event>
 5   0  0.2664083E-06  0.2744177E+04  0.7818609E-02  0.8320812E-01
        2   -1    0    0  501    0  0.00000000000E+00  0.00000000000E+00  0.90143830514E+03  0.90143830514E+03  0.25500000920E-02 0. -1.
       -2   -1    0    0    0  501  0.00000000000E+00  0.00000000000E+00 -0.20884699145E+04  0.20884699145E+04  0.25500000920E-02 0.  1.
    10030    2    1    2    0    0  0.00000000000E+00  0.00000000000E+00 -0.11870316093E+04  0.29899082196E+04  0.27441769477E+04 0.  0.
        2    1    3    3  502    0  0.56608117346E+03  0.10038659384E+04 -0.14047942064E+04  0.18170419587E+04  0.25500000920E-02 0.  1.
       -2    1    3    3    0  502 -0.56608117346E+03 -0.10038659384E+04  0.21776259710E+03  0.11728662609E+04  0.25500000920E-02 0. -1.
</event>
<event>
 5   0  0.2767014E-06  0.3371690E+04  0.7818609E-02  0.8144890E-01
        2   -1    0    0  501    0  0.00000000000E+00  0.00000000000E+00  0.10037838374E+04  0.10037838374E+04  0.25500000920E-02 0. -1.
       -2   -1    0    0    0  501  0.00000000000E+00  0.00000000000E+00 -0.28313604319E+04  0.28313604319E+04  0.25500000920E-02 0.  1.
    10030    2    1    2    0    0  0.00000000000E+00  0.00000000000E+00 -0.18275765946E+04  0.38351442693E+04  0.33716902819E+04 0.  0.
        1    1    3    3  502    0  0.77025332872E+03 -0.10203083458E+04  0.33625014440E+03  0.13218863304E+04  0.50400001928E-02 0.  1.
       -1    1    3    3    0  502 -0.77025332872E+03  0.10203083458E+04 -0.21638267390E+04  0.25132579389E+04  0.50400001928E-02 0. -1.
</event>
<event>
 5   0  0.2906701E-06  0.3378851E+04  0.7818609E-02  0.8143117E-01
       -2   -1    0    0    0  501  0.00000000000E+00  0.00000000000E+00  0.15556354703E+04  0.15556354703E+04  0.25500000920E-02 0.  1.
        2   -1    0    0  501    0  0.00000000000E+00  0.00000000000E+00 -0.18347220324E+04  0.18347220324E+04  0.25500000920E-02 0. -1.
    10030    2    1    2    0    0  0.00000000000E+00  0.00000000000E+00 -0.27908656215E+03  0.33903575027E+04  0.33788510898E+04 0.  0.
        5    1    3    3  502    0 -0.85598442812E+03 -0.55521122940E+03  0.12115814208E+04  0.15839572215E+04  0.46999998093E+01 0.  1.
       -5    1    3    3    0  502  0.85598442812E+03  0.55521122940E+03 -0.14906679829E+04  0.18064002812E+04  0.46999998093E+01 0. -1.
</event>
<event>
 5   0  0.2856440E-06  0.3223933E+04  0.7818609E-02  0.8182525E-01
        2   -1    0    0  501    0  0.00000000000E+00  0.00000000000E+00  0.20248390377E+04  0.20248390377E+04  0.25500000920E-02 0.  1.
       -2   -1    0    0    0  501  0.00000000000E+00  0.00000000000E+00 -0.12832803253E+04  0.12832803253E+04  0.25500000920E-02 0. -1.
    10030    2    1    2    0    0  0.00000000000E+00  0.00000000000E+00  0.74155871246E+03  0.33081193630E+04  0.32239330632E+04 0.  0.
        4    1    3    3  502    0  0.35909781721E+03 -0.74185597533E+03 -0.10507233366E+04  0.13354110504E+04  0.12699999809E+01 0. -1.
       -4    1    3    3    0  502 -0.35909781721E+03  0.74185597533E+03  0.17922820491E+04  0.19727083126E+04  0.12699999809E+01 0.  1.
</event>
<event>
 5   0  0.2664083E-06  0.3255268E+04  0.7818609E-02  0.8174372E-01
        2   -1    0    0  501    0  0.00000000000E+00  0.00000000000E+00  0.20663579444E+04  0.20663579444E+04  0.25500000920E-02 0.  1.
       -2   -1    0    0    0  501  0.00000000000E+00  0.00000000000E+00 -0.12820588686E+04  0.12820588686E+04  0.25500000920E-02 0. -1.
    10030    2    1    2    0    0  0.00000000000E+00  0.00000000000E+00  0.78429907580E+03  0.33484168130E+04  0.32552680555E+04 0.  0.
        2    1    3    3  502    0 -0.40584841614E+03 -0.15733785717E+04  0.29478659008E+03  0.16514031005E+04  0.25500000920E-02 0. -1.
       -2    1    3    3    0  502  0.40584841614E+03  0.15733785717E+04  0.48951248572E+03  0.16970137125E+04  0.25500000920E-02 0.  1.
</event>
<event>
 5   0  0.2906701E-06  0.3417785E+04  0.7818609E-02  0.8133555E-01
        2   -1    0    0  501    0  0.00000000000E+00  0.00000000000E+00  0.23568095749E+04  0.23568095749E+04  0.25500000920E-02 0. -1.
       -2   -1    0    0    0  501  0.00000000000E+00  0.00000000000E+00 -0.12390958621E+04  0.12390958621E+04  0.25500000920E-02 0.  1.
    10030    2    1    2    0    0  0.00000000000E+00  0.00000000000E+00  0.11177137128E+04  0.35959054370E+04  0.34177846580E+04 0.  0.
        5    1    3    3  502    0 -0.12466116709E+04  0.16990258179E+03 -0.65786559969E+03  0.14197594101E+04  0.46999998093E+01 0.  1.
       -5    1    3    3    0  502  0.12466116709E+04 -0.16990258179E+03  0.17755793125E+04  0.21761460269E+04  0.46999998093E+01 0. -1.
</event>
<event>
 5   0  0.2906701E-06  0.3374967E+04  0.7818609E-02  0.8144078E-01
        2   -1    0    0  501    0  0.00000000000E+00  0.00000000000E+00  0.22374323958E+04  0.22374323958E+04  0.25500000920E-02 0. -1.
       -2   -1    0    0    0  501  0.00000000000E+00  0.00000000000E+00 -0.12727088884E+04  0.12727088884E+04  0.25500000920E-02 0.  1.
    10030    2    1    2    0    0  0.00000000000E+00  0.00000000000E+00  0.96472350741E+03  0.35101412842E+04  0.33749667242E+04 0.  0.
        5    1    3    3  502    0  0.75501830751E+03 -0.56959579553E+03  0.19358642591E+04  0.21545497290E+04  0.46999998093E+01 0. -1.
       -5    1    3    3    0  502 -0.75501830751E+03  0.56959579553E+03 -0.97114075172E+03  0.13555915552E+04  0.46999998093E+01 0.  1.
</event>
<event>
 5   0  0.1010551E-06  0.3412721E+04  0.7818609E-02  0.8134791E-01
        1   -1    0    0  501    0  0.00000000000E+00  0.00000000000E+00  0.11764829055E+04  0.11764829055E+04  0.50400001928E-02 0.  1.
       -1   -1    0    0    0  501  0.00000000000E+00  0.00000000000E+00 -0.24748909039E+04  0.24748909039E+04  0.50400001928E-02 0. -1.
    10030    2    1    2    0    0  0.00000000000E+00  0.00000000000E+00 -0.12984079984E+04  0.36513738095E+04  0.34127214018E+04 0.  0.
        2    1    3    3  502    0  0.40362672087E+03 -0.65596722904E+03  0.97992396657E+03  0.12463781592E+04  0.25500000920E-02 0.  1.
       -2    1    3    3    0  502 -0.40362672087E+03  0.65596722904E+03 -0.22783319650E+04  0.24049956503E+04  0.25500000920E-02 0. -1.
</event>
<event>
 5   0  0.1010551E-06  0.3421255E+04  0.7818609E-02  0.8132709E-01
        1   -1    0    0  501    0  0.00000000000E+00  0.00000000000E+00  0.12963284694E+04  0.12963284694E+04  0.50400001928E-02 0.  1.
       -1   -1    0    0    0  501  0.00000000000E+00  0.00000000000E+00 -0.22573338989E+04  0.22573338989E+04  0.50400001928E-02 0. -1.
    10030    2    1    2    0    0  0.00000000000E+00  0.00000000000E+00 -0.96100542954E+03  0.35536623683E+04  0.34212548564E+04 0.  0.
        2    1    3    3  502    0 -0.51775081761E+03 -0.15917023154E+04 -0.11376015296E+03  0.16776541784E+04  0.25500000920E-02 0.  1.
       -2    1    3    3    0  502  0.51775081761E+03  0.15917023154E+04 -0.84724527659E+03  0.18760081899E+04  0.25500000920E-02 0. -1.
</event>
<event>
 5   0  0.1010551E-06  0.3336715E+04  0.7818609E-02  0.8153616E-01
       -1   -1    0    0    0  501  0.00000000000E+00  0.00000000000E+00  0.15997133071E+04  0.15997133071E+04  0.50400001928E-02 0.  1.
        1   -1    0    0  501    0  0.00000000000E+00  0.00000000000E+00 -0.17399467333E+04  0.17399467333E+04  0.50400001928E-02 0. -1.
    10030    2    1    2    0    0  0.00000000000E+00  0.00000000000E+00 -0.14023342625E+03  0.33396600404E+04  0.33367145176E+04 0.  0.
        2    1    3    3  502    0 -0.12145740832E+04  0.21822390343E+03  0.10536406784E+04  0.16226430768E+04  0.25500000920E-02 0.  1.
       -2    1    3    3    0  502  0.12145740832E+04 -0.21822390343E+03 -0.11938741046E+04  0.17170169636E+04  0.25500000920E-02 0. -1.
</event>
<event>
 5   0  0.1003191E-06  0.3354601E+04  0.7818609E-02  0.8149140E-01
        1   -1    0    0  501    0  0.00000000000E+00  0.00000000000E+00  0.26094947143E+04  0.26094947143E+04  0.50400001928E-02 0. -1.
       -1   -1    0    0    0  501  0.00000000000E+00  0.00000000000E+00 -0.10781153511E+04  0.10781153511E+04  0.50400001928E-02 0.  1.
    10030    2    1    2    0    0  0.00000000000E+00  0.00000000000E+00  0.15313793632E+04  0.36876100655E+04  0.33546006083E+04 0.  0.
        5    1    3    3  502    0 -0.65839665784E+03 -0.10829057897E+04 -0.44207840708E+03  0.13422468165E+04  0.46999998093E+01 0.  1.
       -5    1    3    3    0  502  0.65839665784E+03  0.10829057897E+04  0.19734577703E+04  0.23453632490E+04  0.46999998093E+01 0. -1.
</event>
<event>
 5   0  0.2848685E-06  0.2103941E+04  0.7818609E-02  0.8559509E-01
        2   -1    0    0  501    0  0.00000000000E+00  0.00000000000E+00  0.11661591128E+04  0.11661591128E+04  0.25500000920E-02 0.  1.
       -2   -1    0    0    0  501  0.00000000000E+00  0.00000000000E+00 -0.94896292243E+03  0.94896292244E+03  0.25500000920E-02 0. -1.
    10030    2    1    2    0    0  0.00000000000E+00  0.00000000000E+00  0.21719619033E+03  0.21151220352E+04  0.21039408354E+04 0.  0.
        3    1    3    3  502    0 -0.69669642572E+03 -0.75522849061E+03 -0.11817945979E+03  0.10342738407E+04  0.10100000352E+00 0.  1.
       -3    1    3    3    0  502  0.69669642572E+03  0.75522849061E+03  0.33537565011E+03  0.10808481945E+04  0.10100000352E+00 0. -1.
</event>
<event>
 5   0  0.9232963E-07  0.3382198E+04  0.7818609E-02  0.8142289E-01
        1   -1    0    0  501    0  0.00000000000E+00  0.00000000000E+00  0.15502247729E+04  0.15502247729E+04  0.50400001928E-02 0.  1.
       -1   -1    0    0    0  501  0.00000000000E+00  0.00000000000E+00 -0.18447749543E+04  0.18447749543E+04  0.50400001928E-02 0. -1.
    10030    2    1    2    0    0  0.00000000000E+00  0.00000000000E+00 -0.29455018137E+03  0.33949997272E+04  0.33821980041E+04 0.  0.
        3    1    3    3  502    0 -0.77210744192E+03 -0.16067370076E+03  0.13543315841E+04  0.15672204663E+04  0.10100000352E+00 0.  1.
       -3    1    3    3    0  502  0.77210744192E+03  0.16067370076E+03 -0.16488817655E+04  0.18277792610E+04  0.10100000352E+00 0. -1.
</event>
<event>
 5   0  0.1010551E-06  0.3396010E+04  0.7818609E-02  0.8138886E-01
       -1   -1    0    0    0  501  0.00000000000E+00  0.00000000000E+00  0.14879883934E+04  0.14879883934E+04  0.50400001928E-02 0. -1.
        1   -1    0    0  501    0  0.00000000000E+00  0.00000000000E+00 -0.19376638260E+04  0.19376638260E+04  0.50400001928E-02 0.  1.
    10030    2    1    2    0    0  0.00000000000E+00  0.00000000000E+00 -0.44967543262E+03  0.34256522194E+04  0.33960101787E+04 0.  0.
        2    1    3    3  502    0 -0.37548067038E+02  0.14816012663E+04 -0.10607256260E+04  0.18225506916E+04  0.25500000920E-02 0. -1.
       -2    1    3    3    0  502  0.37548067038E+02 -0.14816012663E+04  0.61105019336E+03  0.16031015278E+04  0.25500000920E-02 0.  1.
</event>
<event>
 5   0  0.1003191E-06  0.3696657E+04  0.7818609E-02  0.8068703E-01
        1   -1    0    0  501    0  0.00000000000E+00  0.00000000000E+00  0.17293671314E+04  0.17293671314E+04  0.50400001928E-02 0.  1.
       -1   -1    0    0    0  501  0.00000000000E+00  0.00000000000E+00 -0.19754732677E+04  0.19754732677E+04  0.50400001928E-02 0. -1.
    10030    2    1    2    0    0  0.00000000000E+00  0.00000000000E+00 -0.24610613630E+03  0.37048403991E+04  0.36966571592E+04 0.  0.
        5    1    3    3  502    0 -0.74892003557E+03 -0.14629383818E+04  0.72452972951E+03  0.17961167411E+04  0.46999998093E+01 0.  1.
       -5    1    3    3    0  502  0.74892003557E+03  0.14629383818E+04 -0.97063586581E+03  0.19087236580E+04  0.46999998093E+01 0. -1.
</event>
<event>
 5   0  0.2664083E-06  0.3384426E+04  0.7818609E-02  0.8141739E-01
        2   -1    0    0  501    0  0.00000000000E+00  0.00000000000E+00  0.12241413456E+04  0.12241413456E+04  0.25500000920E-02 0.  1.
       -2   -1    0    0    0  501  0.00000000000E+00  0.00000000000E+00 -0.23392605049E+04  0.23392605049E+04  0.25500000920E-02 0. -1.
    10030    2    1    2    0    0  0.00000000000E+00  0.00000000000E+00 -0.11151191593E+04  0.35634018505E+04  0.33844263928E+04 0.  0.
        2    1    3    3  502    0  0.74768163508E+02  0.97197404336E+02 -0.23345762032E+04  0.23377946151E+04  0.25500000920E-02 0. -1.
       -2    1    3    3    0  502 -0.74768163508E+02 -0.97197404336E+02  0.12194570438E+04  0.12256072354E+04  0.25500000920E-02 0.  1.
</event>
<event>
 5   0  0.2856440E-06  0.3427032E+04  0.7818609E-02  0.8131303E-01
       -2   -1    0    0    0  501  0.00000000000E+00  0.00000000000E+00  0.17107304406E+04  0.17107304406E+04  0.25500000920E-02 0.  1.
        2   -1    0    0  501    0  0.00000000000E+00  0.00000000000E+00 -0.17163063075E+04  0.17163063075E+04  0.25500000920E-02 0. -1.
    10030    2    1    2    0    0  0.00000000000E+00  0.00000000000E+00 -0.55758668338E+01  0.34270367481E+04  0.34270322121E+04 0.  0.
        4    1    3    3  502    0 -0.14791106236E+04 -0.79176193065E+03  0.34575325878E+03  0.17129512896E+04  0.12699999809E+01 0.  1.
       -4    1    3    3    0  502  0.14791106236E+04  0.79176193065E+03 -0.35132912561E+03  0.17140854585E+04  0.12699999809E+01 0. -1.
</event>
<event>
 5   0  0.9232963E-07  0.2410858E+04  0.7818609E-02  0.8435450E-01
       -1   -1    0    0    0  501  0.00000000000E+00  0.00000000000E+00  0.56163104366E+03  0.56163104368E+03  0.50400001928E-02 0.  1.
        1   -1    0    0  501    0  0.00000000000E+00  0.00000000000E+00 -0.25872137952E+04  0.25872137952E+04  0.50400001928E-02 0. -1.
    10030    2    1    2    0    0  0.00000000000E+00  0.00000000000E+00 -0.20255827515E+04  0.31488448389E+04  0.24108584230E+04 0.  0.
        3    1    3    3  502    0  0.50835980922E+03 -0.98728073231E+03 -0.40030177546E+03  0.11804213068E+04  0.10100000352E+00 0.  1.
       -3    1    3    3    0  502 -0.50835980922E+03  0.98728073231E+03 -0.16252809761E+04  0.19684235320E+04  0.10100000352E+00 0. -1.
</event>
<event>
 5   0  0.2664083E-06  0.3262344E+04  0.7818609E-02  0.8172544E-01
       -2   -1    0    0    0  501  0.00000000000E+00  0.00000000000E+00  0.22331032298E+04  0.22331032298E+04  0.25500000920E-02 0. -1.
        2   -1    0    0  501    0  0.00000000000E+00  0.00000000000E+00 -0.11914908117E+04  0.11914908117E+04  0.25500000920E-02 0.  1.
    10030    2    1    2    0    0  0.00000000000E+00  0.00000000000E+00  0.10416124182E+04  0.34245940415E+04  0.32623439303E+04 0.  0.
        2    1    3    3  502    0  0.11351690693E+04  0.54615942329E+03  0.16085978397E+04  0.20431558779E+04  0.25500000920E-02 0. -1.
       -2    1    3    3    0  502 -0.11351690693E+04 -0.54615942329E+03 -0.56698542155E+03  0.13814381636E+04  0.25500000920E-02 0.  1.
</event>
<event>
 5   0  0.1003191E-06  0.3436906E+04  0.7818609E-02  0.8128907E-01
        1   -1    0    0  501    0  0.00000000000E+00  0.00000000000E+00  0.12460843216E+04  0.12460843216E+04  0.50400001928E-02 0.  1.
       -1   -1    0    0    0  501  0.00000000000E+00  0.00000000000E+00 -0.23698884356E+04  0.23698884356E+04  0.50400001928E-02 0. -1.
    10030    2    1    2    0    0  0.00000000000E+00  0.00000000000E+00 -0.11238041140E+04  0.36159727572E+04  0.34369060643E+04 0.  0.
        5    1    3    3  502    0  0.74998146416E+03  0.10104361748E+04 -0.17931774416E+04  0.21906530732E+04  0.46999998093E+01 0. -1.
       -5    1    3    3    0  502 -0.74998146416E+03 -0.10104361748E+04  0.66937332766E+03  0.14253196841E+04  0.46999998093E+01 0.  1.
</event>
<event>
 5   0  0.9714317E-07  0.2436343E+04  0.7818609E-02  0.8426021E-01
        1   -1    0    0  501    0  0.00000000000E+00  0.00000000000E+00  0.21953007858E+04  0.21953007858E+04  0.50400001928E-02 0. -1.
       -1   -1    0    0    0  501  0.00000000000E+00  0.00000000000E+00 -0.67596290361E+03  0.67596290362E+03  0.50400001928E-02 0.  1.
    10030    2    1    2    0    0  0.00000000000E+00  0.00000000000E+00  0.15193378822E+04  0.28712636894E+04  0.24363430739E+04 0.  0.
        4    1    3    3  502    0  0.10487150168E+03  0.82541707405E+03 -0.28889629794E+03  0.88078037096E+03  0.12699999809E+01 0.  1.
       -4    1    3    3    0  502 -0.10487150168E+03 -0.82541707405E+03  0.18082341801E+04  0.19904833185E+04  0.12699999809E+01 0. -1.
</event>
<event>
 5   0  0.1010551E-06  0.3035800E+04  0.7818609E-02  0.8233581E-01
       -1   -1    0    0    0  501  0.00000000000E+00  0.00000000000E+00  0.21304063388E+04  0.21304063388E+04  0.50400001928E-02 0. -1.
        1   -1    0    0  501    0  0.00000000000E+00  0.00000000000E+00 -0.10814930754E+04  0.10814930755E+04  0.50400001928E-02 0.  1.
    10030    2    1    2    0    0  0.00000000000E+00  0.00000000000E+00  0.10489132634E+04  0.32118994143E+04  0.30357995344E+04 0.  0.
        2    1    3    3  502    0 -0.41161390085E+03  0.94003470793E+02  0.20670293987E+04  0.21097092669E+04  0.25500000920E-02 0. -1.
       -2    1    3    3    0  502  0.41161390085E+03 -0.94003470793E+02 -0.10181161353E+04  0.11021901473E+04  0.25500000920E-02 0.  1.
</event>
<event>
 5   0  0.1003191E-06  0.3147541E+04  0.7818609E-02  0.8202810E-01
        1   -1    0    0  501    0  0.00000000000E+00  0.00000000000E+00  0.88053752860E+03  0.88053752861E+03  0.50400001928E-02 0.  1.
       -1   -1    0    0    0  501  0.00000000000E+00  0.00000000000E+00 -0.28127749082E+04  0.28127749082E+04  0.50400001928E-02 0. -1.
    10030    2    1    2    0    0  0.00000000000E+00  0.00000000000E+00 -0.19322373796E+04  0.36933124368E+04  0.31475411776E+04 0.  0.
        5    1    3    3  502    0  0.53790290182E+03 -0.78500943174E+03 -0.24369192602E+04  0.26161377851E+04  0.46999998093E+01 0. -1.
       -5    1    3    3    0  502 -0.53790290182E+03  0.78500943174E+03  0.50468188062E+03  0.10771746517E+04  0.46999998093E+01 0.  1.
</event>
<event>
 5   0  0.1010855E-06  0.3040897E+04  0.7818609E-02  0.8232148E-01
       -1   -1    0    0    0  501  0.00000000000E+00  0.00000000000E+00  0.16880742309E+04  0.16880742309E+04  0.50400001928E-02 0. -1.
        1   -1    0    0  501    0  0.00000000000E+00  0.00000000000E+00 -0.13694675658E+04  0.13694675658E+04  0.50400001928E-02 0.  1.
    10030    2    1    2    0    0  0.00000000000E+00  0.00000000000E+00  0.31860666502E+03  0.30575417967E+04  0.30408965177E+04 0.  0.
        1    1    3    3  502    0  0.42199599521E+03  0.10066973913E+04  0.12235120519E+04  0.16396652094E+04  0.50400001928E-02 0. -1.
       -1    1    3    3    0  502 -0.42199599521E+03 -0.10066973913E+04 -0.90490538692E+03  0.14178765873E+04  0.50400001928E-02 0.  1.
</event>
<event>
 5   0  0.2848685E-06  0.3417047E+04  0.7818609E-02  0.8133735E-01
       -2   -1    0    0    0  501  0.00000000000E+00  0.00000000000E+00  0.13368698775E+04  0.13368698775E+04  0.25500000920E-02 0. -1.
        2   -1    0    0  501    0  0.00000000000E+00  0.00000000000E+00 -0.21834981362E+04  0.21834981362E+04  0.25500000920E-02 0.  1.
    10030    2    1    2    0    0  0.00000000000E+00  0.00000000000E+00 -0.84662825865E+03  0.35203680137E+04  0.34170471965E+04 0.  0.
        3    1    3    3  502    0  0.38971175327E+03  0.77265925013E+03  0.10943808515E+04  0.13951870935E+04  0.10100000352E+00 0. -1.
       -3    1    3    3    0  502 -0.38971175327E+03 -0.77265925013E+03 -0.19410091102E+04  0.21251809202E+04  0.10100000352E+00 0.  1.
</event>
<event>
 5   0  0.2848685E-06  0.2674159E+04  0.7818609E-02  0.8343439E-01
        2   -1    0    0  501    0  0.00000000000E+00  0.00000000000E+00  0.21310156691E+04  0.21310156691E+04  0.25500000920E-02 0. -1.
       -2   -1    0    0    0  501  0.00000000000E+00  0.00000000000E+00 -0.83893378293E+03  0.83893378293E+03  0.25500000920E-02 0.  1.
    10030    2    1    2    0    0  0.00000000000E+00  0.00000000000E+00  0.12920818862E+04  0.29699494521E+04  0.26741585868E+04 0.  0.
        3    1    3    3  502    0  0.57791228189E+03 -0.45033303504E+03  0.18882374597E+04  0.20253945696E+04  0.10100000352E+00 0. -1.
       -3    1    3    3    0  502 -0.57791228189E+03  0.45033303504E+03 -0.59615557351E+03  0.94455488249E+03  0.10100000352E+00 0.  1.
</event>
<event>
 5   0  0.1003191E-06  0.3390115E+04  0.7818609E-02  0.8140337E-01
       -1   -1    0    0    0  501  0.00000000000E+00  0.00000000000E+00  0.22931260978E+04  0.22931260978E+04  0.50400001928E-02 0. -1.
        1   -1    0    0  501    0  0.00000000000E+00  0.00000000000E+00 -0.12529709757E+04  0.12529709757E+04  0.50400001928E-02 0.  1.
    10030    2    1    2    0    0  0.00000000000E+00  0.00000000000E+00  0.10401551221E+04  0.35460970735E+04  0.33901153043E+04 0.  0.
        5    1    3    3  502    0 -0.10247388403E+04  0.13451657763E+04  0.64223127637E+03  0.18088791443E+04  0.46999998093E+01 0. -1.
       -5    1    3    3    0  502  0.10247388403E+04 -0.13451657763E+04  0.39792384576E+03  0.17372179292E+04  0.46999998093E+01 0.  1.
</event>
<event>
 5   0  0.9232963E-07  0.2346121E+04  0.7818609E-02  0.8459955E-01
       -1   -1    0    0    0  501  0.00000000000E+00  0.00000000000E+00  0.81372100441E+03  0.81372100443E+03  0.50400001928E-02 0. -1.
        1   -1    0    0  501    0  0.00000000000E+00  0.00000000000E+00 -0.16910838990E+04  0.16910838990E+04  0.50400001928E-02 0.  1.
    10030    2    1    2    0    0  0.00000000000E+00  0.00000000000E+00 -0.87736289458E+03  0.25048049034E+04  0.23461206183E+04 0.  0.
        3    1    3    3  502    0  0.82551850328E+03  0.48437245740E+03 -0.11627667616E+04  0.15060292258E+04  0.10100000352E+00 0.  1.
       -3    1    3    3    0  502 -0.82551850328E+03 -0.48437245740E+03  0.28540386704E+03  0.99877567765E+03  0.10100000352E+00 0. -1.
</event>
<event>
 5   0  0.9232963E-07  0.3583919E+04  0.7818609E-02  0.8094185E-01
        1   -1    0    0  501    0  0.00000000000E+00  0.00000000000E+00  0.18398330968E+04  0.18398330968E+04  0.50400001928E-02 0. -1.
       -1   -1    0    0    0  501  0.00000000000E+00  0.00000000000E+00 -0.17453319467E+04  0.17453319468E+04  0.50400001928E-02 0.  1.
    10030    2    1    2    0    0  0.00000000000E+00  0.00000000000E+00  0.94501150025E+02  0.35851650435E+04  0.35839193521E+04 0.  0.
        3    1    3    3  502    0  0.97207802540E+03 -0.13095987631E+04  0.78989319018E+03  0.18121577939E+04  0.10100000352E+00 0. -1.
       -3    1    3    3    0  502 -0.97207802540E+03  0.13095987631E+04 -0.69539204015E+03  0.17730072497E+04  0.10100000352E+00 0.  1.
</event>
<event>
 5   0  0.2664083E-06  0.3235170E+04  0.7818609E-02  0.8179590E-01
       -2   -1    0    0    0  501  0.00000000000E+00  0.00000000000E+00  0.16496426048E+04  0.16496426048E+04  0.25500000920E-02 0.  1.
        2   -1    0    0  501    0  0.00000000000E+00  0.00000000000E+00 -0.15861506861E+04  0.15861506861E+04  0.25500000920E-02 0. -1.
    10030    2    1    2    0    0  0.00000000000E+00  0.00000000000E+00  0.63491918648E+02  0.32357932909E+04  0.32351703197E+04 0.  0.
        2    1    3    3  502    0  0.16011376964E+04  0.17358729569E+03 -0.11930390631E+03  0.16149327831E+04  0.25500000920E-02 0.  1.
       -2    1    3    3    0  502 -0.16011376964E+04 -0.17358729569E+03  0.18279582496E+03  0.16208605077E+04  0.25500000920E-02 0. -1.
</event>
<event>
 5   0  0.2664083E-06  0.3393243E+04  0.7818609E-02  0.8139567E-01
       -2   -1    0    0    0  501  0.00000000000E+00  0.00000000000E+00  0.15307299210E+04  0.15307299210E+04  0.25500000920E-02 0. -1.
        2   -1    0    0  501    0  0.00000000000E+00  0.00000000000E+00 -0.18804910711E+04  0.18804910711E+04  0.25500000920E-02 0.  1.
    10030    2    1    2    0    0  0.00000000000E+00  0.00000000000E+00 -0.34976115017E+03  0.34112209921E+04  0.33932426667E+04 0.  0.
        2    1    3    3  502    0  0.71017927872E+03  0.15150730420E+04 -0.45694336957E+03  0.17345311106E+04  0.25500000920E-02 0. -1.
       -2    1    3    3    0  502 -0.71017927872E+03 -0.15150730420E+04  0.10718221940E+03  0.16766898815E+04  0.25500000920E-02 0.  1.
</event>
<event>
 5   0  0.9714317E-07  0.3105259E+04  0.7818609E-02  0.8214296E-01
        1   -1    0    0  501    0  0.00000000000E+00  0.00000000000E+00  0.22075808383E+04  0.22075808383E+04  0.50400001928E-02 0.  1.
       -1   -1    0    0    0  501  0.00000000000E+00  0.00000000000E+00 -0.10919912158E+04  0.10919912158E+04  0.50400001928E-02 0. -1.
    10030    2    1    2    0    0  0.00000000000E+00  0.00000000000E+00  0.11155896225E+04  0.32995720541E+04  0.31052593345E+04 0.  0.
        4    1    3    3  502    0 -0.29107496290E+03 -0.11190890717E+04 -0.54317493909E+03  0.12775467160E+04  0.12699999809E+01 0. -1.
       -4    1    3    3    0  502  0.29107496290E+03  0.11190890717E+04  0.16587645616E+04  0.20220253381E+04  0.12699999809E+01 0.  1.
</event>
<event>
 5   0  0.2767014E-06  0.3397255E+04  0.7818609E-02  0.8138580E-01
        2   -1    0    0  501    0  0.00000000000E+00  0.00000000000E+00  0.16216735293E+04  0.16216735293E+04  0.25500000920E-02 0. -1.
       -2   -1    0    0    0  501  0.00000000000E+00  0.00000000000E+00 -0.17792331462E+04  0.17792331462E+04  0.25500000920E-02 0.  1.
    10030    2    1    2    0    0  0.00000000000E+00  0.00000000000E+00 -0.15755961689E+03  0.34009066756E+04  0.33972549482E+04 0.  0.
        1    1    3    3  502    0 -0.26354038768E+03 -0.11493286509E+03  0.15971380443E+04  0.16228102267E+04  0.50400001928E-02 0. -1.
       -1    1    3    3    0  502  0.26354038768E+03  0.11493286509E+03 -0.17546976611E+04  0.17780964489E+04  0.50400001928E-02 0.  1.
</event>
<event>
 5   0  0.2906701E-06  0.3391124E+04  0.7818609E-02  0.8140088E-01
       -2   -1    0    0    0  501  0.00000000000E+00  0.00000000000E+00  0.15378161865E+04  0.15378161865E+04  0.25500000920E-02 0.  1.
        2   -1    0    0  501    0  0.00000000000E+00  0.00000000000E+00 -0.18694887919E+04  0.18694887919E+04  0.25500000920E-02 0. -1.
    10030    2    1    2    0    0  0.00000000000E+00  0.00000000000E+00 -0.33167260538E+03  0.34073049784E+04  0.33911237811E+04 0.  0.
        5    1    3    3  502    0 -0.45748798845E+03  0.16303859737E+04 -0.79085738704E+02  0.16952080483E+04  0.46999998093E+01 0. -1.
       -5    1    3    3    0  502  0.45748798845E+03 -0.16303859737E+04 -0.25258686667E+03  0.17120969301E+04  0.46999998093E+01 0.  1.
</event>
<event>
 5   0  0.2906701E-06  0.2662409E+04  0.7818609E-02  0.8347306E-01
        2   -1    0    0  501    0  0.00000000000E+00  0.00000000000E+00  0.15313008763E+04  0.15313008763E+04  0.25500000920E-02 0. -1.
       -2   -1    0    0    0  501  0.00000000000E+00  0.00000000000E+00 -0.11572549503E+04  0.11572549503E+04  0.25500000920E-02 0.  1.
    10030    2    1    2    0    0  0.00000000000E+00  0.00000000000E+00  0.37404592599E+03  0.26885558266E+04  0.26624090742E+04 0.  0.
        5    1    3    3  502    0 -0.19838833310E+02  0.11298546458E+04  0.89757972415E+03  0.14431342804E+04  0.46999998093E+01 0. -1.
       -5    1    3    3    0  502  0.19838833310E+02 -0.11298546458E+04 -0.52353379816E+03  0.12454215462E+04  0.46999998093E+01 0.  1.
</event>
<event>
 5   0  0.2664083E-06  0.3346819E+04  0.7818609E-02  0.8151083E-01
       -2   -1    0    0    0  501  0.00000000000E+00  0.00000000000E+00  0.11479705479E+04  0.11479705479E+04  0.25500000920E-02 0. -1.
        2   -1    0    0  501    0  0.00000000000E+00  0.00000000000E+00 -0.24393475051E+04  0.24393475051E+04  0.25500000920E-02 0.  1.
    10030    2    1    2    0    0  0.00000000000E+00  0.00000000000E+00 -0.12913769572E+04  0.35873180531E+04  0.33468188431E+04 0.  0.
        2    1    3    3  502    0 -0.13394993730E+04 -0.59114758544E+03 -0.15142151785E+04  0.21063147070E+04  0.25500000920E-02 0.  1.
       -2    1    3    3    0  502  0.13394993730E+04  0.59114758544E+03  0.22283822130E+03  0.14810033461E+04  0.25500000920E-02 0. -1.
</event>
<event>
 5   0  0.9070500E-07  0.3084523E+04  0.7818609E-02  0.8219998E-01
        3   -1    0    0  501    0  0.00000000000E+00  0.00000000000E+00  0.11782825929E+04  0.11782825973E+04  0.10100000352E+00 0.  1.
       -3   -1    0    0    0  501  0.00000000000E+00  0.00000000000E+00 -0.20186755437E+04  0.20186755462E+04  0.10100000352E+00 0. -1.
    10030    2    1    2    0    0  0.00000000000E+00  0.00000000000E+00 -0.84039295077E+03  0.31969581435E+04  0.30845228252E+04 0.  0.
        4    1    3    3  502    0  0.11371795951E+04 -0.70865995862E+03 -0.12117036327E+04  0.18065446784E+04  0.12699999809E+01 0. -1.
       -4    1    3    3    0  502 -0.11371795951E+04  0.70865995862E+03  0.37131068196E+03  0.13904134651E+04  0.12699999809E+01 0.  1.
</event>
<event>
 5   0  0.2848685E-06  0.3437258E+04  0.7818609E-02  0.8128822E-01
       -2   -1    0    0    0  501  0.00000000000E+00  0.00000000000E+00  0.13372030928E+04  0.13372030928E+04  0.25500000920E-02 0. -1.
        2   -1    0    0  501    0  0.00000000000E+00  0.00000000000E+00 -0.22088540332E+04  0.22088540332E+04  0.25500000920E-02 0.  1.
    10030    2    1    2    0    0  0.00000000000E+00  0.00000000000E+00 -0.87165094041E+03  0.35460571259E+04  0.34372584684E+04 0.  0.
        3    1    3    3  502    0  0.12502841112E+04 -0.11021304824E+04 -0.32879404408E+01  0.16667071668E+04  0.10100000352E+00 0. -1.
       -3    1    3    3    0  502 -0.12502841112E+04  0.11021304824E+04 -0.86836299997E+03  0.18793499591E+04  0.10100000352E+00 0.  1.
</event>
<event>
 5   0  0.9232963E-07  0.2568294E+04  0.7818609E-02  0.8379052E-01
       -1   -1    0    0    0  501  0.00000000000E+00  0.00000000000E+00  0.75253571372E+03  0.75253571373E+03  0.50400001928E-02 0. -1.
        1   -1    0    0  501    0  0.00000000000E+00  0.00000000000E+00 -0.21913022187E+04  0.21913022187E+04  0.50400001928E-02 0.  1.
    10030    2    1    2    0    0  0.00000000000E+00  0.00000000000E+00 -0.14387665050E+04  0.29438379324E+04  0.25682937364E+04 0.  0.
        3    1    3    3  502    0 -0.45119473846E+03 -0.34498678774E+02  0.65812067572E+03  0.79867996398E+03  0.10100000352E+00 0. -1.
       -3    1    3    3    0  502  0.45119473846E+03  0.34498678774E+02 -0.20968871807E+04  0.21451579684E+04  0.10100000352E+00 0.  1.
</event>
<event>
 5   0  0.2856440E-06  0.2216543E+04  0.7818609E-02  0.8511574E-01
       -2   -1    0    0    0  501  0.00000000000E+00  0.00000000000E+00  0.85874638696E+03  0.85874638696E+03  0.25500000920E-02 0. -1.
        2   -1    0    0  501    0  0.00000000000E+00  0.00000000000E+00 -0.14303011457E+04  0.14303011457E+04  0.25500000920E-02 0.  1.
    10030    2    1    2    0    0  0.00000000000E+00  0.00000000000E+00 -0.57155475871E+03  0.22890475326E+04  0.22165432016E+04 0.  0.
        4    1    3    3  502    0  0.68163960827E+03 -0.78613290779E+03 -0.67987090450E+03  0.12429254056E+04  0.12699999809E+01 0.  1.
       -4    1    3    3    0  502 -0.68163960827E+03  0.78613290779E+03  0.10831614579E+03  0.10461221270E+04  0.12699999809E+01 0. -1.
</event>
<event>
 5   0  0.1010551E-06  0.3373628E+04  0.7818609E-02  0.8144409E-01
        1   -1    0    0  501    0  0.00000000000E+00  0.00000000000E+00  0.19811713370E+04  0.19811713370E+04  0.50400001928E-02 0.  1.
       -1   -1    0    0    0  501  0.00000000000E+00  0.00000000000E+00 -0.14361913773E+04  0.14361913774E+04  0.50400001928E-02 0. -1.
    10030    2    1    2    0    0  0.00000000000E+00  0.00000000000E+00  0.54497995969E+03  0.34173627144E+04  0.33736278344E+04 0.  0.
        2    1    3    3  502    0 -0.15704447640E+04  0.54401761091E+03 -0.19498950123E+02  0.16621167609E+04  0.25500000920E-02 0. -1.
       -2    1    3    3    0  502  0.15704447640E+04 -0.54401761091E+03  0.56447890981E+03  0.17552459535E+04  0.25500000920E-02 0.  1.
</event>
<event>
 5   0  0.1010855E-06  0.3404021E+04  0.7818609E-02  0.8136920E-01
       -1   -1    0    0    0  501  0.00000000000E+00  0.00000000000E+00  0.16114443077E+04  0.16114443078E+04  0.50400001928E-02 0.  1.
        1   -1    0    0  501    0  0.00000000000E+00  0.00000000000E+00 -0.17976669538E+04  0.17976669538E+04  0.50400001928E-02 0. -1.
    10030    2    1    2    0    0  0.00000000000E+00  0.00000000000E+00 -0.18622264605E+03  0.34091112616E+04  0.34040212572E+04 0.  0.
        1    1    3    3  502    0  0.89391575398E+03  0.11696267155E+04  0.76240728887E+03  0.16578229408E+04  0.50400001928E-02 0.  1.
       -1    1    3    3    0  502 -0.89391575398E+03 -0.11696267155E+04 -0.94862993492E+03  0.17512883207E+04  0.50400001928E-02 0. -1.
</event>
<event>
 5   0  0.2906701E-06  0.3345113E+04  0.7818609E-02  0.8151510E-01
       -2   -1    0    0    0  501  0.00000000000E+00  0.00000000000E+00  0.12154328785E+04  0.12154328785E+04  0.25500000920E-02 0. -1.
        2   -1    0    0  501    0  0.00000000000E+00  0.00000000000E+00 -0.23016045045E+04  0.23016045045E+04  0.25500000920E-02 0.  1.
    10030    2    1    2    0    0  0.00000000000E+00  0.00000000000E+00 -0.10861716261E+04  0.35170373830E+04  0.33451133243E+04 0.  0.
        5    1    3    3  502    0 -0.15004275295E+04 -0.27260342111E+03  0.17911528293E+03  0.15354803063E+04  0.46999998093E+01 0.  1.
       -5    1    3    3    0  502  0.15004275295E+04  0.27260342111E+03 -0.12652869090E+04  0.19815570768E+04  0.46999998093E+01 0. -1.
</event>
<event>
 5   0  0.1003191E-06  0.3518890E+04  0.7818609E-02  0.8109328E-01
       -1   -1    0    0    0  501  0.00000000000E+00  0.00000000000E+00  0.13698023246E+04  0.13698023246E+04  0.50400001928E-02 0.  1.
        1   -1    0    0  501    0  0.00000000000E+00  0.00000000000E+00 -0.22599228444E+04  0.22599228444E+04  0.50400001928E-02 0. -1.
    10030    2    1    2    0    0  0.00000000000E+00  0.00000000000E+00 -0.89012051983E+03  0.36297251690E+04  0.35188904875E+04 0.  0.
        5    1    3    3  502    0 -0.93234850097E+03  0.61069907969E+03 -0.18493359624E+04  0.21592342821E+04  0.46999998093E+01 0. -1.
       -5    1    3    3    0  502  0.93234850097E+03 -0.61069907969E+03  0.95921544259E+03  0.14704908869E+04  0.46999998093E+01 0.  1.
</event>
<event>
 5   0  0.2848685E-06  0.3353363E+04  0.7818609E-02  0.8149448E-01
        2   -1    0    0  501    0  0.00000000000E+00  0.00000000000E+00  0.19376068162E+04  0.19376068162E+04  0.25500000920E-02 0.  1.
       -2   -1    0    0    0  501  0.00000000000E+00  0.00000000000E+00 -0.14508934804E+04  0.14508934804E+04  0.25500000920E-02 0. -1.
    10030    2    1    2    0    0  0.00000000000E+00  0.00000000000E+00  0.48671333580E+03  0.33885002967E+04  0.33533631460E+04 0.  0.
        3    1    3    3  502    0 -0.15365164533E+03 -0.16142238647E+04 -0.18764938176E+03  0.16323418190E+04  0.10100000352E+00 0. -1.
       -3    1    3    3    0  502  0.15365164533E+03  0.16142238647E+04  0.67436271756E+03  0.17561584776E+04  0.10100000352E+00 0.  1.
</event>
<event>
 5   0  0.2767014E-06  0.3293565E+04  0.7818609E-02  0.8164535E-01
       -2   -1    0    0    0  501  0.00000000000E+00  0.00000000000E+00  0.21700381465E+04  0.21700381465E+04  0.25500000920E-02 0. -1.
        2   -1    0    0  501    0  0.00000000000E+00  0.00000000000E+00 -0.12496979556E+04  0.12496979556E+04  0.25500000920E-02 0.  1.
    10030    2    1    2    0    0  0.00000000000E+00  0.00000000000E+00  0.92034019098E+03  0.34197361021E+04  0.32935647771E+04 0.  0.
        1    1    3    3  502    0  0.49001202618E+03 -0.39053149411E+03  0.20414240591E+04  0.21354247406E+04  0.50400001928E-02 0. -1.
       -1    1    3    3    0  502 -0.49001202618E+03  0.39053149411E+03 -0.11210838682E+04  0.12843113615E+04  0.50400001928E-02 0.  1.
</event>
<event>
 5   0  0.1010551E-06  0.3384386E+04  0.7818609E-02  0.8141749E-01
       -1   -1    0    0    0  501  0.00000000000E+00  0.00000000000E+00  0.12067835120E+04  0.12067835120E+04  0.50400001928E-02 0. -1.
        1   -1    0    0  501    0  0.00000000000E+00  0.00000000000E+00 -0.23728505121E+04  0.23728505121E+04  0.50400001928E-02 0.  1.
    10030    2    1    2    0    0  0.00000000000E+00  0.00000000000E+00 -0.11660670001E+04  0.35796340241E+04  0.33843858376E+04 0.  0.
        2    1    3    3  502    0 -0.11547250018E+04 -0.69788124748E+03  0.49720437753E+03  0.14379291562E+04  0.25500000920E-02 0. -1.
       -2    1    3    3    0  502  0.11547250018E+04  0.69788124748E+03 -0.16632713777E+04  0.21417048679E+04  0.25500000920E-02 0.  1.
</event>
<event>
 5   0  0.1010551E-06  0.3484672E+04  0.7818609E-02  0.8117432E-01
       -1   -1    0    0    0  501  0.00000000000E+00  0.00000000000E+00  0.16745359530E+04  0.16745359530E+04  0.50400001928E-02 0.  1.
        1   -1    0    0  501    0  0.00000000000E+00  0.00000000000E+00 -0.18128815993E+04  0.18128815993E+04  0.50400001928E-02 0. -1.
    10030    2    1    2    0    0  0.00000000000E+00  0.00000000000E+00 -0.13834564625E+03  0.34874175523E+04  0.34846723901E+04 0.  0.
        2    1    3    3  502    0 -0.12045840376E+04  0.10868962497E+04  0.56644108465E+03  0.17184940103E+04  0.25500000920E-02 0.  1.
       -2    1    3    3    0  502  0.12045840376E+04 -0.10868962497E+04 -0.70478673090E+03  0.17689235419E+04  0.25500000920E-02 0. -1.
</event>
<event>
 5   0  0.2848685E-06  0.2581097E+04  0.7818609E-02  0.8374651E-01
        2   -1    0    0  501    0  0.00000000000E+00  0.00000000000E+00  0.10722540023E+04  0.10722540023E+04  0.25500000920E-02 0.  1.
       -2   -1    0    0    0  501  0.00000000000E+00  0.00000000000E+00 -0.15532843053E+04  0.15532843053E+04  0.25500000920E-02 0. -1.
    10030    2    1    2    0    0  0.00000000000E+00  0.00000000000E+00 -0.48103030298E+03  0.26255383076E+04  0.25810969087E+04 0.  0.
        3    1    3    3  502    0 -0.72856963024E+03 -0.20704153535E+03 -0.13034157068E+04  0.15075053626E+04  0.10100000352E+00 0.  1.
       -3    1    3    3    0  502  0.72856963024E+03  0.20704153535E+03  0.82238540378E+03  0.11180329450E+04  0.10100000352E+00 0. -1.
</event>
<event>
 5   0  0.2848685E-06  0.3363658E+04  0.7818609E-02  0.8146884E-01
       -2   -1    0    0    0  501  0.00000000000E+00  0.00000000000E+00  0.84789703591E+03  0.84789703591E+03  0.25500000920E-02 0.  1.
        2   -1    0    0  501    0  0.00000000000E+00  0.00000000000E+00 -0.33359574643E+04  0.33359574643E+04  0.25500000920E-02 0. -1.
    10030    2    1    2    0    0  0.00000000000E+00  0.00000000000E+00 -0.24880604284E+04  0.41838545002E+04  0.33636577983E+04 0.  0.
        3    1    3    3  502    0 -0.13716545307E+04 -0.44857105366E+03 -0.16978360597E+03  0.14530927791E+04  0.10100000352E+00 0.  1.
       -3    1    3    3    0  502  0.13716545307E+04  0.44857105366E+03 -0.23182768225E+04  0.27307617211E+04  0.10100000352E+00 0. -1.
</event>
<event>
 5   0  0.9714317E-07  0.3424791E+04  0.7818609E-02  0.8131848E-01
       -1   -1    0    0    0  501  0.00000000000E+00  0.00000000000E+00  0.26552883843E+04  0.26552883843E+04  0.50400001928E-02 0. -1.
        1   -1    0    0  501    0  0.00000000000E+00  0.00000000000E+00 -0.11043241548E+04  0.11043241548E+04  0.50400001928E-02 0.  1.
    10030    2    1    2    0    0  0.00000000000E+00  0.00000000000E+00  0.15509642295E+04  0.37596125392E+04  0.34247914394E+04 0.  0.
        4    1    3    3  502    0  0.15820242007E+03 -0.12141991535E+04  0.20895884969E+04  0.24219185142E+04  0.12699999809E+01 0. -1.
       -4    1    3    3    0  502 -0.15820242007E+03  0.12141991535E+04 -0.53862426737E+03  0.13376940250E+04  0.12699999809E+01 0.  1.
</event>
<event>
 5   0  0.9714317E-07  0.3313487E+04  0.7818609E-02  0.8159472E-01
        1   -1    0    0  501    0  0.00000000000E+00  0.00000000000E+00  0.17036704286E+04  0.17036704286E+04  0.50400001928E-02 0.  1.
       -1   -1    0    0    0  501  0.00000000000E+00  0.00000000000E+00 -0.16111095863E+04  0.16111095863E+04  0.50400001928E-02 0. -1.
    10030    2    1    2    0    0  0.00000000000E+00  0.00000000000E+00  0.92560842277E+02  0.33147800149E+04  0.33134874434E+04 0.  0.
        4    1    3    3  502    0 -0.93122344554E+03 -0.13121785978E+04  0.44116008866E+03  0.16684164992E+04  0.12699999809E+01 0.  1.
       -4    1    3    3    0  502  0.93122344554E+03  0.13121785978E+04 -0.34859924639E+03  0.16463635156E+04  0.12699999809E+01 0. -1.
</event>
<event>
 5   0  0.1010855E-06  0.3656523E+04  0.7818609E-02  0.8077666E-01
        1   -1    0    0  501    0  0.00000000000E+00  0.00000000000E+00  0.24632339814E+04  0.24632339814E+04  0.50400001928E-02 0.  1.
       -1   -1    0    0    0  501  0.00000000000E+00  0.00000000000E+00 -0.13569720428E+04  0.13569720428E+04  0.50400001928E-02 0. -1.
    10030    2    1    2    0    0  0.00000000000E+00  0.00000000000E+00  0.11062619386E+04  0.38202060242E+04  0.36565227458E+04 0.  0.
        1    1    3    3  502    0  0.12713733905E+04 -0.29570301965E+03 -0.78429402435E+03  0.15228091445E+04  0.50400001928E-02 0. -1.
       -1    1    3    3    0  502 -0.12713733905E+04  0.29570301965E+03  0.18905559630E+04  0.22973968797E+04  0.50400001928E-02 0.  1.
</event>
<event>
 5   0  0.1010855E-06  0.3402190E+04  0.7818609E-02  0.8137369E-01
       -1   -1    0    0    0  501  0.00000000000E+00  0.00000000000E+00  0.12020576362E+04  0.12020576362E+04  0.50400001928E-02 0.  1.
        1   -1    0    0  501    0  0.00000000000E+00  0.00000000000E+00 -0.24073088699E+04  0.24073088699E+04  0.50400001928E-02 0. -1.
    10030    2    1    2    0    0  0.00000000000E+00  0.00000000000E+00 -0.12052512337E+04  0.36093665061E+04  0.34021898887E+04 0.  0.
        1    1    3    3  502    0 -0.51748286392E+03  0.13410589308E+04 -0.15676882522E+04  0.21269400618E+04  0.50400001928E-02 0. -1.
       -1    1    3    3    0  502  0.51748286392E+03 -0.13410589308E+04  0.36243701857E+03  0.14824264443E+04  0.50400001928E-02 0.  1.
</event>
<event>
 5   0  0.1010551E-06  0.2422867E+04  0.7818609E-02  0.8430992E-01
        1   -1    0    0  501    0  0.00000000000E+00  0.00000000000E+00  0.19027719316E+04  0.19027719316E+04  0.50400001928E-02 0.  1.
       -1   -1    0    0    0  501  0.00000000000E+00  0.00000000000E+00 -0.77128064764E+03  0.77128064766E+03  0.50400001928E-02 0. -1.
    10030    2    1    2    0    0  0.00000000000E+00  0.00000000000E+00  0.11314912839E+04  0.26740525792E+04  0.24228670353E+04 0.  0.
        2    1    3    3  502    0 -0.11568754788E+04  0.27511271802E+03  0.31040981957E+03  0.12289841891E+04  0.25500000920E-02 0. -1.
       -2    1    3    3    0  502  0.11568754788E+04 -0.27511271802E+03  0.82108146437E+03  0.14450683901E+04  0.25500000920E-02 0.  1.
</event>
<event>
 5   0  0.1003191E-06  0.2436057E+04  0.7818609E-02  0.8426126E-01
        1   -1    0    0  501    0  0.00000000000E+00  0.00000000000E+00  0.10128400050E+04  0.10128400050E+04  0.50400001928E-02 0. -1.
       -1   -1    0    0    0  501  0.00000000000E+00  0.00000000000E+00 -0.14647855834E+04  0.14647855834E+04  0.50400001928E-02 0.  1.
    10030    2    1    2    0    0  0.00000000000E+00  0.00000000000E+00 -0.45194557842E+03  0.24776255884E+04  0.24360570089E+04 0.  0.
        5    1    3    3  502    0 -0.54464622180E+03  0.17325210859E+03 -0.13199267851E+04  0.14383617792E+04  0.46999998093E+01 0.  1.
       -5    1    3    3    0  502  0.54464622180E+03 -0.17325210859E+03  0.86798120664E+03  0.10392638092E+04  0.46999998093E+01 0. -1.
</event>
<event>
 5   0  0.1010551E-06  0.3498557E+04  0.7818609E-02  0.8114132E-01
       -1   -1    0    0    0  501  0.00000000000E+00  0.00000000000E+00  0.23108166547E+04  0.23108166547E+04  0.50400001928E-02 0.  1.
        1   -1    0    0  501    0  0.00000000000E+00  0.00000000000E+00 -0.13241964000E+04  0.13241964000E+04  0.50400001928E-02 0. -1.
    10030    2    1    2    0    0  0.00000000000E+00  0.00000000000E+00  0.98662025467E+03  0.36350130547E+04  0.34985568997E+04 0.  0.
        2    1    3    3  502    0 -0.12718891346E+03  0.34134107417E+03  0.22709733539E+04  0.23000023310E+04  0.25500000920E-02 0.  1.
       -2    1    3    3    0  502  0.12718891346E+03 -0.34134107417E+03 -0.12843530992E+04  0.13350107236E+04  0.25500000920E-02 0. -1.
</event>
<event>
 5   0  0.2767014E-06  0.3421093E+04  0.7818609E-02  0.8132749E-01
       -2   -1    0    0    0  501  0.00000000000E+00  0.00000000000E+00  0.23075666419E+04  0.23075666419E+04  0.25500000920E-02 0. -1.
        2   -1    0    0  501    0  0.00000000000E+00  0.00000000000E+00 -0.12679894381E+04  0.12679894381E+04  0.25500000920E-02 0.  1.
    10030    2    1    2    0    0  0.00000000000E+00  0.00000000000E+00  0.10395772038E+04  0.35755560801E+04  0.34210934683E+04 0.  0.
        1    1    3    3  502    0 -0.67148922630E+03 -0.88789963889E+03 -0.83758195269E+03  0.13931285214E+04  0.50400001928E-02 0.  1.
       -1    1    3    3    0  502  0.67148922630E+03  0.88789963889E+03  0.18771591565E+04  0.21824275586E+04  0.50400001928E-02 0. -1.
</event>
<event>
 5   0  0.2767014E-06  0.3428800E+04  0.7818609E-02  0.8130874E-01
        2   -1    0    0  501    0  0.00000000000E+00  0.00000000000E+00  0.95133281869E+03  0.95133281869E+03  0.25500000920E-02 0.  1.
       -2   -1    0    0    0  501  0.00000000000E+00  0.00000000000E+00 -0.30895264544E+04  0.30895264544E+04  0.25500000920E-02 0. -1.
    10030    2    1    2    0    0  0.00000000000E+00  0.00000000000E+00 -0.21381936357E+04  0.40408592731E+04  0.34288003210E+04 0.  0.
        1    1    3    3  502    0  0.58164644209E+03 -0.10529241587E+03 -0.29656369262E+04  0.30239711398E+04  0.50400001928E-02 0. -1.
       -1    1    3    3    0  502 -0.58164644209E+03  0.10529241587E+03  0.82744329053E+03  0.10168881332E+04  0.50400001928E-02 0.  1.
</event>
<event>
 5   0  0.2664083E-06  0.3427981E+04  0.7818609E-02  0.8131073E-01
       -2   -1    0    0    0  501  0.00000000000E+00  0.00000000000E+00  0.11726956762E+04  0.11726956762E+04  0.25500000920E-02 0. -1.
        2   -1    0    0  501    0  0.00000000000E+00  0.00000000000E+00 -0.25051377986E+04  0.25051377986E+04  0.25500000920E-02 0.  1.
    10030    2    1    2    0    0  0.00000000000E+00  0.00000000000E+00 -0.13324421224E+04  0.36778334748E+04  0.34279814845E+04 0.  0.
        2    1    3    3  502    0 -0.48087646827E+03  0.70929422192E+03  0.92636390317E+03  0.12619392030E+04  0.25500000920E-02 0. -1.
       -2    1    3    3    0  502  0.48087646827E+03 -0.70929422192E+03 -0.22588060256E+04  0.24158942717E+04  0.25500000920E-02 0.  1.
</event>
<event>
 5   0  0.9714317E-07  0.3503619E+04  0.7818609E-02  0.8112933E-01
        1   -1    0    0  501    0  0.00000000000E+00  0.00000000000E+00  0.15739655375E+04  0.15739655375E+04  0.50400001928E-02 0.  1.
       -1   -1    0    0    0  501  0.00000000000E+00  0.00000000000E+00 -0.19497485540E+04  0.19497485540E+04  0.50400001928E-02 0. -1.
    10030    2    1    2    0    0  0.00000000000E+00  0.00000000000E+00 -0.37578301648E+03  0.35237140915E+04  0.35036192891E+04 0.  0.
        4    1    3    3  502    0 -0.10984703850E+04  0.12009950497E+04 -0.83953444150E+03  0.18313508641E+04  0.12699999809E+01 0. -1.
       -4    1    3    3    0  502  0.10984703850E+04 -0.12009950497E+04  0.46375142502E+03  0.16923632274E+04  0.12699999809E+01 0.  1.
</event>
<event>
 5   0  0.9714317E-07  0.3642881E+04  0.7818609E-02  0.8080739E-01
       -1   -1    0    0    0  501  0.00000000000E+00  0.00000000000E+00  0.15885529405E+04  0.15885529405E+04  0.50400001928E-02 0. -1.
        1   -1    0    0  501    0  0.00000000000E+00  0.00000000000E+00 -0.20884696844E+04  0.20884696844E+04  0.50400001928E-02 0.  1.
    10030    2    1    2    0    0  0.00000000000E+00  0.00000000000E+00 -0.49991674389E+03  0.36770226249E+04  0.36428805406E+04 0.  0.
        4    1    3    3  502    0  0.14423189224E+01 -0.53578771574E+03  0.15072113468E+04  0.15996118947E+04  0.12699999809E+01 0. -1.
       -4    1    3    3    0  502 -0.14423189224E+01  0.53578771574E+03 -0.20071280907E+04  0.20774107302E+04  0.12699999809E+01 0.  1.
</event>
<event>
 5   0  0.1010855E-06  0.3403703E+04  0.7818609E-02  0.8136998E-01
       -1   -1    0    0    0  501  0.00000000000E+00  0.00000000000E+00  0.22273682180E+04  0.22273682180E+04  0.50400001928E-02 0. -1.
        1   -1    0    0  501    0  0.00000000000E+00  0.00000000000E+00 -0.13003235522E+04  0.13003235522E+04  0.50400001928E-02 0.  1.
    10030    2    1    2    0    0  0.00000000000E+00  0.00000000000E+00  0.92704466582E+03  0.35276917703E+04  0.34037034850E+04 0.  0.
        1    1    3    3  502    0  0.74501337557E+02 -0.12483736366E+04 -0.73278264449E+03  0.14494680369E+04  0.50400001928E-02 0.  1.
       -1    1    3    3    0  502 -0.74501337557E+02  0.12483736366E+04  0.16598273103E+04  0.20782237334E+04  0.50400001928E-02 0. -1.
</event>
<event>
 5   0  0.1010551E-06  0.3440288E+04  0.7818609E-02  0.8128089E-01
       -1   -1    0    0    0  501  0.00000000000E+00  0.00000000000E+00  0.14878431971E+04  0.14878431971E+04  0.50400001928E-02 0.  1.
        1   -1    0    0  501    0  0.00000000000E+00  0.00000000000E+00 -0.19887145444E+04  0.19887145444E+04  0.50400001928E-02 0. -1.
    10030    2    1    2    0    0  0.00000000000E+00  0.00000000000E+00 -0.50087134730E+03  0.34765577415E+04  0.34402880146E+04 0.  0.
        2    1    3    3  502    0  0.11419041483E+04 -0.23040338449E+02 -0.15502384492E+04  0.19255428301E+04  0.25500000920E-02 0. -1.
       -2    1    3    3    0  502 -0.11419041483E+04  0.23040338449E+02  0.10493671019E+04  0.15510149115E+04  0.25500000920E-02 0.  1.
</event>
<event>
 5   0  0.1010551E-06  0.3373732E+04  0.7818609E-02  0.8144384E-01
       -1   -1    0    0    0  501  0.00000000000E+00  0.00000000000E+00  0.16217299520E+04  0.16217299521E+04  0.50400001928E-02 0. -1.
        1   -1    0    0  501    0  0.00000000000E+00  0.00000000000E+00 -0.17546181066E+04  0.17546181066E+04  0.50400001928E-02 0.  1.
    10030    2    1    2    0    0  0.00000000000E+00  0.00000000000E+00 -0.13288815457E+03  0.33763480587E+04  0.33737319028E+04 0.  0.
        2    1    3    3  502    0 -0.12829807238E+03  0.15968424369E+04  0.46231264927E+03  0.16673629327E+04  0.25500000920E-02 0. -1.
       -2    1    3    3    0  502  0.12829807238E+03 -0.15968424369E+04 -0.59520080385E+03  0.17089851259E+04  0.25500000920E-02 0.  1.
</event>
<event>
 5   0  0.2848685E-06  0.3384338E+04  0.7818609E-02  0.8141761E-01
       -2   -1    0    0    0  501  0.00000000000E+00  0.00000000000E+00  0.17967434332E+04  0.17967434332E+04  0.25500000920E-02 0.  1.
        2   -1    0    0  501    0  0.00000000000E+00  0.00000000000E+00 -0.15936811422E+04  0.15936811422E+04  0.25500000920E-02 0. -1.
    10030    2    1    2    0    0  0.00000000000E+00  0.00000000000E+00  0.20306229100E+03  0.33904245754E+04  0.33843381195E+04 0.  0.
        3    1    3    3  502    0  0.49083292480E+03 -0.16506012882E+03 -0.15123515895E+04  0.15985522033E+04  0.10100000352E+00 0. -1.
       -3    1    3    3    0  502 -0.49083292480E+03  0.16506012882E+03  0.17154138805E+04  0.17918723721E+04  0.10100000352E+00 0.  1.
</event>
<event>
 5   0  0.2767014E-06  0.2675852E+04  0.7818609E-02  0.8342883E-01
       -2   -1    0    0    0  501  0.00000000000E+00  0.00000000000E+00  0.11338749703E+04  0.11338749703E+04  0.25500000920E-02 0.  1.
        2   -1    0    0  501    0  0.00000000000E+00  0.00000000000E+00 -0.15786975739E+04  0.15786975739E+04  0.25500000920E-02 0. -1.
    10030    2    1    2    0    0  0.00000000000E+00  0.00000000000E+00 -0.44482260352E+03  0.27125725442E+04  0.26758517633E+04 0.  0.
        1    1    3    3  502    0  0.42356658603E+03 -0.51049961700E+03  0.95544026147E+03  0.11631356778E+04  0.50400001928E-02 0.  1.
       -1    1    3    3    0  502 -0.42356658603E+03  0.51049961700E+03 -0.14002628650E+04  0.15494368664E+04  0.50400001928E-02 0. -1.
</event>
<event>
 5   0  0.2848685E-06  0.3471173E+04  0.7818609E-02  0.8120656E-01
        2   -1    0    0  501    0  0.00000000000E+00  0.00000000000E+00  0.19465533637E+04  0.19465533638E+04  0.25500000920E-02 0.  1.
       -2   -1    0    0    0  501  0.00000000000E+00  0.00000000000E+00 -0.15474837359E+04  0.15474837359E+04  0.25500000920E-02 0. -1.
    10030    2    1    2    0    0  0.00000000000E+00  0.00000000000E+00  0.39906962780E+03  0.34940370997E+04  0.34711725233E+04 0.  0.
        3    1    3    3  502    0  0.10895375227E+04  0.23176815741E+03 -0.11401909378E+04  0.15940024708E+04  0.10100000352E+00 0. -1.
       -3    1    3    3    0  502 -0.10895375227E+04 -0.23176815741E+03  0.15392605656E+04  0.19000346289E+04  0.10100000352E+00 0.  1.
</event>
<event>
 5   0  0.1010855E-06  0.3227001E+04  0.7818609E-02  0.8181722E-01
       -1   -1    0    0    0  501  0.00000000000E+00  0.00000000000E+00  0.22640670464E+04  0.22640670464E+04  0.50400001928E-02 0.  1.
        1   -1    0    0  501    0  0.00000000000E+00  0.00000000000E+00 -0.11498707453E+04  0.11498707453E+04  0.50400001928E-02 0. -1.
    10030    2    1    2    0    0  0.00000000000E+00  0.00000000000E+00  0.11141963011E+04  0.34139377917E+04  0.32270013709E+04 0.  0.
        1    1    3    3  502    0 -0.67874404000E+03  0.10839998977E+03  0.21014352628E+04  0.22109894150E+04  0.50400001928E-02 0.  1.
       -1    1    3    3    0  502  0.67874404000E+03 -0.10839998977E+03 -0.98723896162E+03  0.12029483767E+04  0.50400001928E-02 0. -1.
</event>
<event>
 5   0  0.2664083E-06  0.3412805E+04  0.7818609E-02  0.8134771E-01
        2   -1    0    0  501    0  0.00000000000E+00  0.00000000000E+00  0.17087433093E+04  0.17087433093E+04  0.25500000920E-02 0.  1.
       -2   -1    0    0    0  501  0.00000000000E+00  0.00000000000E+00 -0.17040648192E+04  0.17040648192E+04  0.25500000920E-02 0. -1.
    10030    2    1    2    0    0  0.00000000000E+00  0.00000000000E+00  0.46784901052E+01  0.34128081286E+04  0.34128049218E+04 0.  0.
        2    1    3    3  502    0  0.68659487232E+02  0.70673337384E+03  0.15539924589E+04  0.17085311672E+04  0.25500000920E-02 0.  1.
       -2    1    3    3    0  502 -0.68659487232E+02 -0.70673337384E+03 -0.15493139688E+04  0.17042769613E+04  0.25500000920E-02 0. -1.
</event>
<event>
 5   0  0.2664083E-06  0.2718531E+04  0.7818609E-02  0.8329017E-01
        2   -1    0    0  501    0  0.00000000000E+00  0.00000000000E+00  0.80358584146E+03  0.80358584146E+03  0.25500000920E-02 0.  1.
       -2   -1    0    0    0  501  0.00000000000E+00  0.00000000000E+00 -0.22991978934E+04  0.22991978934E+04  0.25500000920E-02 0. -1.
    10030    2    1    2    0    0  0.00000000000E+00  0.00000000000E+00 -0.14956120519E+04  0.31027837349E+04  0.27185311283E+04 0.  0.
        2    1    3    3  502    0 -0.10274462195E+04 -0.72318576835E+03 -0.15588927883E+03  0.12660745858E+04  0.25500000920E-02 0.  1.
       -2    1    3    3    0  502  0.10274462195E+04  0.72318576835E+03 -0.13397227731E+04  0.18367091491E+04  0.25500000920E-02 0. -1.
</event>
<event>
 5   0  0.1010855E-06  0.3430730E+04  0.7818609E-02  0.8130405E-01
       -1   -1    0    0    0  501  0.00000000000E+00  0.00000000000E+00  0.29199105561E+04  0.29199105561E+04  0.50400001928E-02 0. -1.
        1   -1    0    0  501    0  0.00000000000E+00  0.00000000000E+00 -0.10077287029E+04  0.10077287029E+04  0.50400001928E-02 0.  1.
    10030    2    1    2    0    0  0.00000000000E+00  0.00000000000E+00  0.19121818532E+04  0.39276392590E+04  0.34307303463E+04 0.  0.
        1    1    3    3  502    0  0.15331622746E+04 -0.36581230663E+03  0.17309310573E+04  0.23410526541E+04  0.50400001928E-02 0.  1.
       -1    1    3    3    0  502 -0.15331622746E+04  0.36581230663E+03  0.18125079592E+03  0.15865866049E+04  0.50400001928E-02 0. -1.
</event>
<event>
 5   0  0.9714317E-07  0.3281273E+04  0.7818609E-02  0.8167677E-01
        1   -1    0    0  501    0  0.00000000000E+00  0.00000000000E+00  0.16608031097E+04  0.16608031098E+04  0.50400001928E-02 0. -1.
       -1   -1    0    0    0  501  0.00000000000E+00  0.00000000000E+00 -0.16207151235E+04  0.16207151235E+04  0.50400001928E-02 0.  1.
    10030    2    1    2    0    0  0.00000000000E+00  0.00000000000E+00  0.40087986280E+02  0.32815182332E+04  0.32812733608E+04 0.  0.
        4    1    3    3  502    0 -0.12830568436E+04 -0.86270214607E+03  0.56889935127E+03  0.16474640942E+04  0.12699999809E+01 0. -1.
       -4    1    3    3    0  502  0.12830568436E+04  0.86270214607E+03 -0.52881136499E+03  0.16340541391E+04  0.12699999809E+01 0.  1.
</event>
<event>
 5   0  0.1003191E-06  0.3046215E+04  0.7818609E-02  0.8230656E-01
        1   -1    0    0  501    0  0.00000000000E+00  0.00000000000E+00  0.18662916904E+04  0.18662916904E+04  0.50400001928E-02 0. -1.
       -1   -1    0    0    0  501  0.00000000000E+00  0.00000000000E+00 -0.12430295995E+04  0.12430295995E+04  0.50400001928E-02 0.  1.
    10030    2    1    2    0    0  0.00000000000E+00  0.00000000000E+00  0.62326209089E+03  0.31093212899E+04  0.30462145772E+04 0.  0.
        5    1    3    3  502    0  0.39349272712E+02  0.15215824714E+04  0.25505590892E+03  0.15433201836E+04  0.46999998093E+01 0. -1.
       -5    1    3    3    0  502 -0.39349272712E+02 -0.15215824714E+04  0.36820618197E+03  0.15660011063E+04  0.46999998093E+01 0.  1.
</event>
<event>
 5   0  0.2856440E-06  0.3516009E+04  0.7818609E-02  0.8110006E-01
       -2   -1    0    0    0  501  0.00000000000E+00  0.00000000000E+00  0.12391166271E+04  0.12391166271E+04  0.25500000920E-02 0. -1.
        2   -1    0    0  501    0  0.00000000000E+00  0.00000000000E+00 -0.24941806092E+04  0.24941806092E+04  0.25500000920E-02 0.  1.
    10030    2    1    2    0    0  0.00000000000E+00  0.00000000000E+00 -0.12550639821E+04  0.37332972363E+04  0.35160094789E+04 0.  0.
        4    1    3    3  502    0  0.10283507765E+03 -0.11306015203E+03  0.12320489841E+04  0.12414926352E+04  0.12699999809E+01 0. -1.
       -4    1    3    3    0  502 -0.10283507765E+03  0.11306015203E+03 -0.24871129661E+04  0.24918046012E+04  0.12699999809E+01 0.  1.
</event>
<event>
 5   0  0.1003191E-06  0.3379193E+04  0.7818609E-02  0.8143032E-01
        1   -1    0    0  501    0  0.00000000000E+00  0.00000000000E+00  0.17848041953E+04  0.17848041953E+04  0.50400001928E-02 0. -1.
       -1   -1    0    0    0  501  0.00000000000E+00  0.00000000000E+00 -0.15994676450E+04  0.15994676450E+04  0.50400001928E-02 0.  1.
    10030    2    1    2    0    0  0.00000000000E+00  0.00000000000E+00  0.18533655025E+03  0.33842718403E+04  0.33791931363E+04 0.  0.
        5    1    3    3  502    0 -0.55845819737E+02 -0.68095333723E+03 -0.14549367683E+04  0.16073827462E+04  0.46999998093E+01 0.  1.
       -5    1    3    3    0  502  0.55845819737E+02  0.68095333723E+03  0.16402733186E+04  0.17768890941E+04  0.46999998093E+01 0. -1.
</event>
<event>
 5   0  0.2767014E-06  0.3459177E+04  0.7818609E-02  0.8123533E-01
        2   -1    0    0  501    0  0.00000000000E+00  0.00000000000E+00  0.24391238667E+04  0.24391238667E+04  0.25500000920E-02 0. -1.
       -2   -1    0    0    0  501  0.00000000000E+00  0.00000000000E+00 -0.12264556301E+04  0.12264556301E+04  0.25500000920E-02 0.  1.
    10030    2    1    2    0    0  0.00000000000E+00  0.00000000000E+00  0.12126682366E+04  0.36655794968E+04  0.34591774738E+04 0.  0.
        1    1    3    3  502    0 -0.50994390811E+03  0.14401719977E+04 -0.25280700463E+03  0.15485637068E+04  0.50400001928E-02 0. -1.
       -1    1    3    3    0  502  0.50994390811E+03 -0.14401719977E+04  0.14654752412E+04  0.21170157900E+04  0.50400001928E-02 0.  1.
</event>
<event>
 5   0  0.1003191E-06  0.3403133E+04  0.7818609E-02  0.8137138E-01
       -1   -1    0    0    0  501  0.00000000000E+00  0.00000000000E+00  0.18177484631E+04  0.18177484631E+04  0.50400001928E-02 0.  1.
        1   -1    0    0  501    0  0.00000000000E+00  0.00000000000E+00 -0.15928106564E+04  0.15928106565E+04  0.50400001928E-02 0. -1.
    10030    2    1    2    0    0  0.00000000000E+00  0.00000000000E+00  0.22493780667E+03  0.34105591196E+04  0.34031333343E+04 0.  0.
        5    1    3    3  502    0  0.62806657038E+03 -0.13466415221E+04 -0.71843371185E+03  0.16504787470E+04  0.46999998093E+01 0. -1.
       -5    1    3    3    0  502 -0.62806657038E+03  0.13466415221E+04  0.94337151852E+03  0.17600803726E+04  0.46999998093E+01 0.  1.
</event>
<event>
 5   0  0.9232963E-07  0.3380461E+04  0.7818609E-02  0.8142718E-01
        1   -1    0    0  501    0  0.00000000000E+00  0.00000000000E+00  0.16427015497E+04  0.16427015497E+04  0.50400001928E-02 0.  1.
       -1   -1    0    0    0  501  0.00000000000E+00  0.00000000000E+00 -0.17391350359E+04  0.17391350359E+04  0.50400001928E-02 0. -1.
    10030    2    1    2    0    0  0.00000000000E+00  0.00000000000E+00 -0.96433486217E+02  0.33818365856E+04  0.33804613997E+04 0.  0.
        3    1    3    3  502    0  0.71457202706E+03  0.11304702765E+04  0.98579144744E+03  0.16614334221E+04  0.10100000352E+00 0.  1.
       -3    1    3    3    0  502 -0.71457202706E+03 -0.11304702765E+04 -0.10822249337E+04  0.17204031636E+04  0.10100000352E+00 0. -1.
</event>
<event>
 5   0  0.9232963E-07  0.3385644E+04  0.7818609E-02  0.8141439E-01
        1   -1    0    0  501    0  0.00000000000E+00  0.00000000000E+00  0.21622733972E+04  0.21622733972E+04  0.50400001928E-02 0. -1.
       -1   -1    0    0    0  501  0.00000000000E+00  0.00000000000E+00 -0.13252933501E+04  0.13252933501E+04  0.50400001928E-02 0.  1.
    10030    2    1    2    0    0  0.00000000000E+00  0.00000000000E+00  0.83698004708E+03  0.34875667473E+04  0.33856441363E+04 0.  0.
        3    1    3    3  502    0 -0.29990448864E+03  0.13251343598E+04  0.14587030285E+04  0.19934237656E+04  0.10100000352E+00 0. -1.
       -3    1    3    3    0  502  0.29990448864E+03 -0.13251343598E+04 -0.62172298145E+03  0.14941429816E+04  0.10100000352E+00 0.  1.
</event>
<event>
 5   0  0.9070500E-07  0.2643837E+04  0.7818609E-02  0.8353461E-01
       -3   -1    0    0    0  501  0.00000000000E+00  0.00000000000E+00  0.13647681112E+04  0.13647681149E+04  0.10100000352E+00 0. -1.
        3   -1    0    0  501    0  0.00000000000E+00  0.00000000000E+00 -0.12804143737E+04  0.12804143777E+04  0.10100000352E+00 0.  1.
    10030    2    1    2    0    0  0.00000000000E+00  0.00000000000E+00  0.84353737442E+02  0.26451824926E+04  0.26438371482E+04 0.  0.
        2    1    3    3  502    0 -0.65201310706E+02  0.10253619655E+03 -0.12748150416E+04  0.12805929380E+04  0.25500000920E-02 0.  1.
       -2    1    3    3    0  502  0.65201310706E+02 -0.10253619655E+03  0.13591687791E+04  0.13645895546E+04  0.25500000920E-02 0. -1.
</event>
<event>
 5   0  0.2856440E-06  0.3258303E+04  0.7818609E-02  0.8173587E-01
        2   -1    0    0  501    0  0.00000000000E+00  0.00000000000E+00  0.16314736465E+04  0.16314736465E+04  0.25500000920E-02 0. -1.
       -2   -1    0    0    0  501  0.00000000000E+00  0.00000000000E+00 -0.16268325116E+04  0.16268325116E+04  0.25500000920E-02 0.  1.
    10030    2    1    2    0    0  0.00000000000E+00  0.00000000000E+00  0.46411348181E+01  0.32583061581E+04  0.32583028527E+04 0.  0.
        4    1    3    3  502    0 -0.66716033821E+03 -0.61502886736E+03  0.13553811895E+04  0.16310803801E+04  0.12699999809E+01 0. -1.
       -4    1    3    3    0  502  0.66716033821E+03  0.61502886736E+03 -0.13507400546E+04  0.16272257780E+04  0.12699999809E+01 0.  1.
</event>
<event>
 5   0  0.2848685E-06  0.2567242E+04  0.7818609E-02  0.8379414E-01
        2   -1    0    0  501    0  0.00000000000E+00  0.00000000000E+00  0.12906193219E+04  0.12906193219E+04  0.25500000920E-02 0. -1.
       -2   -1    0    0    0  501  0.00000000000E+00  0.00000000000E+00 -0.12766603212E+04  0.12766603212E+04  0.25500000920E-02 0.  1.
    10030    2    1    2    0    0  0.00000000000E+00  0.00000000000E+00  0.13959000697E+02  0.25672796430E+04  0.25672416933E+04 0.  0.
        3    1    3    3  502    0  0.90851274807E+03 -0.57405229789E+03 -0.69499313569E+03  0.12798230045E+04  0.10100000352E+00 0.  1.
       -3    1    3    3    0  502 -0.90851274807E+03  0.57405229789E+03  0.70895213639E+03  0.12874566385E+04  0.10100000352E+00 0. -1.
</event>
<event>
 5   0  0.2664083E-06  0.3336314E+04  0.7818609E-02  0.8153716E-01
       -2   -1    0    0    0  501  0.00000000000E+00  0.00000000000E+00  0.19320495022E+04  0.19320495022E+04  0.25500000920E-02 0. -1.
        2   -1    0    0  501    0  0.00000000000E+00  0.00000000000E+00 -0.14403089736E+04  0.14403089736E+04  0.25500000920E-02 0.  1.
    10030    2    1    2    0    0  0.00000000000E+00  0.00000000000E+00  0.49174052858E+03  0.33723584758E+04  0.33363142750E+04 0.  0.
        2    1    3    3  502    0 -0.45752981187E+03  0.15223801356E+04  0.75707455797E+03  0.17607205037E+04  0.25500000920E-02 0. -1.
       -2    1    3    3    0  502  0.45752981187E+03 -0.15223801356E+04 -0.26533402939E+03  0.16116379721E+04  0.25500000920E-02 0.  1.
</event>
<event>
 5   0  0.2767014E-06  0.3404784E+04  0.7818609E-02  0.8136733E-01
        2   -1    0    0  501    0  0.00000000000E+00  0.00000000000E+00  0.16110431282E+04  0.16110431282E+04  0.25500000920E-02 0.  1.
       -2   -1    0    0    0  501  0.00000000000E+00  0.00000000000E+00 -0.17989201481E+04  0.17989201481E+04  0.25500000920E-02 0. -1.
    10030    2    1    2    0    0  0.00000000000E+00  0.00000000000E+00 -0.18787701989E+03  0.34099632763E+04  0.34047836600E+04 0.  0.
        1    1    3    3  502    0  0.76622632428E+03  0.11423961827E+04  0.91056592368E+03  0.16496369660E+04  0.50400001928E-02 0.  1.
       -1    1    3    3    0  502 -0.76622632428E+03 -0.11423961827E+04 -0.10984429436E+04  0.17603263103E+04  0.50400001928E-02 0. -1.
</event>
<event>
 5   0  0.2906701E-06  0.3248986E+04  0.7818609E-02  0.8175999E-01
        2   -1    0    0  501    0  0.00000000000E+00  0.00000000000E+00  0.15669949453E+04  0.15669949453E+04  0.25500000920E-02 0. -1.
       -2   -1    0    0    0  501  0.00000000000E+00  0.00000000000E+00 -0.16841010958E+04  0.16841010958E+04  0.25500000920E-02 0.  1.
    10030    2    1    2    0    0  0.00000000000E+00  0.00000000000E+00 -0.11710615051E+03  0.32510960412E+04  0.32489862447E+04 0.  0.
        5    1    3    3  502    0 -0.86676339342E+03 -0.10459474944E+04  0.83290751343E+03  0.15934371520E+04  0.46999998093E+01 0. -1.
       -5    1    3    3    0  502  0.86676339342E+03  0.10459474944E+04 -0.95001366394E+03  0.16576588892E+04  0.46999998093E+01 0.  1.
</event>
<event>
 5   0  0.2848685E-06  0.3294225E+04  0.7818609E-02  0.8164366E-01
       -2   -1    0    0    0  501  0.00000000000E+00  0.00000000000E+00  0.14599513901E+04  0.14599513901E+04  0.25500000920E-02 0.  1.
        2   -1    0    0  501    0  0.00000000000E+00  0.00000000000E+00 -0.18582669294E+04  0.18582669294E+04  0.25500000920E-02 0. -1.
    10030    2    1    2    0    0  0.00000000000E+00  0.00000000000E+00 -0.39831553928E+03  0.33182183196E+04  0.32942248781E+04 0.  0.
        3    1    3    3  502    0 -0.77067063979E+03  0.38141553845E+03  0.12159118188E+04  0.14892456511E+04  0.10100000352E+00 0.  1.
       -3    1    3    3    0  502  0.77067063979E+03 -0.38141553845E+03 -0.16142273581E+04  0.18289726684E+04  0.10100000352E+00 0. -1.
</event>
<event>
 5   0  0.9232963E-07  0.2581361E+04  0.7818609E-02  0.8374560E-01
       -1   -1    0    0    0  501  0.00000000000E+00  0.00000000000E+00  0.82096982132E+03  0.82096982134E+03  0.50400001928E-02 0. -1.
        1   -1    0    0  501    0  0.00000000000E+00  0.00000000000E+00 -0.20291321298E+04  0.20291321298E+04  0.50400001928E-02 0.  1.
    10030    2    1    2    0    0  0.00000000000E+00  0.00000000000E+00 -0.12081623084E+04  0.28501019511E+04  0.25813610689E+04 0.  0.
        3    1    3    3  502    0 -0.12506399601E+04  0.16026034075E+03 -0.29955428809E+03  0.12959615998E+04  0.10100000352E+00 0.  1.
       -3    1    3    3    0  502  0.12506399601E+04 -0.16026034075E+03 -0.90860802035E+03  0.15541403513E+04  0.10100000352E+00 0. -1.
</event>
<event>
 5   0  0.9232963E-07  0.3387403E+04  0.7818609E-02  0.8141005E-01
       -1   -1    0    0    0  501  0.00000000000E+00  0.00000000000E+00  0.11033461945E+04  0.11033461946E+04  0.50400001928E-02 0.  1.
        1   -1    0    0  501    0  0.00000000000E+00  0.00000000000E+00 -0.25999310721E+04  0.25999310721E+04  0.50400001928E-02 0. -1.
    10030    2    1    2    0    0  0.00000000000E+00  0.00000000000E+00 -0.14965848776E+04  0.37032772667E+04  0.33874025769E+04 0.  0.
        3    1    3    3  502    0 -0.68834136924E+03  0.12785023548E+04 -0.17015172231E+04  0.22368600722E+04  0.10100000352E+00 0. -1.
       -3    1    3    3    0  502  0.68834136924E+03 -0.12785023548E+04  0.20493234558E+03  0.14664171945E+04  0.10100000352E+00 0.  1.
</event>
<event>
 5   0  0.1003191E-06  0.3245642E+04  0.7818609E-02  0.8176866E-01
        1   -1    0    0  501    0  0.00000000000E+00  0.00000000000E+00  0.23248429183E+04  0.23248429183E+04  0.50400001928E-02 0.  1.
       -1   -1    0    0    0  501  0.00000000000E+00  0.00000000000E+00 -0.11327855624E+04  0.11327855624E+04  0.50400001928E-02 0. -1.
    10030    2    1    2    0    0  0.00000000000E+00  0.00000000000E+00  0.11920573559E+04  0.34576284807E+04  0.32456423048E+04 0.  0.
        5    1    3    3  502    0 -0.14932630800E+03  0.10544381713E+04  0.19005005399E+04  0.21785459820E+04  0.46999998093E+01 0.  1.
       -5    1    3    3    0  502  0.14932630800E+03 -0.10544381713E+04 -0.70844318404E+03  0.12790824987E+04  0.46999998093E+01 0. -1.
</event>
<event>
 5   0  0.9232963E-07  0.3217738E+04  0.7818609E-02  0.8184148E-01
        1   -1    0    0  501    0  0.00000000000E+00  0.00000000000E+00  0.17935898019E+04  0.17935898019E+04  0.50400001928E-02 0.  1.
       -1   -1    0    0    0  501  0.00000000000E+00  0.00000000000E+00 -0.14431722833E+04  0.14431722833E+04  0.50400001928E-02 0. -1.
    10030    2    1    2    0    0  0.00000000000E+00  0.00000000000E+00  0.35041751856E+03  0.32367620852E+04  0.32177377704E+04 0.  0.
        3    1    3    3  502    0 -0.87323098625E+03  0.13511428839E+04  0.19374681096E+03  0.16203880045E+04  0.10100000352E+00 0. -1.
       -3    1    3    3    0  502  0.87323098625E+03 -0.13511428839E+04  0.15667070760E+03  0.16163740807E+04  0.10100000352E+00 0.  1.
</event>
<event>
 5   0  0.2664083E-06  0.3184555E+04  0.7818609E-02  0.8192908E-01
        2   -1    0    0  501    0  0.00000000000E+00  0.00000000000E+00  0.30223870227E+04  0.30223870227E+04  0.25500000920E-02 0. -1.
       -2   -1    0    0    0  501  0.00000000000E+00  0.00000000000E+00 -0.83885600846E+03  0.83885600847E+03  0.25500000920E-02 0.  1.
    10030    2    1    2    0    0  0.00000000000E+00  0.00000000000E+00  0.21835310143E+04  0.38612430312E+04  0.31845549227E+04 0.  0.
        2    1    3    3  502    0 -0.13909569925E+04 -0.66991199676E+03  0.61935438916E+03  0.16634732633E+04  0.25500000920E-02 0.  1.
       -2    1    3    3    0  502  0.13909569925E+04  0.66991199676E+03  0.15641766251E+04  0.21977697679E+04  0.25500000920E-02 0. -1.
</event>
<event>
 5   0  0.2848685E-06  0.3454935E+04  0.7818609E-02  0.8124554E-01
       -2   -1    0    0    0  501  0.00000000000E+00  0.00000000000E+00  0.10588083519E+04  0.10588083519E+04  0.25500000920E-02 0.  1.
        2   -1    0    0  501    0  0.00000000000E+00  0.00000000000E+00 -0.28183982338E+04  0.28183982338E+04  0.25500000920E-02 0. -1.
    10030    2    1    2    0    0  0.00000000000E+00  0.00000000000E+00 -0.17595898819E+04  0.38772065857E+04  0.34549347831E+04 0.  0.
        3    1    3    3  502    0  0.30574488726E+03 -0.14201705666E+04 -0.19288056942E+04  0.24146750901E+04  0.10100000352E+00 0. -1.
       -3    1    3    3    0  502 -0.30574488726E+03  0.14201705666E+04  0.16921581235E+03  0.14625314956E+04  0.10100000352E+00 0.  1.
</event>
<event>
 5   0  0.9232963E-07  0.3412862E+04  0.7818609E-02  0.8134757E-01
       -1   -1    0    0    0  501  0.00000000000E+00  0.00000000000E+00  0.12823153419E+04  0.12823153420E+04  0.50400001928E-02 0. -1.
        1   -1    0    0  501    0  0.00000000000E+00  0.00000000000E+00 -0.22708202087E+04  0.22708202087E+04  0.50400001928E-02 0.  1.
    10030    2    1    2    0    0  0.00000000000E+00  0.00000000000E+00 -0.98850486674E+03  0.35531355506E+04  0.34128624891E+04 0.  0.
        3    1    3    3  502    0  0.44288707354E+03 -0.52934518582E+03 -0.21190217747E+04  0.22285889207E+04  0.10100000352E+00 0.  1.
       -3    1    3    3    0  502 -0.44288707354E+03  0.52934518582E+03  0.11305169079E+04  0.13245466300E+04  0.10100000352E+00 0. -1.
</event>
<event>
 5   0  0.1010551E-06  0.3375518E+04  0.7818609E-02  0.8143941E-01
       -1   -1    0    0    0  501  0.00000000000E+00  0.00000000000E+00  0.15182460551E+04  0.15182460551E+04  0.50400001928E-02 0.  1.
        1   -1    0    0  501    0  0.00000000000E+00  0.00000000000E+00 -0.18761984244E+04  0.18761984244E+04  0.50400001928E-02 0. -1.
    10030    2    1    2    0    0  0.00000000000E+00  0.00000000000E+00 -0.35795236930E+03  0.33944444795E+04  0.33755182455E+04 0.  0.
        2    1    3    3  502    0 -0.11438723600E+04 -0.63600003349E+03 -0.12505921858E+04  0.18102267355E+04  0.25500000920E-02 0. -1.
       -2    1    3    3    0  502  0.11438723600E+04  0.63600003349E+03  0.89263981649E+03  0.15842177441E+04  0.25500000920E-02 0.  1.
</event>
<event>
 5   0  0.2664083E-06  0.3380273E+04  0.7818609E-02  0.8142765E-01
        2   -1    0    0  501    0  0.00000000000E+00  0.00000000000E+00  0.18978830165E+04  0.18978830165E+04  0.25500000920E-02 0.  1.
       -2   -1    0    0    0  501  0.00000000000E+00  0.00000000000E+00 -0.15051307823E+04  0.15051307823E+04  0.25500000920E-02 0. -1.
    10030    2    1    2    0    0  0.00000000000E+00  0.00000000000E+00  0.39275223414E+03  0.34030137988E+04  0.33802734501E+04 0.  0.
        2    1    3    3  502    0  0.31649622219E+03 -0.26985031471E+03  0.18455581343E+04  0.18918440417E+04  0.25500000920E-02 0.  1.
       -2    1    3    3    0  502 -0.31649622219E+03  0.26985031471E+03 -0.14528059002E+04  0.15111697571E+04  0.25500000920E-02 0. -1.
</event>
<event>
 5   0  0.9714317E-07  0.3387163E+04  0.7818609E-02  0.8141064E-01
        1   -1    0    0  501    0  0.00000000000E+00  0.00000000000E+00  0.11914131083E+04  0.11914131083E+04  0.50400001928E-02 0.  1.
       -1   -1    0    0    0  501  0.00000000000E+00  0.00000000000E+00 -0.24074093248E+04  0.24074093248E+04  0.50400001928E-02 0. -1.
    10030    2    1    2    0    0  0.00000000000E+00  0.00000000000E+00 -0.12159962165E+04  0.35988224331E+04  0.33871634307E+04 0.  0.
        4    1    3    3  502    0  0.45741365213E+03  0.55451647224E+03 -0.22372825511E+04  0.23499256570E+04  0.12699999809E+01 0. -1.
       -4    1    3    3    0  502 -0.45741365213E+03 -0.55451647224E+03  0.10212863346E+04  0.12488967761E+04  0.12699999809E+01 0.  1.
</event>
<event>
 5   0  0.2767014E-06  0.3487178E+04  0.7818609E-02  0.8116835E-01
       -2   -1    0    0    0  501  0.00000000000E+00  0.00000000000E+00  0.12871138890E+04  0.12871138890E+04  0.25500000920E-02 0.  1.
        2   -1    0    0  501    0  0.00000000000E+00  0.00000000000E+00 -0.23619529774E+04  0.23619529774E+04  0.25500000920E-02 0. -1.
    10030    2    1    2    0    0  0.00000000000E+00  0.00000000000E+00 -0.10748390884E+04  0.36490668664E+04  0.34871779320E+04 0.  0.
        1    1    3    3  502    0  0.13298926625E+04  0.73003125326E+02 -0.17148947118E+04  0.21713608228E+04  0.50400001928E-02 0. -1.
       -1    1    3    3    0  502 -0.13298926625E+04 -0.73003125326E+02  0.64005562339E+03  0.14777060436E+04  0.50400001928E-02 0.  1.
</event>
<event>
 5   0  0.9714317E-07  0.3400787E+04  0.7818609E-02  0.8137713E-01
       -1   -1    0    0    0  501  0.00000000000E+00  0.00000000000E+00  0.15339345819E+04  0.15339345819E+04  0.50400001928E-02 0.  1.
        1   -1    0    0  501    0  0.00000000000E+00  0.00000000000E+00 -0.18849158269E+04  0.18849158269E+04  0.50400001928E-02 0. -1.
    10030    2    1    2    0    0  0.00000000000E+00  0.00000000000E+00 -0.35098124500E+03  0.34188504089E+04  0.34007867155E+04 0.  0.
        4    1    3    3  502    0 -0.40026182510E+03  0.12215432748E+04  0.94350677266E+03  0.15945482570E+04  0.12699999809E+01 0.  1.
       -4    1    3    3    0  502  0.40026182510E+03 -0.12215432748E+04 -0.12944880177E+04  0.18243021519E+04  0.12699999809E+01 0. -1.
</event>
<event>
 5   0  0.9232963E-07  0.3459968E+04  0.7818609E-02  0.8123343E-01
       -1   -1    0    0    0  501  0.00000000000E+00  0.00000000000E+00  0.15320598408E+04  0.15320598408E+04  0.50400001928E-02 0.  1.
        1   -1    0    0  501    0  0.00000000000E+00  0.00000000000E+00 -0.19534775634E+04  0.19534775634E+04  0.50400001928E-02 0. -1.
    10030    2    1    2    0    0  0.00000000000E+00  0.00000000000E+00 -0.42141772261E+03  0.34855374042E+04  0.34599679333E+04 0.  0.
        3    1    3    3  502    0  0.30165757374E+03 -0.17011030078E+04 -0.30135034712E+03  0.17537276803E+04  0.10100000352E+00 0. -1.
       -3    1    3    3    0  502 -0.30165757374E+03  0.17011030078E+04 -0.12006737549E+03  0.17318097239E+04  0.10100000352E+00 0.  1.
</event>
<event>
 5   0  0.1010551E-06  0.2269114E+04  0.7818609E-02  0.8490199E-01
       -1   -1    0    0    0  501  0.00000000000E+00  0.00000000000E+00  0.86163564559E+03  0.86163564561E+03  0.50400001928E-02 0.  1.
        1   -1    0    0  501    0  0.00000000000E+00  0.00000000000E+00 -0.14939262003E+04  0.14939262003E+04  0.50400001928E-02 0. -1.
    10030    2    1    2    0    0  0.00000000000E+00  0.00000000000E+00 -0.63229055475E+03  0.23555618460E+04  0.22691144230E+04 0.  0.
        2    1    3    3  502    0 -0.56570015503E+03  0.53508792532E+03  0.54044823176E+03  0.94785022257E+03  0.25500000920E-02 0.  1.
       -2    1    3    3    0  502  0.56570015503E+03 -0.53508792532E+03 -0.11727387865E+04  0.14077116234E+04  0.25500000920E-02 0. -1.
</event>
<event>
 5   0  0.2767014E-06  0.2730883E+04  0.7818609E-02  0.8325054E-01
       -2   -1    0    0    0  501  0.00000000000E+00  0.00000000000E+00  0.93366590051E+03  0.93366590051E+03  0.25500000920E-02 0. -1.
        2   -1    0    0  501    0  0.00000000000E+00  0.00000000000E+00 -0.19968920690E+04  0.19968920690E+04  0.25500000920E-02 0.  1.
    10030    2    1    2    0    0  0.00000000000E+00  0.00000000000E+00 -0.10632261685E+04  0.29305579695E+04  0.27308826645E+04 0.  0.
        1    1    3    3  502    0 -0.84938582701E+03  0.22520686264E+02 -0.16786278957E+04  0.18814236834E+04  0.50400001928E-02 0.  1.
       -1    1    3    3    0  502  0.84938582701E+03 -0.22520686264E+02  0.61540172716E+03  0.10491342861E+04  0.50400001928E-02 0. -1.
</event>
<event>
 5   0  0.2906701E-06  0.2444305E+04  0.7818609E-02  0.8423100E-01
       -2   -1    0    0    0  501  0.00000000000E+00  0.00000000000E+00  0.10618053794E+04  0.10618053794E+04  0.25500000920E-02 0. -1.
        2   -1    0    0  501    0  0.00000000000E+00  0.00000000000E+00 -0.14067142636E+04  0.14067142636E+04  0.25500000920E-02 0.  1.
    10030    2    1    2    0    0  0.00000000000E+00  0.00000000000E+00 -0.34490888424E+03  0.24685196430E+04  0.24443050320E+04 0.  0.
        5    1    3    3  502    0  0.79786978119E+02 -0.90775234144E+03  0.65001781527E+03  0.11193415589E+04  0.46999998093E+01 0. -1.
       -5    1    3    3    0  502 -0.79786978119E+02  0.90775234144E+03 -0.99492669950E+03  0.13491780841E+04  0.46999998093E+01 0.  1.
</event>
<event>
 5   0  0.1003191E-06  0.3386826E+04  0.7818609E-02  0.8141147E-01
       -1   -1    0    0    0  501  0.00000000000E+00  0.00000000000E+00  0.34248317243E+04  0.34248317243E+04  0.50400001928E-02 0. -1.
        1   -1    0    0  501    0  0.00000000000E+00  0.00000000000E+00 -0.83731036968E+03  0.83731036969E+03  0.50400001928E-02 0.  1.
    10030    2    1    2    0    0  0.00000000000E+00  0.00000000000E+00  0.25875213546E+04  0.42621420940E+04  0.33868257216E+04 0.  0.
        5    1    3    3  502    0  0.84941402253E+03 -0.35793087586E+03  0.30814676641E+04  0.32163774263E+04  0.46999998093E+01 0. -1.
       -5    1    3    3    0  502 -0.84941402253E+03  0.35793087586E+03 -0.49394630947E+03  0.10457646677E+04  0.46999998093E+01 0.  1.
</event>
<event>
 5   0  0.2856440E-06  0.3314556E+04  0.7818609E-02  0.8159201E-01
        2   -1    0    0  501    0  0.00000000000E+00  0.00000000000E+00  0.17655909268E+04  0.17655909268E+04  0.25500000920E-02 0. -1.
       -2   -1    0    0    0  501  0.00000000000E+00  0.00000000000E+00 -0.15556100903E+04  0.15556100903E+04  0.25500000920E-02 0.  1.
    10030    2    1    2    0    0  0.00000000000E+00  0.00000000000E+00  0.20998083649E+03  0.33212010172E+04  0.33145564175E+04 0.  0.
        4    1    3    3  502    0 -0.10620894969E+04 -0.37321061378E+03  0.13236724733E+04  0.17376509117E+04  0.12699999809E+01 0. -1.
       -4    1    3    3    0  502  0.10620894969E+04  0.37321061378E+03 -0.11136916368E+04  0.15835501054E+04  0.12699999809E+01 0.  1.
</event>
<event>
 5   0  0.1010855E-06  0.3387324E+04  0.7818609E-02  0.8141025E-01
       -1   -1    0    0    0  501  0.00000000000E+00  0.00000000000E+00  0.10858289694E+04  0.10858289694E+04  0.50400001928E-02 0.  1.
        1   -1    0    0  501    0  0.00000000000E+00  0.00000000000E+00 -0.26417516997E+04  0.26417516997E+04  0.50400001928E-02 0. -1.
    10030    2    1    2    0    0  0.00000000000E+00  0.00000000000E+00 -0.15559227304E+04  0.37275806691E+04  0.33873237374E+04 0.  0.
        1    1    3    3  502    0 -0.95478891977E+03  0.10520183793E+04 -0.17926013851E+04  0.22873093970E+04  0.50400001928E-02 0. -1.
       -1    1    3    3    0  502  0.95478891977E+03 -0.10520183793E+04  0.23667865477E+03  0.14402712721E+04  0.50400001928E-02 0.  1.
</event>
<event>
 5   0  0.1003191E-06  0.3379963E+04  0.7818609E-02  0.8142842E-01
       -1   -1    0    0    0  501  0.00000000000E+00  0.00000000000E+00  0.20113674467E+04  0.20113674467E+04  0.50400001928E-02 0. -1.
        1   -1    0    0  501    0  0.00000000000E+00  0.00000000000E+00 -0.14199477992E+04  0.14199477992E+04  0.50400001928E-02 0.  1.
    10030    2    1    2    0    0  0.00000000000E+00  0.00000000000E+00  0.59141964755E+03  0.34313152459E+04  0.33799625911E+04 0.  0.
        5    1    3    3  502    0  0.12337201820E+04 -0.11116405573E+04  0.61384695576E+03  0.17704915677E+04  0.46999998093E+01 0. -1.
       -5    1    3    3    0  502 -0.12337201820E+04  0.11116405573E+04 -0.22427308206E+02  0.16608236783E+04  0.46999998093E+01 0.  1.
</event>
<event>
 5   0  0.1010551E-06  0.3438228E+04  0.7818609E-02  0.8128587E-01
       -1   -1    0    0    0  501  0.00000000000E+00  0.00000000000E+00  0.15942565611E+04  0.15942565611E+04  0.50400001928E-02 0.  1.
        1   -1    0    0  501    0  0.00000000000E+00  0.00000000000E+00 -0.18537500777E+04  0.18537500777E+04  0.50400001928E-02 0. -1.
    10030    2    1    2    0    0  0.00000000000E+00  0.00000000000E+00 -0.25949351665E+03  0.34480066388E+04  0.34382281623E+04 0.  0.
        2    1    3    3  502    0  0.10407469189E+04  0.13587556964E+04 -0.29139461808E+03  0.17361687750E+04  0.25500000920E-02 0.  1.
       -2    1    3    3    0  502 -0.10407469189E+04 -0.13587556964E+04  0.31901101432E+02  0.17118378638E+04  0.25500000920E-02 0. -1.
</event>
<event>
 5   0  0.1010551E-06  0.3392867E+04  0.7818609E-02  0.8139659E-01
        1   -1    0    0  501    0  0.00000000000E+00  0.00000000000E+00  0.18380941704E+04  0.18380941704E+04  0.50400001928E-02 0.  1.
       -1   -1    0    0    0  501  0.00000000000E+00  0.00000000000E+00 -0.15656902651E+04  0.15656902651E+04  0.50400001928E-02 0. -1.
    10030    2    1    2    0    0  0.00000000000E+00  0.00000000000E+00  0.27240390531E+03  0.34037844355E+04  0.33928667223E+04 0.  0.
        2    1    3    3  502    0  0.84711189924E+03  0.40878383709E+02 -0.13377488835E+04  0.15839323494E+04  0.25500000920E-02 0. -1.
       -2    1    3    3    0  502 -0.84711189924E+03 -0.40878383709E+02  0.16101527888E+04  0.18198520861E+04  0.25500000920E-02 0.  1.
</event>
<event>
 5   0  0.9070500E-07  0.3349961E+04  0.7818609E-02  0.8150298E-01
       -3   -1    0    0    0  501  0.00000000000E+00  0.00000000000E+00  0.14376738250E+04  0.14376738286E+04  0.10100000352E+00 0.  1.
        3   -1    0    0  501    0  0.00000000000E+00  0.00000000000E+00 -0.19514571499E+04  0.19514571525E+04  0.10100000352E+00 0. -1.
    10030    2    1    2    0    0  0.00000000000E+00  0.00000000000E+00 -0.51378332491E+03  0.33891309811E+04  0.33499605225E+04 0.  0.
        2    1    3    3  502    0 -0.49499601802E+03  0.75908892749E+03 -0.16820224361E+04  0.19106115600E+04  0.25500000920E-02 0. -1.
       -2    1    3    3    0  502  0.49499601802E+03 -0.75908892749E+03  0.11682391112E+04  0.14785194211E+04  0.25500000920E-02 0.  1.
</event>
<event>
 5   0  0.1003191E-06  0.3396922E+04  0.7818609E-02  0.8138662E-01
        1   -1    0    0  501    0  0.00000000000E+00  0.00000000000E+00  0.22814558674E+04  0.22814558674E+04  0.50400001928E-02 0. -1.
       -1   -1    0    0    0  501  0.00000000000E+00  0.00000000000E+00 -0.12644428422E+04  0.12644428422E+04  0.50400001928E-02 0.  1.
    10030    2    1    2    0    0  0.00000000000E+00  0.00000000000E+00  0.10170130252E+04  0.35458987096E+04  0.33969224551E+04 0.  0.
        5    1    3    3  502    0 -0.12979550054E+04 -0.82403079692E+03 -0.24497731194E+03  0.15568397232E+04  0.46999998093E+01 0.  1.
       -5    1    3    3    0  502  0.12979550054E+04  0.82403079692E+03  0.12619903372E+04  0.19890589864E+04  0.46999998093E+01 0. -1.
</event>
<event>
 5   0  0.1010551E-06  0.3342259E+04  0.7818609E-02  0.8152225E-01
       -1   -1    0    0    0  501  0.00000000000E+00  0.00000000000E+00  0.18894024249E+04  0.18894024249E+04  0.50400001928E-02 0. -1.
        1   -1    0    0  501    0  0.00000000000E+00  0.00000000000E+00 -0.14780727545E+04  0.14780727545E+04  0.50400001928E-02 0.  1.
    10030    2    1    2    0    0  0.00000000000E+00  0.00000000000E+00  0.41132967039E+03  0.33674751794E+04  0.33422592638E+04 0.  0.
        2    1    3    3  502    0 -0.16278941447E+04 -0.16462055548E+03 -0.13680395621E+03  0.16419057817E+04  0.25500000920E-02 0. -1.
       -2    1    3    3    0  502  0.16278941447E+04  0.16462055548E+03  0.54813362660E+03  0.17255693977E+04  0.25500000920E-02 0.  1.
</event>
<event>
 5   0  0.1010551E-06  0.3624297E+04  0.7818609E-02  0.8084949E-01
        1   -1    0    0  501    0  0.00000000000E+00  0.00000000000E+00  0.16488460979E+04  0.16488460979E+04  0.50400001928E-02 0.  1.
       -1   -1    0    0    0  501  0.00000000000E+00  0.00000000000E+00 -0.19916245030E+04  0.19916245030E+04  0.50400001928E-02 0. -1.
    10030    2    1    2    0    0  0.00000000000E+00  0.00000000000E+00 -0.34277840503E+03  0.36404706009E+04  0.36242970575E+04 0.  0.
        2    1    3    3  502    0  0.93195196109E+03  0.10912528387E+04  0.94012703058E+03  0.17155774682E+04  0.25500000920E-02 0.  1.
       -2    1    3    3    0  502 -0.93195196109E+03 -0.10912528387E+04 -0.12829054356E+04  0.19248931327E+04  0.25500000920E-02 0. -1.
</event>
<event>
 5   0  0.1010551E-06  0.3376849E+04  0.7818609E-02  0.8143612E-01
        1   -1    0    0  501    0  0.00000000000E+00  0.00000000000E+00  0.24147565268E+04  0.24147565268E+04  0.50400001928E-02 0. -1.
       -1   -1    0    0    0  501  0.00000000000E+00  0.00000000000E+00 -0.11805652477E+04  0.11805652477E+04  0.50400001928E-02 0.  1.
    10030    2    1    2    0    0  0.00000000000E+00  0.00000000000E+00  0.12341912791E+04  0.35953217745E+04  0.33768492043E+04 0.  0.
        2    1    3    3  502    0  0.95539215736E+03 -0.67923240302E+03 -0.67669621550E+03  0.13535318983E+04  0.25500000920E-02 0.  1.
       -2    1    3    3    0  502 -0.95539215736E+03  0.67923240302E+03  0.19108874946E+04  0.22417898761E+04  0.25500000920E-02 0. -1.
</event>
<event>
 5   0  0.2767014E-06  0.3379792E+04  0.7818609E-02  0.8142884E-01
       -2   -1    0    0    0  501  0.00000000000E+00  0.00000000000E+00  0.29202808598E+04  0.29202808598E+04  0.25500000920E-02 0.  1.
        2   -1    0    0  501    0  0.00000000000E+00  0.00000000000E+00 -0.97790180414E+03  0.97790180414E+03  0.25500000920E-02 0. -1.
    10030    2    1    2    0    0  0.00000000000E+00  0.00000000000E+00  0.19423790557E+04  0.38981826639E+04  0.33797916630E+04 0.  0.
        1    1    3    3  502    0  0.37597067456E+03  0.61222534628E+02 -0.92773908913E+03  0.10028967865E+04  0.50400001928E-02 0. -1.
       -1    1    3    3    0  502 -0.37597067456E+03 -0.61222534628E+02  0.28701181448E+04  0.28952858774E+04  0.50400001928E-02 0.  1.
</event>
<event>
 5   0  0.1003191E-06  0.3371999E+04  0.7818609E-02  0.8144813E-01
        1   -1    0    0  501    0  0.00000000000E+00  0.00000000000E+00  0.17288656939E+04  0.17288656939E+04  0.50400001928E-02 0. -1.
       -1   -1    0    0    0  501  0.00000000000E+00  0.00000000000E+00 -0.16441958150E+04  0.16441958150E+04  0.50400001928E-02 0.  1.
    10030    2    1    2    0    0  0.00000000000E+00  0.00000000000E+00  0.84669878893E+02  0.33730615090E+04  0.33719986588E+04 0.  0.
        5    1    3    3  502    0  0.22055849858E+03 -0.79293330788E+03 -0.14295847282E+04  0.16495829373E+04  0.46999998093E+01 0.  1.
       -5    1    3    3    0  502 -0.22055849858E+03  0.79293330788E+03  0.15142546071E+04  0.17234785717E+04  0.46999998093E+01 0. -1.
</event>
<event>
 5   0  0.1010551E-06  0.2816714E+04  0.7818609E-02  0.8298098E-01
       -1   -1    0    0    0  501  0.00000000000E+00  0.00000000000E+00  0.12011835268E+04  0.12011835268E+04  0.50400001928E-02 0. -1.
        1   -1    0    0  501    0  0.00000000000E+00  0.00000000000E+00 -0.16512625090E+04  0.16512625090E+04  0.50400001928E-02 0.  1.
    10030    2    1    2    0    0  0.00000000000E+00  0.00000000000E+00 -0.45007898218E+03  0.28524460359E+04  0.28167139183E+04 0.  0.
        2    1    3    3  502    0 -0.12196271185E+04 -0.60690060586E+03 -0.58685422456E+03  0.14833126894E+04  0.25500000920E-02 0.  1.
       -2    1    3    3    0  502  0.12196271185E+04  0.60690060586E+03  0.13677524238E+03  0.13691333465E+04  0.25500000920E-02 0. -1.
</event>
<event>
 5   0  0.1010855E-06  0.3355187E+04  0.7818609E-02  0.8148993E-01
       -1   -1    0    0    0  501  0.00000000000E+00  0.00000000000E+00  0.15431566997E+04  0.15431566997E+04  0.50400001928E-02 0.  1.
        1   -1    0    0  501    0  0.00000000000E+00  0.00000000000E+00 -0.18237417678E+04  0.18237417678E+04  0.50400001928E-02 0. -1.
    10030    2    1    2    0    0  0.00000000000E+00  0.00000000000E+00 -0.28058506810E+03  0.33668984674E+04  0.33551866281E+04 0.  0.
        1    1    3    3  502    0  0.15083697221E+04  0.54084671299E+03  0.35805445137E+03  0.16419188091E+04  0.50400001928E-02 0.  1.
       -1    1    3    3    0  502 -0.15083697221E+04 -0.54084671299E+03 -0.63863951947E+03  0.17249796583E+04  0.50400001928E-02 0. -1.
</event>
<event>
 5   0  0.2906701E-06  0.3408211E+04  0.7818609E-02  0.8135894E-01
        2   -1    0    0  501    0  0.00000000000E+00  0.00000000000E+00  0.18024271377E+04  0.18024271377E+04  0.25500000920E-02 0. -1.
       -2   -1    0    0    0  501  0.00000000000E+00  0.00000000000E+00 -0.16111468157E+04  0.16111468157E+04  0.25500000920E-02 0.  1.
    10030    2    1    2    0    0  0.00000000000E+00  0.00000000000E+00  0.19128032206E+03  0.34135739534E+04  0.34082105237E+04 0.  0.
        5    1    3    3  502    0 -0.55882894649E+03  0.74609413033E+03  0.15244215805E+04  0.17868490389E+04  0.46999998093E+01 0. -1.
       -5    1    3    3    0  502  0.55882894649E+03 -0.74609413033E+03 -0.13331412584E+04  0.16267249145E+04  0.46999998093E+01 0.  1.
</event>
<event>
 5   0  0.2906701E-06  0.3418746E+04  0.7818609E-02  0.8133321E-01
       -2   -1    0    0    0  501  0.00000000000E+00  0.00000000000E+00  0.17933382271E+04  0.17933382271E+04  0.25500000920E-02 0.  1.
        2   -1    0    0  501    0  0.00000000000E+00  0.00000000000E+00 -0.16293391410E+04  0.16293391410E+04  0.25500000920E-02 0. -1.
    10030    2    1    2    0    0  0.00000000000E+00  0.00000000000E+00  0.16399908613E+03  0.34226773681E+04  0.34187460663E+04 0.  0.
        5    1    3    3  502    0  0.87633018746E+03  0.24276996222E+03 -0.13670909572E+04  0.16419048776E+04  0.46999998093E+01 0. -1.
       -5    1    3    3    0  502 -0.87633018746E+03 -0.24276996222E+03  0.15310900433E+04  0.17807724904E+04  0.46999998093E+01 0.  1.
</event>
<event>
 5   0  0.2856440E-06  0.3411618E+04  0.7818609E-02  0.8135061E-01
       -2   -1    0    0    0  501  0.00000000000E+00  0.00000000000E+00  0.15719726317E+04  0.15719726317E+04  0.25500000920E-02 0. -1.
        2   -1    0    0  501    0  0.00000000000E+00  0.00000000000E+00 -0.18510402047E+04  0.18510402047E+04  0.25500000920E-02 0.  1.
    10030    2    1    2    0    0  0.00000000000E+00  0.00000000000E+00 -0.27906757308E+03  0.34230128364E+04  0.34116181158E+04 0.  0.
        4    1    3    3  502    0  0.13828437615E+04  0.79713411573E+02  0.85936754413E+03  0.16300691045E+04  0.12699999809E+01 0. -1.
       -4    1    3    3    0  502 -0.13828437615E+04 -0.79713411573E+02 -0.11384351172E+04  0.17929437319E+04  0.12699999809E+01 0.  1.
</event>
<event>
 5   0  0.1003191E-06  0.3392901E+04  0.7818609E-02  0.8139651E-01
        1   -1    0    0  501    0  0.00000000000E+00  0.00000000000E+00  0.12944382551E+04  0.12944382551E+04  0.50400001928E-02 0. -1.
       -1   -1    0    0    0  501  0.00000000000E+00  0.00000000000E+00 -0.22233153904E+04  0.22233153904E+04  0.50400001928E-02 0.  1.
    10030    2    1    2    0    0  0.00000000000E+00  0.00000000000E+00 -0.92887713531E+03  0.35177536455E+04  0.33929011152E+04 0.  0.
        5    1    3    3  502    0  0.84549577212E+03 -0.12559160559E+04  0.32905698562E+03  0.15493510996E+04  0.46999998093E+01 0. -1.
       -5    1    3    3    0  502 -0.84549577212E+03  0.12559160559E+04 -0.12579341209E+04  0.19684025459E+04  0.46999998093E+01 0.  1.
</event>
<event>
 5   0  0.2664083E-06  0.3510776E+04  0.7818609E-02  0.8111241E-01
        2   -1    0    0  501    0  0.00000000000E+00  0.00000000000E+00  0.21270416420E+04  0.21270416420E+04  0.25500000920E-02 0. -1.
       -2   -1    0    0    0  501  0.00000000000E+00  0.00000000000E+00 -0.14486729902E+04  0.14486729902E+04  0.25500000920E-02 0.  1.
    10030    2    1    2    0    0  0.00000000000E+00  0.00000000000E+00  0.67836865185E+03  0.35757146322E+04  0.35107764245E+04 0.  0.
        2    1    3    3  502    0  0.14013015618E+04  0.24261713542E+03 -0.70886752904E+03  0.15890255867E+04  0.25500000920E-02 0.  1.
       -2    1    3    3    0  502 -0.14013015618E+04 -0.24261713542E+03  0.13872361809E+04  0.19866890454E+04  0.25500000920E-02 0. -1.
</event>
<event>
 5   0  0.1010551E-06  0.3394226E+04  0.7818609E-02  0.8139325E-01
       -1   -1    0    0    0  501  0.00000000000E+00  0.00000000000E+00  0.13867975353E+04  0.13867975353E+04  0.50400001928E-02 0. -1.
        1   -1    0    0  501    0  0.00000000000E+00  0.00000000000E+00 -0.20768656308E+04  0.20768656308E+04  0.50400001928E-02 0.  1.
    10030    2    1    2    0    0  0.00000000000E+00  0.00000000000E+00 -0.69006809553E+03  0.34636631661E+04  0.33942257661E+04 0.  0.
        2    1    3    3  502    0 -0.11158183237E+04  0.55543872308E+03 -0.15203908881E+04  0.19659987689E+04  0.25500000920E-02 0.  1.
       -2    1    3    3    0  502  0.11158183237E+04 -0.55543872308E+03  0.83032279261E+03  0.14976643972E+04  0.25500000920E-02 0. -1.
</event>
<event>
 5   0  0.2664083E-06  0.2286701E+04  0.7818609E-02  0.8483183E-01
        2   -1    0    0  501    0  0.00000000000E+00  0.00000000000E+00  0.18890752531E+04  0.18890752531E+04  0.25500000920E-02 0.  1.
       -2   -1    0    0    0  501  0.00000000000E+00  0.00000000000E+00 -0.69200550747E+03  0.69200550747E+03  0.25500000920E-02 0. -1.
    10030    2    1    2    0    0  0.00000000000E+00  0.00000000000E+00  0.11970697457E+04  0.25810807606E+04  0.22867010991E+04 0.  0.
        2    1    3    3  502    0 -0.83622092993E+03 -0.36130114175E+03  0.13784629577E+04  0.16522602956E+04  0.25500000920E-02 0.  1.
       -2    1    3    3    0  502  0.83622092993E+03  0.36130114175E+03 -0.18139321210E+03  0.92882046494E+03  0.25500000920E-02 0. -1.
</event>
<event>
 5   0  0.1003191E-06  0.3353370E+04  0.7818609E-02  0.8149447E-01
       -1   -1    0    0    0  501  0.00000000000E+00  0.00000000000E+00  0.14307666765E+04  0.14307666765E+04  0.50400001928E-02 0. -1.
        1   -1    0    0  501    0  0.00000000000E+00  0.00000000000E+00 -0.19648709368E+04  0.19648709368E+04  0.50400001928E-02 0.  1.
    10030    2    1    2    0    0  0.00000000000E+00  0.00000000000E+00 -0.53410426032E+03  0.33956376134E+04  0.33533695651E+04 0.  0.
        5    1    3    3  502    0  0.11070860275E+04  0.77568443535E+03  0.73738020254E+03  0.15398303376E+04  0.46999998093E+01 0. -1.
       -5    1    3    3    0  502 -0.11070860275E+04 -0.77568443535E+03 -0.12714844629E+04  0.18558072758E+04  0.46999998093E+01 0.  1.
</event>
<event>
 5   0  0.2856440E-06  0.3375165E+04  0.7818609E-02  0.8144029E-01
       -2   -1    0    0    0  501  0.00000000000E+00  0.00000000000E+00  0.91088159448E+03  0.91088159449E+03  0.25500000920E-02 0. -1.
        2   -1    0    0  501    0  0.00000000000E+00  0.00000000000E+00 -0.31265687250E+04  0.31265687250E+04  0.25500000920E-02 0.  1.
    10030    2    1    2    0    0  0.00000000000E+00  0.00000000000E+00 -0.22156871305E+04  0.40374503195E+04  0.33751645326E+04 0.  0.
        4    1    3    3  502    0 -0.49053067759E+03  0.15901187873E+04 -0.14437122748E+04  0.22030444500E+04  0.12699999809E+01 0.  1.
       -4    1    3    3    0  502  0.49053067759E+03 -0.15901187873E+04 -0.77197485572E+03  0.18344058695E+04  0.12699999809E+01 0. -1.
</event>
<event>
 5   0  0.1010855E-06  0.3463071E+04  0.7818609E-02  0.8122598E-01
        1   -1    0    0  501    0  0.00000000000E+00  0.00000000000E+00  0.17980605661E+04  0.17980605661E+04  0.50400001928E-02 0.  1.
       -1   -1    0    0    0  501  0.00000000000E+00  0.00000000000E+00 -0.16674715382E+04  0.16674715382E+04  0.50400001928E-02 0. -1.
    10030    2    1    2    0    0  0.00000000000E+00  0.00000000000E+00  0.13058902787E+03  0.34655321043E+04  0.34630707864E+04 0.  0.
        1    1    3    3  502    0 -0.10398336624E+04  0.60290459741E+03 -0.11819728204E+04  0.16857662196E+04  0.50400001928E-02 0. -1.
       -1    1    3    3    0  502  0.10398336624E+04 -0.60290459741E+03  0.13125618482E+04  0.17797658847E+04  0.50400001928E-02 0.  1.
</event>
<event>
 5   0  0.1003191E-06  0.3359374E+04  0.7818609E-02  0.8147950E-01
       -1   -1    0    0    0  501  0.00000000000E+00  0.00000000000E+00  0.13255167482E+04  0.13255167482E+04  0.50400001928E-02 0. -1.
        1   -1    0    0  501    0  0.00000000000E+00  0.00000000000E+00 -0.21284899960E+04  0.21284899960E+04  0.50400001928E-02 0.  1.
    10030    2    1    2    0    0  0.00000000000E+00  0.00000000000E+00 -0.80297324782E+03  0.34540067442E+04  0.33593744288E+04 0.  0.
        5    1    3    3  502    0  0.48243273616E+03 -0.89348242942E+03 -0.17771894349E+04  0.20468210899E+04  0.46999998093E+01 0.  1.
       -5    1    3    3    0  502 -0.48243273616E+03  0.89348242942E+03  0.97421618708E+03  0.14071856543E+04  0.46999998093E+01 0. -1.
</event>
<event>
 5   0  0.1010855E-06  0.3447154E+04  0.7818609E-02  0.8126429E-01
       -1   -1    0    0    0  501  0.00000000000E+00  0.00000000000E+00  0.14377917955E+04  0.14377917955E+04  0.50400001928E-02 0.  1.
        1   -1    0    0  501    0  0.00000000000E+00  0.00000000000E+00 -0.20661672789E+04  0.20661672789E+04  0.50400001928E-02 0. -1.
    10030    2    1    2    0    0  0.00000000000E+00  0.00000000000E+00 -0.62837548341E+03  0.35039590744E+04  0.34471543984E+04 0.  0.
        1    1    3    3  502    0 -0.15231540861E+04  0.75121464570E+03 -0.15411208524E+02  0.16983990459E+04  0.50400001928E-02 0. -1.
       -1    1    3    3    0  502  0.15231540861E+04 -0.75121464570E+03 -0.61296427488E+03  0.18055600284E+04  0.50400001928E-02 0.  1.
</event>
<event>
 5   0  0.2664083E-06  0.2256764E+04  0.7818609E-02  0.8495166E-01
        2   -1    0    0  501    0  0.00000000000E+00  0.00000000000E+00  0.24710534921E+04  0.24710534921E+04  0.25500000920E-02 0.  1.
       -2   -1    0    0    0  501  0.00000000000E+00  0.00000000000E+00 -0.51526431324E+03  0.51526431325E+03  0.25500000920E-02 0. -1.
    10030    2    1    2    0    0  0.00000000000E+00  0.00000000000E+00  0.19557891788E+04  0.29863178053E+04  0.22567637720E+04 0.  0.
        2    1    3    3  502    0 -0.11124756693E+04 -0.10145256768E+03  0.11885860704E+04  0.16311442563E+04  0.25500000920E-02 0.  1.
       -2    1    3    3    0  502  0.11124756693E+04  0.10145256768E+03  0.76720310847E+03  0.13551735490E+04  0.25500000920E-02 0. -1.
</event>
<event>
 5   0  0.2848685E-06  0.3264788E+04  0.7818609E-02  0.8171913E-01
        2   -1    0    0  501    0  0.00000000000E+00  0.00000000000E+00  0.12657173403E+04  0.12657173403E+04  0.25500000920E-02 0. -1.
       -2   -1    0    0    0  501  0.00000000000E+00  0.00000000000E+00 -0.21052959298E+04  0.21052959298E+04  0.25500000920E-02 0.  1.
    10030    2    1    2    0    0  0.00000000000E+00  0.00000000000E+00 -0.83957858951E+03  0.33710132702E+04  0.32647876286E+04 0.  0.
        3    1    3    3  502    0  0.15065563363E+04 -0.41616952300E+03 -0.90606970597E+03  0.18066187723E+04  0.10100000352E+00 0. -1.
       -3    1    3    3    0  502 -0.15065563363E+04  0.41616952300E+03  0.66491116460E+02  0.15643944979E+04  0.10100000352E+00 0.  1.
</event>
<event>
 5   0  0.1003191E-06  0.3364254E+04  0.7818609E-02  0.8146736E-01
        1   -1    0    0  501    0  0.00000000000E+00  0.00000000000E+00  0.22974183918E+04  0.22974183918E+04  0.50400001928E-02 0.  1.
       -1   -1    0    0    0  501  0.00000000000E+00  0.00000000000E+00 -0.12316221828E+04  0.12316221828E+04  0.50400001928E-02 0. -1.
    10030    2    1    2    0    0  0.00000000000E+00  0.00000000000E+00  0.10657962091E+04  0.35290405746E+04  0.33642541251E+04 0.  0.
        5    1    3    3  502    0  0.18997126941E+03 -0.81623368019E+03  0.20628307520E+04  0.22265711992E+04  0.46999998093E+01 0.  1.
       -5    1    3    3    0  502 -0.18997126941E+03  0.81623368019E+03 -0.99703454296E+03  0.13024693754E+04  0.46999998093E+01 0. -1.
</event>
<event>
 5   0  0.2906701E-06  0.3508916E+04  0.7818609E-02  0.8111680E-01
       -2   -1    0    0    0  501  0.00000000000E+00  0.00000000000E+00  0.14955851047E+04  0.14955851047E+04  0.25500000920E-02 0.  1.
        2   -1    0    0  501    0  0.00000000000E+00  0.00000000000E+00 -0.20581394718E+04  0.20581394718E+04  0.25500000920E-02 0. -1.
    10030    2    1    2    0    0  0.00000000000E+00  0.00000000000E+00 -0.56255436703E+03  0.35537245765E+04  0.35089159223E+04 0.  0.
        5    1    3    3  502    0 -0.85717861338E+03 -0.14639250185E+04 -0.73450617435E+03  0.18486084077E+04  0.46999998093E+01 0. -1.
       -5    1    3    3    0  502  0.85717861338E+03  0.14639250185E+04  0.17195180732E+03  0.17051161688E+04  0.46999998093E+01 0.  1.
</event>
<event>
 5   0  0.2906701E-06  0.3397856E+04  0.7818609E-02  0.8138433E-01
        2   -1    0    0  501    0  0.00000000000E+00  0.00000000000E+00  0.21558797968E+04  0.21558797968E+04  0.25500000920E-02 0.  1.
       -2   -1    0    0    0  501  0.00000000000E+00  0.00000000000E+00 -0.13388297803E+04  0.13388297803E+04  0.25500000920E-02 0. -1.
    10030    2    1    2    0    0  0.00000000000E+00  0.00000000000E+00  0.81705001650E+03  0.34947095770E+04  0.33978558384E+04 0.  0.
        5    1    3    3  502    0  0.54534092656E+02  0.71012770790E+03  0.19949171192E+04  0.21182473253E+04  0.46999998093E+01 0.  1.
       -5    1    3    3    0  502 -0.54534092656E+02 -0.71012770790E+03 -0.11778671027E+04  0.13764622517E+04  0.46999998093E+01 0. -1.
</event>
<event>
 5   0  0.2906701E-06  0.3447627E+04  0.7818609E-02  0.8126315E-01
       -2   -1    0    0    0  501  0.00000000000E+00  0.00000000000E+00  0.14447969491E+04  0.14447969491E+04  0.25500000920E-02 0.  1.
        2   -1    0    0  501    0  0.00000000000E+00  0.00000000000E+00 -0.20567137823E+04  0.20567137823E+04  0.25500000920E-02 0. -1.
    10030    2    1    2    0    0  0.00000000000E+00  0.00000000000E+00 -0.61191683316E+03  0.35015107314E+04  0.34476274729E+04 0.  0.
        5    1    3    3  502    0 -0.64226854248E+03  0.89683841331E+02 -0.19280931453E+04  0.20342363036E+04  0.46999998093E+01 0. -1.
       -5    1    3    3    0  502  0.64226854248E+03 -0.89683841331E+02  0.13161763121E+04  0.14672744278E+04  0.46999998093E+01 0.  1.
</event>
<event>
 5   0  0.1010855E-06  0.3120090E+04  0.7818609E-02  0.8210246E-01
        1   -1    0    0  501    0  0.00000000000E+00  0.00000000000E+00  0.20625128440E+04  0.20625128440E+04  0.50400001928E-02 0.  1.
       -1   -1    0    0    0  501  0.00000000000E+00  0.00000000000E+00 -0.11799882198E+04  0.11799882198E+04  0.50400001928E-02 0. -1.
    10030    2    1    2    0    0  0.00000000000E+00  0.00000000000E+00  0.88252462417E+03  0.32425010637E+04  0.31200902929E+04 0.  0.
        1    1    3    3  502    0  0.99755605989E+03 -0.60893765385E+03  0.15151565759E+04  0.19135366755E+04  0.50400001928E-02 0.  1.
       -1    1    3    3    0  502 -0.99755605989E+03  0.60893765385E+03 -0.63263195173E+03  0.13289643883E+04  0.50400001928E-02 0. -1.
</event>
<event>
 5   0  0.2856440E-06  0.3417652E+04  0.7818609E-02  0.8133588E-01
       -2   -1    0    0    0  501  0.00000000000E+00  0.00000000000E+00  0.19126036431E+04  0.19126036431E+04  0.25500000920E-02 0.  1.
        2   -1    0    0  501    0  0.00000000000E+00  0.00000000000E+00 -0.15267595436E+04  0.15267595436E+04  0.25500000920E-02 0. -1.
    10030    2    1    2    0    0  0.00000000000E+00  0.00000000000E+00  0.38584409952E+03  0.34393631867E+04  0.34176517466E+04 0.  0.
        4    1    3    3  502    0  0.92247133406E+02  0.58502315891E+03 -0.14201714909E+04  0.15387170977E+04  0.12699999809E+01 0. -1.
       -4    1    3    3    0  502 -0.92247133406E+02 -0.58502315891E+03  0.18060155904E+04  0.19006460891E+04  0.12699999809E+01 0.  1.
</event>
<event>
 5   0  0.1010855E-06  0.3414649E+04  0.7818609E-02  0.8134320E-01
        1   -1    0    0  501    0  0.00000000000E+00  0.00000000000E+00  0.23926365139E+04  0.23926365139E+04  0.50400001928E-02 0. -1.
       -1   -1    0    0    0  501  0.00000000000E+00  0.00000000000E+00 -0.12183032827E+04  0.12183032827E+04  0.50400001928E-02 0.  1.
    10030    2    1    2    0    0  0.00000000000E+00  0.00000000000E+00  0.11743332312E+04  0.36109397966E+04  0.34146489829E+04 0.  0.
        1    1    3    3  502    0 -0.92978298873E+03 -0.13130051652E+04 -0.17061748875E+02  0.16089655289E+04  0.50400001928E-02 0.  1.
       -1    1    3    3    0  502  0.92978298873E+03  0.13130051652E+04  0.11913949801E+04  0.20019742677E+04  0.50400001928E-02 0. -1.
</event>
<event>
 5   0  0.9232963E-07  0.3423570E+04  0.7818609E-02  0.8132146E-01
       -1   -1    0    0    0  501  0.00000000000E+00  0.00000000000E+00  0.12682221056E+04  0.12682221056E+04  0.50400001928E-02 0. -1.
        1   -1    0    0  501    0  0.00000000000E+00  0.00000000000E+00 -0.23104845434E+04  0.23104845434E+04  0.50400001928E-02 0.  1.
    10030    2    1    2    0    0  0.00000000000E+00  0.00000000000E+00 -0.10422624378E+04  0.35787066490E+04  0.34235698168E+04 0.  0.
        3    1    3    3  502    0 -0.14688921283E+03 -0.12146001838E+04  0.73035826641E+03  0.14248695571E+04  0.10100000352E+00 0. -1.
       -3    1    3    3    0  502  0.14688921283E+03  0.12146001838E+04 -0.17726207042E+04  0.21538370919E+04  0.10100000352E+00 0.  1.
</event>
<event>
 5   0  0.9714317E-07  0.2706991E+04  0.7818609E-02  0.8332740E-01
       -1   -1    0    0    0  501  0.00000000000E+00  0.00000000000E+00  0.14725923733E+04  0.14725923733E+04  0.50400001928E-02 0. -1.
        1   -1    0    0  501    0  0.00000000000E+00  0.00000000000E+00 -0.12440308921E+04  0.12440308921E+04  0.50400001928E-02 0.  1.
    10030    2    1    2    0    0  0.00000000000E+00  0.00000000000E+00  0.22856148124E+03  0.27166232654E+04  0.27069912478E+04 0.  0.
        4    1    3    3  502    0 -0.68543984867E+03 -0.95778898529E+03  0.78355795898E+03  0.14146208731E+04  0.12699999809E+01 0. -1.
       -4    1    3    3    0  502  0.68543984867E+03  0.95778898529E+03 -0.55499647774E+03  0.13020023924E+04  0.12699999809E+01 0.  1.
</event>
<event>
 5   0  0.2856440E-06  0.2428422E+04  0.7818609E-02  0.8428939E-01
        2   -1    0    0  501    0  0.00000000000E+00  0.00000000000E+00  0.87443009991E+03  0.87443009992E+03  0.25500000920E-02 0.  1.
       -2   -1    0    0    0  501  0.00000000000E+00  0.00000000000E+00 -0.16860225032E+04  0.16860225032E+04  0.25500000920E-02 0. -1.
    10030    2    1    2    0    0  0.00000000000E+00  0.00000000000E+00 -0.81159240332E+03  0.25604526032E+04  0.24284223899E+04 0.  0.
        4    1    3    3  502    0 -0.53252648603E+03 -0.61460825817E+03  0.54487928316E+03  0.97888856131E+03  0.12699999809E+01 0.  1.
       -4    1    3    3    0  502  0.53252648603E+03  0.61460825817E+03 -0.13564716865E+04  0.15815640418E+04  0.12699999809E+01 0. -1.
</event>
<event>
 5   0  0.9714317E-07  0.2412450E+04  0.7818609E-02  0.8434857E-01
        1   -1    0    0  501    0  0.00000000000E+00  0.00000000000E+00  0.11648825593E+04  0.11648825593E+04  0.50400001928E-02 0. -1.
       -1   -1    0    0    0  501  0.00000000000E+00  0.00000000000E+00 -0.12490349983E+04  0.12490349983E+04  0.50400001928E-02 0.  1.
    10030    2    1    2    0    0  0.00000000000E+00  0.00000000000E+00 -0.84152439003E+02  0.24139175575E+04  0.24124502776E+04 0.  0.
        4    1    3    3  502    0  0.65525987246E+03 -0.58226270017E+03  0.78703025636E+03  0.11780550029E+04  0.12699999809E+01 0. -1.
       -4    1    3    3    0  502 -0.65525987246E+03  0.58226270017E+03 -0.87118269536E+03  0.12358625547E+04  0.12699999809E+01 0.  1.
</event>
<event>
 5   0  0.9232963E-07  0.3565542E+04  0.7818609E-02  0.8098431E-01
       -1   -1    0    0    0  501  0.00000000000E+00  0.00000000000E+00  0.14798403350E+04  0.14798403350E+04  0.50400001928E-02 0.  1.
        1   -1    0    0  501    0  0.00000000000E+00  0.00000000000E+00 -0.21477135526E+04  0.21477135526E+04  0.50400001928E-02 0. -1.
    10030    2    1    2    0    0  0.00000000000E+00  0.00000000000E+00 -0.66787321763E+03  0.36275538876E+04  0.35655423953E+04 0.  0.
        3    1    3    3  502    0 -0.12191727507E+04 -0.12492764124E+04 -0.70245075451E+03  0.18816245171E+04  0.10100000352E+00 0. -1.
       -3    1    3    3    0  502  0.12191727507E+04  0.12492764124E+04  0.34577536882E+02  0.17459293705E+04  0.10100000352E+00 0.  1.
</event>
<event>
 5   0  0.2767014E-06  0.3396383E+04  0.7818609E-02  0.8138795E-01
        2   -1    0    0  501    0  0.00000000000E+00  0.00000000000E+00  0.29795187065E+04  0.29795187065E+04  0.25500000920E-02 0. -1.
       -2   -1    0    0    0  501  0.00000000000E+00  0.00000000000E+00 -0.96789279410E+03  0.96789279410E+03  0.25500000920E-02 0.  1.
    10030    2    1    2    0    0  0.00000000000E+00  0.00000000000E+00  0.20116259124E+04  0.39474115006E+04  0.33963831856E+04 0.  0.
        1    1    3    3  502    0  0.55478352519E+03  0.12615507378E+04  0.21590451008E+04  0.25614001583E+04  0.50400001928E-02 0. -1.
       -1    1    3    3    0  502 -0.55478352519E+03 -0.12615507378E+04 -0.14741918841E+03  0.13860113423E+04  0.50400001928E-02 0.  1.
</event>
<event>
 5   0  0.2906701E-06  0.3432060E+04  0.7818609E-02  0.8130082E-01
       -2   -1    0    0    0  501  0.00000000000E+00  0.00000000000E+00  0.13412209815E+04  0.13412209816E+04  0.25500000920E-02 0. -1.
        2   -1    0    0  501    0  0.00000000000E+00  0.00000000000E+00 -0.21955811538E+04  0.21955811538E+04  0.25500000920E-02 0.  1.
    10030    2    1    2    0    0  0.00000000000E+00  0.00000000000E+00 -0.85436017222E+03  0.35368021353E+04  0.34320603201E+04 0.  0.
        5    1    3    3  502    0 -0.84004416770E+03  0.11504118747E+03 -0.19646326496E+04  0.21397925639E+04  0.46999998093E+01 0.  1.
       -5    1    3    3    0  502  0.84004416770E+03 -0.11504118747E+03  0.11102724774E+04  0.13970095714E+04  0.46999998093E+01 0. -1.
</event>
<event>
 5   0  0.9714317E-07  0.3304915E+04  0.7818609E-02  0.8161646E-01
        1   -1    0    0  501    0  0.00000000000E+00  0.00000000000E+00  0.11220041699E+04  0.11220041699E+04  0.50400001928E-02 0. -1.
       -1   -1    0    0    0  501  0.00000000000E+00  0.00000000000E+00 -0.24336951081E+04  0.24336951081E+04  0.50400001928E-02 0.  1.
    10030    2    1    2    0    0  0.00000000000E+00  0.00000000000E+00 -0.13116909381E+04  0.35556992780E+04  0.33049151636E+04 0.  0.
        4    1    3    3  502    0  0.55220899113E+03  0.25414950630E+03  0.99733691044E+03  0.11679936932E+04  0.12699999809E+01 0. -1.
       -4    1    3    3    0  502 -0.55220899113E+03 -0.25414950630E+03 -0.23090278486E+04  0.23877055848E+04  0.12699999809E+01 0.  1.
</event>
<event>
 5   0  0.2856440E-06  0.3345937E+04  0.7818609E-02  0.8151304E-01
       -2   -1    0    0    0  501  0.00000000000E+00  0.00000000000E+00  0.18523017625E+04  0.18523017625E+04  0.25500000920E-02 0.  1.
        2   -1    0    0  501    0  0.00000000000E+00  0.00000000000E+00 -0.15109976218E+04  0.15109976218E+04  0.25500000920E-02 0. -1.
    10030    2    1    2    0    0  0.00000000000E+00  0.00000000000E+00  0.34130414065E+03  0.33632993843E+04  0.33459369737E+04 0.  0.
        4    1    3    3  502    0  0.20855566459E+03  0.10029995681E+04  0.15001332604E+04  0.18165640674E+04  0.12699999809E+01 0.  1.
       -4    1    3    3    0  502 -0.20855566459E+03 -0.10029995681E+04 -0.11588291198E+04  0.15467353169E+04  0.12699999809E+01 0. -1.
</event>
<event>
 5   0  0.2664083E-06  0.3100236E+04  0.7818609E-02  0.8215673E-01
        2   -1    0    0  501    0  0.00000000000E+00  0.00000000000E+00  0.13793845323E+04  0.13793845323E+04  0.25500000920E-02 0. -1.
       -2   -1    0    0    0  501  0.00000000000E+00  0.00000000000E+00 -0.17419842258E+04  0.17419842258E+04  0.25500000920E-02 0.  1.
    10030    2    1    2    0    0  0.00000000000E+00  0.00000000000E+00 -0.36259969347E+03  0.31213687581E+04  0.31002361823E+04 0.  0.
        2    1    3    3  502    0 -0.86076912788E+03 -0.12823007826E+04 -0.47551158440E+02  0.15451472102E+04  0.25500000920E-02 0.  1.
       -2    1    3    3    0  502  0.86076912788E+03  0.12823007826E+04 -0.31504853503E+03  0.15762215479E+04  0.25500000920E-02 0. -1.
</event>
<event>
 5   0  0.1010855E-06  0.3468608E+04  0.7818609E-02  0.8121270E-01
        1   -1    0    0  501    0  0.00000000000E+00  0.00000000000E+00  0.17730304328E+04  0.17730304328E+04  0.50400001928E-02 0. -1.
       -1   -1    0    0    0  501  0.00000000000E+00  0.00000000000E+00 -0.16964238678E+04  0.16964238678E+04  0.50400001928E-02 0.  1.
    10030    2    1    2    0    0  0.00000000000E+00  0.00000000000E+00  0.76606565029E+02  0.34694543006E+04  0.34686084498E+04 0.  0.
        1    1    3    3  502    0  0.30935069073E+03  0.20993377168E+03 -0.16556388862E+04  0.16973244121E+04  0.50400001928E-02 0.  1.
       -1    1    3    3    0  502 -0.30935069073E+03 -0.20993377168E+03  0.17322454512E+04  0.17721298885E+04  0.50400001928E-02 0. -1.
</event>
<event>
 5   0  0.2664083E-06  0.3410210E+04  0.7818609E-02  0.8135405E-01
        2   -1    0    0  501    0  0.00000000000E+00  0.00000000000E+00  0.23303399561E+04  0.23303399561E+04  0.25500000920E-02 0.  1.
       -2   -1    0    0    0  501  0.00000000000E+00  0.00000000000E+00 -0.12476219719E+04  0.12476219719E+04  0.25500000920E-02 0. -1.
    10030    2    1    2    0    0  0.00000000000E+00  0.00000000000E+00  0.10827179842E+04  0.35779619280E+04  0.34102101584E+04 0.  0.
        2    1    3    3  502    0 -0.84884103415E+03  0.98260178809E+03 -0.61814946518E+03  0.14381050506E+04  0.25500000920E-02 0. -1.
       -2    1    3    3    0  502  0.84884103415E+03 -0.98260178809E+03  0.17008674494E+04  0.21398568774E+04  0.25500000920E-02 0.  1.
</event>
<event>
 5   0  0.1010551E-06  0.3378412E+04  0.7818609E-02  0.8143225E-01
       -1   -1    0    0    0  501  0.00000000000E+00  0.00000000000E+00  0.15690325170E+04  0.15690325170E+04  0.50400001928E-02 0.  1.
        1   -1    0    0  501    0  0.00000000000E+00  0.00000000000E+00 -0.18185837367E+04  0.18185837367E+04  0.50400001928E-02 0. -1.
    10030    2    1    2    0    0  0.00000000000E+00  0.00000000000E+00 -0.24955121974E+03  0.33876162537E+04  0.33784120635E+04 0.  0.
        2    1    3    3  502    0 -0.18253410670E+02  0.11951859212E+04  0.10720483100E+04  0.16056432207E+04  0.25500000920E-02 0.  1.
       -2    1    3    3    0  502  0.18253410670E+02 -0.11951859212E+04 -0.13215995298E+04  0.17819730330E+04  0.25500000920E-02 0. -1.
</event>
<event>
 5   0  0.1010855E-06  0.3464095E+04  0.7818609E-02  0.8122352E-01
       -1   -1    0    0    0  501  0.00000000000E+00  0.00000000000E+00  0.17799878520E+04  0.17799878520E+04  0.50400001928E-02 0.  1.
        1   -1    0    0  501    0  0.00000000000E+00  0.00000000000E+00 -0.16853980873E+04  0.16853980873E+04  0.50400001928E-02 0. -1.
    10030    2    1    2    0    0  0.00000000000E+00  0.00000000000E+00  0.94589764745E+02  0.34653859393E+04  0.34640947569E+04 0.  0.
        1    1    3    3  502    0 -0.43514939861E+03  0.62981330449E+03 -0.15069792859E+04  0.16902681343E+04  0.50400001928E-02 0. -1.
       -1    1    3    3    0  502  0.43514939861E+03 -0.62981330449E+03  0.16015690507E+04  0.17751178050E+04  0.50400001928E-02 0.  1.
</event>
<event>
 5   0  0.2767014E-06  0.3702304E+04  0.7818609E-02  0.8067451E-01
       -2   -1    0    0    0  501  0.00000000000E+00  0.00000000000E+00  0.17120761568E+04  0.17120761568E+04  0.25500000920E-02 0. -1.
        2   -1    0    0  501    0  0.00000000000E+00  0.00000000000E+00 -0.20015251255E+04  0.20015251255E+04  0.25500000920E-02 0.  1.
    10030    2    1    2    0    0  0.00000000000E+00  0.00000000000E+00 -0.28944896867E+03  0.37136012824E+04  0.37023038475E+04 0.  0.
        1    1    3    3  502    0 -0.41294344931E+03 -0.18039716605E+04 -0.10068834746E+03  0.18533683356E+04  0.50400001928E-02 0. -1.
       -1    1    3    3    0  502  0.41294344931E+03  0.18039716605E+04 -0.18876062120E+03  0.18602329468E+04  0.50400001928E-02 0.  1.
</event>
<event>
 5   0  0.2664083E-06  0.2732792E+04  0.7818609E-02  0.8324443E-01
        2   -1    0    0  501    0  0.00000000000E+00  0.00000000000E+00  0.11928384563E+04  0.11928384563E+04  0.25500000920E-02 0. -1.
       -2   -1    0    0    0  501  0.00000000000E+00  0.00000000000E+00 -0.15652063726E+04  0.15652063726E+04  0.25500000920E-02 0.  1.
    10030    2    1    2    0    0  0.00000000000E+00  0.00000000000E+00 -0.37236791633E+03  0.27580448289E+04  0.27327922374E+04 0.  0.
        2    1    3    3  502    0  0.99166897579E+03 -0.31312939177E+03 -0.10807042265E+04  0.14997929853E+04  0.25500000920E-02 0.  1.
       -2    1    3    3    0  502 -0.99166897579E+03  0.31312939177E+03  0.70833631017E+03  0.12582518436E+04  0.25500000920E-02 0. -1.
</event>
<event>
 5   0  0.1010855E-06  0.3379622E+04  0.7818609E-02  0.8142926E-01
       -1   -1    0    0    0  501  0.00000000000E+00  0.00000000000E+00  0.18637156712E+04  0.18637156712E+04  0.50400001928E-02 0. -1.
        1   -1    0    0  501    0  0.00000000000E+00  0.00000000000E+00 -0.15321331788E+04  0.15321331789E+04  0.50400001928E-02 0.  1.
    10030    2    1    2    0    0  0.00000000000E+00  0.00000000000E+00  0.33158249232E+03  0.33958488500E+04  0.33796216449E+04 0.  0.
        1    1    3    3  502    0 -0.16003488588E+04  0.51501528234E+03 -0.56250746423E+01  0.16811867393E+04  0.50400001928E-02 0.  1.
       -1    1    3    3    0  502  0.16003488588E+04 -0.51501528234E+03  0.33720756696E+03  0.17146621108E+04  0.50400001928E-02 0. -1.
</event>
<event>
 5   0  0.1010551E-06  0.3386890E+04  0.7818609E-02  0.8141131E-01
       -1   -1    0    0    0  501  0.00000000000E+00  0.00000000000E+00  0.88657277949E+03  0.88657277950E+03  0.50400001928E-02 0. -1.
        1   -1    0    0  501    0  0.00000000000E+00  0.00000000000E+00 -0.32346533679E+04  0.32346533679E+04  0.50400001928E-02 0.  1.
    10030    2    1    2    0    0  0.00000000000E+00  0.00000000000E+00 -0.23480805884E+04  0.41212261474E+04  0.33868897987E+04 0.  0.
        2    1    3    3  502    0 -0.12800871078E+04  0.10560758862E+04 -0.76349048537E+03  0.18267011256E+04  0.25500000920E-02 0. -1.
       -2    1    3    3    0  502  0.12800871078E+04 -0.10560758862E+04 -0.15845901030E+04  0.22945250218E+04  0.25500000920E-02 0.  1.
</event>
<event>
 5   0  0.2767014E-06  0.3423132E+04  0.7818609E-02  0.8132252E-01
        2   -1    0    0  501    0  0.00000000000E+00  0.00000000000E+00  0.17541788216E+04  0.17541788216E+04  0.25500000920E-02 0. -1.
       -2   -1    0    0    0  501  0.00000000000E+00  0.00000000000E+00 -0.16699885752E+04  0.16699885752E+04  0.25500000920E-02 0.  1.
    10030    2    1    2    0    0  0.00000000000E+00  0.00000000000E+00  0.84190246382E+02  0.34241673968E+04  0.34231322445E+04 0.  0.
        1    1    3    3  502    0 -0.14036897074E+04  0.54181410728E+03 -0.77396483446E+03  0.16920191744E+04  0.50400001928E-02 0.  1.
       -1    1    3    3    0  502  0.14036897074E+04 -0.54181410728E+03  0.85815508084E+03  0.17321482224E+04  0.50400001928E-02 0. -1.
</event>
<event>
 5   0  0.1010551E-06  0.3361777E+04  0.7818609E-02  0.8147352E-01
       -1   -1    0    0    0  501  0.00000000000E+00  0.00000000000E+00  0.16081168144E+04  0.16081168144E+04  0.50400001928E-02 0. -1.
        1   -1    0    0  501    0  0.00000000000E+00  0.00000000000E+00 -0.17569536752E+04  0.17569536752E+04  0.50400001928E-02 0.  1.
    10030    2    1    2    0    0  0.00000000000E+00  0.00000000000E+00 -0.14883686073E+03  0.33650704896E+04  0.33617773556E+04 0.  0.
        2    1    3    3  502    0 -0.15079509273E+04  0.60930154897E+03 -0.49936034206E+03  0.17013303994E+04  0.25500000920E-02 0.  1.
       -2    1    3    3    0  502  0.15079509273E+04 -0.60930154897E+03  0.35052348134E+03  0.16637400902E+04  0.25500000920E-02 0. -1.
</event>
<event>
 5   0  0.9232963E-07  0.3350153E+04  0.7818609E-02  0.8150250E-01
       -1   -1    0    0    0  501  0.00000000000E+00  0.00000000000E+00  0.10978840808E+04  0.10978840809E+04  0.50400001928E-02 0.  1.
        1   -1    0    0  501    0  0.00000000000E+00  0.00000000000E+00 -0.25557175818E+04  0.25557175818E+04  0.50400001928E-02 0. -1.
    10030    2    1    2    0    0  0.00000000000E+00  0.00000000000E+00 -0.14578335010E+04  0.36536016627E+04  0.33501532193E+04 0.  0.
        3    1    3    3  502    0 -0.13198672469E+04 -0.10233404016E+04 -0.58837811794E+03  0.17707241307E+04  0.10100000352E+00 0.  1.
       -3    1    3    3    0  502  0.13198672469E+04  0.10233404016E+04 -0.86945538302E+03  0.18828775320E+04  0.10100000352E+00 0. -1.
</event>
<event>
 5   0  0.2856440E-06  0.3305856E+04  0.7818609E-02  0.8161407E-01
        2   -1    0    0  501    0  0.00000000000E+00  0.00000000000E+00  0.18809507006E+04  0.18809507006E+04  0.25500000920E-02 0. -1.
       -2   -1    0    0    0  501  0.00000000000E+00  0.00000000000E+00 -0.14525482910E+04  0.14525482910E+04  0.25500000920E-02 0.  1.
    10030    2    1    2    0    0  0.00000000000E+00  0.00000000000E+00  0.42840240959E+03  0.33334989916E+04  0.33058564552E+04 0.  0.
        4    1    3    3  502    0 -0.25774731922E+02 -0.73239502257E+03  0.17081778835E+04  0.18587469167E+04  0.12699999809E+01 0. -1.
       -4    1    3    3    0  502  0.25774731922E+02  0.73239502257E+03 -0.12797754739E+04  0.14747520749E+04  0.12699999809E+01 0.  1.
</event>
<event>
 5   0  0.2856440E-06  0.3475555E+04  0.7818609E-02  0.8119608E-01
        2   -1    0    0  501    0  0.00000000000E+00  0.00000000000E+00  0.24236753955E+04  0.24236753955E+04  0.25500000920E-02 0. -1.
       -2   -1    0    0    0  501  0.00000000000E+00  0.00000000000E+00 -0.12459881306E+04  0.12459881306E+04  0.25500000920E-02 0.  1.
    10030    2    1    2    0    0  0.00000000000E+00  0.00000000000E+00  0.11776872649E+04  0.36696635261E+04  0.34755550781E+04 0.  0.
        4    1    3    3  502    0 -0.94924229020E+03 -0.50373673460E+03  0.20307869458E+04  0.22975876165E+04  0.12699999809E+01 0. -1.
       -4    1    3    3    0  502  0.94924229020E+03  0.50373673460E+03 -0.85309968094E+03  0.13720759096E+04  0.12699999809E+01 0.  1.
</event>
<event>
 5   0  0.2856440E-06  0.3414988E+04  0.7818609E-02  0.8134238E-01
        2   -1    0    0  501    0  0.00000000000E+00  0.00000000000E+00  0.17600887274E+04  0.17600887274E+04  0.25500000920E-02 0. -1.
       -2   -1    0    0    0  501  0.00000000000E+00  0.00000000000E+00 -0.16564710887E+04  0.16564710887E+04  0.25500000920E-02 0.  1.
    10030    2    1    2    0    0  0.00000000000E+00  0.00000000000E+00  0.10361763872E+03  0.34165598162E+04  0.34149881936E+04 0.  0.
        4    1    3    3  502    0  0.16447961567E+04  0.34890271940E+03  0.34934604477E+03  0.17173036356E+04  0.12699999809E+01 0. -1.
       -4    1    3    3    0  502 -0.16447961567E+04 -0.34890271940E+03 -0.24572840605E+03  0.16992561806E+04  0.12699999809E+01 0.  1.
</event>
<event>
 5   0  0.2848685E-06  0.3392458E+04  0.7818609E-02  0.8139760E-01
       -2   -1    0    0    0  501  0.00000000000E+00  0.00000000000E+00  0.11997905262E+04  0.11997905262E+04  0.25500000920E-02 0. -1.
        2   -1    0    0  501    0  0.00000000000E+00  0.00000000000E+00 -0.23980786934E+04  0.23980786934E+04  0.25500000920E-02 0.  1.
    10030    2    1    2    0    0  0.00000000000E+00  0.00000000000E+00 -0.11982881672E+04  0.35978692197E+04  0.33924575738E+04 0.  0.
        3    1    3    3  502    0 -0.13352476589E+03 -0.13401375663E+04  0.49450541565E+03  0.14346892262E+04  0.10100000352E+00 0. -1.
       -3    1    3    3    0  502  0.13352476589E+03  0.13401375663E+04 -0.16927935829E+04  0.21631799934E+04  0.10100000352E+00 0.  1.
</event>
<event>
 5   0  0.1010855E-06  0.3446862E+04  0.7818609E-02  0.8126500E-01
        1   -1    0    0  501    0  0.00000000000E+00  0.00000000000E+00  0.23879496896E+04  0.23879496896E+04  0.50400001928E-02 0. -1.
       -1   -1    0    0    0  501  0.00000000000E+00  0.00000000000E+00 -0.12438344286E+04  0.12438344286E+04  0.50400001928E-02 0.  1.
    10030    2    1    2    0    0  0.00000000000E+00  0.00000000000E+00  0.11441152610E+04  0.36317841183E+04  0.34468617830E+04 0.  0.
        1    1    3    3  502    0  0.10424706237E+04 -0.28496027816E+03 -0.84245126401E+03  0.13702815381E+04  0.50400001928E-02 0.  1.
       -1    1    3    3    0  502 -0.10424706237E+04  0.28496027816E+03  0.19865665250E+04  0.22615025801E+04  0.50400001928E-02 0. -1.
</event>
<event>
 5   0  0.2664083E-06  0.3346115E+04  0.7818609E-02  0.8151259E-01
        2   -1    0    0  501    0  0.00000000000E+00  0.00000000000E+00  0.14062049208E+04  0.14062049208E+04  0.25500000920E-02 0.  1.
       -2   -1    0    0    0  501  0.00000000000E+00  0.00000000000E+00 -0.19905505733E+04  0.19905505733E+04  0.25500000920E-02 0. -1.
    10030    2    1    2    0    0  0.00000000000E+00  0.00000000000E+00 -0.58434565253E+03  0.33967554941E+04  0.33461153664E+04 0.  0.
        2    1    3    3  502    0  0.14283923304E+04  0.24568698551E+03 -0.11405572269E+04  0.18443257663E+04  0.25500000920E-02 0.  1.
       -2    1    3    3    0  502 -0.14283923304E+04 -0.24568698551E+03  0.55621157441E+03  0.15524297278E+04  0.25500000920E-02 0. -1.
</event>
<event>
 5   0  0.2767014E-06  0.3382982E+04  0.7818609E-02  0.8142096E-01
        2   -1    0    0  501    0  0.00000000000E+00  0.00000000000E+00  0.20440831843E+04  0.20440831843E+04  0.25500000920E-02 0.  1.
       -2   -1    0    0    0  501  0.00000000000E+00  0.00000000000E+00 -0.13997188650E+04  0.13997188650E+04  0.25500000920E-02 0. -1.
    10030    2    1    2    0    0  0.00000000000E+00  0.00000000000E+00  0.64436431934E+03  0.34438020493E+04  0.33829819950E+04 0.  0.
        1    1    3    3  502    0 -0.56922761699E+01  0.99351813454E+03 -0.10713817538E+04  0.14611534992E+04  0.50400001928E-02 0. -1.
       -1    1    3    3    0  502  0.56922761699E+01 -0.99351813454E+03  0.17157460732E+04  0.19826485501E+04  0.50400001928E-02 0.  1.
</event>
<event>
 5   0  0.1010551E-06  0.3421171E+04  0.7818609E-02  0.8132730E-01
        1   -1    0    0  501    0  0.00000000000E+00  0.00000000000E+00  0.20433036934E+04  0.20433036934E+04  0.50400001928E-02 0.  1.
       -1   -1    0    0    0  501  0.00000000000E+00  0.00000000000E+00 -0.14320448844E+04  0.14320448844E+04  0.50400001928E-02 0. -1.
    10030    2    1    2    0    0  0.00000000000E+00  0.00000000000E+00  0.61125880901E+03  0.34753485778E+04  0.34211709114E+04 0.  0.
        2    1    3    3  502    0  0.35782665407E+03  0.16253971621E+04  0.70704115215E+03  0.18082762620E+04  0.25500000920E-02 0.  1.
       -2    1    3    3    0  502 -0.35782665407E+03 -0.16253971621E+04 -0.95782343138E+02  0.16670723158E+04  0.25500000920E-02 0. -1.
</event>
<event>
 5   0  0.1010551E-06  0.2133327E+04  0.7818609E-02  0.8546703E-01
        1   -1    0    0  501    0  0.00000000000E+00  0.00000000000E+00  0.10286839388E+04  0.10286839388E+04  0.50400001928E-02 0.  1.
       -1   -1    0    0    0  501  0.00000000000E+00  0.00000000000E+00 -0.11060456241E+04  0.11060456241E+04  0.50400001928E-02 0. -1.
    10030    2    1    2    0    0  0.00000000000E+00  0.00000000000E+00 -0.77361685305E+02  0.21347295629E+04  0.21333273252E+04 0.  0.
        2    1    3    3  502    0  0.33412688121E+03 -0.10125574753E+04 -0.67990974167E+02  0.10684269681E+04  0.25500000920E-02 0. -1.
       -2    1    3    3    0  502 -0.33412688121E+03  0.10125574753E+04 -0.93707111387E+01  0.10663025949E+04  0.25500000920E-02 0.  1.
</event>
<event>
 5   0  0.2856440E-06  0.3372741E+04  0.7818609E-02  0.8144629E-01
       -2   -1    0    0    0  501  0.00000000000E+00  0.00000000000E+00  0.25882263997E+04  0.25882263997E+04  0.25500000920E-02 0.  1.
        2   -1    0    0  501    0  0.00000000000E+00  0.00000000000E+00 -0.10987620208E+04  0.10987620208E+04  0.25500000920E-02 0. -1.
    10030    2    1    2    0    0  0.00000000000E+00  0.00000000000E+00  0.14894643789E+04  0.36869884205E+04  0.33727406478E+04 0.  0.
        4    1    3    3  502    0  0.15247207557E+03 -0.15177964139E+04  0.15306691460E+04  0.21609959128E+04  0.12699999809E+01 0.  1.
       -4    1    3    3    0  502 -0.15247207557E+03  0.15177964139E+04 -0.41204767114E+02  0.15259925077E+04  0.12699999809E+01 0. -1.
</event>
<event>
 5   0  0.2856440E-06  0.2833441E+04  0.7818609E-02  0.8292961E-01
       -2   -1    0    0    0  501  0.00000000000E+00  0.00000000000E+00  0.90848455922E+03  0.90848455922E+03  0.25500000920E-02 0. -1.
        2   -1    0    0  501    0  0.00000000000E+00  0.00000000000E+00 -0.22092803150E+04  0.22092803150E+04  0.25500000920E-02 0.  1.
    10030    2    1    2    0    0  0.00000000000E+00  0.00000000000E+00 -0.13007957558E+04  0.31177648743E+04  0.28334410551E+04 0.  0.
        4    1    3    3  502    0  0.13948606277E+04 -0.19798985478E+02 -0.37848271305E+03  0.14454338268E+04  0.12699999809E+01 0. -1.
       -4    1    3    3    0  502 -0.13948606277E+04  0.19798985478E+02 -0.92231304278E+03  0.16723310475E+04  0.12699999809E+01 0.  1.
</event>
<event>
 5   0  0.2856440E-06  0.3011127E+04  0.7818609E-02  0.8240561E-01
        2   -1    0    0  501    0  0.00000000000E+00  0.00000000000E+00  0.24459498285E+04  0.24459498285E+04  0.25500000920E-02 0. -1.
       -2   -1    0    0    0  501  0.00000000000E+00  0.00000000000E+00 -0.92672470602E+03  0.92672470602E+03  0.25500000920E-02 0.  1.
    10030    2    1    2    0    0  0.00000000000E+00  0.00000000000E+00  0.15192251225E+04  0.33726745346E+04  0.30111274538E+04 0.  0.
        4    1    3    3  502    0 -0.37728838333E+03  0.11418439018E+04  0.17742296835E+04  0.21433727167E+04  0.12699999809E+01 0. -1.
       -4    1    3    3    0  502  0.37728838333E+03 -0.11418439018E+04 -0.25500456097E+03  0.12293018178E+04  0.12699999809E+01 0.  1.
</event>
<event>
 5   0  0.9232963E-07  0.3143440E+04  0.7818609E-02  0.8203916E-01
        1   -1    0    0  501    0  0.00000000000E+00  0.00000000000E+00  0.18986042148E+04  0.18986042148E+04  0.50400001928E-02 0. -1.
       -1   -1    0    0    0  501  0.00000000000E+00  0.00000000000E+00 -0.13011157672E+04  0.13011157672E+04  0.50400001928E-02 0.  1.
    10030    2    1    2    0    0  0.00000000000E+00  0.00000000000E+00  0.59748844763E+03  0.31997199821E+04  0.31434400771E+04 0.  0.
        3    1    3    3  502    0  0.71852068784E+03  0.13704254402E+04  0.18190248583E+02  0.15474717320E+04  0.10100000352E+00 0. -1.
       -3    1    3    3    0  502 -0.71852068784E+03 -0.13704254402E+04  0.57929819904E+03  0.16522482500E+04  0.10100000352E+00 0.  1.
</event>
<event>
 5   0  0.1003191E-06  0.3416362E+04  0.7818609E-02  0.8133902E-01
        1   -1    0    0  501    0  0.00000000000E+00  0.00000000000E+00  0.11399757485E+04  0.11399757485E+04  0.50400001928E-02 0.  1.
       -1   -1    0    0    0  501  0.00000000000E+00  0.00000000000E+00 -0.25595996835E+04  0.25595996835E+04  0.50400001928E-02 0. -1.
    10030    2    1    2    0    0  0.00000000000E+00  0.00000000000E+00 -0.14196239349E+04  0.36995754320E+04  0.34163615529E+04 0.  0.
        5    1    3    3  502    0 -0.13164890034E+04 -0.51026700093E+03  0.33131769373E+03  0.14502790119E+04  0.46999998093E+01 0.  1.
       -5    1    3    3    0  502  0.13164890034E+04  0.51026700093E+03 -0.17509416287E+04  0.22492964201E+04  0.46999998093E+01 0. -1.
</event>
<event>
 5   0  0.2664083E-06  0.3390438E+04  0.7818609E-02  0.8140257E-01
       -2   -1    0    0    0  501  0.00000000000E+00  0.00000000000E+00  0.14346826920E+04  0.14346826920E+04  0.25500000920E-02 0. -1.
        2   -1    0    0  501    0  0.00000000000E+00  0.00000000000E+00 -0.20030686022E+04  0.20030686022E+04  0.25500000920E-02 0.  1.
    10030    2    1    2    0    0  0.00000000000E+00  0.00000000000E+00 -0.56838591024E+03  0.34377512942E+04  0.33904382338E+04 0.  0.
        2    1    3    3  502    0 -0.10341756846E+04  0.40393938447E+03 -0.15831168009E+04  0.19336352237E+04  0.25500000920E-02 0.  1.
       -2    1    3    3    0  502  0.10341756846E+04 -0.40393938447E+03  0.10147308907E+04  0.15041160705E+04  0.25500000920E-02 0. -1.
</event>
<event>
 5   0  0.1010551E-06  0.3379163E+04  0.7818609E-02  0.8143039E-01
       -1   -1    0    0    0  501  0.00000000000E+00  0.00000000000E+00  0.23980256479E+04  0.23980256479E+04  0.50400001928E-02 0. -1.
        1   -1    0    0  501    0  0.00000000000E+00  0.00000000000E+00 -0.11904317199E+04  0.11904317199E+04  0.50400001928E-02 0.  1.
    10030    2    1    2    0    0  0.00000000000E+00  0.00000000000E+00  0.12075939280E+04  0.35884573678E+04  0.33791630896E+04 0.  0.
        2    1    3    3  502    0 -0.15020363169E+04  0.49734646058E+03  0.12331404788E+04  0.20060164605E+04  0.25500000920E-02 0.  1.
       -2    1    3    3    0  502  0.15020363169E+04 -0.49734646058E+03 -0.25546550870E+02  0.15824409074E+04  0.25500000920E-02 0. -1.
</event>
<event>
 5   0  0.1010551E-06  0.2683357E+04  0.7818609E-02  0.8340425E-01
        1   -1    0    0  501    0  0.00000000000E+00  0.00000000000E+00  0.68929417661E+03  0.68929417663E+03  0.50400001928E-02 0.  1.
       -1   -1    0    0    0  501  0.00000000000E+00  0.00000000000E+00 -0.26115137754E+04  0.26115137754E+04  0.50400001928E-02 0. -1.
    10030    2    1    2    0    0  0.00000000000E+00  0.00000000000E+00 -0.19222195988E+04  0.33008079521E+04  0.26833570300E+04 0.  0.
        2    1    3    3  502    0 -0.67365343405E+02 -0.30582952624E+03 -0.25659270580E+04  0.25849664322E+04  0.25500000920E-02 0. -1.
       -2    1    3    3    0  502  0.67365343405E+02  0.30582952624E+03  0.64370745916E+03  0.71584151989E+03  0.25500000920E-02 0.  1.
</event>
<event>
 5   0  0.1010855E-06  0.3386707E+04  0.7818609E-02  0.8141177E-01
       -1   -1    0    0    0  501  0.00000000000E+00  0.00000000000E+00  0.93613069296E+03  0.93613069298E+03  0.50400001928E-02 0.  1.
        1   -1    0    0  501    0  0.00000000000E+00  0.00000000000E+00 -0.30630835972E+04  0.30630835972E+04  0.50400001928E-02 0. -1.
    10030    2    1    2    0    0  0.00000000000E+00  0.00000000000E+00 -0.21269529043E+04  0.39992142902E+04  0.33867072921E+04 0.  0.
        1    1    3    3  502    0  0.47280701378E+03  0.15547205918E+04 -0.16257723242E+04  0.22986600968E+04  0.50400001928E-02 0.  1.
       -1    1    3    3    0  502 -0.47280701378E+03 -0.15547205918E+04 -0.50118058012E+03  0.17005541934E+04  0.50400001928E-02 0. -1.
</event>
<event>
 5   0  0.2664083E-06  0.2262585E+04  0.7818609E-02  0.8492821E-01
       -2   -1    0    0    0  501  0.00000000000E+00  0.00000000000E+00  0.24266749207E+04  0.24266749207E+04  0.25500000920E-02 0. -1.
        2   -1    0    0  501    0  0.00000000000E+00  0.00000000000E+00 -0.52739754942E+03  0.52739754943E+03  0.25500000920E-02 0.  1.
    10030    2    1    2    0    0  0.00000000000E+00  0.00000000000E+00  0.18992773713E+04  0.29540724702E+04  0.22625847223E+04 0.  0.
        2    1    3    3  502    0 -0.70033498028E+03 -0.60553061498E+03  0.10079988152E+03  0.93128783220E+03  0.25500000920E-02 0.  1.
       -2    1    3    3    0  502  0.70033498028E+03  0.60553061498E+03  0.17984774898E+04  0.20227846380E+04  0.25500000920E-02 0. -1.
</event>
<event>
 5   0  0.2856440E-06  0.3393545E+04  0.7818609E-02  0.8139492E-01
       -2   -1    0    0    0  501  0.00000000000E+00  0.00000000000E+00  0.22970185543E+04  0.22970185543E+04  0.25500000920E-02 0.  1.
        2   -1    0    0  501    0  0.00000000000E+00  0.00000000000E+00 -0.12533802676E+04  0.12533802676E+04  0.25500000920E-02 0. -1.
    10030    2    1    2    0    0  0.00000000000E+00  0.00000000000E+00  0.10436382867E+04  0.35503988219E+04  0.33935454795E+04 0.  0.
        4    1    3    3  502    0  0.16212339904E+04  0.35178840943E+03  0.89448741127E+03  0.18847450964E+04  0.12699999809E+01 0.  1.
       -4    1    3    3    0  502 -0.16212339904E+04 -0.35178840943E+03  0.14915087548E+03  0.16656537255E+04  0.12699999809E+01 0. -1.
</event>
<event>
 5   0  0.9232963E-07  0.3363353E+04  0.7818609E-02  0.8146960E-01
       -1   -1    0    0    0  501  0.00000000000E+00  0.00000000000E+00  0.17240278938E+04  0.17240278938E+04  0.50400001928E-02 0. -1.
        1   -1    0    0  501    0  0.00000000000E+00  0.00000000000E+00 -0.16403653676E+04  0.16403653676E+04  0.50400001928E-02 0.  1.
    10030    2    1    2    0    0  0.00000000000E+00  0.00000000000E+00  0.83662526281E+02  0.33643932614E+04  0.33633528806E+04 0.  0.
        3    1    3    3  502    0  0.85339307091E+03 -0.68268784752E+03 -0.12367241956E+04  0.16504027317E+04  0.10100000352E+00 0.  1.
       -3    1    3    3    0  502 -0.85339307091E+03  0.68268784752E+03  0.13203867218E+04  0.17139905297E+04  0.10100000352E+00 0. -1.
</event>
<event>
 5   0  0.2767014E-06  0.2534738E+04  0.7818609E-02  0.8390713E-01
       -2   -1    0    0    0  501  0.00000000000E+00  0.00000000000E+00  0.11791707366E+04  0.11791707366E+04  0.25500000920E-02 0.  1.
        2   -1    0    0  501    0  0.00000000000E+00  0.00000000000E+00 -0.13621642631E+04  0.13621642631E+04  0.25500000920E-02 0. -1.
    10030    2    1    2    0    0  0.00000000000E+00  0.00000000000E+00 -0.18299352655E+03  0.25413349997E+04  0.25347380437E+04 0.  0.
        1    1    3    3  502    0 -0.79640112542E+03  0.37380924526E+02 -0.10792370043E+04  0.13417915626E+04  0.50400001928E-02 0. -1.
       -1    1    3    3    0  502  0.79640112542E+03 -0.37380924526E+02  0.89624347773E+03  0.11995434371E+04  0.50400001928E-02 0.  1.
</event>
<event>
 5   0  0.1010551E-06  0.3335870E+04  0.7818609E-02  0.8153828E-01
       -1   -1    0    0    0  501  0.00000000000E+00  0.00000000000E+00  0.15690647721E+04  0.15690647721E+04  0.50400001928E-02 0. -1.
        1   -1    0    0  501    0  0.00000000000E+00  0.00000000000E+00 -0.17730351703E+04  0.17730351703E+04  0.50400001928E-02 0.  1.
    10030    2    1    2    0    0  0.00000000000E+00  0.00000000000E+00 -0.20397039819E+03  0.33420999423E+04  0.33358699167E+04 0.  0.
        2    1    3    3  502    0  0.95939140836E+03 -0.12499170745E+04 -0.65007403616E+03  0.17045001672E+04  0.25500000920E-02 0.  1.
       -2    1    3    3    0  502 -0.95939140836E+03  0.12499170745E+04  0.44610363798E+03  0.16375997751E+04  0.25500000920E-02 0. -1.
</event>
<event>
 5   0  0.1010855E-06  0.3414412E+04  0.7818609E-02  0.8134378E-01
       -1   -1    0    0    0  501  0.00000000000E+00  0.00000000000E+00  0.13345631027E+04  0.13345631027E+04  0.50400001928E-02 0.  1.
        1   -1    0    0  501    0  0.00000000000E+00  0.00000000000E+00 -0.21839004777E+04  0.21839004777E+04  0.50400001928E-02 0. -1.
    10030    2    1    2    0    0  0.00000000000E+00  0.00000000000E+00 -0.84933737497E+03  0.35184635805E+04  0.34144123931E+04 0.  0.
        1    1    3    3  502    0  0.84959174524E+03  0.42863080858E+03 -0.18852625978E+04  0.21118109684E+04  0.50400001928E-02 0. -1.
       -1    1    3    3    0  502 -0.84959174524E+03 -0.42863080858E+03  0.10359252228E+04  0.14066526120E+04  0.50400001928E-02 0.  1.
</event>
<event>
 5   0  0.9232963E-07  0.2340302E+04  0.7818609E-02  0.8462198E-01
       -1   -1    0    0    0  501  0.00000000000E+00  0.00000000000E+00  0.11719693623E+04  0.11719693623E+04  0.50400001928E-02 0. -1.
        1   -1    0    0  501    0  0.00000000000E+00  0.00000000000E+00 -0.11683355314E+04  0.11683355314E+04  0.50400001928E-02 0.  1.
    10030    2    1    2    0    0  0.00000000000E+00  0.00000000000E+00  0.36338308375E+01  0.23403048937E+04  0.23403020726E+04 0.  0.
        3    1    3    3  502    0 -0.23407361479E+03  0.10017950468E+04  0.55937445865E+03  0.11710181759E+04  0.10100000352E+00 0. -1.
       -3    1    3    3    0  502  0.23407361479E+03 -0.10017950468E+04 -0.55574062781E+03  0.11692867179E+04  0.10100000352E+00 0.  1.
</event>
<event>
 5   0  0.1010855E-06  0.3365299E+04  0.7818609E-02  0.8146476E-01
        1   -1    0    0  501    0  0.00000000000E+00  0.00000000000E+00  0.10916702905E+04  0.10916702905E+04  0.50400001928E-02 0.  1.
       -1   -1    0    0    0  501  0.00000000000E+00  0.00000000000E+00 -0.25935572500E+04  0.25935572500E+04  0.50400001928E-02 0. -1.
    10030    2    1    2    0    0  0.00000000000E+00  0.00000000000E+00 -0.15018869596E+04  0.36852275405E+04  0.33652990336E+04 0.  0.
        1    1    3    3  502    0  0.45247957766E+03  0.15267492438E+04 -0.15555693727E+03  0.15999684317E+04  0.50400001928E-02 0.  1.
       -1    1    3    3    0  502 -0.45247957766E+03 -0.15267492438E+04 -0.13463300223E+04  0.20852591088E+04  0.50400001928E-02 0. -1.
</event>
<event>
 5   0  0.1010855E-06  0.3549063E+04  0.7818609E-02  0.8102260E-01
       -1   -1    0    0    0  501  0.00000000000E+00  0.00000000000E+00  0.18396691581E+04  0.18396691581E+04  0.50400001928E-02 0. -1.
        1   -1    0    0  501    0  0.00000000000E+00  0.00000000000E+00 -0.17116997870E+04  0.17116997870E+04  0.50400001928E-02 0.  1.
    10030    2    1    2    0    0  0.00000000000E+00  0.00000000000E+00  0.12796937109E+03  0.35513689450E+04  0.35490625838E+04 0.  0.
        1    1    3    3  502    0  0.95951425764E+02 -0.15793645398E+04 -0.73988180298E+03  0.17467180963E+04  0.50400001928E-02 0.  1.
       -1    1    3    3    0  502 -0.95951425764E+02  0.15793645398E+04  0.86785117406E+03  0.18046508487E+04  0.50400001928E-02 0. -1.
</event>
<event>
 5   0  0.1010551E-06  0.3415006E+04  0.7818609E-02  0.8134233E-01
       -1   -1    0    0    0  501  0.00000000000E+00  0.00000000000E+00  0.14275447375E+04  0.14275447375E+04  0.50400001928E-02 0.  1.
        1   -1    0    0  501    0  0.00000000000E+00  0.00000000000E+00 -0.20423641732E+04  0.20423641732E+04  0.50400001928E-02 0. -1.
    10030    2    1    2    0    0  0.00000000000E+00  0.00000000000E+00 -0.61481943568E+03  0.34699089107E+04  0.34150058433E+04 0.  0.
        2    1    3    3  502    0  0.54057463169E+02 -0.12952952998E+03  0.14216733699E+04  0.14285850619E+04  0.25500000920E-02 0.  1.
       -2    1    3    3    0  502 -0.54057463169E+02  0.12952952998E+03 -0.20364928056E+04  0.20413238488E+04  0.25500000920E-02 0. -1.
</event>
<event>
 5   0  0.1010855E-06  0.3440468E+04  0.7818609E-02  0.8128045E-01
       -1   -1    0    0    0  501  0.00000000000E+00  0.00000000000E+00  0.16390882771E+04  0.16390882772E+04  0.50400001928E-02 0.  1.
        1   -1    0    0  501    0  0.00000000000E+00  0.00000000000E+00 -0.18053968753E+04  0.18053968753E+04  0.50400001928E-02 0. -1.
    10030    2    1    2    0    0  0.00000000000E+00  0.00000000000E+00 -0.16630859818E+03  0.34444851525E+04  0.34404679065E+04 0.  0.
        1    1    3    3  502    0 -0.99139149867E+03  0.10680370828E+03 -0.14865544931E+04  0.17900023454E+04  0.50400001928E-02 0. -1.
       -1    1    3    3    0  502  0.99139149867E+03 -0.10680370828E+03  0.13202458949E+04  0.16544828070E+04  0.50400001928E-02 0.  1.
</event>
<event>
 5   0  0.2664083E-06  0.2653715E+04  0.7818609E-02  0.8350181E-01
       -2   -1    0    0    0  501  0.00000000000E+00  0.00000000000E+00  0.15048631552E+04  0.15048631552E+04  0.25500000920E-02 0.  1.
        2   -1    0    0  501    0  0.00000000000E+00  0.00000000000E+00 -0.11699078240E+04  0.11699078240E+04  0.25500000920E-02 0. -1.
    10030    2    1    2    0    0  0.00000000000E+00  0.00000000000E+00  0.33495533121E+03  0.26747709792E+04  0.26537152668E+04 0.  0.
        2    1    3    3  502    0  0.87167234172E+03 -0.96061971193E+03 -0.11392975128E+03  0.13021454951E+04  0.25500000920E-02 0. -1.
       -2    1    3    3    0  502 -0.87167234172E+03  0.96061971193E+03  0.44888508249E+03  0.13726254841E+04  0.25500000920E-02 0.  1.
</event>
<event>
 5   0  0.1010551E-06  0.3396460E+04  0.7818609E-02  0.8138776E-01
       -1   -1    0    0    0  501  0.00000000000E+00  0.00000000000E+00  0.13724516273E+04  0.13724516273E+04  0.50400001928E-02 0. -1.
        1   -1    0    0  501    0  0.00000000000E+00  0.00000000000E+00 -0.21013384785E+04  0.21013384785E+04  0.50400001928E-02 0.  1.
    10030    2    1    2    0    0  0.00000000000E+00  0.00000000000E+00 -0.72888685115E+03  0.34737901058E+04  0.33964601658E+04 0.  0.
        2    1    3    3  502    0 -0.84544466810E+03  0.14168653373E+04 -0.77571989472E+03  0.18231910010E+04  0.25500000920E-02 0. -1.
       -2    1    3    3    0  502  0.84544466810E+03 -0.14168653373E+04  0.46833043563E+02  0.16505991049E+04  0.25500000920E-02 0.  1.
</event>
<event>
 5   0  0.1003191E-06  0.3306510E+04  0.7818609E-02  0.8161241E-01
       -1   -1    0    0    0  501  0.00000000000E+00  0.00000000000E+00  0.14005599927E+04  0.14005599927E+04  0.50400001928E-02 0. -1.
        1   -1    0    0  501    0  0.00000000000E+00  0.00000000000E+00 -0.19515424268E+04  0.19515424268E+04  0.50400001928E-02 0.  1.
    10030    2    1    2    0    0  0.00000000000E+00  0.00000000000E+00 -0.55098243409E+03  0.33521024196E+04  0.33065100920E+04 0.  0.
        5    1    3    3  502    0  0.14839703468E+04 -0.34025417609E+03  0.37782400648E+03  0.15686663011E+04  0.46999998093E+01 0. -1.
       -5    1    3    3    0  502 -0.14839703468E+04  0.34025417609E+03 -0.92880644057E+03  0.17834361184E+04  0.46999998093E+01 0.  1.
</event>
<event>
 5   0  0.2767014E-06  0.3415661E+04  0.7818609E-02  0.8134073E-01
        2   -1    0    0  501    0  0.00000000000E+00  0.00000000000E+00  0.28843276011E+04  0.28843276011E+04  0.25500000920E-02 0.  1.
       -2   -1    0    0    0  501  0.00000000000E+00  0.00000000000E+00 -0.10112185338E+04  0.10112185338E+04  0.25500000920E-02 0. -1.
    10030    2    1    2    0    0  0.00000000000E+00  0.00000000000E+00  0.18731090673E+04  0.38955461349E+04  0.34156612992E+04 0.  0.
        1    1    3    3  502    0  0.68370361524E+03  0.89554744063E+03 -0.52720801724E+03  0.12439470026E+04  0.50400001928E-02 0. -1.
       -1    1    3    3    0  502 -0.68370361524E+03 -0.89554744063E+03  0.24003170845E+04  0.26515991323E+04  0.50400001928E-02 0.  1.
</event>
<event>
 5   0  0.2767014E-06  0.3314835E+04  0.7818609E-02  0.8159131E-01
       -2   -1    0    0    0  501  0.00000000000E+00  0.00000000000E+00  0.22427681492E+04  0.22427681492E+04  0.25500000920E-02 0.  1.
        2   -1    0    0  501    0  0.00000000000E+00  0.00000000000E+00 -0.12248403177E+04  0.12248403177E+04  0.25500000920E-02 0. -1.
    10030    2    1    2    0    0  0.00000000000E+00  0.00000000000E+00  0.10179278316E+04  0.34676084669E+04  0.33148350501E+04 0.  0.
        1    1    3    3  502    0 -0.96136910662E+03 -0.25526317523E+03  0.18958266143E+04  0.21409223244E+04  0.50400001928E-02 0.  1.
       -1    1    3    3    0  502  0.96136910662E+03  0.25526317523E+03 -0.87789878273E+03  0.13266861424E+04  0.50400001928E-02 0. -1.
</event>
<event>
 5   0  0.2664083E-06  0.3068432E+04  0.7818609E-02  0.8224455E-01
        2   -1    0    0  501    0  0.00000000000E+00  0.00000000000E+00  0.12100263226E+04  0.12100263226E+04  0.25500000920E-02 0.  1.
       -2   -1    0    0    0  501  0.00000000000E+00  0.00000000000E+00 -0.19452625071E+04  0.19452625071E+04  0.25500000920E-02 0. -1.
    10030    2    1    2    0    0  0.00000000000E+00  0.00000000000E+00 -0.73523618449E+03  0.31552888297E+04  0.30684320673E+04 0.  0.
        2    1    3    3  502    0  0.66768170878E+03 -0.13774288540E+04 -0.26120090253E+03  0.15528473922E+04  0.25500000920E-02 0. -1.
       -2    1    3    3    0  502 -0.66768170878E+03  0.13774288540E+04 -0.47403528195E+03  0.16024414375E+04  0.25500000920E-02 0.  1.
</event>
<event>
 5   0  0.2906701E-06  0.3341645E+04  0.7818609E-02  0.8152379E-01
        2   -1    0    0  501    0  0.00000000000E+00  0.00000000000E+00  0.20494955902E+04  0.20494955902E+04  0.25500000920E-02 0. -1.
       -2   -1    0    0    0  501  0.00000000000E+00  0.00000000000E+00 -0.13621144163E+04  0.13621144163E+04  0.25500000920E-02 0.  1.
    10030    2    1    2    0    0  0.00000000000E+00  0.00000000000E+00  0.68738117393E+03  0.34116100065E+04  0.33416447983E+04 0.  0.
        5    1    3    3  502    0 -0.10245583394E+04  0.33284263986E+03 -0.96020326024E+03  0.14430926529E+04  0.46999998093E+01 0.  1.
       -5    1    3    3    0  502  0.10245583394E+04 -0.33284263986E+03  0.16475844342E+04  0.19685173536E+04  0.46999998093E+01 0. -1.
</event>
<event>
 5   0  0.9714317E-07  0.3417543E+04  0.7818609E-02  0.8133614E-01
        1   -1    0    0  501    0  0.00000000000E+00  0.00000000000E+00  0.14608195025E+04  0.14608195025E+04  0.50400001928E-02 0.  1.
       -1   -1    0    0    0  501  0.00000000000E+00  0.00000000000E+00 -0.19988095593E+04  0.19988095593E+04  0.50400001928E-02 0. -1.
    10030    2    1    2    0    0  0.00000000000E+00  0.00000000000E+00 -0.53799005680E+03  0.34596290617E+04  0.34175429688E+04 0.  0.
        4    1    3    3  502    0 -0.25532729710E+03 -0.12341267089E+04  0.89918177831E+03  0.15481570481E+04  0.12699999809E+01 0.  1.
       -4    1    3    3    0  502  0.25532729710E+03  0.12341267089E+04 -0.14371718351E+04  0.19114720136E+04  0.12699999809E+01 0. -1.
</event>
<event>
 5   0  0.2767014E-06  0.3444078E+04  0.7818609E-02  0.8127172E-01
        2   -1    0    0  501    0  0.00000000000E+00  0.00000000000E+00  0.21588846317E+04  0.21588846317E+04  0.25500000920E-02 0.  1.
       -2   -1    0    0    0  501  0.00000000000E+00  0.00000000000E+00 -0.13735884653E+04  0.13735884653E+04  0.25500000920E-02 0. -1.
    10030    2    1    2    0    0  0.00000000000E+00  0.00000000000E+00  0.78529616637E+03  0.35324730971E+04  0.34440784127E+04 0.  0.
        1    1    3    3  502    0  0.72797666191E+03 -0.98542157800E+03  0.16338363681E+04  0.20421623306E+04  0.50400001928E-02 0.  1.
       -1    1    3    3    0  502 -0.72797666191E+03  0.98542157800E+03 -0.84854020175E+03  0.14903107665E+04  0.50400001928E-02 0. -1.
</event>
<event>
 5   0  0.1010855E-06  0.3240714E+04  0.7818609E-02  0.8178147E-01
        1   -1    0    0  501    0  0.00000000000E+00  0.00000000000E+00  0.27215008370E+04  0.27215008370E+04  0.50400001928E-02 0. -1.
       -1   -1    0    0    0  501  0.00000000000E+00  0.00000000000E+00 -0.96474569781E+03  0.96474569783E+03  0.50400001928E-02 0.  1.
    10030    2    1    2    0    0  0.00000000000E+00  0.00000000000E+00  0.17567551392E+04  0.36862465348E+04  0.32407136400E+04 0.  0.
        1    1    3    3  502    0 -0.44943627666E+03  0.74812238027E+03  0.24313088830E+04  0.25832040080E+04  0.50400001928E-02 0. -1.
       -1    1    3    3    0  502  0.44943627666E+03 -0.74812238027E+03 -0.67455374379E+03  0.11030425268E+04  0.50400001928E-02 0.  1.
</event>
<event>
 5   0  0.1010551E-06  0.3370693E+04  0.7818609E-02  0.8145137E-01
       -1   -1    0    0    0  501  0.00000000000E+00  0.00000000000E+00  0.13132460469E+04  0.13132460470E+04  0.50400001928E-02 0. -1.
        1   -1    0    0  501    0  0.00000000000E+00  0.00000000000E+00 -0.21628798385E+04  0.21628798385E+04  0.50400001928E-02 0.  1.
    10030    2    1    2    0    0  0.00000000000E+00  0.00000000000E+00 -0.84963379154E+03  0.34761258854E+04  0.33706933399E+04 0.  0.
        2    1    3    3  502    0 -0.86595803049E+03  0.41905401120E+03  0.10022677578E+04  0.13892552801E+04  0.25500000920E-02 0. -1.
       -2    1    3    3    0  502  0.86595803049E+03 -0.41905401120E+03 -0.18519015494E+04  0.20868706053E+04  0.25500000920E-02 0.  1.
</event>
<event>
 5   0  0.9232963E-07  0.2822071E+04  0.7818609E-02  0.8296449E-01
        1   -1    0    0  501    0  0.00000000000E+00  0.00000000000E+00  0.24750739712E+04  0.24750739712E+04  0.50400001928E-02 0. -1.
       -1   -1    0    0    0  501  0.00000000000E+00  0.00000000000E+00 -0.80442913426E+03  0.80442913428E+03  0.50400001928E-02 0.  1.
    10030    2    1    2    0    0  0.00000000000E+00  0.00000000000E+00  0.16706448369E+04  0.32795031055E+04  0.28220713045E+04 0.  0.
        3    1    3    3  502    0  0.10141976285E+04  0.77957423069E+02  0.19717660710E+04  0.22186788047E+04  0.10100000352E+00 0. -1.
       -3    1    3    3    0  502 -0.10141976285E+04 -0.77957423069E+02 -0.30112123407E+03  0.10608243008E+04  0.10100000352E+00 0.  1.
</event>
<event>
 5   0  0.1003191E-06  0.3415188E+04  0.7818609E-02  0.8134189E-01
       -1   -1    0    0    0  501  0.00000000000E+00  0.00000000000E+00  0.13975809552E+04  0.13975809552E+04  0.50400001928E-02 0. -1.
        1   -1    0    0  501    0  0.00000000000E+00  0.00000000000E+00 -0.20863742465E+04  0.20863742465E+04  0.50400001928E-02 0.  1.
    10030    2    1    2    0    0  0.00000000000E+00  0.00000000000E+00 -0.68879329131E+03  0.34839552018E+04  0.34151877913E+04 0.  0.
        5    1    3    3  502    0 -0.10649905663E+04  0.74278977934E+03 -0.14757420437E+04  0.19656495700E+04  0.46999998093E+01 0.  1.
       -5    1    3    3    0  502  0.10649905663E+04 -0.74278977934E+03  0.78694875237E+03  0.15183056318E+04  0.46999998093E+01 0. -1.
</event>
<event>
 5   0  0.1010551E-06  0.2648616E+04  0.7818609E-02  0.8351872E-01
       -1   -1    0    0    0  501  0.00000000000E+00  0.00000000000E+00  0.11374144575E+04  0.11374144576E+04  0.50400001928E-02 0. -1.
        1   -1    0    0  501    0  0.00000000000E+00  0.00000000000E+00 -0.15419114099E+04  0.15419114099E+04  0.50400001928E-02 0.  1.
    10030    2    1    2    0    0  0.00000000000E+00  0.00000000000E+00 -0.40449695236E+03  0.26793258675E+04  0.26486164916E+04 0.  0.
        2    1    3    3  502    0 -0.91449751104E+03 -0.78989034504E+03 -0.75034216993E+03  0.14224084599E+04  0.25500000920E-02 0.  1.
       -2    1    3    3    0  502  0.91449751104E+03  0.78989034504E+03  0.34584521757E+03  0.12569174075E+04  0.25500000920E-02 0. -1.
</event>
<event>
 5   0  0.2767014E-06  0.3471254E+04  0.7818609E-02  0.8120636E-01
       -2   -1    0    0    0  501  0.00000000000E+00  0.00000000000E+00  0.20862231325E+04  0.20862231325E+04  0.25500000920E-02 0.  1.
        2   -1    0    0  501    0  0.00000000000E+00  0.00000000000E+00 -0.14439492322E+04  0.14439492322E+04  0.25500000920E-02 0. -1.
    10030    2    1    2    0    0  0.00000000000E+00  0.00000000000E+00  0.64227390022E+03  0.35301723647E+04  0.34712535433E+04 0.  0.
        1    1    3    3  502    0 -0.37944792550E+03  0.16063130000E+04  0.86707085643E+03  0.18644125220E+04  0.50400001928E-02 0. -1.
       -1    1    3    3    0  502  0.37944792550E+03 -0.16063130000E+04 -0.22479695621E+03  0.16657598427E+04  0.50400001928E-02 0.  1.
</event>
<event>
 5   0  0.2848685E-06  0.3149166E+04  0.7818609E-02  0.8202373E-01
       -2   -1    0    0    0  501  0.00000000000E+00  0.00000000000E+00  0.14839068069E+04  0.14839068069E+04  0.25500000920E-02 0. -1.
        2   -1    0    0  501    0  0.00000000000E+00  0.00000000000E+00 -0.16708001067E+04  0.16708001067E+04  0.25500000920E-02 0.  1.
    10030    2    1    2    0    0  0.00000000000E+00  0.00000000000E+00 -0.18689329976E+03  0.31547069136E+04  0.31491660174E+04 0.  0.
        3    1    3    3  502    0  0.87463503168E+03  0.82627654069E+03 -0.11109070213E+04  0.16376305384E+04  0.10100000352E+00 0.  1.
       -3    1    3    3    0  502 -0.87463503168E+03 -0.82627654069E+03  0.92401372151E+03  0.15170763752E+04  0.10100000352E+00 0. -1.
</event>
<event>
 5   0  0.1010855E-06  0.3021206E+04  0.7818609E-02  0.8237701E-01
        1   -1    0    0  501    0  0.00000000000E+00  0.00000000000E+00  0.18530033046E+04  0.18530033046E+04  0.50400001928E-02 0.  1.
       -1   -1    0    0    0  501  0.00000000000E+00  0.00000000000E+00 -0.12314717055E+04  0.12314717055E+04  0.50400001928E-02 0. -1.
    10030    2    1    2    0    0  0.00000000000E+00  0.00000000000E+00  0.62153159908E+03  0.30844750101E+04  0.30212058121E+04 0.  0.
        1    1    3    3  502    0 -0.52885741733E+03  0.11987452115E+04  0.10783353363E+04  0.16969052265E+04  0.50400001928E-02 0.  1.
       -1    1    3    3    0  502  0.52885741733E+03 -0.11987452115E+04 -0.45680373726E+03  0.13875697836E+04  0.50400001928E-02 0. -1.
</event>
<event>
 5   0  0.1010551E-06  0.3379507E+04  0.7818609E-02  0.8142954E-01
        1   -1    0    0  501    0  0.00000000000E+00  0.00000000000E+00  0.21276385615E+04  0.21276385615E+04  0.50400001928E-02 0.  1.
       -1   -1    0    0    0  501  0.00000000000E+00  0.00000000000E+00 -0.13419888778E+04  0.13419888778E+04  0.50400001928E-02 0. -1.
    10030    2    1    2    0    0  0.00000000000E+00  0.00000000000E+00  0.78564968377E+03  0.34696274393E+04  0.33795072336E+04 0.  0.
        2    1    3    3  502    0 -0.83375031997E+03 -0.66188998967E+03  0.17400796296E+04  0.20398811416E+04  0.25500000920E-02 0.  1.
       -2    1    3    3    0  502  0.83375031997E+03  0.66188998967E+03 -0.95442994579E+03  0.14297462977E+04  0.25500000920E-02 0. -1.
</event>
<event>
 5   0  0.1010855E-06  0.3443056E+04  0.7818609E-02  0.8127419E-01
        1   -1    0    0  501    0  0.00000000000E+00  0.00000000000E+00  0.17705725875E+04  0.17705725875E+04  0.50400001928E-02 0.  1.
       -1   -1    0    0    0  501  0.00000000000E+00  0.00000000000E+00 -0.16738417294E+04  0.16738417294E+04  0.50400001928E-02 0. -1.
    10030    2    1    2    0    0  0.00000000000E+00  0.00000000000E+00  0.96730858127E+02  0.34444143169E+04  0.34430557834E+04 0.  0.
        1    1    3    3  502    0 -0.55965799583E+03 -0.15446849754E+04 -0.46602568572E+03  0.17077613081E+04  0.50400001928E-02 0. -1.
       -1    1    3    3    0  502  0.55965799583E+03  0.15446849754E+04  0.56275654385E+03  0.17366530089E+04  0.50400001928E-02 0.  1.
</event>
<event>
 5   0  0.9714317E-07  0.3428604E+04  0.7818609E-02  0.8130921E-01
       -1   -1    0    0    0  501  0.00000000000E+00  0.00000000000E+00  0.14854799541E+04  0.14854799541E+04  0.50400001928E-02 0.  1.
        1   -1    0    0  501    0  0.00000000000E+00  0.00000000000E+00 -0.19783714124E+04  0.19783714124E+04  0.50400001928E-02 0. -1.
    10030    2    1    2    0    0  0.00000000000E+00  0.00000000000E+00 -0.49289145827E+03  0.34638513665E+04  0.34286038412E+04 0.  0.
        4    1    3    3  502    0 -0.72643895132E+03 -0.12660879429E+03  0.13170709132E+04  0.15094438512E+04  0.12699999809E+01 0.  1.
       -4    1    3    3    0  502  0.72643895132E+03  0.12660879429E+03 -0.18099623715E+04  0.19544075153E+04  0.12699999809E+01 0. -1.
</event>
<event>
 5   0  0.9232963E-07  0.3385554E+04  0.7818609E-02  0.8141461E-01
       -1   -1    0    0    0  501  0.00000000000E+00  0.00000000000E+00  0.12131221395E+04  0.12131221395E+04  0.50400001928E-02 0. -1.
        1   -1    0    0  501    0  0.00000000000E+00  0.00000000000E+00 -0.23620814164E+04  0.23620814164E+04  0.50400001928E-02 0.  1.
    10030    2    1    2    0    0  0.00000000000E+00  0.00000000000E+00 -0.11489592768E+04  0.35752035559E+04  0.33855535805E+04 0.  0.
        3    1    3    3  502    0  0.19278091946E+03 -0.10059366826E+04  0.84876395895E+03  0.13302155316E+04  0.10100000352E+00 0. -1.
       -3    1    3    3    0  502 -0.19278091946E+03  0.10059366826E+04 -0.19977232358E+04  0.22449880243E+04  0.10100000352E+00 0.  1.
</event>
<event>
 5   0  0.2767014E-06  0.3296462E+04  0.7818609E-02  0.8163796E-01
        2   -1    0    0  501    0  0.00000000000E+00  0.00000000000E+00  0.28308994206E+04  0.28308994206E+04  0.25500000920E-02 0.  1.
       -2   -1    0    0    0  501  0.00000000000E+00  0.00000000000E+00 -0.95964751886E+03  0.95964751886E+03  0.25500000920E-02 0. -1.
    10030    2    1    2    0    0  0.00000000000E+00  0.00000000000E+00  0.18712519018E+04  0.37905469395E+04  0.32964621067E+04 0.  0.
        1    1    3    3  502    0 -0.89996448651E+03 -0.13793783761E+04  0.86249460207E+03  0.18591712455E+04  0.50400001928E-02 0.  1.
       -1    1    3    3    0  502  0.89996448651E+03  0.13793783761E+04  0.10087572997E+04  0.19313756940E+04  0.50400001928E-02 0. -1.
</event>
<event>
 5   0  0.1003191E-06  0.2677145E+04  0.7818609E-02  0.8342459E-01
        1   -1    0    0  501    0  0.00000000000E+00  0.00000000000E+00  0.70198547360E+03  0.70198547361E+03  0.50400001928E-02 0. -1.
       -1   -1    0    0    0  501  0.00000000000E+00  0.00000000000E+00 -0.25524404651E+04  0.25524404651E+04  0.50400001928E-02 0.  1.
    10030    2    1    2    0    0  0.00000000000E+00  0.00000000000E+00 -0.18504549915E+04  0.32544259388E+04  0.26771448439E+04 0.  0.
        5    1    3    3  502    0  0.16129422706E+03 -0.11898112701E+01  0.69011830665E+03  0.70873310245E+03  0.46999998093E+01 0. -1.
       -5    1    3    3    0  502 -0.16129422706E+03  0.11898112701E+01 -0.25405732982E+04  0.25456928363E+04  0.46999998093E+01 0.  1.
</event>
<event>
 5   0  0.2664083E-06  0.3364619E+04  0.7818609E-02  0.8146645E-01
        2   -1    0    0  501    0  0.00000000000E+00  0.00000000000E+00  0.17737373535E+04  0.17737373535E+04  0.25500000920E-02 0. -1.
       -2   -1    0    0    0  501  0.00000000000E+00  0.00000000000E+00 -0.15955945220E+04  0.15955945220E+04  0.25500000920E-02 0.  1.
    10030    2    1    2    0    0  0.00000000000E+00  0.00000000000E+00  0.17814283150E+03  0.33693318755E+04  0.33646192086E+04 0.  0.
        2    1    3    3  502    0 -0.18055674660E+03  0.16395767862E+04  0.42021998325E+03  0.17021743773E+04  0.25500000920E-02 0. -1.
       -2    1    3    3    0  502  0.18055674660E+03 -0.16395767862E+04 -0.24207715175E+03  0.16671574982E+04  0.25500000920E-02 0.  1.
</event>
<event>
 5   0  0.9714317E-07  0.3365779E+04  0.7818609E-02  0.8146357E-01
       -1   -1    0    0    0  501  0.00000000000E+00  0.00000000000E+00  0.17621265793E+04  0.17621265793E+04  0.50400001928E-02 0.  1.
        1   -1    0    0  501    0  0.00000000000E+00  0.00000000000E+00 -0.16072158210E+04  0.16072158210E+04  0.50400001928E-02 0. -1.
    10030    2    1    2    0    0  0.00000000000E+00  0.00000000000E+00  0.15491075829E+03  0.33693424003E+04  0.33657793848E+04 0.  0.
        4    1    3    3  502    0 -0.15081587418E+04  0.74425497644E+03  0.16911246164E+02  0.16818875895E+04  0.12699999809E+01 0.  1.
       -4    1    3    3    0  502  0.15081587418E+04 -0.74425497644E+03  0.13799951213E+03  0.16874548108E+04  0.12699999809E+01 0. -1.
</event>
<event>
 5   0  0.2848685E-06  0.2982360E+04  0.7818609E-02  0.8248786E-01
       -2   -1    0    0    0  501  0.00000000000E+00  0.00000000000E+00  0.13954027409E+04  0.13954027409E+04  0.25500000920E-02 0. -1.
        2   -1    0    0  501    0  0.00000000000E+00  0.00000000000E+00 -0.15935307368E+04  0.15935307368E+04  0.25500000920E-02 0.  1.
    10030    2    1    2    0    0  0.00000000000E+00  0.00000000000E+00 -0.19812799589E+03  0.29889334777E+04  0.29823595744E+04 0.  0.
        3    1    3    3  502    0 -0.11111683723E+04  0.77582305916E+03 -0.72254506995E+03  0.15357955460E+04  0.10100000352E+00 0.  1.
       -3    1    3    3    0  502  0.11111683723E+04 -0.77582305916E+03  0.52441707406E+03  0.14531379317E+04  0.10100000352E+00 0. -1.
</event>
<event>
 5   0  0.1010855E-06  0.3377514E+04  0.7818609E-02  0.8143447E-01
        1   -1    0    0  501    0  0.00000000000E+00  0.00000000000E+00  0.30879309108E+04  0.30879309108E+04  0.50400001928E-02 0.  1.
       -1   -1    0    0    0  501  0.00000000000E+00  0.00000000000E+00 -0.92356326639E+03  0.92356326641E+03  0.50400001928E-02 0. -1.
    10030    2    1    2    0    0  0.00000000000E+00  0.00000000000E+00  0.21643676444E+04  0.40114941772E+04  0.33775136171E+04 0.  0.
        1    1    3    3  502    0 -0.11110889475E+04 -0.10410503377E+04  0.19497746966E+04  0.24738483831E+04  0.50400001928E-02 0.  1.
       -1    1    3    3    0  502  0.11110889475E+04  0.10410503377E+04  0.21459294777E+03  0.15376457941E+04  0.50400001928E-02 0. -1.
</event>
<event>
 5   0  0.2848685E-06  0.3441464E+04  0.7818609E-02  0.8127804E-01
       -2   -1    0    0    0  501  0.00000000000E+00  0.00000000000E+00  0.15806916257E+04  0.15806916257E+04  0.25500000920E-02 0. -1.
        2   -1    0    0  501    0  0.00000000000E+00  0.00000000000E+00 -0.18731795588E+04  0.18731795588E+04  0.25500000920E-02 0.  1.
    10030    2    1    2    0    0  0.00000000000E+00  0.00000000000E+00 -0.29248793306E+03  0.34538711845E+04  0.34414643639E+04 0.  0.
        3    1    3    3  502    0 -0.12470315538E+04 -0.35767451473E+03  0.98827399352E+03  0.16308599729E+04  0.10100000352E+00 0. -1.
       -3    1    3    3    0  502  0.12470315538E+04  0.35767451473E+03 -0.12807619266E+04  0.18230112116E+04  0.10100000352E+00 0.  1.
</event>
<event>
 5   0  0.1003191E-06  0.3433223E+04  0.7818609E-02  0.8129800E-01
        1   -1    0    0  501    0  0.00000000000E+00  0.00000000000E+00  0.20809534792E+04  0.20809534792E+04  0.50400001928E-02 0. -1.
       -1   -1    0    0    0  501  0.00000000000E+00  0.00000000000E+00 -0.14160600786E+04  0.14160600786E+04  0.50400001928E-02 0.  1.
    10030    2    1    2    0    0  0.00000000000E+00  0.00000000000E+00  0.66489340057E+03  0.34970135578E+04  0.34332230614E+04 0.  0.
        5    1    3    3  502    0  0.43110054470E+03  0.15132801441E+04  0.10313951604E+04  0.18813990914E+04  0.46999998093E+01 0. -1.
       -5    1    3    3    0  502 -0.43110054470E+03 -0.15132801441E+04 -0.36650175988E+03  0.16156144664E+04  0.46999998093E+01 0.  1.
</event>
<event>
 5   0  0.1003191E-06  0.3402234E+04  0.7818609E-02  0.8137358E-01
       -1   -1    0    0    0  501  0.00000000000E+00  0.00000000000E+00  0.11667060862E+04  0.11667060862E+04  0.50400001928E-02 0. -1.
        1   -1    0    0  501    0  0.00000000000E+00  0.00000000000E+00 -0.24803153060E+04  0.24803153060E+04  0.50400001928E-02 0.  1.
    10030    2    1    2    0    0  0.00000000000E+00  0.00000000000E+00 -0.13136092198E+04  0.36470213922E+04  0.34022339503E+04 0.  0.
        5    1    3    3  502    0  0.69078312982E+03  0.11445147819E+03 -0.23186701200E+04  0.24220928324E+04  0.46999998093E+01 0.  1.
       -5    1    3    3    0  502 -0.69078312982E+03 -0.11445147819E+03  0.10050609002E+04  0.12249285598E+04  0.46999998093E+01 0. -1.
</event>
<event>
 5   0  0.9232963E-07  0.3382335E+04  0.7818609E-02  0.8142256E-01
        1   -1    0    0  501    0  0.00000000000E+00  0.00000000000E+00  0.23699174320E+04  0.23699174320E+04  0.50400001928E-02 0. -1.
       -1   -1    0    0    0  501  0.00000000000E+00  0.00000000000E+00 -0.12068129549E+04  0.12068129549E+04  0.50400001928E-02 0.  1.
    10030    2    1    2    0    0  0.00000000000E+00  0.00000000000E+00  0.11631044771E+04  0.35767303869E+04  0.33823347315E+04 0.  0.
        3    1    3    3  502    0  0.25033573521E+03  0.15328513237E+04  0.12891483247E+04  0.20184658963E+04  0.10100000352E+00 0. -1.
       -3    1    3    3    0  502 -0.25033573521E+03 -0.15328513237E+04 -0.12604384762E+03  0.15582644906E+04  0.10100000352E+00 0.  1.
</event>
<event>
 5   0  0.2906701E-06  0.3372985E+04  0.7818609E-02  0.8144569E-01
        2   -1    0    0  501    0  0.00000000000E+00  0.00000000000E+00  0.25455837446E+04  0.25455837446E+04  0.25500000920E-02 0. -1.
       -2   -1    0    0    0  501  0.00000000000E+00  0.00000000000E+00 -0.11173300774E+04  0.11173300774E+04  0.25500000920E-02 0.  1.
    10030    2    1    2    0    0  0.00000000000E+00  0.00000000000E+00  0.14282536672E+04  0.36629138221E+04  0.33729851956E+04 0.  0.
        5    1    3    3  502    0 -0.75849825920E+03  0.13619596966E+04  0.15407655380E+02  0.15590103624E+04  0.46999998093E+01 0. -1.
       -5    1    3    3    0  502  0.75849825920E+03 -0.13619596966E+04  0.14128460118E+04  0.21039034596E+04  0.46999998093E+01 0.  1.
</event>
<event>
 5   0  0.2767014E-06  0.3384712E+04  0.7818609E-02  0.8141669E-01
       -2   -1    0    0    0  501  0.00000000000E+00  0.00000000000E+00  0.18422844723E+04  0.18422844723E+04  0.25500000920E-02 0. -1.
        2   -1    0    0  501    0  0.00000000000E+00  0.00000000000E+00 -0.15546291334E+04  0.15546291334E+04  0.25500000920E-02 0.  1.
    10030    2    1    2    0    0  0.00000000000E+00  0.00000000000E+00  0.28765533891E+03  0.33969136058E+04  0.33847121667E+04 0.  0.
        1    1    3    3  502    0  0.44152693894E+03  0.92854072924E+03 -0.12052409702E+04  0.15842158060E+04  0.50400001928E-02 0.  1.
       -1    1    3    3    0  502 -0.44152693894E+03 -0.92854072924E+03  0.14928963091E+04  0.18126977998E+04  0.50400001928E-02 0. -1.
</event>
<event>
 5   0  0.2767014E-06  0.3427163E+04  0.7818609E-02  0.8131272E-01
       -2   -1    0    0    0  501  0.00000000000E+00  0.00000000000E+00  0.13628916797E+04  0.13628916797E+04  0.25500000920E-02 0.  1.
        2   -1    0    0  501    0  0.00000000000E+00  0.00000000000E+00 -0.21545078433E+04  0.21545078433E+04  0.25500000920E-02 0. -1.
    10030    2    1    2    0    0  0.00000000000E+00  0.00000000000E+00 -0.79161616362E+03  0.35173995230E+04  0.34271625661E+04 0.  0.
        1    1    3    3  502    0  0.32159216253E+03 -0.16022990280E+04  0.13310258135E+03  0.16396645972E+04  0.50400001928E-02 0.  1.
       -1    1    3    3    0  502 -0.32159216253E+03  0.16022990280E+04 -0.92471874498E+03  0.18777349258E+04  0.50400001928E-02 0. -1.
</event>
<event>
 5   0  0.1010551E-06  0.3295871E+04  0.7818609E-02  0.8163947E-01
        1   -1    0    0  501    0  0.00000000000E+00  0.00000000000E+00  0.28768315994E+04  0.28768315994E+04  0.50400001928E-02 0. -1.
       -1   -1    0    0    0  501  0.00000000000E+00  0.00000000000E+00 -0.94398690602E+03  0.94398690603E+03  0.50400001928E-02 0.  1.
    10030    2    1    2    0    0  0.00000000000E+00  0.00000000000E+00  0.19328446933E+04  0.38208185054E+04  0.32958709687E+04 0.  0.
        2    1    3    3  502    0 -0.67817586895E+03 -0.14862350693E+04  0.12174103730E+04  0.20373770409E+04  0.25500000920E-02 0. -1.
       -2    1    3    3    0  502  0.67817586895E+03  0.14862350693E+04  0.71543432030E+03  0.17834414645E+04  0.25500000920E-02 0.  1.
</event>
<event>
 5   0  0.1010551E-06  0.3160612E+04  0.7818609E-02  0.8199298E-01
        1   -1    0    0  501    0  0.00000000000E+00  0.00000000000E+00  0.23027789861E+04  0.23027789861E+04  0.50400001928E-02 0. -1.
       -1   -1    0    0    0  501  0.00000000000E+00  0.00000000000E+00 -0.10845013617E+04  0.10845013617E+04  0.50400001928E-02 0.  1.
    10030    2    1    2    0    0  0.00000000000E+00  0.00000000000E+00  0.12182776244E+04  0.33872803478E+04  0.31606119319E+04 0.  0.
        2    1    3    3  502    0  0.25996544806E+03 -0.18617246514E+03  0.22677478753E+04  0.22901796102E+04  0.25500000920E-02 0. -1.
       -2    1    3    3    0  502 -0.25996544806E+03  0.18617246514E+03 -0.10494702509E+04  0.10971007376E+04  0.25500000920E-02 0.  1.
</event>
<event>
 5   0  0.2664083E-06  0.3429977E+04  0.7818609E-02  0.8130588E-01
        2   -1    0    0  501    0  0.00000000000E+00  0.00000000000E+00  0.22113145449E+04  0.22113145449E+04  0.25500000920E-02 0. -1.
       -2   -1    0    0    0  501  0.00000000000E+00  0.00000000000E+00 -0.13300618128E+04  0.13300618128E+04  0.25500000920E-02 0.  1.
    10030    2    1    2    0    0  0.00000000000E+00  0.00000000000E+00  0.88125273209E+03  0.35413763577E+04  0.34299766951E+04 0.  0.
        2    1    3    3  502    0  0.10535579697E+04 -0.63914830892E+03 -0.79087831051E+03  0.14642347689E+04  0.25500000920E-02 0.  1.
       -2    1    3    3    0  502 -0.10535579697E+04  0.63914830892E+03  0.16721310426E+04  0.20771415888E+04  0.25500000920E-02 0. -1.
</event>
<event>
 5   0  0.1003191E-06  0.3444432E+04  0.7818609E-02  0.8127086E-01
       -1   -1    0    0    0  501  0.00000000000E+00  0.00000000000E+00  0.23936855163E+04  0.23936855163E+04  0.50400001928E-02 0.  1.
        1   -1    0    0  501    0  0.00000000000E+00  0.00000000000E+00 -0.12391053077E+04  0.12391053077E+04  0.50400001928E-02 0. -1.
    10030    2    1    2    0    0  0.00000000000E+00  0.00000000000E+00  0.11545802086E+04  0.36327908240E+04  0.34444322773E+04 0.  0.
        5    1    3    3  502    0  0.13656176032E+04  0.99757462459E+03  0.92057306833E+03  0.19254982300E+04  0.46999998093E+01 0. -1.
       -5    1    3    3    0  502 -0.13656176032E+04 -0.99757462459E+03  0.23400714028E+03  0.17072925940E+04  0.46999998093E+01 0.  1.
</event>
<event>
 5   0  0.9714317E-07  0.3367072E+04  0.7818609E-02  0.8146036E-01
        1   -1    0    0  501    0  0.00000000000E+00  0.00000000000E+00  0.15298577247E+04  0.15298577248E+04  0.50400001928E-02 0.  1.
       -1   -1    0    0    0  501  0.00000000000E+00  0.00000000000E+00 -0.18526514111E+04  0.18526514111E+04  0.50400001928E-02 0. -1.
    10030    2    1    2    0    0  0.00000000000E+00  0.00000000000E+00 -0.32279368631E+03  0.33825091358E+04  0.33670717679E+04 0.  0.
        4    1    3    3  502    0  0.11012913899E+04  0.62472365175E+03  0.95327096097E+03  0.15848815427E+04  0.12699999809E+01 0.  1.
       -4    1    3    3    0  502 -0.11012913899E+04 -0.62472365175E+03 -0.12760646473E+04  0.17976275931E+04  0.12699999809E+01 0. -1.
</event>
<event>
 5   0  0.9232963E-07  0.3350130E+04  0.7818609E-02  0.8150256E-01
       -1   -1    0    0    0  501  0.00000000000E+00  0.00000000000E+00  0.20341587211E+04  0.20341587211E+04  0.50400001928E-02 0. -1.
        1   -1    0    0  501    0  0.00000000000E+00  0.00000000000E+00 -0.13793631198E+04  0.13793631198E+04  0.50400001928E-02 0.  1.
    10030    2    1    2    0    0  0.00000000000E+00  0.00000000000E+00  0.65479560131E+03  0.34135218409E+04  0.33501304570E+04 0.  0.
        3    1    3    3  502    0 -0.13452258605E+04  0.71089721643E+03  0.10412514585E+04  0.18436952238E+04  0.10100000352E+00 0. -1.
       -3    1    3    3    0  502  0.13452258605E+04 -0.71089721643E+03 -0.38645585719E+03  0.15698266171E+04  0.10100000352E+00 0.  1.
</event>
<event>
 5   0  0.1003191E-06  0.3402905E+04  0.7818609E-02  0.8137194E-01
       -1   -1    0    0    0  501  0.00000000000E+00  0.00000000000E+00  0.16535946437E+04  0.16535946437E+04  0.50400001928E-02 0. -1.
        1   -1    0    0  501    0  0.00000000000E+00  0.00000000000E+00 -0.17506950393E+04  0.17506950393E+04  0.50400001928E-02 0.  1.
    10030    2    1    2    0    0  0.00000000000E+00  0.00000000000E+00 -0.97100395576E+02  0.34042896830E+04  0.34029046062E+04 0.  0.
        5    1    3    3  502    0  0.25485881720E+03  0.13422663134E+04 -0.10630073084E+04  0.17310801543E+04  0.46999998093E+01 0.  1.
       -5    1    3    3    0  502 -0.25485881720E+03 -0.13422663134E+04  0.96590691280E+03  0.16732095287E+04  0.46999998093E+01 0. -1.
</event>
<event>
 5   0  0.2664083E-06  0.3459784E+04  0.7818609E-02  0.8123387E-01
        2   -1    0    0  501    0  0.00000000000E+00  0.00000000000E+00  0.29175743914E+04  0.29175743914E+04  0.25500000920E-02 0. -1.
       -2   -1    0    0    0  501  0.00000000000E+00  0.00000000000E+00 -0.10256897539E+04  0.10256897539E+04  0.25500000920E-02 0.  1.
    10030    2    1    2    0    0  0.00000000000E+00  0.00000000000E+00  0.18918846375E+04  0.39432641454E+04  0.34597839006E+04 0.  0.
        2    1    3    3  502    0 -0.10416666950E+04  0.77282497617E+03 -0.35865174412E+03  0.13457187748E+04  0.25500000920E-02 0.  1.
       -2    1    3    3    0  502  0.10416666950E+04 -0.77282497617E+03  0.22505363816E+04  0.25975453706E+04  0.25500000920E-02 0. -1.
</event>
<event>
 5   0  0.2664083E-06  0.3379034E+04  0.7818609E-02  0.8143071E-01
        2   -1    0    0  501    0  0.00000000000E+00  0.00000000000E+00  0.19141514773E+04  0.19141514773E+04  0.25500000920E-02 0.  1.
       -2   -1    0    0    0  501  0.00000000000E+00  0.00000000000E+00 -0.14912445921E+04  0.14912445921E+04  0.25500000920E-02 0. -1.
    10030    2    1    2    0    0  0.00000000000E+00  0.00000000000E+00  0.42290688515E+03  0.34053960694E+04  0.33790342046E+04 0.  0.
        2    1    3    3  502    0 -0.11466854402E+04  0.67153706684E+03 -0.84005532756E+03  0.15721140176E+04  0.25500000920E-02 0. -1.
       -2    1    3    3    0  502  0.11466854402E+04 -0.67153706684E+03  0.12629622127E+04  0.18332820518E+04  0.25500000920E-02 0.  1.
</event>
<event>
 5   0  0.9714317E-07  0.3372037E+04  0.7818609E-02  0.8144804E-01
        1   -1    0    0  501    0  0.00000000000E+00  0.00000000000E+00  0.10361827407E+04  0.10361827407E+04  0.50400001928E-02 0. -1.
       -1   -1    0    0    0  501  0.00000000000E+00  0.00000000000E+00 -0.27433943804E+04  0.27433943804E+04  0.50400001928E-02 0.  1.
    10030    2    1    2    0    0  0.00000000000E+00  0.00000000000E+00 -0.17072116397E+04  0.37795771212E+04  0.33720367187E+04 0.  0.
        4    1    3    3  502    0 -0.22283929496E+03 -0.64049061482E+02 -0.27254389406E+04  0.27352840192E+04  0.12699999809E+01 0.  1.
       -4    1    3    3    0  502  0.22283929496E+03  0.64049061482E+02  0.10182273009E+04  0.10442931020E+04  0.12699999809E+01 0. -1.
</event>
<event>
 5   0  0.9232963E-07  0.3086111E+04  0.7818609E-02  0.8219560E-01
        1   -1    0    0  501    0  0.00000000000E+00  0.00000000000E+00  0.15681895405E+04  0.15681895405E+04  0.50400001928E-02 0. -1.
       -1   -1    0    0    0  501  0.00000000000E+00  0.00000000000E+00 -0.15183240730E+04  0.15183240730E+04  0.50400001928E-02 0.  1.
    10030    2    1    2    0    0  0.00000000000E+00  0.00000000000E+00  0.49865467493E+02  0.30865136135E+04  0.30861107760E+04 0.  0.
        3    1    3    3  502    0 -0.61201908404E+03 -0.72869564470E+03  0.12397744654E+04  0.15628836928E+04  0.10100000352E+00 0. -1.
       -3    1    3    3    0  502  0.61201908404E+03  0.72869564470E+03 -0.11899089979E+04  0.15236299207E+04  0.10100000352E+00 0.  1.
</event>
<event>
 5   0  0.1010855E-06  0.3350005E+04  0.7818609E-02  0.8150287E-01
        1   -1    0    0  501    0  0.00000000000E+00  0.00000000000E+00  0.23641577387E+04  0.23641577388E+04  0.50400001928E-02 0.  1.
       -1   -1    0    0    0  501  0.00000000000E+00  0.00000000000E+00 -0.11867368095E+04  0.11867368095E+04  0.50400001928E-02 0. -1.
    10030    2    1    2    0    0  0.00000000000E+00  0.00000000000E+00  0.11774209292E+04  0.35508945483E+04  0.33500047833E+04 0.  0.
        1    1    3    3  502    0  0.95106979017E+02 -0.11694296356E+04 -0.67839220451E+03  0.13552959061E+04  0.50400001928E-02 0. -1.
       -1    1    3    3    0  502 -0.95106979017E+02  0.11694296356E+04  0.18558131337E+04  0.21955986421E+04  0.50400001928E-02 0.  1.
</event>
<event>
 5   0  0.1003191E-06  0.2981367E+04  0.7818609E-02  0.8249072E-01
       -1   -1    0    0    0  501  0.00000000000E+00  0.00000000000E+00  0.11242016157E+04  0.11242016157E+04  0.50400001928E-02 0.  1.
        1   -1    0    0  501    0  0.00000000000E+00  0.00000000000E+00 -0.19766361818E+04  0.19766361818E+04  0.50400001928E-02 0. -1.
    10030    2    1    2    0    0  0.00000000000E+00  0.00000000000E+00 -0.85243456607E+03  0.31008377975E+04  0.29813671959E+04 0.  0.
        5    1    3    3  502    0 -0.54066971536E+03 -0.47395774663E+03  0.93192607952E+03  0.11770590446E+04  0.46999998093E+01 0.  1.
       -5    1    3    3    0  502  0.54066971536E+03  0.47395774663E+03 -0.17843606456E+04  0.19237787529E+04  0.46999998093E+01 0. -1.
</event>
<event>
 5   0  0.2856440E-06  0.3570977E+04  0.7818609E-02  0.8097172E-01
       -2   -1    0    0    0  501  0.00000000000E+00  0.00000000000E+00  0.12366641295E+04  0.12366641295E+04  0.25500000920E-02 0. -1.
        2   -1    0    0  501    0  0.00000000000E+00  0.00000000000E+00 -0.25778785476E+04  0.25778785476E+04  0.25500000920E-02 0.  1.
    10030    2    1    2    0    0  0.00000000000E+00  0.00000000000E+00 -0.13412144181E+04  0.38145426771E+04  0.35709774180E+04 0.  0.
        4    1    3    3  502    0 -0.14478476927E+04  0.93763404208E+03 -0.17813280882E+03  0.17341146007E+04  0.12699999809E+01 0. -1.
       -4    1    3    3    0  502  0.14478476927E+04 -0.93763404208E+03 -0.11630816093E+04  0.20804280763E+04  0.12699999809E+01 0.  1.
</event>
<event>
 5   0  0.2848685E-06  0.3341312E+04  0.7818609E-02  0.8152462E-01
        2   -1    0    0  501    0  0.00000000000E+00  0.00000000000E+00  0.19900766540E+04  0.19900766540E+04  0.25500000920E-02 0.  1.
       -2   -1    0    0    0  501  0.00000000000E+00  0.00000000000E+00 -0.14025047940E+04  0.14025047940E+04  0.25500000920E-02 0. -1.
    10030    2    1    2    0    0  0.00000000000E+00  0.00000000000E+00  0.58757186000E+03  0.33925814479E+04  0.33413123455E+04 0.  0.
        3    1    3    3  502    0 -0.72304624467E+03 -0.14211477733E+04 -0.21249840434E+03  0.16086057464E+04  0.10100000352E+00 0. -1.
       -3    1    3    3    0  502  0.72304624467E+03  0.14211477733E+04  0.80007026434E+03  0.17839757015E+04  0.10100000352E+00 0.  1.
</event>
<event>
 5   0  0.2767014E-06  0.3395115E+04  0.7818609E-02  0.8139106E-01
        2   -1    0    0  501    0  0.00000000000E+00  0.00000000000E+00  0.11943011609E+04  0.11943011609E+04  0.25500000920E-02 0.  1.
       -2   -1    0    0    0  501  0.00000000000E+00  0.00000000000E+00 -0.24128771192E+04  0.24128771192E+04  0.25500000920E-02 0. -1.
    10030    2    1    2    0    0  0.00000000000E+00  0.00000000000E+00 -0.12185759582E+04  0.36071782801E+04  0.33951152820E+04 0.  0.
        1    1    3    3  502    0 -0.29502183369E+03 -0.22700728764E+03 -0.23689789901E+04  0.23980474655E+04  0.50400001928E-02 0. -1.
       -1    1    3    3    0  502  0.29502183369E+03  0.22700728764E+03  0.11504030319E+04  0.12091308146E+04  0.50400001928E-02 0.  1.
</event>
<event>
 5   0  0.2848685E-06  0.3417930E+04  0.7818609E-02  0.8133520E-01
        2   -1    0    0  501    0  0.00000000000E+00  0.00000000000E+00  0.13779331031E+04  0.13779331031E+04  0.25500000920E-02 0.  1.
       -2   -1    0    0    0  501  0.00000000000E+00  0.00000000000E+00 -0.21195230396E+04  0.21195230396E+04  0.25500000920E-02 0. -1.
    10030    2    1    2    0    0  0.00000000000E+00  0.00000000000E+00 -0.74158993652E+03  0.34974561427E+04  0.34179297588E+04 0.  0.
        3    1    3    3  502    0  0.65498356030E+03  0.15299601690E+03 -0.19783834758E+04  0.20895962368E+04  0.10100000352E+00 0. -1.
       -3    1    3    3    0  502 -0.65498356030E+03 -0.15299601690E+03  0.12367935393E+04  0.14078599058E+04  0.10100000352E+00 0.  1.
</event>
<event>
 5   0  0.2906701E-06  0.3554310E+04  0.7818609E-02  0.8101038E-01
       -2   -1    0    0    0  501  0.00000000000E+00  0.00000000000E+00  0.15247080492E+04  0.15247080492E+04  0.25500000920E-02 0.  1.
        2   -1    0    0  501    0  0.00000000000E+00  0.00000000000E+00 -0.20713999276E+04  0.20713999276E+04  0.25500000920E-02 0. -1.
    10030    2    1    2    0    0  0.00000000000E+00  0.00000000000E+00 -0.54669187837E+03  0.35961079767E+04  0.35543101399E+04 0.  0.
        5    1    3    3  502    0  0.11004696481E+04  0.31975406183E+03  0.11009284821E+04  0.15891323793E+04  0.46999998093E+01 0.  1.
       -5    1    3    3    0  502 -0.11004696481E+04 -0.31975406183E+03 -0.16476203604E+04  0.20069755974E+04  0.46999998093E+01 0. -1.
</event>
<event>
 5   0  0.1010551E-06  0.3050717E+04  0.7818609E-02  0.8229395E-01
       -1   -1    0    0    0  501  0.00000000000E+00  0.00000000000E+00  0.11066531866E+04  0.11066531866E+04  0.50400001928E-02 0. -1.
        1   -1    0    0  501    0  0.00000000000E+00  0.00000000000E+00 -0.21024826268E+04  0.21024826268E+04  0.50400001928E-02 0.  1.
    10030    2    1    2    0    0  0.00000000000E+00  0.00000000000E+00 -0.99582944020E+03  0.32091358134E+04  0.30507173575E+04 0.  0.
        2    1    3    3  502    0 -0.79759645553E+02 -0.13151679024E+04 -0.13063890951E+04  0.18554462213E+04  0.25500000920E-02 0.  1.
       -2    1    3    3    0  502  0.79759645553E+02  0.13151679024E+04  0.31055965491E+03  0.13536895921E+04  0.25500000920E-02 0. -1.
</event>
<event>
 5   0  0.9232963E-07  0.3368386E+04  0.7818609E-02  0.8145709E-01
        1   -1    0    0  501    0  0.00000000000E+00  0.00000000000E+00  0.18000125896E+04  0.18000125896E+04  0.50400001928E-02 0. -1.
       -1   -1    0    0    0  501  0.00000000000E+00  0.00000000000E+00 -0.15758259061E+04  0.15758259061E+04  0.50400001928E-02 0.  1.
    10030    2    1    2    0    0  0.00000000000E+00  0.00000000000E+00  0.22418668349E+03  0.33758384957E+04  0.33683862427E+04 0.  0.
        3    1    3    3  502    0  0.13665210671E+04 -0.96371807658E+03 -0.89284282732E+02  0.16745459239E+04  0.10100000352E+00 0.  1.
       -3    1    3    3    0  502 -0.13665210671E+04  0.96371807658E+03  0.31347096623E+03  0.17012925718E+04  0.10100000352E+00 0. -1.
</event>
<event>
 5   0  0.2767014E-06  0.3226070E+04  0.7818609E-02  0.8181966E-01
        2   -1    0    0  501    0  0.00000000000E+00  0.00000000000E+00  0.24992720305E+04  0.24992720305E+04  0.25500000920E-02 0.  1.
       -2   -1    0    0    0  501  0.00000000000E+00  0.00000000000E+00 -0.10410557443E+04  0.10410557443E+04  0.25500000920E-02 0. -1.
    10030    2    1    2    0    0  0.00000000000E+00  0.00000000000E+00  0.14582162863E+04  0.35403277748E+04  0.32260697475E+04 0.  0.
        1    1    3    3  502    0  0.14004858708E+04  0.10919368523E+03  0.15991818968E+04  0.21285362751E+04  0.50400001928E-02 0.  1.
       -1    1    3    3    0  502 -0.14004858708E+04 -0.10919368523E+03 -0.14096561053E+03  0.14117914997E+04  0.50400001928E-02 0. -1.
</event>
<event>
 5   0  0.9232963E-07  0.3387414E+04  0.7818609E-02  0.8141002E-01
        1   -1    0    0  501    0  0.00000000000E+00  0.00000000000E+00  0.23084608074E+04  0.23084608075E+04  0.50400001928E-02 0. -1.
       -1   -1    0    0    0  501  0.00000000000E+00  0.00000000000E+00 -0.12426652517E+04  0.12426652517E+04  0.50400001928E-02 0.  1.
    10030    2    1    2    0    0  0.00000000000E+00  0.00000000000E+00  0.10657955558E+04  0.35511260591E+04  0.33874143710E+04 0.  0.
        3    1    3    3  502    0 -0.16864886251E+03  0.10854297719E+03  0.22959684193E+04  0.23047114808E+04  0.10100000352E+00 0. -1.
       -3    1    3    3    0  502  0.16864886251E+03 -0.10854297719E+03 -0.12301728636E+04  0.12464145784E+04  0.10100000352E+00 0.  1.
</event>
<event>
 5   0  0.1010551E-06  0.2680939E+04  0.7818609E-02  0.8341216E-01
        1   -1    0    0  501    0  0.00000000000E+00  0.00000000000E+00  0.15398261541E+04  0.15398261541E+04  0.50400001928E-02 0.  1.
       -1   -1    0    0    0  501  0.00000000000E+00  0.00000000000E+00 -0.11669227970E+04  0.11669227970E+04  0.50400001928E-02 0. -1.
    10030    2    1    2    0    0  0.00000000000E+00  0.00000000000E+00  0.37290335706E+03  0.27067489511E+04  0.26809388226E+04 0.  0.
        2    1    3    3  502    0 -0.70593183806E+03 -0.10890486895E+04 -0.15217471161E+03  0.13067225991E+04  0.25500000920E-02 0.  1.
       -2    1    3    3    0  502  0.70593183806E+03  0.10890486895E+04  0.52507806867E+03  0.14000263520E+04  0.25500000920E-02 0. -1.
</event>
<event>
 5   0  0.9714317E-07  0.3374854E+04  0.7818609E-02  0.8144106E-01
        1   -1    0    0  501    0  0.00000000000E+00  0.00000000000E+00  0.14751407578E+04  0.14751407578E+04  0.50400001928E-02 0. -1.
       -1   -1    0    0    0  501  0.00000000000E+00  0.00000000000E+00 -0.19302627241E+04  0.19302627241E+04  0.50400001928E-02 0.  1.
    10030    2    1    2    0    0  0.00000000000E+00  0.00000000000E+00 -0.45512196638E+03  0.34054034819E+04  0.33748536072E+04 0.  0.
        4    1    3    3  502    0  0.95792074029E+03 -0.11103565325E+04 -0.10699254961E+04  0.18152812328E+04  0.12699999809E+01 0.  1.
       -4    1    3    3    0  502 -0.95792074029E+03  0.11103565325E+04  0.61480352973E+03  0.15901222491E+04  0.12699999809E+01 0. -1.
</event>
<event>
 5   0  0.2856440E-06  0.3434428E+04  0.7818609E-02  0.8129508E-01
        2   -1    0    0  501    0  0.00000000000E+00  0.00000000000E+00  0.25671461060E+04  0.25671461060E+04  0.25500000920E-02 0. -1.
       -2   -1    0    0    0  501  0.00000000000E+00  0.00000000000E+00 -0.11486776352E+04  0.11486776352E+04  0.25500000920E-02 0.  1.
    10030    2    1    2    0    0  0.00000000000E+00  0.00000000000E+00  0.14184684708E+04  0.37158237412E+04  0.34344276485E+04 0.  0.
        4    1    3    3  502    0 -0.58309800680E+03  0.59996833363E+03  0.23317226244E+04  0.24772761850E+04  0.12699999809E+01 0. -1.
       -4    1    3    3    0  502  0.58309800680E+03 -0.59996833363E+03 -0.91325415361E+03  0.12385475562E+04  0.12699999809E+01 0.  1.
</event>
<event>
 5   0  0.9070500E-07  0.3390770E+04  0.7818609E-02  0.8140175E-01
        3   -1    0    0  501    0  0.00000000000E+00  0.00000000000E+00  0.24957178986E+04  0.24957179006E+04  0.10100000352E+00 0.  1.
       -3   -1    0    0    0  501  0.00000000000E+00  0.00000000000E+00 -0.11517046444E+04  0.11517046488E+04  0.10100000352E+00 0. -1.
    10030    2    1    2    0    0  0.00000000000E+00  0.00000000000E+00  0.13440132542E+04  0.36474225495E+04  0.33907697691E+04 0.  0.
        4    1    3    3  502    0  0.13372262891E+04 -0.35590013919E+03  0.17256844267E+04  0.22119736461E+04  0.12699999809E+01 0.  1.
       -4    1    3    3    0  502 -0.13372262891E+04  0.35590013919E+03 -0.38167117253E+03  0.14354489034E+04  0.12699999809E+01 0. -1.
</event>
<event>
 5   0  0.1003191E-06  0.3337164E+04  0.7818609E-02  0.8153503E-01
        1   -1    0    0  501    0  0.00000000000E+00  0.00000000000E+00  0.26005052569E+04  0.26005052569E+04  0.50400001928E-02 0.  1.
       -1   -1    0    0    0  501  0.00000000000E+00  0.00000000000E+00 -0.10706251578E+04  0.10706251578E+04  0.50400001928E-02 0. -1.
    10030    2    1    2    0    0  0.00000000000E+00  0.00000000000E+00  0.15298800991E+04  0.36711304147E+04  0.33371642759E+04 0.  0.
        5    1    3    3  502    0  0.27179559458E+03  0.11850584052E+03  0.25712842816E+04  0.25883279209E+04  0.46999998093E+01 0.  1.
       -5    1    3    3    0  502 -0.27179559458E+03 -0.11850584052E+03 -0.10414041824E+04  0.10828024938E+04  0.46999998093E+01 0. -1.
</event>
<event>
 5   0  0.1003191E-06  0.2389501E+04  0.7818609E-02  0.8443445E-01
        1   -1    0    0  501    0  0.00000000000E+00  0.00000000000E+00  0.26339729997E+04  0.26339729997E+04  0.50400001928E-02 0.  1.
       -1   -1    0    0    0  501  0.00000000000E+00  0.00000000000E+00 -0.54193004630E+03  0.54193004632E+03  0.50400001928E-02 0. -1.
    10030    2    1    2    0    0  0.00000000000E+00  0.00000000000E+00  0.20920429534E+04  0.31759030461E+04  0.23895012950E+04 0.  0.
        5    1    3    3  502    0 -0.87611408922E+03 -0.72748487354E+03  0.56570623483E+03  0.12715564371E+04  0.46999998093E+01 0. -1.
       -5    1    3    3    0  502  0.87611408922E+03  0.72748487354E+03  0.15263367186E+04  0.19043466090E+04  0.46999998093E+01 0.  1.
</event>
<event>
 5   0  0.2906701E-06  0.2973851E+04  0.7818609E-02  0.8251238E-01
       -2   -1    0    0    0  501  0.00000000000E+00  0.00000000000E+00  0.15459985401E+04  0.15459985401E+04  0.25500000920E-02 0.  1.
        2   -1    0    0  501    0  0.00000000000E+00  0.00000000000E+00 -0.14301095001E+04  0.14301095001E+04  0.25500000920E-02 0. -1.
    10030    2    1    2    0    0  0.00000000000E+00  0.00000000000E+00  0.11588904002E+03  0.29761080402E+04  0.29738508364E+04 0.  0.
        5    1    3    3  502    0 -0.22571707222E+03  0.50537206146E+02  0.15278762151E+04  0.15452928605E+04  0.46999998093E+01 0.  1.
       -5    1    3    3    0  502  0.22571707222E+03 -0.50537206146E+02 -0.14119871751E+04  0.14308151797E+04  0.46999998093E+01 0. -1.
</event>
<event>
 5   0  0.2767014E-06  0.2672244E+04  0.7818609E-02  0.8344067E-01
       -2   -1    0    0    0  501  0.00000000000E+00  0.00000000000E+00  0.11331793418E+04  0.11331793418E+04  0.25500000920E-02 0.  1.
        2   -1    0    0  501    0  0.00000000000E+00  0.00000000000E+00 -0.15754098529E+04  0.15754098529E+04  0.25500000920E-02 0. -1.
    10030    2    1    2    0    0  0.00000000000E+00  0.00000000000E+00 -0.44223051108E+03  0.27085891947E+04  0.26722439261E+04 0.  0.
        1    1    3    3  502    0  0.25546490282E+03 -0.11564050310E+04 -0.84814607970E+03  0.14566697240E+04  0.50400001928E-02 0.  1.
       -1    1    3    3    0  502 -0.25546490282E+03  0.11564050310E+04  0.40591556861E+03  0.12519194707E+04  0.50400001928E-02 0. -1.
</event>
<event>
 5   0  0.1010551E-06  0.3424258E+04  0.7818609E-02  0.8131978E-01
       -1   -1    0    0    0  501  0.00000000000E+00  0.00000000000E+00  0.12347875959E+04  0.12347875959E+04  0.50400001928E-02 0.  1.
        1   -1    0    0  501    0  0.00000000000E+00  0.00000000000E+00 -0.23740006105E+04  0.23740006105E+04  0.50400001928E-02 0. -1.
    10030    2    1    2    0    0  0.00000000000E+00  0.00000000000E+00 -0.11392130146E+04  0.36087882064E+04  0.34242584636E+04 0.  0.
        2    1    3    3  502    0  0.75212776915E+03 -0.12862750119E+04 -0.14583710845E+04  0.20849570277E+04  0.25500000920E-02 0. -1.
       -2    1    3    3    0  502 -0.75212776915E+03  0.12862750119E+04  0.31915806992E+03  0.15238311786E+04  0.25500000920E-02 0.  1.
</event>
<event>
 5   0  0.9070500E-07  0.3010050E+04  0.7818609E-02  0.8240867E-01
        4   -1    0    0  501    0  0.00000000000E+00  0.00000000000E+00  0.16673418391E+04  0.16673423228E+04  0.12699999809E+01 0.  1.
       -4   -1    0    0    0  501  0.00000000000E+00  0.00000000000E+00 -0.13585088807E+04  0.13585094744E+04  0.12699999809E+01 0. -1.
    10030    2    1    2    0    0  0.00000000000E+00  0.00000000000E+00  0.30883295835E+03  0.30258517971E+04  0.30100500498E+04 0.  0.
        5    1    3    3  502    0  0.14678075709E+04  0.26626070640E+03 -0.45939655661E+02  0.14924765898E+04  0.46999998093E+01 0. -1.
       -5    1    3    3    0  502 -0.14678075709E+04 -0.26626070640E+03  0.35477261402E+03  0.15333752074E+04  0.46999998093E+01 0.  1.
</event>
<event>
 5   0  0.2767014E-06  0.3414736E+04  0.7818609E-02  0.8134299E-01
        2   -1    0    0  501    0  0.00000000000E+00  0.00000000000E+00  0.24633590841E+04  0.24633590841E+04  0.25500000920E-02 0. -1.
       -2   -1    0    0    0  501  0.00000000000E+00  0.00000000000E+00 -0.11833862951E+04  0.11833862951E+04  0.25500000920E-02 0.  1.
    10030    2    1    2    0    0  0.00000000000E+00  0.00000000000E+00  0.12799727890E+04  0.36467453792E+04  0.34147359370E+04 0.  0.
        1    1    3    3  502    0  0.66376504463E+03 -0.57948474128E+03  0.22017854566E+04  0.23715492398E+04  0.50400001928E-02 0. -1.
       -1    1    3    3    0  502 -0.66376504463E+03  0.57948474128E+03 -0.92181266754E+03  0.12751961394E+04  0.50400001928E-02 0.  1.
</event>
<event>
 5   0  0.2767014E-06  0.3361950E+04  0.7818609E-02  0.8147309E-01
        2   -1    0    0  501    0  0.00000000000E+00  0.00000000000E+00  0.13981931982E+04  0.13981931982E+04  0.25500000920E-02 0.  1.
       -2   -1    0    0    0  501  0.00000000000E+00  0.00000000000E+00 -0.20209482766E+04  0.20209482766E+04  0.25500000920E-02 0. -1.
    10030    2    1    2    0    0  0.00000000000E+00  0.00000000000E+00 -0.62275507835E+03  0.34191414748E+04  0.33619495144E+04 0.  0.
        1    1    3    3  502    0 -0.11050556722E+04  0.12560434603E+04 -0.47812687610E+03  0.17399421032E+04  0.50400001928E-02 0. -1.
       -1    1    3    3    0  502  0.11050556722E+04 -0.12560434603E+04 -0.14462820225E+03  0.16791993716E+04  0.50400001928E-02 0.  1.
</event>
<event>
 5   0  0.2848685E-06  0.3340714E+04  0.7818609E-02  0.8152612E-01
        2   -1    0    0  501    0  0.00000000000E+00  0.00000000000E+00  0.14160403562E+04  0.14160403562E+04  0.25500000920E-02 0. -1.
       -2   -1    0    0    0  501  0.00000000000E+00  0.00000000000E+00 -0.19703478952E+04  0.19703478952E+04  0.25500000920E-02 0.  1.
    10030    2    1    2    0    0  0.00000000000E+00  0.00000000000E+00 -0.55430753903E+03  0.33863882514E+04  0.33407137772E+04 0.  0.
        3    1    3    3  502    0  0.30220451524E+03 -0.14467387243E+04  0.51176162925E+03  0.15640589762E+04  0.10100000352E+00 0. -1.
       -3    1    3    3    0  502 -0.30220451524E+03  0.14467387243E+04 -0.10660691683E+04  0.18223292752E+04  0.10100000352E+00 0.  1.
</event>
<event>
 5   0  0.9714317E-07  0.3276039E+04  0.7818609E-02  0.8169019E-01
       -1   -1    0    0    0  501  0.00000000000E+00  0.00000000000E+00  0.19133952304E+04  0.19133952304E+04  0.50400001928E-02 0.  1.
        1   -1    0    0  501    0  0.00000000000E+00  0.00000000000E+00 -0.14022760946E+04  0.14022760946E+04  0.50400001928E-02 0. -1.
    10030    2    1    2    0    0  0.00000000000E+00  0.00000000000E+00  0.51111913589E+03  0.33156713250E+04  0.32760393106E+04 0.  0.
        4    1    3    3  502    0  0.10533321164E+04 -0.12477629839E+04  0.12482348954E+03  0.16376823648E+04  0.12699999809E+01 0.  1.
       -4    1    3    3    0  502 -0.10533321164E+04  0.12477629839E+04  0.38629564635E+03  0.16779889602E+04  0.12699999809E+01 0. -1.
</event>
<event>
 5   0  0.9714317E-07  0.3680527E+04  0.7818609E-02  0.8072291E-01
        1   -1    0    0  501    0  0.00000000000E+00  0.00000000000E+00  0.18107561602E+04  0.18107561602E+04  0.50400001928E-02 0.  1.
       -1   -1    0    0    0  501  0.00000000000E+00  0.00000000000E+00 -0.18702513260E+04  0.18702513260E+04  0.50400001928E-02 0. -1.
    10030    2    1    2    0    0  0.00000000000E+00  0.00000000000E+00 -0.59495165808E+02  0.36810074862E+04  0.36805266524E+04 0.  0.
        4    1    3    3  502    0  0.44723221814E+03  0.16495024954E+04 -0.71225329286E+03  0.18515349052E+04  0.12699999809E+01 0. -1.
       -4    1    3    3    0  502 -0.44723221814E+03 -0.16495024954E+04  0.65275812705E+03  0.18294725810E+04  0.12699999809E+01 0.  1.
</event>
<event>
 5   0  0.1010855E-06  0.3426825E+04  0.7818609E-02  0.8131354E-01
        1   -1    0    0  501    0  0.00000000000E+00  0.00000000000E+00  0.19943660232E+04  0.19943660232E+04  0.50400001928E-02 0. -1.
       -1   -1    0    0    0  501  0.00000000000E+00  0.00000000000E+00 -0.14720375693E+04  0.14720375693E+04  0.50400001928E-02 0.  1.
    10030    2    1    2    0    0  0.00000000000E+00  0.00000000000E+00  0.52232845386E+03  0.34664035925E+04  0.34268246019E+04 0.  0.
        1    1    3    3  502    0 -0.14036520202E+04  0.64586594042E+03  0.10102575669E+04  0.18460775061E+04  0.50400001928E-02 0. -1.
       -1    1    3    3    0  502  0.14036520202E+04 -0.64586594042E+03 -0.48792911306E+03  0.16203260864E+04  0.50400001928E-02 0.  1.
</event>
<event>
 5   0  0.2906701E-06  0.3334335E+04  0.7818609E-02  0.8154213E-01
       -2   -1    0    0    0  501  0.00000000000E+00  0.00000000000E+00  0.15401887789E+04  0.15401887789E+04  0.25500000920E-02 0.  1.
        2   -1    0    0  501    0  0.00000000000E+00  0.00000000000E+00 -0.18046145220E+04  0.18046145220E+04  0.25500000920E-02 0. -1.
    10030    2    1    2    0    0  0.00000000000E+00  0.00000000000E+00 -0.26442574308E+03  0.33448033008E+04  0.33343347384E+04 0.  0.
        5    1    3    3  502    0 -0.10417946892E+04  0.10769327296E+04  0.60104354215E+03  0.16144335564E+04  0.46999998093E+01 0.  1.
       -5    1    3    3    0  502  0.10417946892E+04 -0.10769327296E+04 -0.86546928523E+03  0.17303697444E+04  0.46999998093E+01 0. -1.
</event>
<event>
 5   0  0.9232963E-07  0.3409154E+04  0.7818609E-02  0.8135663E-01
        1   -1    0    0  501    0  0.00000000000E+00  0.00000000000E+00  0.18403659049E+04  0.18403659049E+04  0.50400001928E-02 0.  1.
       -1   -1    0    0    0  501  0.00000000000E+00  0.00000000000E+00 -0.15788067552E+04  0.15788067552E+04  0.50400001928E-02 0. -1.
    10030    2    1    2    0    0  0.00000000000E+00  0.00000000000E+00  0.26155914965E+03  0.34191726601E+04  0.34091536326E+04 0.  0.
        3    1    3    3  502    0  0.78559713098E+03 -0.14614914986E+04 -0.26083159062E+03  0.16796289416E+04  0.10100000352E+00 0. -1.
       -3    1    3    3    0  502 -0.78559713098E+03  0.14614914986E+04  0.52239074027E+03  0.17395437185E+04  0.10100000352E+00 0.  1.
</event>
<event>
 5   0  0.2906701E-06  0.3492206E+04  0.7818609E-02  0.8115639E-01
       -2   -1    0    0    0  501  0.00000000000E+00  0.00000000000E+00  0.17706282245E+04  0.17706282245E+04  0.25500000920E-02 0.  1.
        2   -1    0    0  501    0  0.00000000000E+00  0.00000000000E+00 -0.17219179070E+04  0.17219179070E+04  0.25500000920E-02 0. -1.
    10030    2    1    2    0    0  0.00000000000E+00  0.00000000000E+00  0.48710317564E+02  0.34925461315E+04  0.34922064352E+04 0.  0.
        5    1    3    3  502    0  0.71027193897E+02 -0.50153031905E+03 -0.16468181070E+04  0.17229653191E+04  0.46999998093E+01 0. -1.
       -5    1    3    3    0  502 -0.71027193897E+02  0.50153031905E+03  0.16955284246E+04  0.17695808124E+04  0.46999998093E+01 0.  1.
</event>
<event>
 5   0  0.2767014E-06  0.3673649E+04  0.7818609E-02  0.8073827E-01
       -2   -1    0    0    0  501  0.00000000000E+00  0.00000000000E+00  0.19029239013E+04  0.19029239013E+04  0.25500000920E-02 0.  1.
        2   -1    0    0  501    0  0.00000000000E+00  0.00000000000E+00 -0.17730214920E+04  0.17730214920E+04  0.25500000920E-02 0. -1.
    10030    2    1    2    0    0  0.00000000000E+00  0.00000000000E+00  0.12990240933E+03  0.36759453933E+04  0.36736493979E+04 0.  0.
        1    1    3    3  502    0  0.95298257573E+03  0.65241124009E+03 -0.13642652423E+04  0.17874663262E+04  0.50400001928E-02 0. -1.
       -1    1    3    3    0  502 -0.95298257573E+03 -0.65241124009E+03  0.14941676516E+04  0.18884790671E+04  0.50400001928E-02 0.  1.
</event>
<event>
 5   0  0.2856440E-06  0.3364745E+04  0.7818609E-02  0.8146614E-01
       -2   -1    0    0    0  501  0.00000000000E+00  0.00000000000E+00  0.26290160483E+04  0.26290160483E+04  0.25500000920E-02 0.  1.
        2   -1    0    0  501    0  0.00000000000E+00  0.00000000000E+00 -0.10765916830E+04  0.10765916830E+04  0.25500000920E-02 0. -1.
    10030    2    1    2    0    0  0.00000000000E+00  0.00000000000E+00  0.15524243653E+04  0.37056077313E+04  0.33647447523E+04 0.  0.
        4    1    3    3  502    0 -0.92363032127E+03 -0.49644148146E+03 -0.67267405093E+03  0.12458086155E+04  0.12699999809E+01 0. -1.
       -4    1    3    3    0  502  0.92363032127E+03  0.49644148146E+03  0.22250984162E+04  0.24597991157E+04  0.12699999809E+01 0.  1.
</event>
<event>
 5   0  0.2906701E-06  0.3355653E+04  0.7818609E-02  0.8148877E-01
       -2   -1    0    0    0  501  0.00000000000E+00  0.00000000000E+00  0.19044451989E+04  0.19044451989E+04  0.25500000920E-02 0. -1.
        2   -1    0    0  501    0  0.00000000000E+00  0.00000000000E+00 -0.14781744405E+04  0.14781744405E+04  0.25500000920E-02 0.  1.
    10030    2    1    2    0    0  0.00000000000E+00  0.00000000000E+00  0.42627075840E+03  0.33826196394E+04  0.33556532696E+04 0.  0.
        5    1    3    3  502    0  0.87758039529E+03  0.95778333126E+03 -0.85727549577E+03  0.15564188464E+04  0.46999998093E+01 0.  1.
       -5    1    3    3    0  502 -0.87758039529E+03 -0.95778333126E+03  0.12835462542E+04  0.18262007930E+04  0.46999998093E+01 0. -1.
</event>
<event>
 5   0  0.1019854E-06  0.2179819E+04  0.7818609E-02  0.8526875E-01
        1   -1    0    0  501    0  0.00000000000E+00  0.00000000000E+00  0.11880424319E+04  0.11880424319E+04  0.50400001928E-02 0.  1.
       -1   -1    0    0    0  501  0.00000000000E+00  0.00000000000E+00 -0.99988262290E+03  0.99988262291E+03  0.50400001928E-02 0. -1.
    10030    2    1    2    0    0  0.00000000000E+00  0.00000000000E+00  0.18815980900E+03  0.21879250548E+04  0.21798192429E+04 0.  0.
        4    1    3    3  502    0 -0.15630392547E+03  0.12900145200E+03 -0.98080337584E+03  0.10015234229E+04  0.12699999809E+01 0. -1.
       -4    1    3    3    0  502  0.15630392547E+03 -0.12900145200E+03  0.11689631848E+04  0.11864016319E+04  0.12699999809E+01 0.  1.
</event>
<event>
 5   0  0.2767014E-06  0.3209859E+04  0.7818609E-02  0.8186218E-01
       -2   -1    0    0    0  501  0.00000000000E+00  0.00000000000E+00  0.13013219363E+04  0.13013219363E+04  0.25500000920E-02 0.  1.
        2   -1    0    0  501    0  0.00000000000E+00  0.00000000000E+00 -0.19793706800E+04  0.19793706800E+04  0.25500000920E-02 0. -1.
    10030    2    1    2    0    0  0.00000000000E+00  0.00000000000E+00 -0.67804874370E+03  0.32806926162E+04  0.32098588666E+04 0.  0.
        1    1    3    3  502    0  0.15982114025E+04  0.55464734811E+02 -0.47782423963E+03  0.16690332615E+04  0.50400001928E-02 0. -1.
       -1    1    3    3    0  502 -0.15982114025E+04 -0.55464734811E+02 -0.20022450406E+03  0.16116593548E+04  0.50400001928E-02 0.  1.
</event>
<event>
 5   0  0.1010855E-06  0.3368580E+04  0.7818609E-02  0.8145661E-01
       -1   -1    0    0    0  501  0.00000000000E+00  0.00000000000E+00  0.19008740329E+04  0.19008740329E+04  0.50400001928E-02 0. -1.
        1   -1    0    0  501    0  0.00000000000E+00  0.00000000000E+00 -0.14923830945E+04  0.14923830945E+04  0.50400001928E-02 0.  1.
    10030    2    1    2    0    0  0.00000000000E+00  0.00000000000E+00  0.40849093842E+03  0.33932571274E+04  0.33685796838E+04 0.  0.
        1    1    3    3  502    0  0.15740532280E+03 -0.12318355199E+04 -0.94191115047E+03  0.15586506341E+04  0.50400001928E-02 0.  1.
       -1    1    3    3    0  502 -0.15740532280E+03  0.12318355199E+04  0.13504020889E+04  0.18346064933E+04  0.50400001928E-02 0. -1.
</event>
<event>
 5   0  0.1010551E-06  0.3357277E+04  0.7818609E-02  0.8148472E-01
        1   -1    0    0  501    0  0.00000000000E+00  0.00000000000E+00  0.17657760103E+04  0.17657760103E+04  0.50400001928E-02 0.  1.
       -1   -1    0    0    0  501  0.00000000000E+00  0.00000000000E+00 -0.15958009298E+04  0.15958009298E+04  0.50400001928E-02 0. -1.
    10030    2    1    2    0    0  0.00000000000E+00  0.00000000000E+00  0.16997508047E+03  0.33615769401E+04  0.33572768721E+04 0.  0.
        2    1    3    3  502    0 -0.27763776651E+03 -0.48837122759E+03 -0.14988848511E+04  0.16007014032E+04  0.25500000920E-02 0. -1.
       -2    1    3    3    0  502  0.27763776651E+03  0.48837122759E+03  0.16688599315E+04  0.17608755369E+04  0.25500000920E-02 0.  1.
</event>
<event>
 5   0  0.1010551E-06  0.3424451E+04  0.7818609E-02  0.8131931E-01
        1   -1    0    0  501    0  0.00000000000E+00  0.00000000000E+00  0.16504512129E+04  0.16504512129E+04  0.50400001928E-02 0.  1.
       -1   -1    0    0    0  501  0.00000000000E+00  0.00000000000E+00 -0.17763118898E+04  0.17763118898E+04  0.50400001928E-02 0. -1.
    10030    2    1    2    0    0  0.00000000000E+00  0.00000000000E+00 -0.12586067692E+03  0.34267631027E+04  0.34244509709E+04 0.  0.
        2    1    3    3  502    0 -0.98973535792E+02 -0.11231174269E+04  0.12265543165E+04  0.16660204101E+04  0.25500000920E-02 0.  1.
       -2    1    3    3    0  502  0.98973535792E+02  0.11231174269E+04 -0.13524149934E+04  0.17607426927E+04  0.25500000920E-02 0. -1.
</event>
<event>
 5   0  0.1010855E-06  0.3347921E+04  0.7818609E-02  0.8150808E-01
       -1   -1    0    0    0  501  0.00000000000E+00  0.00000000000E+00  0.10114279185E+04  0.10114279185E+04  0.50400001928E-02 0. -1.
        1   -1    0    0  501    0  0.00000000000E+00  0.00000000000E+00 -0.27704836271E+04  0.27704836271E+04  0.50400001928E-02 0.  1.
    10030    2    1    2    0    0  0.00000000000E+00  0.00000000000E+00 -0.17590557086E+04  0.37819115456E+04  0.33479214377E+04 0.  0.
        1    1    3    3  502    0 -0.84622367754E+03 -0.12780445433E+04 -0.11951946087E+03  0.15374580543E+04  0.50400001928E-02 0. -1.
       -1    1    3    3    0  502  0.84622367754E+03  0.12780445433E+04 -0.16395362477E+04  0.22444534913E+04  0.50400001928E-02 0.  1.
</event>
<event>
 5   0  0.9714317E-07  0.3074191E+04  0.7818609E-02  0.8222857E-01
       -1   -1    0    0    0  501  0.00000000000E+00  0.00000000000E+00  0.23632294765E+04  0.23632294765E+04  0.50400001928E-02 0. -1.
        1   -1    0    0  501    0  0.00000000000E+00  0.00000000000E+00 -0.99976032554E+03  0.99976032555E+03  0.50400001928E-02 0.  1.
    10030    2    1    2    0    0  0.00000000000E+00  0.00000000000E+00  0.13634691510E+04  0.33629898021E+04  0.30741913218E+04 0.  0.
        4    1    3    3  502    0  0.12605017197E+04 -0.81353954923E+03  0.10477566171E+04  0.18298925447E+04  0.12699999809E+01 0. -1.
       -4    1    3    3    0  502 -0.12605017197E+04  0.81353954923E+03  0.31571253389E+03  0.15330972574E+04  0.12699999809E+01 0.  1.
</event>
<event>
 5   0  0.2856440E-06  0.3317230E+04  0.7818609E-02  0.8158525E-01
        2   -1    0    0  501    0  0.00000000000E+00  0.00000000000E+00  0.25670031404E+04  0.25670031404E+04  0.25500000920E-02 0. -1.
       -2   -1    0    0    0  501  0.00000000000E+00  0.00000000000E+00 -0.10716791765E+04  0.10716791765E+04  0.25500000920E-02 0.  1.
    10030    2    1    2    0    0  0.00000000000E+00  0.00000000000E+00  0.14953239639E+04  0.36386823170E+04  0.33172300563E+04 0.  0.
        4    1    3    3  502    0 -0.15936732263E+04 -0.30903949225E+03  0.37454947700E+03  0.16660098090E+04  0.12699999809E+01 0. -1.
       -4    1    3    3    0  502  0.15936732263E+04  0.30903949225E+03  0.11207744869E+04  0.19726725079E+04  0.12699999809E+01 0.  1.
</event>
<event>
 5   0  0.2664083E-06  0.3528206E+04  0.7818609E-02  0.8107138E-01
       -2   -1    0    0    0  501  0.00000000000E+00  0.00000000000E+00  0.11809573703E+04  0.11809573703E+04  0.25500000920E-02 0. -1.
        2   -1    0    0  501    0  0.00000000000E+00  0.00000000000E+00 -0.26352008327E+04  0.26352008327E+04  0.25500000920E-02 0.  1.
    10030    2    1    2    0    0  0.00000000000E+00  0.00000000000E+00 -0.14542434624E+04  0.38161582029E+04  0.35282062556E+04 0.  0.
        2    1    3    3  502    0 -0.17071832427E+04  0.35686219990E+03 -0.10137690845E+04  0.20173133149E+04  0.25500000920E-02 0. -1.
       -2    1    3    3    0  502  0.17071832427E+04 -0.35686219990E+03 -0.44047437793E+03  0.17988448881E+04  0.25500000920E-02 0.  1.
</event>
<event>
 5   0  0.1003191E-06  0.3389743E+04  0.7818609E-02  0.8140428E-01
        1   -1    0    0  501    0  0.00000000000E+00  0.00000000000E+00  0.14876071051E+04  0.14876071052E+04  0.50400001928E-02 0. -1.
       -1   -1    0    0    0  501  0.00000000000E+00  0.00000000000E+00 -0.19310129509E+04  0.19310129509E+04  0.50400001928E-02 0.  1.
    10030    2    1    2    0    0  0.00000000000E+00  0.00000000000E+00 -0.44340584573E+03  0.34186200560E+04  0.33897425188E+04 0.  0.
        5    1    3    3  502    0 -0.83544283516E+03  0.97508875068E+02  0.12622580583E+04  0.15168355901E+04  0.46999998093E+01 0. -1.
       -5    1    3    3    0  502  0.83544283516E+03 -0.97508875068E+02 -0.17056639040E+04  0.19017844660E+04  0.46999998093E+01 0.  1.
</event>
<event>
 5   0  0.2664083E-06  0.3255260E+04  0.7818609E-02  0.8174374E-01
        2   -1    0    0  501    0  0.00000000000E+00  0.00000000000E+00  0.18007454822E+04  0.18007454822E+04  0.25500000920E-02 0.  1.
       -2   -1    0    0    0  501  0.00000000000E+00  0.00000000000E+00 -0.14711567904E+04  0.14711567904E+04  0.25500000920E-02 0. -1.
    10030    2    1    2    0    0  0.00000000000E+00  0.00000000000E+00  0.32958869182E+03  0.32719022726E+04  0.32552597094E+04 0.  0.
        2    1    3    3  502    0 -0.76775818066E+03 -0.14240674080E+04 -0.14325439157E+02  0.16179078542E+04  0.25500000920E-02 0. -1.
       -2    1    3    3    0  502  0.76775818066E+03  0.14240674080E+04  0.34391413098E+03  0.16539944184E+04  0.25500000920E-02 0.  1.
</event>
<event>
 5   0  0.9070500E-07  0.2899151E+04  0.7818609E-02  0.8273130E-01
        3   -1    0    0  501    0  0.00000000000E+00  0.00000000000E+00  0.12346144213E+04  0.12346144254E+04  0.10100000352E+00 0. -1.
       -3   -1    0    0    0  501  0.00000000000E+00  0.00000000000E+00 -0.17019639555E+04  0.17019639585E+04  0.10100000352E+00 0.  1.
    10030    2    1    2    0    0  0.00000000000E+00  0.00000000000E+00 -0.46734953418E+03  0.29365783839E+04  0.28991510857E+04 0.  0.
        2    1    3    3  502    0 -0.10243516862E+04 -0.63998267635E+03  0.57816784397E+03  0.13390863523E+04  0.25500000920E-02 0. -1.
       -2    1    3    3    0  502  0.10243516862E+04  0.63998267635E+03 -0.10455173782E+04  0.15974920316E+04  0.25500000920E-02 0.  1.
</event>
<event>
 5   0  0.2767014E-06  0.3400864E+04  0.7818609E-02  0.8137694E-01
        2   -1    0    0  501    0  0.00000000000E+00  0.00000000000E+00  0.22091608861E+04  0.22091608861E+04  0.25500000920E-02 0.  1.
       -2   -1    0    0    0  501  0.00000000000E+00  0.00000000000E+00 -0.13088536085E+04  0.13088536085E+04  0.25500000920E-02 0. -1.
    10030    2    1    2    0    0  0.00000000000E+00  0.00000000000E+00  0.90030727756E+03  0.35180144945E+04  0.34008635359E+04 0.  0.
        1    1    3    3  502    0 -0.12282251647E+04  0.95455920540E+03  0.11606525075E+04  0.19408334743E+04  0.50400001928E-02 0.  1.
       -1    1    3    3    0  502  0.12282251647E+04 -0.95455920540E+03 -0.26034522995E+03  0.15771810202E+04  0.50400001928E-02 0. -1.
</event>
<event>
 5   0  0.2856440E-06  0.3415544E+04  0.7818609E-02  0.8134102E-01
       -2   -1    0    0    0  501  0.00000000000E+00  0.00000000000E+00  0.14075809643E+04  0.14075809643E+04  0.25500000920E-02 0.  1.
        2   -1    0    0  501    0  0.00000000000E+00  0.00000000000E+00 -0.20719840325E+04  0.20719840325E+04  0.25500000920E-02 0. -1.
    10030    2    1    2    0    0  0.00000000000E+00  0.00000000000E+00 -0.66440306820E+03  0.34795649969E+04  0.34155440461E+04 0.  0.
        4    1    3    3  502    0  0.70199999727E+03  0.21484961505E+03  0.12386208820E+04  0.14398429273E+04  0.12699999809E+01 0.  1.
       -4    1    3    3    0  502 -0.70199999727E+03 -0.21484961505E+03 -0.19030239502E+04  0.20397220696E+04  0.12699999809E+01 0. -1.
</event>
<event>
 5   0  0.1003191E-06  0.3385543E+04  0.7818609E-02  0.8141464E-01
       -1   -1    0    0    0  501  0.00000000000E+00  0.00000000000E+00  0.15552631965E+04  0.15552631965E+04  0.50400001928E-02 0.  1.
        1   -1    0    0  501    0  0.00000000000E+00  0.00000000000E+00 -0.18424374811E+04  0.18424374811E+04  0.50400001928E-02 0. -1.
    10030    2    1    2    0    0  0.00000000000E+00  0.00000000000E+00 -0.28717428455E+03  0.33977006776E+04  0.33855429143E+04 0.  0.
        5    1    3    3  502    0  0.77594041302E+03  0.77877094184E+03  0.11482359116E+04  0.15896652173E+04  0.46999998093E+01 0.  1.
       -5    1    3    3    0  502 -0.77594041302E+03 -0.77877094184E+03 -0.14354101962E+04  0.18080354603E+04  0.46999998093E+01 0. -1.
</event>
<event>
 5   0  0.2856440E-06  0.3410297E+04  0.7818609E-02  0.8135384E-01
        2   -1    0    0  501    0  0.00000000000E+00  0.00000000000E+00  0.24081130624E+04  0.24081130624E+04  0.25500000920E-02 0.  1.
       -2   -1    0    0    0  501  0.00000000000E+00  0.00000000000E+00 -0.12073899218E+04  0.12073899218E+04  0.25500000920E-02 0. -1.
    10030    2    1    2    0    0  0.00000000000E+00  0.00000000000E+00  0.12007231406E+04  0.36155029841E+04  0.34102970205E+04 0.  0.
        4    1    3    3  502    0 -0.18982620429E+03  0.13732880643E+04  0.16528601531E+04  0.21572905214E+04  0.12699999809E+01 0.  1.
       -4    1    3    3    0  502  0.18982620429E+03 -0.13732880643E+04 -0.45213701248E+03  0.14582124627E+04  0.12699999809E+01 0. -1.
</event>
<event>
 5   0  0.2906701E-06  0.3293934E+04  0.7818609E-02  0.8164441E-01
        2   -1    0    0  501    0  0.00000000000E+00  0.00000000000E+00  0.13174577523E+04  0.13174577524E+04  0.25500000920E-02 0. -1.
       -2   -1    0    0    0  501  0.00000000000E+00  0.00000000000E+00 -0.20588891933E+04  0.20588891933E+04  0.25500000920E-02 0.  1.
    10030    2    1    2    0    0  0.00000000000E+00  0.00000000000E+00 -0.74143144096E+03  0.33763469457E+04  0.32939335324E+04 0.  0.
        5    1    3    3  502    0 -0.11544107865E+04  0.11624660339E+04 -0.19771529540E+03  0.16501833147E+04  0.46999998093E+01 0. -1.
       -5    1    3    3    0  502  0.11544107865E+04 -0.11624660339E+04 -0.54371614556E+03  0.17261636310E+04  0.46999998093E+01 0.  1.
</event>
<event>
 5   0  0.2767014E-06  0.2132042E+04  0.7818609E-02  0.8547258E-01
        2   -1    0    0  501    0  0.00000000000E+00  0.00000000000E+00  0.12255900269E+04  0.12255900269E+04  0.25500000920E-02 0. -1.
       -2   -1    0    0    0  501  0.00000000000E+00  0.00000000000E+00 -0.92722764066E+03  0.92722764067E+03  0.25500000920E-02 0.  1.
    10030    2    1    2    0    0  0.00000000000E+00  0.00000000000E+00  0.29836238622E+03  0.21528176676E+04  0.21320421657E+04 0.  0.
        1    1    3    3  502    0 -0.95286666844E+03 -0.46139952236E+03  0.23239945291E+02  0.10589544382E+04  0.50400001928E-02 0. -1.
       -1    1    3    3    0  502  0.95286666844E+03  0.46139952236E+03  0.27512244093E+03  0.10938632294E+04  0.50400001928E-02 0.  1.
</event>
<event>
 5   0  0.9714317E-07  0.3384340E+04  0.7818609E-02  0.8141760E-01
       -1   -1    0    0    0  501  0.00000000000E+00  0.00000000000E+00  0.14656178146E+04  0.14656178146E+04  0.50400001928E-02 0. -1.
        1   -1    0    0  501    0  0.00000000000E+00  0.00000000000E+00 -0.19537422285E+04  0.19537422285E+04  0.50400001928E-02 0.  1.
    10030    2    1    2    0    0  0.00000000000E+00  0.00000000000E+00 -0.48812441390E+03  0.34193600430E+04  0.33843400628E+04 0.  0.
        4    1    3    3  502    0 -0.42240614184E+03  0.11564886843E+04  0.92878770587E+03  0.15422520031E+04  0.12699999809E+01 0. -1.
       -4    1    3    3    0  502  0.42240614184E+03 -0.11564886843E+04 -0.14169121198E+04  0.18771080399E+04  0.12699999809E+01 0.  1.
</event>
<event>
 5   0  0.2767014E-06  0.3384727E+04  0.7818609E-02  0.8141665E-01
        2   -1    0    0  501    0  0.00000000000E+00  0.00000000000E+00  0.18898744672E+04  0.18898744672E+04  0.25500000920E-02 0. -1.
       -2   -1    0    0    0  501  0.00000000000E+00  0.00000000000E+00 -0.15154941871E+04  0.15154941871E+04  0.25500000920E-02 0.  1.
    10030    2    1    2    0    0  0.00000000000E+00  0.00000000000E+00  0.37438028013E+03  0.34053686543E+04  0.33847267360E+04 0.  0.
        1    1    3    3  502    0 -0.70773508486E+03 -0.53026519580E+03  0.16389117795E+04  0.18622840678E+04  0.50400001928E-02 0. -1.
       -1    1    3    3    0  502  0.70773508486E+03  0.53026519580E+03 -0.12645314993E+04  0.15430845865E+04  0.50400001928E-02 0.  1.
</event>
<event>
 5   0  0.1010551E-06  0.2745850E+04  0.7818609E-02  0.8320280E-01
       -1   -1    0    0    0  501  0.00000000000E+00  0.00000000000E+00  0.15127981713E+04  0.15127981713E+04  0.50400001928E-02 0. -1.
        1   -1    0    0  501    0  0.00000000000E+00  0.00000000000E+00 -0.12459846315E+04  0.12459846315E+04  0.50400001928E-02 0.  1.
    10030    2    1    2    0    0  0.00000000000E+00  0.00000000000E+00  0.26681353980E+03  0.27587828027E+04  0.27458501575E+04 0.  0.
        2    1    3    3  502    0  0.60227327764E+03  0.18135604042E+03 -0.10927098913E+04  0.12608084791E+04  0.25500000920E-02 0.  1.
       -2    1    3    3    0  502 -0.60227327764E+03 -0.18135604042E+03  0.13595234311E+04  0.14979743236E+04  0.25500000920E-02 0. -1.
</event>
<event>
 5   0  0.2848685E-06  0.3390411E+04  0.7818609E-02  0.8140264E-01
       -2   -1    0    0    0  501  0.00000000000E+00  0.00000000000E+00  0.12871588885E+04  0.12871588885E+04  0.25500000920E-02 0.  1.
        2   -1    0    0  501    0  0.00000000000E+00  0.00000000000E+00 -0.22326083330E+04  0.22326083330E+04  0.25500000920E-02 0. -1.
    10030    2    1    2    0    0  0.00000000000E+00  0.00000000000E+00 -0.94544944458E+03  0.35197672215E+04  0.33904109841E+04 0.  0.
        3    1    3    3  502    0 -0.78629897175E+03  0.10553359876E+04 -0.15820060218E+04  0.20578491643E+04  0.10100000352E+00 0. -1.
       -3    1    3    3    0  502  0.78629897175E+03 -0.10553359876E+04  0.63655657726E+03  0.14619180572E+04  0.10100000352E+00 0.  1.
</event>
<event>
 5   0  0.9714317E-07  0.2104605E+04  0.7818609E-02  0.8559218E-01
        1   -1    0    0  501    0  0.00000000000E+00  0.00000000000E+00  0.18700897511E+04  0.18700897511E+04  0.50400001928E-02 0. -1.
       -1   -1    0    0    0  501  0.00000000000E+00  0.00000000000E+00 -0.59213232209E+03  0.59213232212E+03  0.50400001928E-02 0.  1.
    10030    2    1    2    0    0  0.00000000000E+00  0.00000000000E+00  0.12779574290E+04  0.24622220733E+04  0.21046050336E+04 0.  0.
        4    1    3    3  502    0  0.25814648534E+03  0.90183939182E+03  0.11968546082E+04  0.15206631654E+04  0.12699999809E+01 0. -1.
       -4    1    3    3    0  502 -0.25814648534E+03 -0.90183939182E+03  0.81102820838E+02  0.94155890786E+03  0.12699999809E+01 0.  1.
</event>
<event>
 5   0  0.1010855E-06  0.3398576E+04  0.7818609E-02  0.8138256E-01
       -1   -1    0    0    0  501  0.00000000000E+00  0.00000000000E+00  0.10448293306E+04  0.10448293306E+04  0.50400001928E-02 0.  1.
        1   -1    0    0  501    0  0.00000000000E+00  0.00000000000E+00 -0.27636853769E+04  0.27636853769E+04  0.50400001928E-02 0. -1.
    10030    2    1    2    0    0  0.00000000000E+00  0.00000000000E+00 -0.17188560463E+04  0.38085147074E+04  0.33985759030E+04 0.  0.
        1    1    3    3  502    0  0.45566846025E+03  0.94767357897E+03  0.63644773381E+03  0.12291398113E+04  0.50400001928E-02 0.  1.
       -1    1    3    3    0  502 -0.45566846025E+03 -0.94767357897E+03 -0.23553037801E+04  0.25793748961E+04  0.50400001928E-02 0. -1.
</event>
<event>
 5   0  0.2767014E-06  0.3417174E+04  0.7818609E-02  0.8133704E-01
        2   -1    0    0  501    0  0.00000000000E+00  0.00000000000E+00  0.17178231350E+04  0.17178231350E+04  0.25500000920E-02 0.  1.
       -2   -1    0    0    0  501  0.00000000000E+00  0.00000000000E+00 -0.16994006067E+04  0.16994006067E+04  0.25500000920E-02 0. -1.
    10030    2    1    2    0    0  0.00000000000E+00  0.00000000000E+00  0.18422528354E+02  0.34172237417E+04  0.34171740827E+04 0.  0.
        1    1    3    3  502    0 -0.16245785374E+04  0.24725246028E+03  0.47706469861E+03  0.17111341064E+04  0.50400001928E-02 0. -1.
       -1    1    3    3    0  502  0.16245785374E+04 -0.24725246028E+03 -0.45864217025E+03  0.17060896353E+04  0.50400001928E-02 0.  1.
</event>
<event>
 5   0  0.2856440E-06  0.3364083E+04  0.7818609E-02  0.8146778E-01
       -2   -1    0    0    0  501  0.00000000000E+00  0.00000000000E+00  0.15652804706E+04  0.15652804706E+04  0.25500000920E-02 0. -1.
        2   -1    0    0  501    0  0.00000000000E+00  0.00000000000E+00 -0.18075117583E+04  0.18075117583E+04  0.25500000920E-02 0.  1.
    10030    2    1    2    0    0  0.00000000000E+00  0.00000000000E+00 -0.24223128770E+03  0.33727922290E+04  0.33640825529E+04 0.  0.
        4    1    3    3  502    0 -0.11100165710E+04  0.12106872016E+04 -0.48449152026E+03  0.17124934844E+04  0.12699999809E+01 0.  1.
       -4    1    3    3    0  502  0.11100165710E+04 -0.12106872016E+04  0.24226023256E+03  0.16602987446E+04  0.12699999809E+01 0. -1.
</event>
<event>
 5   0  0.9070500E-07  0.3216260E+04  0.7818609E-02  0.8184536E-01
        3   -1    0    0  501    0  0.00000000000E+00  0.00000000000E+00  0.12868607760E+04  0.12868607800E+04  0.10100000352E+00 0. -1.
       -3   -1    0    0    0  501  0.00000000000E+00  0.00000000000E+00 -0.20096046260E+04  0.20096046285E+04  0.10100000352E+00 0.  1.
    10030    2    1    2    0    0  0.00000000000E+00  0.00000000000E+00 -0.72274384995E+03  0.32964654085E+04  0.32162595538E+04 0.  0.
        2    1    3    3  502    0  0.10499971950E+04 -0.84981662536E+03  0.53296997281E+03  0.14521499228E+04  0.25500000920E-02 0. -1.
       -2    1    3    3    0  502 -0.10499971950E+04  0.84981662536E+03 -0.12557138228E+04  0.18443154858E+04  0.25500000920E-02 0.  1.
</event>
<event>
 5   0  0.2767014E-06  0.3461731E+04  0.7818609E-02  0.8122920E-01
       -2   -1    0    0    0  501  0.00000000000E+00  0.00000000000E+00  0.10550579917E+04  0.10550579918E+04  0.25500000920E-02 0.  1.
        2   -1    0    0  501    0  0.00000000000E+00  0.00000000000E+00 -0.28395549861E+04  0.28395549861E+04  0.25500000920E-02 0. -1.
    10030    2    1    2    0    0  0.00000000000E+00  0.00000000000E+00 -0.17844969943E+04  0.38946129778E+04  0.34617308856E+04 0.  0.
        1    1    3    3  502    0 -0.31956666794E+03  0.96828427198E+03 -0.24657870843E+04  0.26682959416E+04  0.50400001928E-02 0. -1.
       -1    1    3    3    0  502  0.31956666794E+03 -0.96828427198E+03  0.68129009000E+03  0.12263170362E+04  0.50400001928E-02 0.  1.
</event>
<event>
 5   0  0.2848685E-06  0.3074210E+04  0.7818609E-02  0.8222851E-01
        2   -1    0    0  501    0  0.00000000000E+00  0.00000000000E+00  0.15477923074E+04  0.15477923074E+04  0.25500000920E-02 0. -1.
       -2   -1    0    0    0  501  0.00000000000E+00  0.00000000000E+00 -0.15264919363E+04  0.15264919363E+04  0.25500000920E-02 0.  1.
    10030    2    1    2    0    0  0.00000000000E+00  0.00000000000E+00  0.21300371158E+02  0.30742842437E+04  0.30742104523E+04 0.  0.
        3    1    3    3  502    0 -0.39767266702E+03 -0.14609015399E+04 -0.25452708039E+03  0.15353048245E+04  0.10100000352E+00 0. -1.
       -3    1    3    3    0  502  0.39767266702E+03  0.14609015399E+04  0.27582745155E+03  0.15389794192E+04  0.10100000352E+00 0.  1.
</event>
<event>
 5   0  0.1010855E-06  0.3393448E+04  0.7818609E-02  0.8139516E-01
       -1   -1    0    0    0  501  0.00000000000E+00  0.00000000000E+00  0.16369919696E+04  0.16369919696E+04  0.50400001928E-02 0. -1.
        1   -1    0    0  501    0  0.00000000000E+00  0.00000000000E+00 -0.17586358530E+04  0.17586358531E+04  0.50400001928E-02 0.  1.
    10030    2    1    2    0    0  0.00000000000E+00  0.00000000000E+00 -0.12164388350E+03  0.33956278226E+04  0.33934482573E+04 0.  0.
        1    1    3    3  502    0 -0.10229548827E+04 -0.31199542515E+03 -0.13788980027E+04  0.17450322459E+04  0.50400001928E-02 0.  1.
       -1    1    3    3    0  502  0.10229548827E+04  0.31199542515E+03  0.12572541192E+04  0.16505955767E+04  0.50400001928E-02 0. -1.
</event>
<event>
 5   0  0.1010855E-06  0.3263906E+04  0.7818609E-02  0.8172141E-01
       -1   -1    0    0    0  501  0.00000000000E+00  0.00000000000E+00  0.28559242117E+04  0.28559242117E+04  0.50400001928E-02 0. -1.
        1   -1    0    0  501    0  0.00000000000E+00  0.00000000000E+00 -0.93254244856E+03  0.93254244857E+03  0.50400001928E-02 0.  1.
    10030    2    1    2    0    0  0.00000000000E+00  0.00000000000E+00  0.19233817631E+04  0.37884666603E+04  0.32639059774E+04 0.  0.
        1    1    3    3  502    0  0.14701148693E+04 -0.35774562541E+03  0.16715810795E+04  0.22546403188E+04  0.50400001928E-02 0. -1.
       -1    1    3    3    0  502 -0.14701148693E+04  0.35774562541E+03  0.25180068359E+03  0.15338263415E+04  0.50400001928E-02 0.  1.
</event>
<event>
 5   0  0.9232963E-07  0.3394913E+04  0.7818609E-02  0.8139156E-01
        1   -1    0    0  501    0  0.00000000000E+00  0.00000000000E+00  0.16961036796E+04  0.16961036797E+04  0.50400001928E-02 0. -1.
       -1   -1    0    0    0  501  0.00000000000E+00  0.00000000000E+00 -0.16988106634E+04  0.16988106634E+04  0.50400001928E-02 0.  1.
    10030    2    1    2    0    0  0.00000000000E+00  0.00000000000E+00 -0.27069837694E+01  0.33949143431E+04  0.33949132638E+04 0.  0.
        3    1    3    3  502    0  0.96270350312E+03  0.61168392581E+03  0.12557880084E+04  0.16964547717E+04  0.10100000352E+00 0. -1.
       -3    1    3    3    0  502 -0.96270350312E+03 -0.61168392581E+03 -0.12584949922E+04  0.16984595714E+04  0.10100000352E+00 0.  1.
</event>
<event>
 5   0  0.1003191E-06  0.3415408E+04  0.7818609E-02  0.8134135E-01
        1   -1    0    0  501    0  0.00000000000E+00  0.00000000000E+00  0.17017937349E+04  0.17017937349E+04  0.50400001928E-02 0.  1.
       -1   -1    0    0    0  501  0.00000000000E+00  0.00000000000E+00 -0.17136343335E+04  0.17136343335E+04  0.50400001928E-02 0. -1.
    10030    2    1    2    0    0  0.00000000000E+00  0.00000000000E+00 -0.11840598583E+02  0.34154280684E+04  0.34154075439E+04 0.  0.
        5    1    3    3  502    0  0.12132143485E+04 -0.95954411330E+03  0.71769728983E+03  0.17052053983E+04  0.46999998093E+01 0.  1.
       -5    1    3    3    0  502 -0.12132143485E+04  0.95954411330E+03 -0.72953788841E+03  0.17102226701E+04  0.46999998093E+01 0. -1.
</event>
<event>
 5   0  0.1003191E-06  0.2323585E+04  0.7818609E-02  0.8468680E-01
       -1   -1    0    0    0  501  0.00000000000E+00  0.00000000000E+00  0.56774748957E+03  0.56774748959E+03  0.50400001928E-02 0.  1.
        1   -1    0    0  501    0  0.00000000000E+00  0.00000000000E+00 -0.23773981495E+04  0.23773981495E+04  0.50400001928E-02 0. -1.
    10030    2    1    2    0    0  0.00000000000E+00  0.00000000000E+00 -0.18096506600E+04  0.29451456391E+04  0.23235850156E+04 0.  0.
        5    1    3    3  502    0  0.91104531154E+02 -0.88940750139E+03  0.35514982786E+02  0.89477882358E+03  0.46999998093E+01 0.  1.
       -5    1    3    3    0  502 -0.91104531154E+02  0.88940750139E+03 -0.18451656427E+04  0.20503668155E+04  0.46999998093E+01 0. -1.
</event>
<event>
 5   0  0.2856440E-06  0.3459016E+04  0.7818609E-02  0.8123572E-01
        2   -1    0    0  501    0  0.00000000000E+00  0.00000000000E+00  0.22810151086E+04  0.22810151087E+04  0.25500000920E-02 0. -1.
       -2   -1    0    0    0  501  0.00000000000E+00  0.00000000000E+00 -0.13113448545E+04  0.13113448545E+04  0.25500000920E-02 0.  1.
    10030    2    1    2    0    0  0.00000000000E+00  0.00000000000E+00  0.96967025413E+03  0.35923599632E+04  0.34590157131E+04 0.  0.
        4    1    3    3  502    0  0.50899668107E+03 -0.12020973524E+04 -0.69339495944E+03  0.14781454085E+04  0.12699999809E+01 0.  1.
       -4    1    3    3    0  502 -0.50899668107E+03  0.12020973524E+04  0.16630652136E+04  0.21142145547E+04  0.12699999809E+01 0. -1.
</event>
<event>
 5   0  0.2767014E-06  0.3087462E+04  0.7818609E-02  0.8219187E-01
        2   -1    0    0  501    0  0.00000000000E+00  0.00000000000E+00  0.25451068121E+04  0.25451068121E+04  0.25500000920E-02 0. -1.
       -2   -1    0    0    0  501  0.00000000000E+00  0.00000000000E+00 -0.93634783627E+03  0.93634783628E+03  0.25500000920E-02 0.  1.
    10030    2    1    2    0    0  0.00000000000E+00  0.00000000000E+00  0.16087589759E+04  0.34814546484E+04  0.30874619069E+04 0.  0.
        1    1    3    3  502    0  0.61115931072E+03 -0.26501146685E+03 -0.76594057887E+03  0.10150919914E+04  0.50400001928E-02 0.  1.
       -1    1    3    3    0  502 -0.61115931072E+03  0.26501146685E+03  0.23746995547E+04  0.24663626570E+04  0.50400001928E-02 0. -1.
</event>
<event>
 5   0  0.1010551E-06  0.3373379E+04  0.7818609E-02  0.8144471E-01
       -1   -1    0    0    0  501  0.00000000000E+00  0.00000000000E+00  0.12647397748E+04  0.12647397748E+04  0.50400001928E-02 0. -1.
        1   -1    0    0  501    0  0.00000000000E+00  0.00000000000E+00 -0.22494121822E+04  0.22494121822E+04  0.50400001928E-02 0.  1.
    10030    2    1    2    0    0  0.00000000000E+00  0.00000000000E+00 -0.98467240741E+03  0.35141519569E+04  0.33733787553E+04 0.  0.
        2    1    3    3  502    0  0.23200014534E+03  0.81238157835E+03  0.10284239504E+04  0.13309559414E+04  0.25500000920E-02 0. -1.
       -2    1    3    3    0  502 -0.23200014534E+03 -0.81238157835E+03 -0.20130963578E+04  0.21831960155E+04  0.25500000920E-02 0.  1.
</event>
<event>
 5   0  0.2906701E-06  0.2095812E+04  0.7818609E-02  0.8563091E-01
       -2   -1    0    0    0  501  0.00000000000E+00  0.00000000000E+00  0.13450376405E+04  0.13450376405E+04  0.25500000920E-02 0.  1.
        2   -1    0    0  501    0  0.00000000000E+00  0.00000000000E+00 -0.81641346778E+03  0.81641346779E+03  0.25500000920E-02 0. -1.
    10030    2    1    2    0    0  0.00000000000E+00  0.00000000000E+00  0.52862417273E+03  0.21614511083E+04  0.20958118660E+04 0.  0.
        5    1    3    3  502    0  0.14032175126E+03 -0.64202821589E+03  0.11060823651E+04  0.12865965616E+04  0.46999998093E+01 0.  1.
       -5    1    3    3    0  502 -0.14032175126E+03  0.64202821589E+03 -0.57745819241E+03  0.87485454669E+03  0.46999998093E+01 0. -1.
</event>
<event>
 5   0  0.1010551E-06  0.3398990E+04  0.7818609E-02  0.8138154E-01
        1   -1    0    0  501    0  0.00000000000E+00  0.00000000000E+00  0.25639994576E+04  0.25639994576E+04  0.50400001928E-02 0.  1.
       -1   -1    0    0    0  501  0.00000000000E+00  0.00000000000E+00 -0.11264755188E+04  0.11264755188E+04  0.50400001928E-02 0. -1.
    10030    2    1    2    0    0  0.00000000000E+00  0.00000000000E+00  0.14375239388E+04  0.36904749764E+04  0.33989896259E+04 0.  0.
        2    1    3    3  502    0  0.53565552472E+03  0.12541318756E+04  0.18198866005E+04  0.22741505758E+04  0.25500000920E-02 0.  1.
       -2    1    3    3    0  502 -0.53565552472E+03 -0.12541318756E+04 -0.38236266175E+03  0.14163244006E+04  0.25500000920E-02 0. -1.
</event>
<event>
 5   0  0.2664083E-06  0.3425641E+04  0.7818609E-02  0.8131642E-01
        2   -1    0    0  501    0  0.00000000000E+00  0.00000000000E+00  0.20879203246E+04  0.20879203246E+04  0.25500000920E-02 0.  1.
       -2   -1    0    0    0  501  0.00000000000E+00  0.00000000000E+00 -0.14051083102E+04  0.14051083102E+04  0.25500000920E-02 0. -1.
    10030    2    1    2    0    0  0.00000000000E+00  0.00000000000E+00  0.68281201442E+03  0.34930286348E+04  0.34256410781E+04 0.  0.
        2    1    3    3  502    0 -0.56943649398E+03  0.15223220295E+04 -0.20962425108E+03  0.16387997464E+04  0.25500000920E-02 0. -1.
       -2    1    3    3    0  502  0.56943649398E+03 -0.15223220295E+04  0.89243626550E+03  0.18542288883E+04  0.25500000920E-02 0.  1.
</event>
<event>
 5   0  0.2848685E-06  0.3379294E+04  0.7818609E-02  0.8143007E-01
        2   -1    0    0  501    0  0.00000000000E+00  0.00000000000E+00  0.97089233497E+03  0.97089233497E+03  0.25500000920E-02 0. -1.
       -2   -1    0    0    0  501  0.00000000000E+00  0.00000000000E+00 -0.29404981763E+04  0.29404981763E+04  0.25500000920E-02 0.  1.
    10030    2    1    2    0    0  0.00000000000E+00  0.00000000000E+00 -0.19696058413E+04  0.39113905113E+04  0.33792940922E+04 0.  0.
        3    1    3    3  502    0 -0.39360133343E+03 -0.15033144753E+04 -0.17526003997E+04  0.23423246129E+04  0.10100000352E+00 0. -1.
       -3    1    3    3    0  502  0.39360133343E+03  0.15033144753E+04 -0.21700544169E+03  0.15690658983E+04  0.10100000352E+00 0.  1.
</event>
<event>
 5   0  0.2767014E-06  0.3343836E+04  0.7818609E-02  0.8151830E-01
        2   -1    0    0  501    0  0.00000000000E+00  0.00000000000E+00  0.20017649552E+04  0.20017649552E+04  0.25500000920E-02 0. -1.
       -2   -1    0    0    0  501  0.00000000000E+00  0.00000000000E+00 -0.13964229847E+04  0.13964229847E+04  0.25500000920E-02 0.  1.
    10030    2    1    2    0    0  0.00000000000E+00  0.00000000000E+00  0.60534197051E+03  0.33981879400E+04  0.33438364754E+04 0.  0.
        1    1    3    3  502    0  0.11796587440E+04  0.41865768674E+03 -0.82369523582E+03  0.14984468134E+04  0.50400001928E-02 0.  1.
       -1    1    3    3    0  502 -0.11796587440E+04 -0.41865768674E+03  0.14290372063E+04  0.18997411266E+04  0.50400001928E-02 0. -1.
</event>
<event>
 5   0  0.2856440E-06  0.3396615E+04  0.7818609E-02  0.8138738E-01
       -2   -1    0    0    0  501  0.00000000000E+00  0.00000000000E+00  0.14318398056E+04  0.14318398056E+04  0.25500000920E-02 0.  1.
        2   -1    0    0  501    0  0.00000000000E+00  0.00000000000E+00 -0.20143657296E+04  0.20143657296E+04  0.25500000920E-02 0. -1.
    10030    2    1    2    0    0  0.00000000000E+00  0.00000000000E+00 -0.58252592399E+03  0.34462055351E+04  0.33966153945E+04 0.  0.
        4    1    3    3  502    0 -0.15124529024E+02 -0.48283896274E+03  0.13606617983E+04  0.14438713092E+04  0.12699999809E+01 0.  1.
       -4    1    3    3    0  502  0.15124529024E+02  0.48283896274E+03 -0.19431877223E+04  0.20023342259E+04  0.12699999809E+01 0. -1.
</event>
<event>
 5   0  0.1003191E-06  0.3377034E+04  0.7818609E-02  0.8143566E-01
       -1   -1    0    0    0  501  0.00000000000E+00  0.00000000000E+00  0.14359641912E+04  0.14359641912E+04  0.50400001928E-02 0.  1.
        1   -1    0    0  501    0  0.00000000000E+00  0.00000000000E+00 -0.19854881696E+04  0.19854881696E+04  0.50400001928E-02 0. -1.
    10030    2    1    2    0    0  0.00000000000E+00  0.00000000000E+00 -0.54952397837E+03  0.34214523608E+04  0.33770341506E+04 0.  0.
        5    1    3    3  502    0 -0.13554741796E+04  0.15186387042E+03 -0.12831902697E+04  0.18726911772E+04  0.46999998093E+01 0. -1.
       -5    1    3    3    0  502  0.13554741796E+04 -0.15186387042E+03  0.73366629137E+03  0.15487611836E+04  0.46999998093E+01 0.  1.
</event>
<event>
 5   0  0.9714317E-07  0.2896901E+04  0.7818609E-02  0.8273800E-01
       -1   -1    0    0    0  501  0.00000000000E+00  0.00000000000E+00  0.96459756619E+03  0.96459756620E+03  0.50400001928E-02 0.  1.
        1   -1    0    0  501    0  0.00000000000E+00  0.00000000000E+00 -0.21750096838E+04  0.21750096838E+04  0.50400001928E-02 0. -1.
    10030    2    1    2    0    0  0.00000000000E+00  0.00000000000E+00 -0.12104121176E+04  0.31396072500E+04  0.28969011357E+04 0.  0.
        4    1    3    3  502    0 -0.10059942585E+04 -0.96852863841E+03 -0.18835826888E+03  0.14090963849E+04  0.12699999809E+01 0.  1.
       -4    1    3    3    0  502  0.10059942585E+04  0.96852863841E+03 -0.10220538487E+04  0.17305108651E+04  0.12699999809E+01 0. -1.
</event>
<event>
 5   0  0.9070500E-07  0.3271778E+04  0.7818609E-02  0.8170114E-01
       -3   -1    0    0    0  501  0.00000000000E+00  0.00000000000E+00  0.24625085290E+04  0.24625085310E+04  0.10100000352E+00 0. -1.
        3   -1    0    0  501    0  0.00000000000E+00  0.00000000000E+00 -0.10867504550E+04  0.10867504597E+04  0.10100000352E+00 0.  1.
    10030    2    1    2    0    0  0.00000000000E+00  0.00000000000E+00  0.13757580739E+04  0.35492589907E+04  0.32717776675E+04 0.  0.
        1    1    3    3  502    0  0.89011854438E+03  0.11457193493E+04  0.15077177077E+04  0.20924140452E+04  0.50400001928E-02 0. -1.
       -1    1    3    3    0  502 -0.89011854438E+03 -0.11457193493E+04 -0.13195963373E+03  0.14568449456E+04  0.50400001928E-02 0.  1.
</event>
<event>
 5   0  0.2848685E-06  0.3478997E+04  0.7818609E-02  0.8118786E-01
       -2   -1    0    0    0  501  0.00000000000E+00  0.00000000000E+00  0.16649760161E+04  0.16649760161E+04  0.25500000920E-02 0.  1.
        2   -1    0    0  501    0  0.00000000000E+00  0.00000000000E+00 -0.18173562137E+04  0.18173562137E+04  0.25500000920E-02 0. -1.
    10030    2    1    2    0    0  0.00000000000E+00  0.00000000000E+00 -0.15238019765E+03  0.34823322298E+04  0.34789966993E+04 0.  0.
        3    1    3    3  502    0  0.10739483007E+04 -0.42770629651E+03 -0.13772658803E+04  0.17980987025E+04  0.10100000352E+00 0. -1.
       -3    1    3    3    0  502 -0.10739483007E+04  0.42770629651E+03  0.12248856826E+04  0.16842335273E+04  0.10100000352E+00 0.  1.
</event>
<event>
 5   0  0.2664083E-06  0.3471840E+04  0.7818609E-02  0.8120496E-01
        2   -1    0    0  501    0  0.00000000000E+00  0.00000000000E+00  0.98540008291E+03  0.98540008291E+03  0.25500000920E-02 0. -1.
       -2   -1    0    0    0  501  0.00000000000E+00  0.00000000000E+00 -0.30580665305E+04  0.30580665305E+04  0.25500000920E-02 0.  1.
    10030    2    1    2    0    0  0.00000000000E+00  0.00000000000E+00 -0.20726664476E+04  0.40434666134E+04  0.34718404414E+04 0.  0.
        2    1    3    3  502    0 -0.74325702569E+03  0.76396747963E+03 -0.26320865814E+04  0.28397107402E+04  0.25500000920E-02 0.  1.
       -2    1    3    3    0  502  0.74325702569E+03 -0.76396747963E+03  0.55942013379E+03  0.12037558732E+04  0.25500000920E-02 0. -1.
</event>
<event>
 5   0  0.2906701E-06  0.3230854E+04  0.7818609E-02  0.8180716E-01
        2   -1    0    0  501    0  0.00000000000E+00  0.00000000000E+00  0.11724697217E+04  0.11724697217E+04  0.25500000920E-02 0. -1.
       -2   -1    0    0    0  501  0.00000000000E+00  0.00000000000E+00 -0.22257328893E+04  0.22257328893E+04  0.25500000920E-02 0.  1.
    10030    2    1    2    0    0  0.00000000000E+00  0.00000000000E+00 -0.10532631676E+04  0.33982026110E+04  0.32308540179E+04 0.  0.
        5    1    3    3  502    0 -0.14284487809E+04  0.45564541000E+03  0.10576321637E+03  0.15030923482E+04  0.46999998093E+01 0. -1.
       -5    1    3    3    0  502  0.14284487809E+04 -0.45564541000E+03 -0.11590263840E+04  0.18951102628E+04  0.46999998093E+01 0.  1.
</event>
<event>
 5   0  0.9714317E-07  0.2983073E+04  0.7818609E-02  0.8248581E-01
       -1   -1    0    0    0  501  0.00000000000E+00  0.00000000000E+00  0.22066628576E+04  0.22066628576E+04  0.50400001928E-02 0. -1.
        1   -1    0    0  501    0  0.00000000000E+00  0.00000000000E+00 -0.10081654726E+04  0.10081654726E+04  0.50400001928E-02 0.  1.
    10030    2    1    2    0    0  0.00000000000E+00  0.00000000000E+00  0.11984973850E+04  0.32148283302E+04  0.29830731153E+04 0.  0.
        4    1    3    3  502    0 -0.10857759523E+04 -0.79190325143E+03 -0.98058861538E+02  0.13474558737E+04  0.12699999809E+01 0.  1.
       -4    1    3    3    0  502  0.10857759523E+04  0.79190325143E+03  0.12965562465E+04  0.18673724566E+04  0.12699999809E+01 0. -1.
</event>
<event>
 5   0  0.9232963E-07  0.3298742E+04  0.7818609E-02  0.8163216E-01
       -1   -1    0    0    0  501  0.00000000000E+00  0.00000000000E+00  0.12651801812E+04  0.12651801812E+04  0.50400001928E-02 0. -1.
        1   -1    0    0  501    0  0.00000000000E+00  0.00000000000E+00 -0.21502271996E+04  0.21502271996E+04  0.50400001928E-02 0.  1.
    10030    2    1    2    0    0  0.00000000000E+00  0.00000000000E+00 -0.88504701833E+03  0.34154073808E+04  0.32987420863E+04 0.  0.
        3    1    3    3  502    0 -0.15080057915E+04  0.66493767570E+03 -0.50963290373E+03  0.17250939935E+04  0.10100000352E+00 0. -1.
       -3    1    3    3    0  502  0.15080057915E+04 -0.66493767570E+03 -0.37541411460E+03  0.16903133873E+04  0.10100000352E+00 0.  1.
</event>
<event>
 5   0  0.2664083E-06  0.3377735E+04  0.7818609E-02  0.8143393E-01
       -2   -1    0    0    0  501  0.00000000000E+00  0.00000000000E+00  0.15882446094E+04  0.15882446094E+04  0.25500000920E-02 0.  1.
        2   -1    0    0  501    0  0.00000000000E+00  0.00000000000E+00 -0.17958652124E+04  0.17958652124E+04  0.25500000920E-02 0. -1.
    10030    2    1    2    0    0  0.00000000000E+00  0.00000000000E+00 -0.20762060304E+03  0.33841098218E+04  0.33777348876E+04 0.  0.
        2    1    3    3  502    0  0.62060194486E+03 -0.59471851808E+03 -0.15603203177E+04  0.17814141527E+04  0.25500000920E-02 0. -1.
       -2    1    3    3    0  502 -0.62060194486E+03  0.59471851808E+03  0.13526997146E+04  0.16026956691E+04  0.25500000920E-02 0.  1.
</event>
<event>
 5   0  0.9714317E-07  0.3401541E+04  0.7818609E-02  0.8137528E-01
       -1   -1    0    0    0  501  0.00000000000E+00  0.00000000000E+00  0.12712269597E+04  0.12712269597E+04  0.50400001928E-02 0. -1.
        1   -1    0    0  501    0  0.00000000000E+00  0.00000000000E+00 -0.22754558096E+04  0.22754558097E+04  0.50400001928E-02 0.  1.
    10030    2    1    2    0    0  0.00000000000E+00  0.00000000000E+00 -0.10042288499E+04  0.35466827694E+04  0.34015412806E+04 0.  0.
        4    1    3    3  502    0  0.50577463627E+03  0.51662162718E+03  0.11030252351E+04  0.13188525962E+04  0.12699999809E+01 0. -1.
       -4    1    3    3    0  502 -0.50577463627E+03 -0.51662162718E+03 -0.21072540851E+04  0.22278301731E+04  0.12699999809E+01 0.  1.
</event>
<event>
 5   0  0.2856440E-06  0.3387860E+04  0.7818609E-02  0.8140892E-01
       -2   -1    0    0    0  501  0.00000000000E+00  0.00000000000E+00  0.10925615376E+04  0.10925615376E+04  0.25500000920E-02 0. -1.
        2   -1    0    0  501    0  0.00000000000E+00  0.00000000000E+00 -0.26263044056E+04  0.26263044056E+04  0.25500000920E-02 0.  1.
    10030    2    1    2    0    0  0.00000000000E+00  0.00000000000E+00 -0.15337428680E+04  0.37188659431E+04  0.33878601975E+04 0.  0.
        4    1    3    3  502    0  0.76188069712E+02 -0.15027685329E+04  0.87138829916E+02  0.15072201810E+04  0.12699999809E+01 0. -1.
       -4    1    3    3    0  502 -0.76188069712E+02  0.15027685329E+04 -0.16208816979E+04  0.22116457621E+04  0.12699999809E+01 0.  1.
</event>
<event>
 5   0  0.1003191E-06  0.3380559E+04  0.7818609E-02  0.8142694E-01
       -1   -1    0    0    0  501  0.00000000000E+00  0.00000000000E+00  0.25184277362E+04  0.25184277362E+04  0.50400001928E-02 0. -1.
        1   -1    0    0  501    0  0.00000000000E+00  0.00000000000E+00 -0.11344558207E+04  0.11344558207E+04  0.50400001928E-02 0.  1.
    10030    2    1    2    0    0  0.00000000000E+00  0.00000000000E+00  0.13839719155E+04  0.36528835569E+04  0.33805591279E+04 0.  0.
        5    1    3    3  502    0  0.13790407845E+04  0.82210964901E+03  0.12081712837E+03  0.16100424308E+04  0.46999998093E+01 0.  1.
       -5    1    3    3    0  502 -0.13790407845E+04 -0.82210964901E+03  0.12631547872E+04  0.20428411262E+04  0.46999998093E+01 0. -1.
</event>
<event>
 5   0  0.2848685E-06  0.2922326E+04  0.7818609E-02  0.8266266E-01
       -2   -1    0    0    0  501  0.00000000000E+00  0.00000000000E+00  0.22982957882E+04  0.22982957882E+04  0.25500000920E-02 0. -1.
        2   -1    0    0  501    0  0.00000000000E+00  0.00000000000E+00 -0.92894833337E+03  0.92894833338E+03  0.25500000920E-02 0.  1.
    10030    2    1    2    0    0  0.00000000000E+00  0.00000000000E+00  0.13693474548E+04  0.32272441216E+04  0.29223264992E+04 0.  0.
        3    1    3    3  502    0 -0.13025822647E+04 -0.66199910678E+03  0.67817234354E+03  0.16108634677E+04  0.10100000352E+00 0.  1.
       -3    1    3    3    0  502  0.13025822647E+04  0.66199910678E+03  0.69117511128E+03  0.16163806539E+04  0.10100000352E+00 0. -1.
</event>
<event>
 5   0  0.2767014E-06  0.3447331E+04  0.7818609E-02  0.8126387E-01
       -2   -1    0    0    0  501  0.00000000000E+00  0.00000000000E+00  0.20359672899E+04  0.20359672899E+04  0.25500000920E-02 0. -1.
        2   -1    0    0  501    0  0.00000000000E+00  0.00000000000E+00 -0.14592681484E+04  0.14592681484E+04  0.25500000920E-02 0.  1.
    10030    2    1    2    0    0  0.00000000000E+00  0.00000000000E+00  0.57669914148E+03  0.34952354383E+04  0.34473306875E+04 0.  0.
        1    1    3    3  502    0  0.13194348347E+03 -0.64203713131E+03  0.19046799173E+04  0.20143054258E+04  0.50400001928E-02 0. -1.
       -1    1    3    3    0  502 -0.13194348347E+03  0.64203713131E+03 -0.13279807759E+04  0.14809300125E+04  0.50400001928E-02 0.  1.
</event>
<event>
 5   0  0.9232963E-07  0.3452418E+04  0.7818609E-02  0.8125160E-01
        1   -1    0    0  501    0  0.00000000000E+00  0.00000000000E+00  0.10050385280E+04  0.10050385280E+04  0.50400001928E-02 0.  1.
       -1   -1    0    0    0  501  0.00000000000E+00  0.00000000000E+00 -0.29648596079E+04  0.29648596079E+04  0.50400001928E-02 0. -1.
    10030    2    1    2    0    0  0.00000000000E+00  0.00000000000E+00 -0.19598210798E+04  0.39698981359E+04  0.34524183618E+04 0.  0.
        3    1    3    3  502    0  0.32790492838E+03 -0.21116442150E+03  0.95371129602E+03  0.10303772616E+04  0.10100000352E+00 0.  1.
       -3    1    3    3    0  502 -0.32790492838E+03  0.21116442150E+03 -0.29135323759E+04  0.29395208743E+04  0.10100000352E+00 0. -1.
</event>
<event>
 5   0  0.9714317E-07  0.3203800E+04  0.7818609E-02  0.8187814E-01
       -1   -1    0    0    0  501  0.00000000000E+00  0.00000000000E+00  0.13948770514E+04  0.13948770514E+04  0.50400001928E-02 0.  1.
        1   -1    0    0  501    0  0.00000000000E+00  0.00000000000E+00 -0.18396486123E+04  0.18396486123E+04  0.50400001928E-02 0. -1.
    10030    2    1    2    0    0  0.00000000000E+00  0.00000000000E+00 -0.44477156082E+03  0.32345256637E+04  0.32038000137E+04 0.  0.
        4    1    3    3  502    0 -0.97565316978E+03 -0.39230545039E+03  0.99762361035E+03  0.14495023818E+04  0.12699999809E+01 0.  1.
       -4    1    3    3    0  502  0.97565316978E+03  0.39230545039E+03 -0.14423951712E+04  0.17850232819E+04  0.12699999809E+01 0. -1.
</event>
<event>
 5   0  0.9714317E-07  0.3332563E+04  0.7818609E-02  0.8154659E-01
       -1   -1    0    0    0  501  0.00000000000E+00  0.00000000000E+00  0.12407764538E+04  0.12407764538E+04  0.50400001928E-02 0. -1.
        1   -1    0    0  501    0  0.00000000000E+00  0.00000000000E+00 -0.22377069826E+04  0.22377069826E+04  0.50400001928E-02 0.  1.
    10030    2    1    2    0    0  0.00000000000E+00  0.00000000000E+00 -0.99693052875E+03  0.34784834364E+04  0.33325630584E+04 0.  0.
        4    1    3    3  502    0 -0.95165875458E+02 -0.14132234224E+04 -0.14145240404E+04  0.20017834197E+04  0.12699999809E+01 0.  1.
       -4    1    3    3    0  502  0.95165875458E+02  0.14132234224E+04  0.41759351170E+03  0.14767000167E+04  0.12699999809E+01 0. -1.
</event>
<event>
 5   0  0.9714317E-07  0.3401105E+04  0.7818609E-02  0.8137635E-01
       -1   -1    0    0    0  501  0.00000000000E+00  0.00000000000E+00  0.21200862755E+04  0.21200862755E+04  0.50400001928E-02 0.  1.
        1   -1    0    0  501    0  0.00000000000E+00  0.00000000000E+00 -0.13640378941E+04  0.13640378941E+04  0.50400001928E-02 0. -1.
    10030    2    1    2    0    0  0.00000000000E+00  0.00000000000E+00  0.75604838146E+03  0.34841241696E+04  0.34011045374E+04 0.  0.
        4    1    3    3  502    0  0.54684137817E+03  0.14307610135E+04 -0.37876691697E+03  0.15778398401E+04  0.12699999809E+01 0. -1.
       -4    1    3    3    0  502 -0.54684137817E+03 -0.14307610135E+04  0.11348152984E+04  0.19062843295E+04  0.12699999809E+01 0.  1.
</event>
<event>
 5   0  0.9232963E-07  0.2100646E+04  0.7818609E-02  0.8560959E-01
        1   -1    0    0  501    0  0.00000000000E+00  0.00000000000E+00  0.11176246802E+04  0.11176246802E+04  0.50400001928E-02 0.  1.
       -1   -1    0    0    0  501  0.00000000000E+00  0.00000000000E+00 -0.98707440220E+03  0.98707440222E+03  0.50400001928E-02 0. -1.
    10030    2    1    2    0    0  0.00000000000E+00  0.00000000000E+00  0.13055027802E+03  0.21046990824E+04  0.21006462940E+04 0.  0.
        3    1    3    3  502    0 -0.33400764088E+03 -0.19863528816E+03  0.10429454242E+04  0.11129924752E+04  0.10100000352E+00 0.  1.
       -3    1    3    3    0  502  0.33400764088E+03  0.19863528816E+03 -0.91239514617E+03  0.99170660723E+03  0.10100000352E+00 0. -1.
</event>
<event>
 5   0  0.2906701E-06  0.3363671E+04  0.7818609E-02  0.8146881E-01
        2   -1    0    0  501    0  0.00000000000E+00  0.00000000000E+00  0.26398818614E+04  0.26398818614E+04  0.25500000920E-02 0. -1.
       -2   -1    0    0    0  501  0.00000000000E+00  0.00000000000E+00 -0.10714761295E+04  0.10714761295E+04  0.25500000920E-02 0.  1.
    10030    2    1    2    0    0  0.00000000000E+00  0.00000000000E+00  0.15684057320E+04  0.37113579909E+04  0.33636708514E+04 0.  0.
        5    1    3    3  502    0 -0.77427438445E+03  0.93739949125E+03  0.20663541237E+04  0.23975112269E+04  0.46999998093E+01 0. -1.
       -5    1    3    3    0  502  0.77427438445E+03 -0.93739949125E+03 -0.49794839170E+03  0.13138467641E+04  0.46999998093E+01 0.  1.
</event>
<event>
 5   0  0.2664083E-06  0.3571116E+04  0.7818609E-02  0.8097140E-01
        2   -1    0    0  501    0  0.00000000000E+00  0.00000000000E+00  0.20209658575E+04  0.20209658575E+04  0.25500000920E-02 0. -1.
       -2   -1    0    0    0  501  0.00000000000E+00  0.00000000000E+00 -0.15775707639E+04  0.15775707639E+04  0.25500000920E-02 0.  1.
    10030    2    1    2    0    0  0.00000000000E+00  0.00000000000E+00  0.44339509353E+03  0.35985366214E+04  0.35711155969E+04 0.  0.
        2    1    3    3  502    0 -0.68677735108E+03  0.17067371241E+03 -0.14302266490E+04  0.15957258265E+04  0.25500000920E-02 0.  1.
       -2    1    3    3    0  502  0.68677735108E+03 -0.17067371241E+03  0.18736217425E+04  0.20028107949E+04  0.25500000920E-02 0. -1.
</event>
<event>
 5   0  0.1010551E-06  0.3379109E+04  0.7818609E-02  0.8143053E-01
       -1   -1    0    0    0  501  0.00000000000E+00  0.00000000000E+00  0.26572668773E+04  0.26572668773E+04  0.50400001928E-02 0. -1.
        1   -1    0    0  501    0  0.00000000000E+00  0.00000000000E+00 -0.10742594885E+04  0.10742594885E+04  0.50400001928E-02 0.  1.
    10030    2    1    2    0    0  0.00000000000E+00  0.00000000000E+00  0.15830073888E+04  0.37315263658E+04  0.33791088508E+04 0.  0.
        2    1    3    3  502    0  0.15308090628E+04 -0.52780633275E+03  0.25887459605E+03  0.16398085157E+04  0.25500000920E-02 0.  1.
       -2    1    3    3    0  502 -0.15308090628E+04  0.52780633275E+03  0.13241327927E+04  0.20917178501E+04  0.25500000920E-02 0. -1.
</event>
<event>
 5   0  0.1010855E-06  0.3410196E+04  0.7818609E-02  0.8135408E-01
        1   -1    0    0  501    0  0.00000000000E+00  0.00000000000E+00  0.12773683533E+04  0.12773683533E+04  0.50400001928E-02 0.  1.
       -1   -1    0    0    0  501  0.00000000000E+00  0.00000000000E+00 -0.22760544560E+04  0.22760544560E+04  0.50400001928E-02 0. -1.
    10030    2    1    2    0    0  0.00000000000E+00  0.00000000000E+00 -0.99868610274E+03  0.35534228093E+04  0.34101964357E+04 0.  0.
        1    1    3    3  502    0 -0.65593732253E+03 -0.13262666441E+03 -0.21334946560E+04  0.22359881598E+04  0.50400001928E-02 0. -1.
       -1    1    3    3    0  502  0.65593732253E+03  0.13262666441E+03  0.11348085533E+04  0.13174346496E+04  0.50400001928E-02 0.  1.
</event>
<event>
 5   0  0.9232963E-07  0.3366451E+04  0.7818609E-02  0.8146190E-01
        1   -1    0    0  501    0  0.00000000000E+00  0.00000000000E+00  0.20082279839E+04  0.20082279839E+04  0.50400001928E-02 0. -1.
       -1   -1    0    0    0  501  0.00000000000E+00  0.00000000000E+00 -0.14108201931E+04  0.14108201931E+04  0.50400001928E-02 0.  1.
    10030    2    1    2    0    0  0.00000000000E+00  0.00000000000E+00  0.59740779085E+03  0.34190481770E+04  0.33664513019E+04 0.  0.
        3    1    3    3  502    0  0.44590352748E+03 -0.25469214691E+03  0.19267303800E+04  0.19939879671E+04  0.10100000352E+00 0. -1.
       -3    1    3    3    0  502 -0.44590352748E+03  0.25469214691E+03 -0.13293225892E+04  0.14250602099E+04  0.10100000352E+00 0.  1.
</event>
<event>
 5   0  0.1010855E-06  0.3307800E+04  0.7818609E-02  0.8160913E-01
       -1   -1    0    0    0  501  0.00000000000E+00  0.00000000000E+00  0.11670655519E+04  0.11670655519E+04  0.50400001928E-02 0. -1.
        1   -1    0    0  501    0  0.00000000000E+00  0.00000000000E+00 -0.23438148522E+04  0.23438148522E+04  0.50400001928E-02 0.  1.
    10030    2    1    2    0    0  0.00000000000E+00  0.00000000000E+00 -0.11767493003E+04  0.35108804041E+04  0.33078002201E+04 0.  0.
        1    1    3    3  502    0 -0.14209441739E+04 -0.30492627027E+03 -0.14263541788E+04  0.20363075944E+04  0.50400001928E-02 0.  1.
       -1    1    3    3    0  502  0.14209441739E+04  0.30492627027E+03  0.24960487851E+03  0.14745728097E+04  0.50400001928E-02 0. -1.
</event>
<event>
 5   0  0.9714317E-07  0.2282062E+04  0.7818609E-02  0.8485027E-01
        1   -1    0    0  501    0  0.00000000000E+00  0.00000000000E+00  0.91498781189E+03  0.91498781190E+03  0.50400001928E-02 0. -1.
       -1   -1    0    0    0  501  0.00000000000E+00  0.00000000000E+00 -0.14229175103E+04  0.14229175103E+04  0.50400001928E-02 0.  1.
    10030    2    1    2    0    0  0.00000000000E+00  0.00000000000E+00 -0.50792969840E+03  0.23379053222E+04  0.22820623824E+04 0.  0.
        4    1    3    3  502    0  0.43335152693E+03  0.46213051611E+03  0.71825290554E+03  0.95773013372E+03  0.12699999809E+01 0. -1.
       -4    1    3    3    0  502 -0.43335152693E+03 -0.46213051611E+03 -0.12261826039E+04  0.13801751885E+04  0.12699999809E+01 0.  1.
</event>
<event>
 5   0  0.9714317E-07  0.3341030E+04  0.7818609E-02  0.8152533E-01
        1   -1    0    0  501    0  0.00000000000E+00  0.00000000000E+00  0.14831321459E+04  0.14831321459E+04  0.50400001928E-02 0. -1.
       -1   -1    0    0    0  501  0.00000000000E+00  0.00000000000E+00 -0.18815720764E+04  0.18815720764E+04  0.50400001928E-02 0.  1.
    10030    2    1    2    0    0  0.00000000000E+00  0.00000000000E+00 -0.39843993052E+03  0.33647042223E+04  0.33410298001E+04 0.  0.
        4    1    3    3  502    0 -0.83985677006E+03 -0.13338331755E+04  0.35800724677E+03  0.16163666465E+04  0.12699999809E+01 0. -1.
       -4    1    3    3    0  502  0.83985677006E+03  0.13338331755E+04 -0.75644717729E+03  0.17483375758E+04  0.12699999809E+01 0.  1.
</event>
<event>
 5   0  0.9232963E-07  0.3372427E+04  0.7818609E-02  0.8144707E-01
        1   -1    0    0  501    0  0.00000000000E+00  0.00000000000E+00  0.12956670596E+04  0.12956670596E+04  0.50400001928E-02 0. -1.
       -1   -1    0    0    0  501  0.00000000000E+00  0.00000000000E+00 -0.21944798619E+04  0.21944798619E+04  0.50400001928E-02 0.  1.
    10030    2    1    2    0    0  0.00000000000E+00  0.00000000000E+00 -0.89881280229E+03  0.34901469214E+04  0.33724265862E+04 0.  0.
        3    1    3    3  502    0  0.35360092683E+03 -0.10281196506E+04 -0.17832930170E+04  0.20885874715E+04  0.10100000352E+00 0.  1.
       -3    1    3    3    0  502 -0.35360092683E+03  0.10281196506E+04  0.88448021470E+03  0.14015594500E+04  0.10100000352E+00 0. -1.
</event>
<event>
 5   0  0.2664083E-06  0.3344879E+04  0.7818609E-02  0.8151569E-01
       -2   -1    0    0    0  501  0.00000000000E+00  0.00000000000E+00  0.12880073117E+04  0.12880073117E+04  0.25500000920E-02 0. -1.
        2   -1    0    0  501    0  0.00000000000E+00  0.00000000000E+00 -0.21716130059E+04  0.21716130059E+04  0.25500000920E-02 0.  1.
    10030    2    1    2    0    0  0.00000000000E+00  0.00000000000E+00 -0.88360569423E+03  0.34596203176E+04  0.33448787301E+04 0.  0.
        2    1    3    3  502    0 -0.14208905447E+04  0.71621109082E+03  0.90803448211E+02  0.15937796375E+04  0.25500000920E-02 0. -1.
       -2    1    3    3    0  502  0.14208905447E+04 -0.71621109082E+03 -0.97440914244E+03  0.18658406801E+04  0.25500000920E-02 0.  1.
</event>
<event>
 5   0  0.9070500E-07  0.3352566E+04  0.7818609E-02  0.8149647E-01
        3   -1    0    0  501    0  0.00000000000E+00  0.00000000000E+00  0.23200475225E+04  0.23200475247E+04  0.10100000352E+00 0. -1.
       -3   -1    0    0    0  501  0.00000000000E+00  0.00000000000E+00 -0.12111498714E+04  0.12111498756E+04  0.10100000352E+00 0.  1.
    10030    2    1    2    0    0  0.00000000000E+00  0.00000000000E+00  0.11088976511E+04  0.35311974003E+04  0.33525663423E+04 0.  0.
        4    1    3    3  502    0 -0.21132616528E+03 -0.46427274492E+03 -0.11274137112E+04  0.12374454408E+04  0.12699999809E+01 0.  1.
       -4    1    3    3    0  502  0.21132616528E+03  0.46427274492E+03  0.22363113623E+04  0.22937519595E+04  0.12699999809E+01 0. -1.
</event>
<event>
 5   0  0.2767014E-06  0.3237924E+04  0.7818609E-02  0.8178873E-01
       -2   -1    0    0    0  501  0.00000000000E+00  0.00000000000E+00  0.10614681902E+04  0.10614681902E+04  0.25500000920E-02 0.  1.
        2   -1    0    0  501    0  0.00000000000E+00  0.00000000000E+00 -0.24692570419E+04  0.24692570419E+04  0.25500000920E-02 0. -1.
    10030    2    1    2    0    0  0.00000000000E+00  0.00000000000E+00 -0.14077888517E+04  0.35307252321E+04  0.32379239049E+04 0.  0.
        1    1    3    3  502    0 -0.85804508802E+03  0.16454489329E+03  0.78234088777E+03  0.11727632582E+04  0.50400001928E-02 0.  1.
       -1    1    3    3    0  502  0.85804508802E+03 -0.16454489329E+03 -0.21901297394E+04  0.23579619739E+04  0.50400001928E-02 0. -1.
</event>
<event>
 5   0  0.9232963E-07  0.3397050E+04  0.7818609E-02  0.8138631E-01
       -1   -1    0    0    0  501  0.00000000000E+00  0.00000000000E+00  0.19247082416E+04  0.19247082416E+04  0.50400001928E-02 0.  1.
        1   -1    0    0  501    0  0.00000000000E+00  0.00000000000E+00 -0.14989216118E+04  0.14989216118E+04  0.50400001928E-02 0. -1.
    10030    2    1    2    0    0  0.00000000000E+00  0.00000000000E+00  0.42578662978E+03  0.34236298534E+04  0.33970497670E+04 0.  0.
        3    1    3    3  502    0  0.96469544484E+03  0.97165539064E+03  0.12258623242E+04  0.18377948600E+04  0.10100000352E+00 0.  1.
       -3    1    3    3    0  502 -0.96469544484E+03 -0.97165539064E+03 -0.80007569438E+03  0.15858349934E+04  0.10100000352E+00 0. -1.
</event>
<event>
 5   0  0.2767014E-06  0.3216108E+04  0.7818609E-02  0.8184576E-01
       -2   -1    0    0    0  501  0.00000000000E+00  0.00000000000E+00  0.10041649761E+04  0.10041649761E+04  0.25500000920E-02 0.  1.
        2   -1    0    0  501    0  0.00000000000E+00  0.00000000000E+00 -0.25751124097E+04  0.25751124097E+04  0.25500000920E-02 0. -1.
    10030    2    1    2    0    0  0.00000000000E+00  0.00000000000E+00 -0.15709474336E+04  0.35792773859E+04  0.32161080152E+04 0.  0.
        1    1    3    3  502    0 -0.93397658337E+03  0.76482926260E+02  0.66887128086E+03  0.11513256215E+04  0.50400001928E-02 0.  1.
       -1    1    3    3    0  502  0.93397658337E+03 -0.76482926260E+02 -0.22398187145E+04  0.24279517644E+04  0.50400001928E-02 0. -1.
</event>
<event>
 5   0  0.1010855E-06  0.3402145E+04  0.7818609E-02  0.8137380E-01
        1   -1    0    0  501    0  0.00000000000E+00  0.00000000000E+00  0.10445566853E+04  0.10445566853E+04  0.50400001928E-02 0.  1.
       -1   -1    0    0    0  501  0.00000000000E+00  0.00000000000E+00 -0.27702159507E+04  0.27702159507E+04  0.50400001928E-02 0. -1.
    10030    2    1    2    0    0  0.00000000000E+00  0.00000000000E+00 -0.17256592654E+04  0.38147726360E+04  0.34021449652E+04 0.  0.
        1    1    3    3  502    0 -0.43619497284E+03 -0.14499639615E+04  0.64270504412E+01  0.15141673788E+04  0.50400001928E-02 0.  1.
       -1    1    3    3    0  502  0.43619497284E+03  0.14499639615E+04 -0.17320863159E+04  0.23006052572E+04  0.50400001928E-02 0. -1.
</event>
<event>
 5   0  0.2906701E-06  0.3366052E+04  0.7818609E-02  0.8146289E-01
        2   -1    0    0  501    0  0.00000000000E+00  0.00000000000E+00  0.18293861892E+04  0.18293861892E+04  0.25500000920E-02 0.  1.
       -2   -1    0    0    0  501  0.00000000000E+00  0.00000000000E+00 -0.15483751129E+04  0.15483751129E+04  0.25500000920E-02 0. -1.
    10030    2    1    2    0    0  0.00000000000E+00  0.00000000000E+00  0.28101107632E+03  0.33777613022E+04  0.33660517212E+04 0.  0.
        5    1    3    3  502    0  0.15108721914E+04 -0.17817579532E+03 -0.58177093376E+03  0.16287912396E+04  0.46999998093E+01 0. -1.
       -5    1    3    3    0  502 -0.15108721914E+04  0.17817579532E+03  0.86278201008E+03  0.17489700626E+04  0.46999998093E+01 0.  1.
</event>
<event>
 5   0  0.1010551E-06  0.3575509E+04  0.7818609E-02  0.8096125E-01
       -1   -1    0    0    0  501  0.00000000000E+00  0.00000000000E+00  0.29736341480E+04  0.29736341480E+04  0.50400001928E-02 0.  1.
        1   -1    0    0  501    0  0.00000000000E+00  0.00000000000E+00 -0.10748015707E+04  0.10748015707E+04  0.50400001928E-02 0. -1.
    10030    2    1    2    0    0  0.00000000000E+00  0.00000000000E+00  0.18988325773E+04  0.40484357187E+04  0.35755092801E+04 0.  0.
        2    1    3    3  502    0  0.11147498001E+04 -0.74536125087E+02  0.25296685243E+04  0.27654015248E+04  0.25500000920E-02 0.  1.
       -2    1    3    3    0  502 -0.11147498001E+04  0.74536125087E+02 -0.63083594703E+03  0.12830341939E+04  0.25500000920E-02 0. -1.
</event>
<event>
 5   0  0.2848685E-06  0.3434644E+04  0.7818609E-02  0.8129456E-01
       -2   -1    0    0    0  501  0.00000000000E+00  0.00000000000E+00  0.19593281547E+04  0.19593281547E+04  0.25500000920E-02 0.  1.
        2   -1    0    0  501    0  0.00000000000E+00  0.00000000000E+00 -0.15052069322E+04  0.15052069322E+04  0.25500000920E-02 0. -1.
    10030    2    1    2    0    0  0.00000000000E+00  0.00000000000E+00  0.45412122251E+03  0.34645350869E+04  0.34346436910E+04 0.  0.
        3    1    3    3  502    0  0.13518101414E+04  0.93876474479E+03  0.72176168103E+03  0.17971115266E+04  0.10100000352E+00 0.  1.
       -3    1    3    3    0  502 -0.13518101414E+04 -0.93876474479E+03 -0.26764045852E+03  0.16674235604E+04  0.10100000352E+00 0. -1.
</event>
<event>
 5   0  0.2664083E-06  0.3400717E+04  0.7818609E-02  0.8137730E-01
        2   -1    0    0  501    0  0.00000000000E+00  0.00000000000E+00  0.15814875505E+04  0.15814875505E+04  0.25500000920E-02 0.  1.
       -2   -1    0    0    0  501  0.00000000000E+00  0.00000000000E+00 -0.18281637605E+04  0.18281637605E+04  0.25500000920E-02 0. -1.
    10030    2    1    2    0    0  0.00000000000E+00  0.00000000000E+00 -0.24667621003E+03  0.34096513111E+04  0.34007165290E+04 0.  0.
        2    1    3    3  502    0  0.28496701545E+03 -0.12723508328E+04  0.97092082407E+03  0.16256598932E+04  0.25500000920E-02 0.  1.
       -2    1    3    3    0  502 -0.28496701545E+03  0.12723508328E+04 -0.12175970341E+04  0.17839914179E+04  0.25500000920E-02 0. -1.
</event>
<event>
 5   0  0.1010551E-06  0.2566309E+04  0.7818609E-02  0.8379736E-01
       -1   -1    0    0    0  501  0.00000000000E+00  0.00000000000E+00  0.12298573238E+04  0.12298573238E+04  0.50400001928E-02 0.  1.
        1   -1    0    0  501    0  0.00000000000E+00  0.00000000000E+00 -0.13387608606E+04  0.13387608606E+04  0.50400001928E-02 0. -1.
    10030    2    1    2    0    0  0.00000000000E+00  0.00000000000E+00 -0.10890353682E+03  0.25686181844E+04  0.25663085155E+04 0.  0.
        2    1    3    3  502    0 -0.44133606017E+03 -0.25379449159E+03 -0.12333469858E+04  0.13342915534E+04  0.25500000920E-02 0. -1.
       -2    1    3    3    0  502  0.44133606017E+03  0.25379449159E+03  0.11244434490E+04  0.12343266310E+04  0.25500000920E-02 0.  1.
</event>
<event>
 5   0  0.2906701E-06  0.3379608E+04  0.7818609E-02  0.8142929E-01
        2   -1    0    0  501    0  0.00000000000E+00  0.00000000000E+00  0.15871832865E+04  0.15871832865E+04  0.25500000920E-02 0.  1.
       -2   -1    0    0    0  501  0.00000000000E+00  0.00000000000E+00 -0.17990602072E+04  0.17990602072E+04  0.25500000920E-02 0. -1.
    10030    2    1    2    0    0  0.00000000000E+00  0.00000000000E+00 -0.21187692068E+03  0.33862434936E+04  0.33796084342E+04 0.  0.
        5    1    3    3  502    0 -0.27211559001E+03  0.15502885876E+04  0.51006493807E+03  0.16545784751E+04  0.46999998093E+01 0. -1.
       -5    1    3    3    0  502  0.27211559001E+03 -0.15502885876E+04 -0.72194185874E+03  0.17316650186E+04  0.46999998093E+01 0.  1.
</event>
<event>
 5   0  0.2906701E-06  0.2635401E+04  0.7818609E-02  0.8356275E-01
       -2   -1    0    0    0  501  0.00000000000E+00  0.00000000000E+00  0.18453177695E+04  0.18453177695E+04  0.25500000920E-02 0.  1.
        2   -1    0    0  501    0  0.00000000000E+00  0.00000000000E+00 -0.94094039551E+03  0.94094039552E+03  0.25500000920E-02 0. -1.
    10030    2    1    2    0    0  0.00000000000E+00  0.00000000000E+00  0.90437737396E+03  0.27862581650E+04  0.26354005630E+04 0.  0.
        5    1    3    3  502    0  0.10759978670E+04 -0.64281128083E+03  0.88207741214E+03  0.15326644785E+04  0.46999998093E+01 0.  1.
       -5    1    3    3    0  502 -0.10759978670E+04  0.64281128083E+03  0.22299961820E+02  0.12535936865E+04  0.46999998093E+01 0. -1.
</event>
<event>
 5   0  0.2848685E-06  0.3462709E+04  0.7818609E-02  0.8122685E-01
       -2   -1    0    0    0  501  0.00000000000E+00  0.00000000000E+00  0.13442099304E+04  0.13442099304E+04  0.25500000920E-02 0. -1.
        2   -1    0    0  501    0  0.00000000000E+00  0.00000000000E+00 -0.22299999190E+04  0.22299999190E+04  0.25500000920E-02 0.  1.
    10030    2    1    2    0    0  0.00000000000E+00  0.00000000000E+00 -0.88578998862E+03  0.35742098494E+04  0.34627087870E+04 0.  0.
        3    1    3    3  502    0 -0.27670703964E+02  0.12347743780E+04 -0.16952884438E+04  0.20974833373E+04  0.10100000352E+00 0.  1.
       -3    1    3    3    0  502  0.27670703964E+02 -0.12347743780E+04  0.80949845513E+03  0.14767265121E+04  0.10100000352E+00 0. -1.
</event>
<event>
 5   0  0.2767014E-06  0.3407872E+04  0.7818609E-02  0.8135977E-01
        2   -1    0    0  501    0  0.00000000000E+00  0.00000000000E+00  0.18346585032E+04  0.18346585032E+04  0.25500000920E-02 0. -1.
       -2   -1    0    0    0  501  0.00000000000E+00  0.00000000000E+00 -0.15825279613E+04  0.15825279613E+04  0.25500000920E-02 0.  1.
    10030    2    1    2    0    0  0.00000000000E+00  0.00000000000E+00  0.25213054188E+03  0.34171864645E+04  0.34078722868E+04 0.  0.
        1    1    3    3  502    0  0.13814729572E+04 -0.99034166940E+03  0.67685657626E+01  0.16997911539E+04  0.50400001928E-02 0.  1.
       -1    1    3    3    0  502 -0.13814729572E+04  0.99034166940E+03  0.24536197612E+03  0.17173953106E+04  0.50400001928E-02 0. -1.
</event>
<event>
 5   0  0.1003191E-06  0.3338794E+04  0.7818609E-02  0.8153094E-01
        1   -1    0    0  501    0  0.00000000000E+00  0.00000000000E+00  0.17256444687E+04  0.17256444687E+04  0.50400001928E-02 0. -1.
       -1   -1    0    0    0  501  0.00000000000E+00  0.00000000000E+00 -0.16149827023E+04  0.16149827023E+04  0.50400001928E-02 0.  1.
    10030    2    1    2    0    0  0.00000000000E+00  0.00000000000E+00  0.11066176645E+03  0.33406271710E+04  0.33387937746E+04 0.  0.
        5    1    3    3  502    0 -0.13644112220E+04 -0.66052975638E+03  0.75496183077E+03  0.16934895919E+04  0.46999998093E+01 0. -1.
       -5    1    3    3    0  502  0.13644112220E+04  0.66052975638E+03 -0.64430006432E+03  0.16471375792E+04  0.46999998093E+01 0.  1.
</event>
<event>
 5   0  0.1010855E-06  0.3506039E+04  0.7818609E-02  0.8112360E-01
        1   -1    0    0  501    0  0.00000000000E+00  0.00000000000E+00  0.13560655664E+04  0.13560655664E+04  0.50400001928E-02 0.  1.
       -1   -1    0    0    0  501  0.00000000000E+00  0.00000000000E+00 -0.22661721933E+04  0.22661721933E+04  0.50400001928E-02 0. -1.
    10030    2    1    2    0    0  0.00000000000E+00  0.00000000000E+00 -0.91010662684E+03  0.36222377597E+04  0.35060394059E+04 0.  0.
        1    1    3    3  502    0 -0.36490484657E+03 -0.10165785896E+04  0.97146543423E+03  0.14526984084E+04  0.50400001928E-02 0.  1.
       -1    1    3    3    0  502  0.36490484657E+03  0.10165785896E+04 -0.18815720611E+04  0.21695393513E+04  0.50400001928E-02 0. -1.
</event>
<event>
 5   0  0.2664083E-06  0.3404188E+04  0.7818609E-02  0.8136879E-01
       -2   -1    0    0    0  501  0.00000000000E+00  0.00000000000E+00  0.10310375329E+04  0.10310375329E+04  0.25500000920E-02 0.  1.
        2   -1    0    0  501    0  0.00000000000E+00  0.00000000000E+00 -0.28099116879E+04  0.28099116879E+04  0.25500000920E-02 0. -1.
    10030    2    1    2    0    0  0.00000000000E+00  0.00000000000E+00 -0.17788741549E+04  0.38409492208E+04  0.34041882524E+04 0.  0.
        2    1    3    3  502    0  0.14425117194E+04 -0.63940050921E+02  0.12740948883E+03  0.14495383985E+04  0.25500000920E-02 0.  1.
       -2    1    3    3    0  502 -0.14425117194E+04  0.63940050921E+02 -0.19062836438E+04  0.23914108224E+04  0.25500000920E-02 0. -1.
</event>
<event>
 5   0  0.1010551E-06  0.3435318E+04  0.7818609E-02  0.8129292E-01
        1   -1    0    0  501    0  0.00000000000E+00  0.00000000000E+00  0.20182082634E+04  0.20182082634E+04  0.50400001928E-02 0. -1.
       -1   -1    0    0    0  501  0.00000000000E+00  0.00000000000E+00 -0.14618670774E+04  0.14618670774E+04  0.50400001928E-02 0.  1.
    10030    2    1    2    0    0  0.00000000000E+00  0.00000000000E+00  0.55634118598E+03  0.34800753408E+04  0.34353178692E+04 0.  0.
        2    1    3    3  502    0 -0.56625644095E+03  0.16135586582E+04  0.11440325788E+03  0.17138570552E+04  0.25500000920E-02 0.  1.
       -2    1    3    3    0  502  0.56625644095E+03 -0.16135586582E+04  0.44193792810E+03  0.17662182856E+04  0.25500000920E-02 0. -1.
</event>
<event>
 5   0  0.2767014E-06  0.3376853E+04  0.7818609E-02  0.8143611E-01
       -2   -1    0    0    0  501  0.00000000000E+00  0.00000000000E+00  0.12868130096E+04  0.12868130096E+04  0.25500000920E-02 0.  1.
        2   -1    0    0  501    0  0.00000000000E+00  0.00000000000E+00 -0.22153833264E+04  0.22153833264E+04  0.25500000920E-02 0. -1.
    10030    2    1    2    0    0  0.00000000000E+00  0.00000000000E+00 -0.92857031685E+03  0.35021963360E+04  0.33768530235E+04 0.  0.
        1    1    3    3  502    0 -0.40219285691E+03  0.15589643889E+04  0.63173943860E+02  0.16112479658E+04  0.50400001928E-02 0. -1.
       -1    1    3    3    0  502  0.40219285691E+03 -0.15589643889E+04 -0.99174426071E+03  0.18909483702E+04  0.50400001928E-02 0.  1.
</event>
<event>
 5   0  0.2906701E-06  0.3362826E+04  0.7818609E-02  0.8147091E-01
       -2   -1    0    0    0  501  0.00000000000E+00  0.00000000000E+00  0.14159421673E+04  0.14159421673E+04  0.25500000920E-02 0.  1.
        2   -1    0    0  501    0  0.00000000000E+00  0.00000000000E+00 -0.19966560189E+04  0.19966560189E+04  0.25500000920E-02 0. -1.
    10030    2    1    2    0    0  0.00000000000E+00  0.00000000000E+00 -0.58071385167E+03  0.34125981862E+04  0.33628258657E+04 0.  0.
        5    1    3    3  502    0  0.39936970062E+03  0.41297772684E+03  0.13132468004E+04  0.14334175977E+04  0.46999998093E+01 0.  1.
       -5    1    3    3    0  502 -0.39936970062E+03 -0.41297772684E+03 -0.18939606520E+04  0.19791805885E+04  0.46999998093E+01 0. -1.
</event>
<event>
 5   0  0.1003191E-06  0.3401138E+04  0.7818609E-02  0.8137627E-01
       -1   -1    0    0    0  501  0.00000000000E+00  0.00000000000E+00  0.10661089117E+04  0.10661089117E+04  0.50400001928E-02 0.  1.
        1   -1    0    0  501    0  0.00000000000E+00  0.00000000000E+00 -0.27126067564E+04  0.27126067564E+04  0.50400001928E-02 0. -1.
    10030    2    1    2    0    0  0.00000000000E+00  0.00000000000E+00 -0.16464978447E+04  0.37787156681E+04  0.34011375961E+04 0.  0.
        5    1    3    3  502    0  0.11004722638E+04  0.12866350521E+04 -0.64603176702E+03  0.18121390936E+04  0.46999998093E+01 0.  1.
       -5    1    3    3    0  502 -0.11004722638E+04 -0.12866350521E+04 -0.10004660777E+04  0.19665765745E+04  0.46999998093E+01 0. -1.
</event>
<event>
 5   0  0.1003191E-06  0.3392888E+04  0.7818609E-02  0.8139654E-01
        1   -1    0    0  501    0  0.00000000000E+00  0.00000000000E+00  0.26965751784E+04  0.26965751784E+04  0.50400001928E-02 0. -1.
       -1   -1    0    0    0  501  0.00000000000E+00  0.00000000000E+00 -0.10672508951E+04  0.10672508951E+04  0.50400001928E-02 0.  1.
    10030    2    1    2    0    0  0.00000000000E+00  0.00000000000E+00  0.16293242833E+04  0.37638260736E+04  0.33928880164E+04 0.  0.
        5    1    3    3  502    0 -0.78812645405E+03 -0.83154783852E+03 -0.57323327558E+03  0.12811063943E+04  0.46999998093E+01 0.  1.
       -5    1    3    3    0  502  0.78812645405E+03  0.83154783852E+03  0.22025575589E+04  0.24827196792E+04  0.46999998093E+01 0. -1.
</event>
<event>
 5   0  0.2767014E-06  0.3413391E+04  0.7818609E-02  0.8134628E-01
       -2   -1    0    0    0  501  0.00000000000E+00  0.00000000000E+00  0.16557183084E+04  0.16557183084E+04  0.25500000920E-02 0. -1.
        2   -1    0    0  501    0  0.00000000000E+00  0.00000000000E+00 -0.17592418466E+04  0.17592418466E+04  0.25500000920E-02 0.  1.
    10030    2    1    2    0    0  0.00000000000E+00  0.00000000000E+00 -0.10352353825E+03  0.34149601550E+04  0.34133906511E+04 0.  0.
        1    1    3    3  502    0  0.12548550552E+04  0.11567637366E+04 -0.45022025233E+02  0.17072757641E+04  0.50400001928E-02 0.  1.
       -1    1    3    3    0  502 -0.12548550552E+04 -0.11567637366E+04 -0.58501513015E+02  0.17076843909E+04  0.50400001928E-02 0. -1.
</event>
<event>
 5   0  0.2856440E-06  0.3346715E+04  0.7818609E-02  0.8151109E-01
        2   -1    0    0  501    0  0.00000000000E+00  0.00000000000E+00  0.11129194458E+04  0.11129194458E+04  0.25500000920E-02 0. -1.
       -2   -1    0    0    0  501  0.00000000000E+00  0.00000000000E+00 -0.25160184322E+04  0.25160184322E+04  0.25500000920E-02 0.  1.
    10030    2    1    2    0    0  0.00000000000E+00  0.00000000000E+00 -0.14030989864E+04  0.36289378779E+04  0.33467153085E+04 0.  0.
        4    1    3    3  502    0  0.41950354265E+03  0.83881495480E+03 -0.22042463052E+04  0.23954743033E+04  0.12699999809E+01 0.  1.
       -4    1    3    3    0  502 -0.41950354265E+03 -0.83881495480E+03  0.80114731881E+03  0.12334635747E+04  0.12699999809E+01 0. -1.
</event>
<event>
 5   0  0.1010551E-06  0.3396588E+04  0.7818609E-02  0.8138744E-01
        1   -1    0    0  501    0  0.00000000000E+00  0.00000000000E+00  0.18592742989E+04  0.18592742990E+04  0.50400001928E-02 0.  1.
       -1   -1    0    0    0  501  0.00000000000E+00  0.00000000000E+00 -0.15512521551E+04  0.15512521551E+04  0.50400001928E-02 0. -1.
    10030    2    1    2    0    0  0.00000000000E+00  0.00000000000E+00  0.30802214385E+03  0.34105264541E+04  0.33965884432E+04 0.  0.
        2    1    3    3  502    0 -0.45319832577E+03  0.14885734993E+04  0.83721736938E+03  0.17669670934E+04  0.25500000920E-02 0.  1.
       -2    1    3    3    0  502  0.45319832577E+03 -0.14885734993E+04 -0.52919522553E+03  0.16435593607E+04  0.25500000920E-02 0. -1.
</event>
<event>
 5   0  0.9714317E-07  0.3352082E+04  0.7818609E-02  0.8149768E-01
       -1   -1    0    0    0  501  0.00000000000E+00  0.00000000000E+00  0.12084823362E+04  0.12084823362E+04  0.50400001928E-02 0.  1.
        1   -1    0    0  501    0  0.00000000000E+00  0.00000000000E+00 -0.23244972382E+04  0.23244972382E+04  0.50400001928E-02 0. -1.
    10030    2    1    2    0    0  0.00000000000E+00  0.00000000000E+00 -0.11160149020E+04  0.35329795744E+04  0.33520822502E+04 0.  0.
        4    1    3    3  502    0  0.40674148926E+02 -0.30034430591E+03 -0.22953735821E+04  0.23152975150E+04  0.12699999809E+01 0. -1.
       -4    1    3    3    0  502 -0.40674148926E+02  0.30034430591E+03  0.11793586802E+04  0.12176820594E+04  0.12699999809E+01 0.  1.
</event>
<event>
 5   0  0.2848685E-06  0.3406125E+04  0.7818609E-02  0.8136405E-01
        2   -1    0    0  501    0  0.00000000000E+00  0.00000000000E+00  0.23466174609E+04  0.23466174609E+04  0.25500000920E-02 0.  1.
       -2   -1    0    0    0  501  0.00000000000E+00  0.00000000000E+00 -0.12360014988E+04  0.12360014988E+04  0.25500000920E-02 0. -1.
    10030    2    1    2    0    0  0.00000000000E+00  0.00000000000E+00  0.11106159621E+04  0.35826189598E+04  0.34061254815E+04 0.  0.
        3    1    3    3  502    0  0.75919669702E+03 -0.81505516821E+03 -0.79975179843E+03  0.13712394033E+04  0.10100000352E+00 0. -1.
       -3    1    3    3    0  502 -0.75919669702E+03  0.81505516821E+03  0.19103677605E+04  0.22113795564E+04  0.10100000352E+00 0.  1.
</event>
<event>
 5   0  0.1010855E-06  0.3413546E+04  0.7818609E-02  0.8134590E-01
       -1   -1    0    0    0  501  0.00000000000E+00  0.00000000000E+00  0.10880590342E+04  0.10880590342E+04  0.50400001928E-02 0.  1.
        1   -1    0    0  501    0  0.00000000000E+00  0.00000000000E+00 -0.26773117520E+04  0.26773117520E+04  0.50400001928E-02 0. -1.
    10030    2    1    2    0    0  0.00000000000E+00  0.00000000000E+00 -0.15892527179E+04  0.37653707862E+04  0.34135455111E+04 0.  0.
        1    1    3    3  502    0  0.13125636795E+04  0.79845561655E+03 -0.16147022303E+04  0.22288153977E+04  0.50400001928E-02 0. -1.
       -1    1    3    3    0  502 -0.13125636795E+04 -0.79845561655E+03  0.25449512393E+02  0.15365553885E+04  0.50400001928E-02 0.  1.
</event>
<event>
 5   0  0.2906701E-06  0.2793229E+04  0.7818609E-02  0.8305374E-01
        2   -1    0    0  501    0  0.00000000000E+00  0.00000000000E+00  0.25590174242E+04  0.25590174242E+04  0.25500000920E-02 0.  1.
       -2   -1    0    0    0  501  0.00000000000E+00  0.00000000000E+00 -0.76221917362E+03  0.76221917362E+03  0.25500000920E-02 0. -1.
    10030    2    1    2    0    0  0.00000000000E+00  0.00000000000E+00  0.17967982506E+04  0.33212365978E+04  0.27932290607E+04 0.  0.
        5    1    3    3  502    0 -0.14806579450E+03  0.13731023347E+04  0.65133069389E+03  0.15269535893E+04  0.46999998093E+01 0. -1.
       -5    1    3    3    0  502  0.14806579450E+03 -0.13731023347E+04  0.11454675567E+04  0.17942830085E+04  0.46999998093E+01 0.  1.
</event>
<event>
 5   0  0.1010551E-06  0.3448791E+04  0.7818609E-02  0.8126034E-01
        1   -1    0    0  501    0  0.00000000000E+00  0.00000000000E+00  0.16982433037E+04  0.16982433037E+04  0.50400001928E-02 0. -1.
       -1   -1    0    0    0  501  0.00000000000E+00  0.00000000000E+00 -0.17509507645E+04  0.17509507645E+04  0.50400001928E-02 0.  1.
    10030    2    1    2    0    0  0.00000000000E+00  0.00000000000E+00 -0.52707460773E+02  0.34491940682E+04  0.34487913308E+04 0.  0.
        2    1    3    3  502    0 -0.80511474577E+03 -0.13238724773E+04 -0.78320647855E+03  0.17361625725E+04  0.25500000920E-02 0.  1.
       -2    1    3    3    0  502  0.80511474577E+03  0.13238724773E+04  0.73049901778E+03  0.17130314957E+04  0.25500000920E-02 0. -1.
</event>
<event>
 5   0  0.2767014E-06  0.2707079E+04  0.7818609E-02  0.8332712E-01
        2   -1    0    0  501    0  0.00000000000E+00  0.00000000000E+00  0.26228312160E+04  0.26228312160E+04  0.25500000920E-02 0.  1.
       -2   -1    0    0    0  501  0.00000000000E+00  0.00000000000E+00 -0.69850809985E+03  0.69850809986E+03  0.25500000920E-02 0. -1.
    10030    2    1    2    0    0  0.00000000000E+00  0.00000000000E+00  0.19243231162E+04  0.33213393159E+04  0.27070787569E+04 0.  0.
        1    1    3    3  502    0  0.66680320814E+03 -0.74304440299E+03 -0.15918719647E+03  0.10109807450E+04  0.50400001928E-02 0. -1.
       -1    1    3    3    0  502 -0.66680320814E+03  0.74304440299E+03  0.20835103126E+04  0.23103585709E+04  0.50400001928E-02 0.  1.
</event>
<event>
 5   0  0.2664083E-06  0.3375732E+04  0.7818609E-02  0.8143888E-01
        2   -1    0    0  501    0  0.00000000000E+00  0.00000000000E+00  0.20688912235E+04  0.20688912235E+04  0.25500000920E-02 0. -1.
       -2   -1    0    0    0  501  0.00000000000E+00  0.00000000000E+00 -0.13770141250E+04  0.13770141250E+04  0.25500000920E-02 0.  1.
    10030    2    1    2    0    0  0.00000000000E+00  0.00000000000E+00  0.69187709852E+03  0.34459053485E+04  0.33757324763E+04 0.  0.
        2    1    3    3  502    0  0.49674311965E+03  0.45407353966E+03  0.19260027564E+04  0.20402017361E+04  0.25500000920E-02 0. -1.
       -2    1    3    3    0  502 -0.49674311965E+03 -0.45407353966E+03 -0.12341256579E+04  0.14057036124E+04  0.25500000920E-02 0.  1.
</event>
<event>
 5   0  0.9714317E-07  0.3761460E+04  0.7818609E-02  0.8054476E-01
        1   -1    0    0  501    0  0.00000000000E+00  0.00000000000E+00  0.14247609224E+04  0.14247609224E+04  0.50400001928E-02 0.  1.
       -1   -1    0    0    0  501  0.00000000000E+00  0.00000000000E+00 -0.24826239332E+04  0.24826239332E+04  0.50400001928E-02 0. -1.
    10030    2    1    2    0    0  0.00000000000E+00  0.00000000000E+00 -0.10578630108E+04  0.39073848555E+04  0.37614601233E+04 0.  0.
        4    1    3    3  502    0 -0.90071558101E+03 -0.14794231502E+04  0.23241539654E+03  0.17475697253E+04  0.12699999809E+01 0. -1.
       -4    1    3    3    0  502  0.90071558101E+03  0.14794231502E+04 -0.12902784073E+04  0.21598151302E+04  0.12699999809E+01 0.  1.
</event>
<event>
 5   0  0.2856440E-06  0.3303051E+04  0.7818609E-02  0.8162120E-01
        2   -1    0    0  501    0  0.00000000000E+00  0.00000000000E+00  0.14045805939E+04  0.14045805939E+04  0.25500000920E-02 0.  1.
       -2   -1    0    0    0  501  0.00000000000E+00  0.00000000000E+00 -0.19418863060E+04  0.19418863060E+04  0.25500000920E-02 0. -1.
    10030    2    1    2    0    0  0.00000000000E+00  0.00000000000E+00 -0.53730571213E+03  0.33464668999E+04  0.33030506026E+04 0.  0.
        4    1    3    3  502    0 -0.12577505625E+04  0.46262813562E+03 -0.12465197399E+04  0.18302388763E+04  0.12699999809E+01 0. -1.
       -4    1    3    3    0  502  0.12577505625E+04 -0.46262813562E+03  0.70921402780E+03  0.15162280236E+04  0.12699999809E+01 0.  1.
</event>
<event>
 5   0  0.2906701E-06  0.3436745E+04  0.7818609E-02  0.8128946E-01
       -2   -1    0    0    0  501  0.00000000000E+00  0.00000000000E+00  0.12376260002E+04  0.12376260002E+04  0.25500000920E-02 0.  1.
        2   -1    0    0  501    0  0.00000000000E+00  0.00000000000E+00 -0.23858614069E+04  0.23858614069E+04  0.25500000920E-02 0. -1.
    10030    2    1    2    0    0  0.00000000000E+00  0.00000000000E+00 -0.11482354068E+04  0.36234874071E+04  0.34367450357E+04 0.  0.
        5    1    3    3  502    0  0.11449132528E+04 -0.25886627674E+03  0.74904115484E+03  0.13924520988E+04  0.46999998093E+01 0.  1.
       -5    1    3    3    0  502 -0.11449132528E+04  0.25886627674E+03 -0.18972765616E+04  0.22310353083E+04  0.46999998093E+01 0. -1.
</event>
<event>
 5   0  0.1010855E-06  0.2947841E+04  0.7818609E-02  0.8258784E-01
       -1   -1    0    0    0  501  0.00000000000E+00  0.00000000000E+00  0.11326383690E+04  0.11326383690E+04  0.50400001928E-02 0. -1.
        1   -1    0    0  501    0  0.00000000000E+00  0.00000000000E+00 -0.19180360465E+04  0.19180360465E+04  0.50400001928E-02 0.  1.
    10030    2    1    2    0    0  0.00000000000E+00  0.00000000000E+00 -0.78539767753E+03  0.30506744155E+04  0.29478407144E+04 0.  0.
        1    1    3    3  502    0 -0.87954884326E+03 -0.88795112415E+03 -0.12012197011E+04  0.17334913144E+04  0.50400001928E-02 0.  1.
       -1    1    3    3    0  502  0.87954884326E+03  0.88795112415E+03  0.41582202361E+03  0.13171831011E+04  0.50400001928E-02 0. -1.
</event>
<event>
 5   0  0.2856440E-06  0.2483783E+04  0.7818609E-02  0.8408786E-01
        2   -1    0    0  501    0  0.00000000000E+00  0.00000000000E+00  0.19835549845E+04  0.19835549845E+04  0.25500000920E-02 0.  1.
       -2   -1    0    0    0  501  0.00000000000E+00  0.00000000000E+00 -0.77754027730E+03  0.77754027731E+03  0.25500000920E-02 0. -1.
    10030    2    1    2    0    0  0.00000000000E+00  0.00000000000E+00  0.12060147072E+04  0.27610952618E+04  0.24837825128E+04 0.  0.
        4    1    3    3  502    0  0.14073256962E+03 -0.11611839455E+04  0.13911716638E+03  0.11779257236E+04  0.12699999809E+01 0. -1.
       -4    1    3    3    0  502 -0.14073256962E+03  0.11611839455E+04  0.10668975408E+04  0.15831695382E+04  0.12699999809E+01 0.  1.
</event>
<event>
 5   0  0.9232963E-07  0.3402559E+04  0.7818609E-02  0.8137278E-01
        1   -1    0    0  501    0  0.00000000000E+00  0.00000000000E+00  0.24927343206E+04  0.24927343206E+04  0.50400001928E-02 0.  1.
       -1   -1    0    0    0  501  0.00000000000E+00  0.00000000000E+00 -0.11611154547E+04  0.11611154547E+04  0.50400001928E-02 0. -1.
    10030    2    1    2    0    0  0.00000000000E+00  0.00000000000E+00  0.13316188659E+04  0.36538497754E+04  0.34025592393E+04 0.  0.
        3    1    3    3  502    0  0.11120668724E+04  0.93493811328E+03  0.16163670395E+04  0.21733486653E+04  0.10100000352E+00 0.  1.
       -3    1    3    3    0  502 -0.11120668724E+04 -0.93493811328E+03 -0.28474817355E+03  0.14805011101E+04  0.10100000352E+00 0. -1.
</event>
<event>
 5   0  0.1010551E-06  0.3318824E+04  0.7818609E-02  0.8158122E-01
        1   -1    0    0  501    0  0.00000000000E+00  0.00000000000E+00  0.27992032482E+04  0.27992032482E+04  0.50400001928E-02 0.  1.
       -1   -1    0    0    0  501  0.00000000000E+00  0.00000000000E+00 -0.98372581005E+03  0.98372581006E+03  0.50400001928E-02 0. -1.
    10030    2    1    2    0    0  0.00000000000E+00  0.00000000000E+00  0.18154774381E+04  0.37829290583E+04  0.33188241790E+04 0.  0.
        2    1    3    3  502    0  0.53367364863E+03 -0.30488683696E+03  0.26646775988E+04  0.27346426187E+04  0.25500000920E-02 0.  1.
       -2    1    3    3    0  502 -0.53367364863E+03  0.30488683696E+03 -0.84920016062E+03  0.10482864396E+04  0.25500000920E-02 0. -1.
</event>
<event>
 5   0  0.1010551E-06  0.3152015E+04  0.7818609E-02  0.8201606E-01
       -1   -1    0    0    0  501  0.00000000000E+00  0.00000000000E+00  0.21122172408E+04  0.21122172408E+04  0.50400001928E-02 0. -1.
        1   -1    0    0  501    0  0.00000000000E+00  0.00000000000E+00 -0.11759205594E+04  0.11759205594E+04  0.50400001928E-02 0.  1.
    10030    2    1    2    0    0  0.00000000000E+00  0.00000000000E+00  0.93629668132E+03  0.32881378002E+04  0.31520150250E+04 0.  0.
        2    1    3    3  502    0  0.89093830825E+03  0.11801828887E+04 -0.10055255454E+03  0.14821314166E+04  0.25500000920E-02 0.  1.
       -2    1    3    3    0  502 -0.89093830825E+03 -0.11801828887E+04  0.10368492359E+04  0.18060063836E+04  0.25500000920E-02 0. -1.
</event>
<event>
 5   0  0.1010855E-06  0.3278680E+04  0.7818609E-02  0.8168342E-01
        1   -1    0    0  501    0  0.00000000000E+00  0.00000000000E+00  0.21537940555E+04  0.21537940555E+04  0.50400001928E-02 0.  1.
       -1   -1    0    0    0  501  0.00000000000E+00  0.00000000000E+00 -0.12477677959E+04  0.12477677959E+04  0.50400001928E-02 0. -1.
    10030    2    1    2    0    0  0.00000000000E+00  0.00000000000E+00  0.90602625957E+03  0.34015618514E+04  0.32786795277E+04 0.  0.
        1    1    3    3  502    0 -0.15110578057E+03 -0.22598092071E+03 -0.12242203555E+04  0.12540397969E+04  0.50400001928E-02 0. -1.
       -1    1    3    3    0  502  0.15110578057E+03  0.22598092071E+03  0.21302466150E+04  0.21475220545E+04  0.50400001928E-02 0.  1.
</event>
<event>
 5   0  0.1003191E-06  0.3453010E+04  0.7818609E-02  0.8125017E-01
        1   -1    0    0  501    0  0.00000000000E+00  0.00000000000E+00  0.27242359053E+04  0.27242359053E+04  0.50400001928E-02 0.  1.
       -1   -1    0    0    0  501  0.00000000000E+00  0.00000000000E+00 -0.10941853028E+04  0.10941853029E+04  0.50400001928E-02 0. -1.
    10030    2    1    2    0    0  0.00000000000E+00  0.00000000000E+00  0.16300506025E+04  0.38184212082E+04  0.34530096375E+04 0.  0.
        5    1    3    3  502    0 -0.20158572152E+03  0.11689100378E+04  0.22022988301E+04  0.25014255349E+04  0.46999998093E+01 0.  1.
       -5    1    3    3    0  502  0.20158572152E+03 -0.11689100378E+04 -0.57224822760E+03  0.13169956733E+04  0.46999998093E+01 0. -1.
</event>
<event>
 5   0  0.1010551E-06  0.2862744E+04  0.7818609E-02  0.8284049E-01
       -1   -1    0    0    0  501  0.00000000000E+00  0.00000000000E+00  0.12572576072E+04  0.12572576072E+04  0.50400001928E-02 0. -1.
        1   -1    0    0  501    0  0.00000000000E+00  0.00000000000E+00 -0.16295995808E+04  0.16295995808E+04  0.50400001928E-02 0.  1.
    10030    2    1    2    0    0  0.00000000000E+00  0.00000000000E+00 -0.37234197353E+03  0.28868571880E+04  0.28627444662E+04 0.  0.
        2    1    3    3  502    0 -0.80567636943E+03 -0.76126864731E+03  0.72709621409E+03  0.13256369300E+04  0.25500000920E-02 0. -1.
       -2    1    3    3    0  502  0.80567636943E+03  0.76126864731E+03 -0.10994381876E+04  0.15612202580E+04  0.25500000920E-02 0.  1.
</event>
<event>
 5   0  0.2856440E-06  0.3352156E+04  0.7818609E-02  0.8149750E-01
       -2   -1    0    0    0  501  0.00000000000E+00  0.00000000000E+00  0.14974420239E+04  0.14974420239E+04  0.25500000920E-02 0.  1.
        2   -1    0    0  501    0  0.00000000000E+00  0.00000000000E+00 -0.18760237697E+04  0.18760237697E+04  0.25500000920E-02 0. -1.
    10030    2    1    2    0    0  0.00000000000E+00  0.00000000000E+00 -0.37858174581E+03  0.33734657935E+04  0.33521556231E+04 0.  0.
        4    1    3    3  502    0  0.96312255382E+03 -0.12049768413E+04 -0.84894319202E+03  0.17607613120E+04  0.12699999809E+01 0. -1.
       -4    1    3    3    0  502 -0.96312255382E+03  0.12049768413E+04  0.47036144622E+03  0.16127044815E+04  0.12699999809E+01 0.  1.
</event>
<event>
 5   0  0.2856440E-06  0.3415511E+04  0.7818609E-02  0.8134110E-01
        2   -1    0    0  501    0  0.00000000000E+00  0.00000000000E+00  0.18248639869E+04  0.18248639869E+04  0.25500000920E-02 0. -1.
       -2   -1    0    0    0  501  0.00000000000E+00  0.00000000000E+00 -0.15981625780E+04  0.15981625780E+04  0.25500000920E-02 0.  1.
    10030    2    1    2    0    0  0.00000000000E+00  0.00000000000E+00  0.22670140884E+03  0.34230265649E+04  0.34155112846E+04 0.  0.
        4    1    3    3  502    0 -0.40405583562E+03 -0.69811331477E+03  0.16219216986E+04  0.18114234535E+04  0.12699999809E+01 0. -1.
       -4    1    3    3    0  502  0.40405583562E+03  0.69811331477E+03 -0.13952202898E+04  0.16116031114E+04  0.12699999809E+01 0.  1.
</event>
<event>
 5   0  0.2767014E-06  0.3412470E+04  0.7818609E-02  0.8134853E-01
        2   -1    0    0  501    0  0.00000000000E+00  0.00000000000E+00  0.18862959402E+04  0.18862959402E+04  0.25500000920E-02 0. -1.
       -2   -1    0    0    0  501  0.00000000000E+00  0.00000000000E+00 -0.15433620803E+04  0.15433620803E+04  0.25500000920E-02 0.  1.
    10030    2    1    2    0    0  0.00000000000E+00  0.00000000000E+00  0.34293385990E+03  0.34296580205E+04  0.34124698541E+04 0.  0.
        1    1    3    3  502    0  0.92884699269E+03 -0.85174127309E+03  0.13274855262E+04  0.18304201033E+04  0.50400001928E-02 0. -1.
       -1    1    3    3    0  502 -0.92884699269E+03  0.85174127309E+03 -0.98455166631E+03  0.15992379172E+04  0.50400001928E-02 0.  1.
</event>
<event>
 5   0  0.9714317E-07  0.3828932E+04  0.7818609E-02  0.8039974E-01
        1   -1    0    0  501    0  0.00000000000E+00  0.00000000000E+00  0.14898305286E+04  0.14898305286E+04  0.50400001928E-02 0.  1.
       -1   -1    0    0    0  501  0.00000000000E+00  0.00000000000E+00 -0.24601325898E+04  0.24601325898E+04  0.50400001928E-02 0. -1.
    10030    2    1    2    0    0  0.00000000000E+00  0.00000000000E+00 -0.97030206113E+03  0.39499631184E+04  0.38289322986E+04 0.  0.
        4    1    3    3  502    0 -0.10078014823E+04 -0.13617221953E+04  0.43479245037E+03  0.17489989288E+04  0.12699999809E+01 0.  1.
       -4    1    3    3    0  502  0.10078014823E+04  0.13617221953E+04 -0.14050945115E+04  0.22009641896E+04  0.12699999809E+01 0. -1.
</event>
<event>
 5   0  0.9714317E-07  0.3348707E+04  0.7818609E-02  0.8150611E-01
        1   -1    0    0  501    0  0.00000000000E+00  0.00000000000E+00  0.19565354877E+04  0.19565354877E+04  0.50400001928E-02 0. -1.
       -1   -1    0    0    0  501  0.00000000000E+00  0.00000000000E+00 -0.14328691176E+04  0.14328691176E+04  0.50400001928E-02 0.  1.
    10030    2    1    2    0    0  0.00000000000E+00  0.00000000000E+00  0.52366637009E+03  0.33894046054E+04  0.33487067820E+04 0.  0.
        4    1    3    3  502    0  0.30726648831E+03 -0.12762651803E+04  0.13137873172E+04  0.18572302585E+04  0.12699999809E+01 0. -1.
       -4    1    3    3    0  502 -0.30726648831E+03  0.12762651803E+04 -0.79012094715E+03  0.15321743469E+04  0.12699999809E+01 0.  1.
</event>
<event>
 5   0  0.2906701E-06  0.3430528E+04  0.7818609E-02  0.8130454E-01
       -2   -1    0    0    0  501  0.00000000000E+00  0.00000000000E+00  0.15411830327E+04  0.15411830327E+04  0.25500000920E-02 0. -1.
        2   -1    0    0  501    0  0.00000000000E+00  0.00000000000E+00 -0.19090077404E+04  0.19090077404E+04  0.25500000920E-02 0.  1.
    10030    2    1    2    0    0  0.00000000000E+00  0.00000000000E+00 -0.36782470773E+03  0.34501907731E+04  0.34305278537E+04 0.  0.
        5    1    3    3  502    0 -0.91403525966E+03 -0.12419942514E+04  0.57145718489E+03  0.16445654686E+04  0.46999998093E+01 0. -1.
       -5    1    3    3    0  502  0.91403525966E+03  0.12419942514E+04 -0.93928189263E+03  0.18056253045E+04  0.46999998093E+01 0.  1.
</event>
<event>
 5   0  0.1003191E-06  0.3392625E+04  0.7818609E-02  0.8139719E-01
        1   -1    0    0  501    0  0.00000000000E+00  0.00000000000E+00  0.24821229380E+04  0.24821229380E+04  0.50400001928E-02 0.  1.
       -1   -1    0    0    0  501  0.00000000000E+00  0.00000000000E+00 -0.11592800801E+04  0.11592800801E+04  0.50400001928E-02 0. -1.
    10030    2    1    2    0    0  0.00000000000E+00  0.00000000000E+00  0.13228428579E+04  0.36414030181E+04  0.33926247528E+04 0.  0.
        5    1    3    3  502    0 -0.12026907006E+04  0.10242735943E+04 -0.18336898808E+01  0.15797552879E+04  0.46999998093E+01 0. -1.
       -5    1    3    3    0  502  0.12026907006E+04 -0.10242735943E+04  0.13246765477E+04  0.20616477302E+04  0.46999998093E+01 0.  1.
</event>
<event>
 5   0  0.9070500E-07  0.2608724E+04  0.7818609E-02  0.8365244E-01
        3   -1    0    0  501    0  0.00000000000E+00  0.00000000000E+00  0.96072370817E+03  0.96072371348E+03  0.10100000352E+00 0.  1.
       -3   -1    0    0    0  501  0.00000000000E+00  0.00000000000E+00 -0.17709156378E+04  0.17709156407E+04  0.10100000352E+00 0. -1.
    10030    2    1    2    0    0  0.00000000000E+00  0.00000000000E+00 -0.81019192962E+03  0.27316393542E+04  0.26087243239E+04 0.  0.
        1    1    3    3  502    0 -0.77508591954E+03  0.70406737624E+03 -0.12194888087E+04  0.16073649267E+04  0.50400001928E-02 0. -1.
       -1    1    3    3    0  502  0.77508591954E+03 -0.70406737624E+03  0.40929687911E+03  0.11242744275E+04  0.50400001928E-02 0.  1.
</event>
<event>
 5   0  0.2664083E-06  0.3379068E+04  0.7818609E-02  0.8143063E-01
       -2   -1    0    0    0  501  0.00000000000E+00  0.00000000000E+00  0.10227520263E+04  0.10227520263E+04  0.25500000920E-02 0.  1.
        2   -1    0    0  501    0  0.00000000000E+00  0.00000000000E+00 -0.27910241191E+04  0.27910241191E+04  0.25500000920E-02 0. -1.
    10030    2    1    2    0    0  0.00000000000E+00  0.00000000000E+00 -0.17682720929E+04  0.38137761454E+04  0.33790682581E+04 0.  0.
        2    1    3    3  502    0 -0.14072179172E+04  0.49123354566E+03  0.13796956104E+02  0.14905579555E+04  0.25500000920E-02 0.  1.
       -2    1    3    3    0  502  0.14072179172E+04 -0.49123354566E+03 -0.17820690490E+04  0.23232181899E+04  0.25500000920E-02 0. -1.
</event>
<event>
 5   0  0.9232963E-07  0.3449479E+04  0.7818609E-02  0.8125868E-01
       -1   -1    0    0    0  501  0.00000000000E+00  0.00000000000E+00  0.18566669884E+04  0.18566669885E+04  0.50400001928E-02 0.  1.
        1   -1    0    0  501    0  0.00000000000E+00  0.00000000000E+00 -0.16021858122E+04  0.16021858122E+04  0.50400001928E-02 0. -1.
    10030    2    1    2    0    0  0.00000000000E+00  0.00000000000E+00  0.25448117626E+03  0.34588528006E+04  0.34494785153E+04 0.  0.
        3    1    3    3  502    0  0.10877713810E+04  0.69952037056E+03  0.12714596322E+04  0.18136110202E+04  0.10100000352E+00 0.  1.
       -3    1    3    3    0  502 -0.10877713810E+04 -0.69952037056E+03 -0.10169784559E+04  0.16452417804E+04  0.10100000352E+00 0. -1.
</event>
<event>
 5   0  0.2848685E-06  0.3402060E+04  0.7818609E-02  0.8137401E-01
       -2   -1    0    0    0  501  0.00000000000E+00  0.00000000000E+00  0.12316938186E+04  0.12316938186E+04  0.25500000920E-02 0.  1.
        2   -1    0    0  501    0  0.00000000000E+00  0.00000000000E+00 -0.23492071375E+04  0.23492071375E+04  0.25500000920E-02 0. -1.
    10030    2    1    2    0    0  0.00000000000E+00  0.00000000000E+00 -0.11175133189E+04  0.35809009561E+04  0.34020604991E+04 0.  0.
        3    1    3    3  502    0 -0.69220187054E+03 -0.10391900482E+04  0.65715083941E+03  0.14109949049E+04  0.10100000352E+00 0.  1.
       -3    1    3    3    0  502  0.69220187054E+03  0.10391900482E+04 -0.17746641583E+04  0.21699060512E+04  0.10100000352E+00 0. -1.
</event>
<event>
 5   0  0.2856440E-06  0.3388117E+04  0.7818609E-02  0.8140829E-01
        2   -1    0    0  501    0  0.00000000000E+00  0.00000000000E+00  0.16791407590E+04  0.16791407590E+04  0.25500000920E-02 0. -1.
       -2   -1    0    0    0  501  0.00000000000E+00  0.00000000000E+00 -0.17091084976E+04  0.17091084976E+04  0.25500000920E-02 0.  1.
    10030    2    1    2    0    0  0.00000000000E+00  0.00000000000E+00 -0.29967738594E+02  0.33882492565E+04  0.33881167275E+04 0.  0.
        4    1    3    3  502    0 -0.18644557570E+03  0.16328756470E+04 -0.42583724980E+03  0.16977584656E+04  0.12699999809E+01 0.  1.
       -4    1    3    3    0  502  0.18644557570E+03 -0.16328756470E+04  0.39586951120E+03  0.16904907909E+04  0.12699999809E+01 0. -1.
</event>
<event>
 5   0  0.2856440E-06  0.3396250E+04  0.7818609E-02  0.8138827E-01
       -2   -1    0    0    0  501  0.00000000000E+00  0.00000000000E+00  0.13673022630E+04  0.13673022630E+04  0.25500000920E-02 0.  1.
        2   -1    0    0  501    0  0.00000000000E+00  0.00000000000E+00 -0.21089906903E+04  0.21089906903E+04  0.25500000920E-02 0. -1.
    10030    2    1    2    0    0  0.00000000000E+00  0.00000000000E+00 -0.74168842727E+03  0.34762929533E+04  0.33962495453E+04 0.  0.
        4    1    3    3  502    0  0.98617131674E+03  0.31165900849E+03 -0.17494202941E+04  0.20322741405E+04  0.12699999809E+01 0. -1.
       -4    1    3    3    0  502 -0.98617131674E+03 -0.31165900849E+03  0.10077318669E+04  0.14440188129E+04  0.12699999809E+01 0.  1.
</event>
<event>
 5   0  0.1010551E-06  0.3413417E+04  0.7818609E-02  0.8134621E-01
        1   -1    0    0  501    0  0.00000000000E+00  0.00000000000E+00  0.20058873175E+04  0.20058873175E+04  0.50400001928E-02 0. -1.
       -1   -1    0    0    0  501  0.00000000000E+00  0.00000000000E+00 -0.14521519923E+04  0.14521519924E+04  0.50400001928E-02 0.  1.
    10030    2    1    2    0    0  0.00000000000E+00  0.00000000000E+00  0.55373532513E+03  0.34580393098E+04  0.34134166253E+04 0.  0.
        2    1    3    3  502    0 -0.65228828368E+01  0.14177760321E+04  0.12394050356E+04  0.18831506226E+04  0.25500000920E-02 0. -1.
       -2    1    3    3    0  502  0.65228828368E+01 -0.14177760321E+04 -0.68566971046E+03  0.15748886872E+04  0.25500000920E-02 0.  1.
</event>
<event>
 5   0  0.2767014E-06  0.3454660E+04  0.7818609E-02  0.8124620E-01
       -2   -1    0    0    0  501  0.00000000000E+00  0.00000000000E+00  0.13980957103E+04  0.13980957103E+04  0.25500000920E-02 0. -1.
        2   -1    0    0  501    0  0.00000000000E+00  0.00000000000E+00 -0.21340951344E+04  0.21340951344E+04  0.25500000920E-02 0.  1.
    10030    2    1    2    0    0  0.00000000000E+00  0.00000000000E+00 -0.73599942406E+03  0.35321908447E+04  0.34546601875E+04 0.  0.
        1    1    3    3  502    0  0.20928931287E+03  0.64650539759E+03 -0.19916877258E+04  0.21044218309E+04  0.50400001928E-02 0.  1.
       -1    1    3    3    0  502 -0.20928931287E+03 -0.64650539759E+03  0.12556883017E+04  0.14277690138E+04  0.50400001928E-02 0. -1.
</event>
<event>
 5   0  0.1010855E-06  0.3505344E+04  0.7818609E-02  0.8112525E-01
       -1   -1    0    0    0  501  0.00000000000E+00  0.00000000000E+00  0.98012872459E+03  0.98012872460E+03  0.50400001928E-02 0. -1.
        1   -1    0    0  501    0  0.00000000000E+00  0.00000000000E+00 -0.31341378037E+04  0.31341378037E+04  0.50400001928E-02 0.  1.
    10030    2    1    2    0    0  0.00000000000E+00  0.00000000000E+00 -0.21540090791E+04  0.41142665283E+04  0.35053436284E+04 0.  0.
        1    1    3    3  502    0 -0.56399402065E+03  0.12778034094E+04 -0.23196929385E+04  0.27077381959E+04  0.50400001928E-02 0.  1.
       -1    1    3    3    0  502  0.56399402065E+03 -0.12778034094E+04  0.16568385945E+03  0.14065283324E+04  0.50400001928E-02 0. -1.
</event>
<event>
 5   0  0.1003191E-06  0.3410313E+04  0.7818609E-02  0.8135380E-01
        1   -1    0    0  501    0  0.00000000000E+00  0.00000000000E+00  0.11932471560E+04  0.11932471560E+04  0.50400001928E-02 0. -1.
       -1   -1    0    0    0  501  0.00000000000E+00  0.00000000000E+00 -0.24366771221E+04  0.24366771221E+04  0.50400001928E-02 0.  1.
    10030    2    1    2    0    0  0.00000000000E+00  0.00000000000E+00 -0.12434299661E+04  0.36299242781E+04  0.34103126226E+04 0.  0.
        5    1    3    3  502    0 -0.46179192854E+02 -0.94035554302E+03  0.89150135864E+03  0.12966101294E+04  0.46999998093E+01 0. -1.
       -5    1    3    3    0  502  0.46179192854E+02  0.94035554302E+03 -0.21349313248E+04  0.23333141487E+04  0.46999998093E+01 0.  1.
</event>
<event>
 5   0  0.2767014E-06  0.2997950E+04  0.7818609E-02  0.8244317E-01
        2   -1    0    0  501    0  0.00000000000E+00  0.00000000000E+00  0.24476276567E+04  0.24476276567E+04  0.25500000920E-02 0.  1.
       -2   -1    0    0    0  501  0.00000000000E+00  0.00000000000E+00 -0.91800127965E+03  0.91800127965E+03  0.25500000920E-02 0. -1.
    10030    2    1    2    0    0  0.00000000000E+00  0.00000000000E+00  0.15296263771E+04  0.33656289364E+04  0.29979495132E+04 0.  0.
        1    1    3    3  502    0 -0.25214085443E+03 -0.14420385937E+04  0.40298912521E+03  0.15183710190E+04  0.50400001928E-02 0. -1.
       -1    1    3    3    0  502  0.25214085443E+03  0.14420385937E+04  0.11266372519E+04  0.18472579174E+04  0.50400001928E-02 0.  1.
</event>
<event>
 5   0  0.1003191E-06  0.3285209E+04  0.7818609E-02  0.8166669E-01
        1   -1    0    0  501    0  0.00000000000E+00  0.00000000000E+00  0.26775407891E+04  0.26775407891E+04  0.50400001928E-02 0.  1.
       -1   -1    0    0    0  501  0.00000000000E+00  0.00000000000E+00 -0.10076967838E+04  0.10076967838E+04  0.50400001928E-02 0. -1.
    10030    2    1    2    0    0  0.00000000000E+00  0.00000000000E+00  0.16698440053E+04  0.36852375730E+04  0.32852088164E+04 0.  0.
        5    1    3    3  502    0  0.13475462377E+04  0.18744830694E+03  0.18673797005E+04  0.23104429805E+04  0.46999998093E+01 0.  1.
       -5    1    3    3    0  502 -0.13475462377E+04 -0.18744830694E+03 -0.19753569519E+03  0.13747945924E+04  0.46999998093E+01 0. -1.
</event>
<event>
 5   0  0.9232963E-07  0.3388190E+04  0.7818609E-02  0.8140811E-01
        1   -1    0    0  501    0  0.00000000000E+00  0.00000000000E+00  0.10180059525E+04  0.10180059525E+04  0.50400001928E-02 0.  1.
       -1   -1    0    0    0  501  0.00000000000E+00  0.00000000000E+00 -0.28191962959E+04  0.28191962959E+04  0.50400001928E-02 0. -1.
    10030    2    1    2    0    0  0.00000000000E+00  0.00000000000E+00 -0.18011903434E+04  0.38372022485E+04  0.33881904377E+04 0.  0.
        3    1    3    3  502    0  0.15571023363E+04  0.45961629580E+03 -0.14486047966E+04  0.21758379287E+04  0.10100000352E+00 0. -1.
       -3    1    3    3    0  502 -0.15571023363E+04 -0.45961629580E+03 -0.35258554682E+03  0.16613643198E+04  0.10100000352E+00 0.  1.
</event>
<event>
 5   0  0.9714317E-07  0.3155279E+04  0.7818609E-02  0.8200729E-01
       -1   -1    0    0    0  501  0.00000000000E+00  0.00000000000E+00  0.11000836824E+04  0.11000836824E+04  0.50400001928E-02 0.  1.
        1   -1    0    0  501    0  0.00000000000E+00  0.00000000000E+00 -0.22625061901E+04  0.22625061901E+04  0.50400001928E-02 0. -1.
    10030    2    1    2    0    0  0.00000000000E+00  0.00000000000E+00 -0.11624225077E+04  0.33625898725E+04  0.31552788410E+04 0.  0.
        4    1    3    3  502    0 -0.34406275638E+03  0.15158025031E+04 -0.29345544209E+03  0.15818198754E+04  0.12699999809E+01 0.  1.
       -4    1    3    3    0  502  0.34406275638E+03 -0.15158025031E+04 -0.86896706559E+03  0.17807699972E+04  0.12699999809E+01 0. -1.
</event>
<event>
 5   0  0.2906701E-06  0.3380560E+04  0.7818609E-02  0.8142694E-01
       -2   -1    0    0    0  501  0.00000000000E+00  0.00000000000E+00  0.13976330956E+04  0.13976330956E+04  0.25500000920E-02 0.  1.
        2   -1    0    0  501    0  0.00000000000E+00  0.00000000000E+00 -0.20442035036E+04  0.20442035036E+04  0.25500000920E-02 0. -1.
    10030    2    1    2    0    0  0.00000000000E+00  0.00000000000E+00 -0.64657040792E+03  0.34418365992E+04  0.33805599955E+04 0.  0.
        5    1    3    3  502    0 -0.61266294314E+03 -0.10448719567E+04 -0.15235998659E+04  0.19464048729E+04  0.46999998093E+01 0. -1.
       -5    1    3    3    0  502  0.61266294314E+03  0.10448719567E+04  0.87702945801E+03  0.14954317263E+04  0.46999998093E+01 0.  1.
</event>
<event>
 5   0  0.2767014E-06  0.2121337E+04  0.7818609E-02  0.8551902E-01
        2   -1    0    0  501    0  0.00000000000E+00  0.00000000000E+00  0.14797183363E+04  0.14797183363E+04  0.25500000920E-02 0.  1.
       -2   -1    0    0    0  501  0.00000000000E+00  0.00000000000E+00 -0.76029194957E+03  0.76029194958E+03  0.25500000920E-02 0. -1.
    10030    2    1    2    0    0  0.00000000000E+00  0.00000000000E+00  0.71942638674E+03  0.22400102859E+04  0.21213372563E+04 0.  0.
        1    1    3    3  502    0 -0.25647629868E+03 -0.33787482546E+02 -0.72646950671E+03  0.77115473802E+03  0.50400001928E-02 0. -1.
       -1    1    3    3    0  502  0.25647629868E+03  0.33787482546E+02  0.14458958935E+04  0.14688555479E+04  0.50400001928E-02 0.  1.
</event>
<event>
 5   0  0.1010551E-06  0.3415536E+04  0.7818609E-02  0.8134104E-01
       -1   -1    0    0    0  501  0.00000000000E+00  0.00000000000E+00  0.12620868614E+04  0.12620868614E+04  0.50400001928E-02 0. -1.
        1   -1    0    0  501    0  0.00000000000E+00  0.00000000000E+00 -0.23108320495E+04  0.23108320495E+04  0.50400001928E-02 0.  1.
    10030    2    1    2    0    0  0.00000000000E+00  0.00000000000E+00 -0.10487451881E+04  0.35729189109E+04  0.34155355472E+04 0.  0.
        2    1    3    3  502    0 -0.10694377231E+04 -0.12414069191E+04 -0.10278860096E+04  0.19342538177E+04  0.25500000920E-02 0. -1.
       -2    1    3    3    0  502  0.10694377231E+04  0.12414069191E+04 -0.20859178452E+02  0.16386650932E+04  0.25500000920E-02 0.  1.
</event>
<event>
 5   0  0.1003191E-06  0.3388566E+04  0.7818609E-02  0.8140718E-01
        1   -1    0    0  501    0  0.00000000000E+00  0.00000000000E+00  0.14900812225E+04  0.14900812226E+04  0.50400001928E-02 0. -1.
       -1   -1    0    0    0  501  0.00000000000E+00  0.00000000000E+00 -0.19264692254E+04  0.19264692254E+04  0.50400001928E-02 0.  1.
    10030    2    1    2    0    0  0.00000000000E+00  0.00000000000E+00 -0.43638800288E+03  0.34165504480E+04  0.33885664336E+04 0.  0.
        5    1    3    3  502    0  0.12887576273E+04  0.50395782060E+03 -0.12038684411E+04  0.18341731163E+04  0.46999998093E+01 0. -1.
       -5    1    3    3    0  502 -0.12887576273E+04 -0.50395782060E+03  0.76748043825E+03  0.15823773317E+04  0.46999998093E+01 0.  1.
</event>
<event>
 5   0  0.2848685E-06  0.3372434E+04  0.7818609E-02  0.8144705E-01
       -2   -1    0    0    0  501  0.00000000000E+00  0.00000000000E+00  0.14994977120E+04  0.14994977120E+04  0.25500000920E-02 0. -1.
        2   -1    0    0  501    0  0.00000000000E+00  0.00000000000E+00 -0.18961869044E+04  0.18961869044E+04  0.25500000920E-02 0.  1.
    10030    2    1    2    0    0  0.00000000000E+00  0.00000000000E+00 -0.39668919232E+03  0.33956846164E+04  0.33724340911E+04 0.  0.
        3    1    3    3  502    0  0.10538315921E+02  0.80360723662E+03  0.12942491756E+04  0.15234751674E+04  0.10100000352E+00 0. -1.
       -3    1    3    3    0  502 -0.10538315921E+02 -0.80360723662E+03 -0.16909383679E+04  0.18722094490E+04  0.10100000352E+00 0.  1.
</event>
<event>
 5   0  0.2767014E-06  0.2802859E+04  0.7818609E-02  0.8302381E-01
        2   -1    0    0  501    0  0.00000000000E+00  0.00000000000E+00  0.12707780329E+04  0.12707780329E+04  0.25500000920E-02 0.  1.
       -2   -1    0    0    0  501  0.00000000000E+00  0.00000000000E+00 -0.15455137134E+04  0.15455137134E+04  0.25500000920E-02 0. -1.
    10030    2    1    2    0    0  0.00000000000E+00  0.00000000000E+00 -0.27473568052E+03  0.28162917463E+04  0.28028591663E+04 0.  0.
        1    1    3    3  502    0 -0.70595425434E+01 -0.85170260080E+02 -0.15428929434E+04  0.15452580513E+04  0.50400001928E-02 0. -1.
       -1    1    3    3    0  502  0.70595425434E+01  0.85170260080E+02  0.12681572629E+04  0.12710336950E+04  0.50400001928E-02 0.  1.
</event>
<event>
 5   0  0.9070500E-07  0.2417674E+04  0.7818609E-02  0.8432916E-01
       -3   -1    0    0    0  501  0.00000000000E+00  0.00000000000E+00  0.95633123504E+03  0.95633124037E+03  0.10100000352E+00 0.  1.
        3   -1    0    0  501    0  0.00000000000E+00  0.00000000000E+00 -0.15280137808E+04  0.15280137841E+04  0.10100000352E+00 0. -1.
    10030    2    1    2    0    0  0.00000000000E+00  0.00000000000E+00 -0.57168254571E+03  0.24843450245E+04  0.24176743510E+04 0.  0.
        5    1    3    3  502    0  0.53811296623E+03 -0.54635322644E+03 -0.12460605647E+04  0.14631324046E+04  0.46999998093E+01 0. -1.
       -5    1    3    3    0  502 -0.53811296623E+03  0.54635322644E+03  0.67437801899E+03  0.10212126199E+04  0.46999998093E+01 0.  1.
</event>
<event>
 5   0  0.1010551E-06  0.3021491E+04  0.7818609E-02  0.8237620E-01
       -1   -1    0    0    0  501  0.00000000000E+00  0.00000000000E+00  0.94571240729E+03  0.94571240730E+03  0.50400001928E-02 0.  1.
        1   -1    0    0  501    0  0.00000000000E+00  0.00000000000E+00 -0.24133685578E+04  0.24133685578E+04  0.50400001928E-02 0. -1.
    10030    2    1    2    0    0  0.00000000000E+00  0.00000000000E+00 -0.14676561505E+04  0.33590809651E+04  0.30214914122E+04 0.  0.
        2    1    3    3  502    0 -0.11094131090E+04  0.10248613287E+04 -0.77256987612E+03  0.16964676251E+04  0.25500000920E-02 0. -1.
       -2    1    3    3    0  502  0.11094131090E+04 -0.10248613287E+04 -0.69508627437E+03  0.16626133400E+04  0.25500000920E-02 0.  1.
</event>
<event>
 5   0  0.1003191E-06  0.2833711E+04  0.7818609E-02  0.8292878E-01
        1   -1    0    0  501    0  0.00000000000E+00  0.00000000000E+00  0.19121083815E+04  0.19121083815E+04  0.50400001928E-02 0.  1.
       -1   -1    0    0    0  501  0.00000000000E+00  0.00000000000E+00 -0.10498776398E+04  0.10498776398E+04  0.50400001928E-02 0. -1.
    10030    2    1    2    0    0  0.00000000000E+00  0.00000000000E+00  0.86223074169E+03  0.29619860214E+04  0.28337112307E+04 0.  0.
        5    1    3    3  502    0 -0.32952491580E+02  0.96614938091E+03  0.15138263765E+04  0.17961689456E+04  0.46999998093E+01 0.  1.
       -5    1    3    3    0  502  0.32952491580E+02 -0.96614938091E+03 -0.65159563480E+03  0.11658170758E+04  0.46999998093E+01 0. -1.
</event>
<event>
 5   0  0.1010551E-06  0.3345281E+04  0.7818609E-02  0.8151468E-01
        1   -1    0    0  501    0  0.00000000000E+00  0.00000000000E+00  0.10041129110E+04  0.10041129111E+04  0.50400001928E-02 0. -1.
       -1   -1    0    0    0  501  0.00000000000E+00  0.00000000000E+00 -0.27862668276E+04  0.27862668276E+04  0.50400001928E-02 0.  1.
    10030    2    1    2    0    0  0.00000000000E+00  0.00000000000E+00 -0.17821539165E+04  0.37903797386E+04  0.33452811512E+04 0.  0.
        2    1    3    3  502    0 -0.11176961086E+04  0.25923089339E+03 -0.22700915476E+04  0.25435724644E+04  0.25500000920E-02 0.  1.
       -2    1    3    3    0  502  0.11176961086E+04 -0.25923089339E+03  0.48793763105E+03  0.12468072742E+04  0.25500000920E-02 0. -1.
</event>
<event>
 5   0  0.1003191E-06  0.3404514E+04  0.7818609E-02  0.8136799E-01
       -1   -1    0    0    0  501  0.00000000000E+00  0.00000000000E+00  0.13517356625E+04  0.13517356625E+04  0.50400001928E-02 0. -1.
        1   -1    0    0  501    0  0.00000000000E+00  0.00000000000E+00 -0.21436721810E+04  0.21436721810E+04  0.50400001928E-02 0.  1.
    10030    2    1    2    0    0  0.00000000000E+00  0.00000000000E+00 -0.79193651852E+03  0.34954078435E+04  0.34045135546E+04 0.  0.
        5    1    3    3  502    0  0.10900913521E+03  0.11544266792E+04  0.88352675320E+03  0.14578153391E+04  0.46999998093E+01 0. -1.
       -5    1    3    3    0  502 -0.10900913521E+03 -0.11544266792E+04 -0.16754632717E+04  0.20375925044E+04  0.46999998093E+01 0.  1.
</event>
<event>
 5   0  0.1010551E-06  0.3305429E+04  0.7818609E-02  0.8161515E-01
       -1   -1    0    0    0  501  0.00000000000E+00  0.00000000000E+00  0.81449343531E+03  0.81449343533E+03  0.50400001928E-02 0. -1.
        1   -1    0    0  501    0  0.00000000000E+00  0.00000000000E+00 -0.33535758752E+04  0.33535758752E+04  0.50400001928E-02 0.  1.
    10030    2    1    2    0    0  0.00000000000E+00  0.00000000000E+00 -0.25390824399E+04  0.41680693105E+04  0.33054291916E+04 0.  0.
        2    1    3    3  502    0  0.17056583677E+03 -0.32248462675E+03  0.76308776171E+03  0.84580847196E+03  0.25500000920E-02 0. -1.
       -2    1    3    3    0  502 -0.17056583677E+03  0.32248462675E+03 -0.33021702016E+04  0.33222608385E+04  0.25500000920E-02 0.  1.
</event>
<event>
 5   0  0.2848685E-06  0.3449597E+04  0.7818609E-02  0.8125840E-01
       -2   -1    0    0    0  501  0.00000000000E+00  0.00000000000E+00  0.14766793500E+04  0.14766793500E+04  0.25500000920E-02 0. -1.
        2   -1    0    0  501    0  0.00000000000E+00  0.00000000000E+00 -0.20146075173E+04  0.20146075173E+04  0.25500000920E-02 0.  1.
    10030    2    1    2    0    0  0.00000000000E+00  0.00000000000E+00 -0.53792816733E+03  0.34912868673E+04  0.34495966832E+04 0.  0.
        3    1    3    3  502    0  0.10763413123E+04 -0.80533380850E+03  0.82477035830E+03  0.15771237484E+04  0.10100000352E+00 0. -1.
       -3    1    3    3    0  502 -0.10763413123E+04  0.80533380850E+03 -0.13626985256E+04  0.19141631189E+04  0.10100000352E+00 0.  1.
</event>
<event>
 5   0  0.2664083E-06  0.3316903E+04  0.7818609E-02  0.8158608E-01
        2   -1    0    0  501    0  0.00000000000E+00  0.00000000000E+00  0.25780607010E+04  0.25780607010E+04  0.25500000920E-02 0. -1.
       -2   -1    0    0    0  501  0.00000000000E+00  0.00000000000E+00 -0.10668719815E+04  0.10668719816E+04  0.25500000920E-02 0.  1.
    10030    2    1    2    0    0  0.00000000000E+00  0.00000000000E+00  0.15111887195E+04  0.36449326826E+04  0.33169026086E+04 0.  0.
        2    1    3    3  502    0  0.18532070161E+02 -0.48020160830E+03 -0.98868489843E+03  0.10992883383E+04  0.25500000920E-02 0.  1.
       -2    1    3    3    0  502 -0.18532070161E+02  0.48020160830E+03  0.24998736179E+04  0.25456443443E+04  0.25500000920E-02 0. -1.
</event>
<event>
 5   0  0.2767014E-06  0.3336454E+04  0.7818609E-02  0.8153681E-01
        2   -1    0    0  501    0  0.00000000000E+00  0.00000000000E+00  0.20596082150E+04  0.20596082150E+04  0.25500000920E-02 0.  1.
       -2   -1    0    0    0  501  0.00000000000E+00  0.00000000000E+00 -0.13512185431E+04  0.13512185431E+04  0.25500000920E-02 0. -1.
    10030    2    1    2    0    0  0.00000000000E+00  0.00000000000E+00  0.70838967193E+03  0.34108267581E+04  0.33364536931E+04 0.  0.
        1    1    3    3  502    0  0.34214201575E+03  0.15419773994E+04 -0.19463871085E+03  0.15914269342E+04  0.50400001928E-02 0.  1.
       -1    1    3    3    0  502 -0.34214201575E+03 -0.15419773994E+04  0.90302838278E+03  0.18193998239E+04  0.50400001928E-02 0. -1.
</event>
<event>
 5   0  0.1010551E-06  0.3408753E+04  0.7818609E-02  0.8135761E-01
        1   -1    0    0  501    0  0.00000000000E+00  0.00000000000E+00  0.28264877811E+04  0.28264877811E+04  0.50400001928E-02 0. -1.
       -1   -1    0    0    0  501  0.00000000000E+00  0.00000000000E+00 -0.10277416070E+04  0.10277416070E+04  0.50400001928E-02 0.  1.
    10030    2    1    2    0    0  0.00000000000E+00  0.00000000000E+00  0.17987461742E+04  0.38542293881E+04  0.34087529064E+04 0.  0.
        2    1    3    3  502    0 -0.27718228656E+03 -0.14976311590E+04  0.34438909247E+02  0.15234550032E+04  0.25500000920E-02 0.  1.
       -2    1    3    3    0  502  0.27718228656E+03  0.14976311590E+04  0.17643072649E+04  0.23307743849E+04  0.25500000920E-02 0. -1.
</event>
<event>
 5   0  0.2856440E-06  0.3401014E+04  0.7818609E-02  0.8137657E-01
        2   -1    0    0  501    0  0.00000000000E+00  0.00000000000E+00  0.35066039673E+04  0.35066039673E+04  0.25500000920E-02 0. -1.
       -2   -1    0    0    0  501  0.00000000000E+00  0.00000000000E+00 -0.82465087382E+03  0.82465087382E+03  0.25500000920E-02 0.  1.
    10030    2    1    2    0    0  0.00000000000E+00  0.00000000000E+00  0.26819530935E+04  0.43312548412E+04  0.34010139816E+04 0.  0.
        4    1    3    3  502    0  0.28527019376E+03 -0.14227717280E+04  0.24700813551E+04  0.28647795704E+04  0.12699999809E+01 0. -1.
       -4    1    3    3    0  502 -0.28527019376E+03  0.14227717280E+04  0.21187173845E+03  0.14664752708E+04  0.12699999809E+01 0.  1.
</event>
<event>
 5   0  0.1010855E-06  0.3434531E+04  0.7818609E-02  0.8129483E-01
        1   -1    0    0  501    0  0.00000000000E+00  0.00000000000E+00  0.18829273873E+04  0.18829273873E+04  0.50400001928E-02 0.  1.
       -1   -1    0    0    0  501  0.00000000000E+00  0.00000000000E+00 -0.15661787756E+04  0.15661787756E+04  0.50400001928E-02 0. -1.
    10030    2    1    2    0    0  0.00000000000E+00  0.00000000000E+00  0.31674861174E+03  0.34491061629E+04  0.34345310655E+04 0.  0.
        1    1    3    3  502    0  0.11976685463E+04  0.90402850157E+03 -0.68022836726E+03  0.16475400178E+04  0.50400001928E-02 0. -1.
       -1    1    3    3    0  502 -0.11976685463E+04 -0.90402850157E+03  0.99697697901E+03  0.18015661451E+04  0.50400001928E-02 0.  1.
</event>
<event>
 5   0  0.9714317E-07  0.3328048E+04  0.7818609E-02  0.8155795E-01
       -1   -1    0    0    0  501  0.00000000000E+00  0.00000000000E+00  0.15071005299E+04  0.15071005299E+04  0.50400001928E-02 0.  1.
        1   -1    0    0  501    0  0.00000000000E+00  0.00000000000E+00 -0.18372869773E+04  0.18372869773E+04  0.50400001928E-02 0. -1.
    10030    2    1    2    0    0  0.00000000000E+00  0.00000000000E+00 -0.33018644744E+03  0.33443875072E+04  0.33280481829E+04 0.  0.
        4    1    3    3  502    0  0.69769146451E+03  0.17751873918E+02  0.13529144408E+04  0.15223230951E+04  0.12699999809E+01 0.  1.
       -4    1    3    3    0  502 -0.69769146451E+03 -0.17751873918E+02 -0.16831008883E+04  0.18220644121E+04  0.12699999809E+01 0. -1.
</event>
<event>
 5   0  0.2848685E-06  0.3504459E+04  0.7818609E-02  0.8112734E-01
       -2   -1    0    0    0  501  0.00000000000E+00  0.00000000000E+00  0.18040830347E+04  0.18040830347E+04  0.25500000920E-02 0.  1.
        2   -1    0    0  501    0  0.00000000000E+00  0.00000000000E+00 -0.17018664934E+04  0.17018664934E+04  0.25500000920E-02 0. -1.
    10030    2    1    2    0    0  0.00000000000E+00  0.00000000000E+00  0.10221654130E+03  0.35059495281E+04  0.35044591412E+04 0.  0.
        3    1    3    3  502    0  0.65451514877E+03 -0.25660820999E+03 -0.15545885215E+04  0.17061604071E+04  0.10100000352E+00 0. -1.
       -3    1    3    3    0  502 -0.65451514877E+03  0.25660820999E+03  0.16568050628E+04  0.17997891209E+04  0.10100000352E+00 0.  1.
</event>
<event>
 5   0  0.1003191E-06  0.2081301E+04  0.7818609E-02  0.8569525E-01
       -1   -1    0    0    0  501  0.00000000000E+00  0.00000000000E+00  0.10543124120E+04  0.10543124120E+04  0.50400001928E-02 0.  1.
        1   -1    0    0  501    0  0.00000000000E+00  0.00000000000E+00 -0.10271656228E+04  0.10271656229E+04  0.50400001928E-02 0. -1.
    10030    2    1    2    0    0  0.00000000000E+00  0.00000000000E+00  0.27146789159E+02  0.20814780349E+04  0.20813010021E+04 0.  0.
        5    1    3    3  502    0  0.76913823695E+02 -0.88405788913E+03  0.55717945813E+03  0.10478287676E+04  0.46999998093E+01 0.  1.
       -5    1    3    3    0  502 -0.76913823695E+02  0.88405788913E+03 -0.53003266897E+03  0.10336492673E+04  0.46999998093E+01 0. -1.
</event>
<event>
 5   0  0.2848685E-06  0.3385467E+04  0.7818609E-02  0.8141482E-01
        2   -1    0    0  501    0  0.00000000000E+00  0.00000000000E+00  0.10195138715E+04  0.10195138715E+04  0.25500000920E-02 0.  1.
       -2   -1    0    0    0  501  0.00000000000E+00  0.00000000000E+00 -0.28105036519E+04  0.28105036519E+04  0.25500000920E-02 0. -1.
    10030    2    1    2    0    0  0.00000000000E+00  0.00000000000E+00 -0.17909897804E+04  0.38300175234E+04  0.33854674472E+04 0.  0.
        3    1    3    3  502    0  0.66128819229E+03  0.87985954264E+03 -0.23504036733E+04  0.25953520620E+04  0.10100000352E+00 0. -1.
       -3    1    3    3    0  502 -0.66128819229E+03 -0.87985954264E+03  0.55941389285E+03  0.12346654615E+04  0.10100000352E+00 0.  1.
</event>
<event>
 5   0  0.9714317E-07  0.2369886E+04  0.7818609E-02  0.8450865E-01
       -1   -1    0    0    0  501  0.00000000000E+00  0.00000000000E+00  0.15159083077E+04  0.15159083077E+04  0.50400001928E-02 0.  1.
        1   -1    0    0  501    0  0.00000000000E+00  0.00000000000E+00 -0.92623661529E+03  0.92623661530E+03  0.50400001928E-02 0. -1.
    10030    2    1    2    0    0  0.00000000000E+00  0.00000000000E+00  0.58967169238E+03  0.24421449230E+04  0.23698858876E+04 0.  0.
        4    1    3    3  502    0  0.74367344911E+01  0.57766321881E+02 -0.92475997774E+03  0.92659315899E+03  0.12699999809E+01 0. -1.
       -4    1    3    3    0  502 -0.74367344911E+01 -0.57766321881E+02  0.15144316701E+04  0.15155517640E+04  0.12699999809E+01 0.  1.
</event>
<event>
 5   0  0.1003191E-06  0.3497111E+04  0.7818609E-02  0.8114475E-01
        1   -1    0    0  501    0  0.00000000000E+00  0.00000000000E+00  0.12702383166E+04  0.12702383166E+04  0.50400001928E-02 0.  1.
       -1   -1    0    0    0  501  0.00000000000E+00  0.00000000000E+00 -0.24069859200E+04  0.24069859200E+04  0.50400001928E-02 0. -1.
    10030    2    1    2    0    0  0.00000000000E+00  0.00000000000E+00 -0.11367476034E+04  0.36772242366E+04  0.34971106606E+04 0.  0.
        5    1    3    3  502    0 -0.45114044868E+03  0.34893720341E+03 -0.23064232029E+04  0.23758987683E+04  0.46999998093E+01 0. -1.
       -5    1    3    3    0  502  0.45114044868E+03 -0.34893720341E+03  0.11696755995E+04  0.13013254683E+04  0.46999998093E+01 0.  1.
</event>
<event>
 5   0  0.2906701E-06  0.3216868E+04  0.7818609E-02  0.8184376E-01
       -2   -1    0    0    0  501  0.00000000000E+00  0.00000000000E+00  0.14457628548E+04  0.14457628548E+04  0.25500000920E-02 0. -1.
        2   -1    0    0  501    0  0.00000000000E+00  0.00000000000E+00 -0.17894086758E+04  0.17894086758E+04  0.25500000920E-02 0.  1.
    10030    2    1    2    0    0  0.00000000000E+00  0.00000000000E+00 -0.34364582107E+03  0.32351715306E+04  0.32168684123E+04 0.  0.
        5    1    3    3  502    0 -0.84626966029E+03  0.57963206766E+03 -0.14177798840E+04  0.17499335877E+04  0.46999998093E+01 0.  1.
       -5    1    3    3    0  502  0.84626966029E+03 -0.57963206766E+03  0.10741340630E+04  0.14852379429E+04  0.46999998093E+01 0. -1.
</event>
<event>
 5   0  0.1010855E-06  0.3081687E+04  0.7818609E-02  0.8220782E-01
        1   -1    0    0  501    0  0.00000000000E+00  0.00000000000E+00  0.24702346182E+04  0.24702346182E+04  0.50400001928E-02 0.  1.
       -1   -1    0    0    0  501  0.00000000000E+00  0.00000000000E+00 -0.96112271487E+03  0.96112271489E+03  0.50400001928E-02 0. -1.
    10030    2    1    2    0    0  0.00000000000E+00  0.00000000000E+00  0.15091119033E+04  0.34313573330E+04  0.30816869423E+04 0.  0.
        1    1    3    3  502    0 -0.14234720475E+03 -0.14983298214E+04  0.38703818912E+03  0.15540442530E+04  0.50400001928E-02 0. -1.
       -1    1    3    3    0  502  0.14234720475E+03  0.14983298214E+04  0.11220737142E+04  0.18773130800E+04  0.50400001928E-02 0.  1.
</event>
<event>
 5   0  0.2906701E-06  0.3403138E+04  0.7818609E-02  0.8137137E-01
        2   -1    0    0  501    0  0.00000000000E+00  0.00000000000E+00  0.24087879377E+04  0.24087879377E+04  0.25500000920E-02 0. -1.
       -2   -1    0    0    0  501  0.00000000000E+00  0.00000000000E+00 -0.12019888522E+04  0.12019888522E+04  0.25500000920E-02 0.  1.
    10030    2    1    2    0    0  0.00000000000E+00  0.00000000000E+00  0.12067990854E+04  0.36107767899E+04  0.34031375220E+04 0.  0.
        5    1    3    3  502    0 -0.33570156904E+03  0.16493300712E+04  0.86828979848E+03  0.18939204026E+04  0.46999998093E+01 0. -1.
       -5    1    3    3    0  502  0.33570156904E+03 -0.16493300712E+04  0.33850928694E+03  0.17168563873E+04  0.46999998093E+01 0.  1.
</event>
<event>
 5   0  0.1010551E-06  0.3467119E+04  0.7818609E-02  0.8121627E-01
        1   -1    0    0  501    0  0.00000000000E+00  0.00000000000E+00  0.15174083603E+04  0.15174083603E+04  0.50400001928E-02 0.  1.
       -1   -1    0    0    0  501  0.00000000000E+00  0.00000000000E+00 -0.19805012055E+04  0.19805012055E+04  0.50400001928E-02 0. -1.
    10030    2    1    2    0    0  0.00000000000E+00  0.00000000000E+00 -0.46309284521E+03  0.34979095658E+04  0.34671193154E+04 0.  0.
        2    1    3    3  502    0 -0.97380419439E+03 -0.10135356530E+04 -0.12552893618E+04  0.18844894563E+04  0.25500000920E-02 0. -1.
       -2    1    3    3    0  502  0.97380419439E+03  0.10135356530E+04  0.79219651662E+03  0.16134201095E+04  0.25500000920E-02 0.  1.
</event>
<event>
 5   0  0.9232963E-07  0.3457524E+04  0.7818609E-02  0.8123931E-01
       -1   -1    0    0    0  501  0.00000000000E+00  0.00000000000E+00  0.13009497925E+04  0.13009497925E+04  0.50400001928E-02 0. -1.
        1   -1    0    0  501    0  0.00000000000E+00  0.00000000000E+00 -0.22972581414E+04  0.22972581414E+04  0.50400001928E-02 0.  1.
    10030    2    1    2    0    0  0.00000000000E+00  0.00000000000E+00 -0.99630834884E+03  0.35982079339E+04  0.34575236817E+04 0.  0.
        3    1    3    3  502    0 -0.94987608291E+03 -0.93404393091E+03  0.64845445594E+03  0.14816193267E+04  0.10100000352E+00 0. -1.
       -3    1    3    3    0  502  0.94987608291E+03  0.93404393091E+03 -0.16447628048E+04  0.21165886072E+04  0.10100000352E+00 0.  1.
</event>
<event>
 5   0  0.1003191E-06  0.2997406E+04  0.7818609E-02  0.8244472E-01
        1   -1    0    0  501    0  0.00000000000E+00  0.00000000000E+00  0.18202017510E+04  0.18202017510E+04  0.50400001928E-02 0. -1.
       -1   -1    0    0    0  501  0.00000000000E+00  0.00000000000E+00 -0.12339902760E+04  0.12339902760E+04  0.50400001928E-02 0.  1.
    10030    2    1    2    0    0  0.00000000000E+00  0.00000000000E+00  0.58621147498E+03  0.30541920269E+04  0.29974063862E+04 0.  0.
        5    1    3    3  502    0 -0.57684205945E+02  0.14333584734E+04 -0.14898626127E+03  0.14422423434E+04  0.46999998093E+01 0.  1.
       -5    1    3    3    0  502  0.57684205945E+02 -0.14333584734E+04  0.73519773624E+03  0.16119496836E+04  0.46999998093E+01 0. -1.
</event>
<event>
 5   0  0.2664083E-06  0.2152804E+04  0.7818609E-02  0.8538333E-01
       -2   -1    0    0    0  501  0.00000000000E+00  0.00000000000E+00  0.10807437325E+04  0.10807437325E+04  0.25500000920E-02 0.  1.
        2   -1    0    0  501    0  0.00000000000E+00  0.00000000000E+00 -0.10720778599E+04  0.10720778599E+04  0.25500000920E-02 0. -1.
    10030    2    1    2    0    0  0.00000000000E+00  0.00000000000E+00  0.86658725523E+01  0.21528215924E+04  0.21528041507E+04 0.  0.
        2    1    3    3  502    0  0.51770625445E+02 -0.53333243611E+03  0.93789164605E+03  0.10801687020E+04  0.25500000920E-02 0.  1.
       -2    1    3    3    0  502 -0.51770625445E+02  0.53333243611E+03 -0.92922577350E+03  0.10726528904E+04  0.25500000920E-02 0. -1.
</event>
<event>
 5   0  0.2767014E-06  0.3427177E+04  0.7818609E-02  0.8131268E-01
        2   -1    0    0  501    0  0.00000000000E+00  0.00000000000E+00  0.26375974327E+04  0.26375974327E+04  0.25500000920E-02 0. -1.
       -2   -1    0    0    0  501  0.00000000000E+00  0.00000000000E+00 -0.11132801002E+04  0.11132801002E+04  0.25500000920E-02 0.  1.
    10030    2    1    2    0    0  0.00000000000E+00  0.00000000000E+00  0.15243173325E+04  0.37508775330E+04  0.34271765255E+04 0.  0.
        1    1    3    3  502    0  0.25065676055E+03 -0.20253051925E+03 -0.10798184470E+04  0.11268785655E+04  0.50400001928E-02 0.  1.
       -1    1    3    3    0  502 -0.25065676055E+03  0.20253051925E+03  0.26041357795E+04  0.26239989674E+04  0.50400001928E-02 0. -1.
</event>
<event>
 5   0  0.1010855E-06  0.3170273E+04  0.7818609E-02  0.8196712E-01
        1   -1    0    0  501    0  0.00000000000E+00  0.00000000000E+00  0.20752452764E+04  0.20752452764E+04  0.50400001928E-02 0. -1.
       -1   -1    0    0    0  501  0.00000000000E+00  0.00000000000E+00 -0.12107762556E+04  0.12107762556E+04  0.50400001928E-02 0.  1.
    10030    2    1    2    0    0  0.00000000000E+00  0.00000000000E+00  0.86446902080E+03  0.32860215319E+04  0.31702729883E+04 0.  0.
        1    1    3    3  502    0 -0.64853745131E+03 -0.12958719340E+04  0.10981655918E+04  0.18182003635E+04  0.50400001928E-02 0. -1.
       -1    1    3    3    0  502  0.64853745131E+03  0.12958719340E+04 -0.23369657096E+03  0.14678211684E+04  0.50400001928E-02 0.  1.
</event>
<event>
 5   0  0.9232963E-07  0.3389683E+04  0.7818609E-02  0.8140443E-01
        1   -1    0    0  501    0  0.00000000000E+00  0.00000000000E+00  0.12997651792E+04  0.12997651792E+04  0.50400001928E-02 0.  1.
       -1   -1    0    0    0  501  0.00000000000E+00  0.00000000000E+00 -0.22100055328E+04  0.22100055329E+04  0.50400001928E-02 0. -1.
    10030    2    1    2    0    0  0.00000000000E+00  0.00000000000E+00 -0.91024035362E+03  0.35097707121E+04  0.33896833112E+04 0.  0.
        3    1    3    3  502    0  0.11653552319E+04  0.27128787091E+03  0.78775422353E+03  0.14325524955E+04  0.10100000352E+00 0.  1.
       -3    1    3    3    0  502 -0.11653552319E+04 -0.27128787091E+03 -0.16979945771E+04  0.20772182166E+04  0.10100000352E+00 0. -1.
</event>
<event>
 5   0  0.9232963E-07  0.3395060E+04  0.7818609E-02  0.8139120E-01
        1   -1    0    0  501    0  0.00000000000E+00  0.00000000000E+00  0.19225173258E+04  0.19225173258E+04  0.50400001928E-02 0.  1.
       -1   -1    0    0    0  501  0.00000000000E+00  0.00000000000E+00 -0.14988719869E+04  0.14988719869E+04  0.50400001928E-02 0. -1.
    10030    2    1    2    0    0  0.00000000000E+00  0.00000000000E+00  0.42364533893E+03  0.34213893127E+04  0.33950595658E+04 0.  0.
        3    1    3    3  502    0 -0.56037742288E+03 -0.15072573266E+04  0.75987837581E+03  0.17785563418E+04  0.10100000352E+00 0.  1.
       -3    1    3    3    0  502  0.56037742288E+03  0.15072573266E+04 -0.33623303688E+03  0.16428329708E+04  0.10100000352E+00 0. -1.
</event>
<event>
 5   0  0.9714317E-07  0.3399203E+04  0.7818609E-02  0.8138102E-01
        1   -1    0    0  501    0  0.00000000000E+00  0.00000000000E+00  0.18907912460E+04  0.18907912460E+04  0.50400001928E-02 0. -1.
       -1   -1    0    0    0  501  0.00000000000E+00  0.00000000000E+00 -0.15277445070E+04  0.15277445070E+04  0.50400001928E-02 0.  1.
    10030    2    1    2    0    0  0.00000000000E+00  0.00000000000E+00  0.36304673903E+03  0.34185357530E+04  0.33992034008E+04 0.  0.
        4    1    3    3  502    0 -0.95030768364E+03 -0.65864036253E+03  0.14343016101E+04  0.18423122814E+04  0.12699999809E+01 0. -1.
       -4    1    3    3    0  502  0.95030768364E+03  0.65864036253E+03 -0.10712548711E+04  0.15762234716E+04  0.12699999809E+01 0.  1.
</event>
<event>
 5   0  0.2767014E-06  0.3410286E+04  0.7818609E-02  0.8135386E-01
        2   -1    0    0  501    0  0.00000000000E+00  0.00000000000E+00  0.12300743032E+04  0.12300743032E+04  0.25500000920E-02 0.  1.
       -2   -1    0    0    0  501  0.00000000000E+00  0.00000000000E+00 -0.23636889050E+04  0.23636889050E+04  0.25500000920E-02 0. -1.
    10030    2    1    2    0    0  0.00000000000E+00  0.00000000000E+00 -0.11336146018E+04  0.35937632082E+04  0.34102861949E+04 0.  0.
        1    1    3    3  502    0  0.97065065643E+02  0.16857853039E+04 -0.31694472502E+03  0.17180650967E+04  0.50400001928E-02 0.  1.
       -1    1    3    3    0  502 -0.97065065643E+02 -0.16857853039E+04 -0.81666987680E+03  0.18756981115E+04  0.50400001928E-02 0. -1.
</event>
<event>
 5   0  0.2848685E-06  0.3325269E+04  0.7818609E-02  0.8156495E-01
        2   -1    0    0  501    0  0.00000000000E+00  0.00000000000E+00  0.22424711960E+04  0.22424711960E+04  0.25500000920E-02 0.  1.
       -2   -1    0    0    0  501  0.00000000000E+00  0.00000000000E+00 -0.12327266248E+04  0.12327266248E+04  0.25500000920E-02 0. -1.
    10030    2    1    2    0    0  0.00000000000E+00  0.00000000000E+00  0.10097445712E+04  0.34751978208E+04  0.33252692815E+04 0.  0.
        3    1    3    3  502    0  0.27540723699E+03 -0.49060698912E+03  0.21399617697E+04  0.22126863199E+04  0.10100000352E+00 0.  1.
       -3    1    3    3    0  502 -0.27540723699E+03  0.49060698912E+03 -0.11302171985E+04  0.12625115010E+04  0.10100000352E+00 0. -1.
</event>
<event>
 5   0  0.9232963E-07  0.3449610E+04  0.7818609E-02  0.8125837E-01
        1   -1    0    0  501    0  0.00000000000E+00  0.00000000000E+00  0.19522193532E+04  0.19522193532E+04  0.50400001928E-02 0. -1.
       -1   -1    0    0    0  501  0.00000000000E+00  0.00000000000E+00 -0.15238818288E+04  0.15238818289E+04  0.50400001928E-02 0.  1.
    10030    2    1    2    0    0  0.00000000000E+00  0.00000000000E+00  0.42833752432E+03  0.34761011820E+04  0.34496096001E+04 0.  0.
        3    1    3    3  502    0  0.53526715663E+03 -0.16149009541E+04  0.50013602817E+03  0.17732884924E+04  0.10100000352E+00 0.  1.
       -3    1    3    3    0  502 -0.53526715663E+03  0.16149009541E+04 -0.71798503844E+02  0.17028126896E+04  0.10100000352E+00 0. -1.
</event>
<event>
 5   0  0.2856440E-06  0.3528983E+04  0.7818609E-02  0.8106956E-01
        2   -1    0    0  501    0  0.00000000000E+00  0.00000000000E+00  0.21831203792E+04  0.21831203792E+04  0.25500000920E-02 0. -1.
       -2   -1    0    0    0  501  0.00000000000E+00  0.00000000000E+00 -0.14261375962E+04  0.14261375962E+04  0.25500000920E-02 0.  1.
    10030    2    1    2    0    0  0.00000000000E+00  0.00000000000E+00  0.75698278301E+03  0.36092579754E+04  0.35289828845E+04 0.  0.
        4    1    3    3  502    0  0.11625660761E+04  0.55438060263E+03 -0.85498209638E+03  0.15459281134E+04  0.12699999809E+01 0.  1.
       -4    1    3    3    0  502 -0.11625660761E+04 -0.55438060263E+03  0.16119648794E+04  0.20633298619E+04  0.12699999809E+01 0. -1.
</event>
<event>
 5   0  0.9232963E-07  0.3252455E+04  0.7818609E-02  0.8175100E-01
        1   -1    0    0  501    0  0.00000000000E+00  0.00000000000E+00  0.25016721334E+04  0.25016721334E+04  0.50400001928E-02 0.  1.
       -1   -1    0    0    0  501  0.00000000000E+00  0.00000000000E+00 -0.10571393726E+04  0.10571393727E+04  0.50400001928E-02 0. -1.
    10030    2    1    2    0    0  0.00000000000E+00  0.00000000000E+00  0.14445327608E+04  0.35588115061E+04  0.32524551402E+04 0.  0.
        3    1    3    3  502    0 -0.60259379913E+03  0.14970989653E+04  0.50290469025E+03  0.16903661545E+04  0.10100000352E+00 0. -1.
       -3    1    3    3    0  502  0.60259379913E+03 -0.14970989653E+04  0.94162807054E+03  0.18684453516E+04  0.10100000352E+00 0.  1.
</event>
<event>
 5   0  0.9232963E-07  0.3542333E+04  0.7818609E-02  0.8103830E-01
       -1   -1    0    0    0  501  0.00000000000E+00  0.00000000000E+00  0.17709121590E+04  0.17709121590E+04  0.50400001928E-02 0.  1.
        1   -1    0    0  501    0  0.00000000000E+00  0.00000000000E+00 -0.17714206583E+04  0.17714206583E+04  0.50400001928E-02 0. -1.
    10030    2    1    2    0    0  0.00000000000E+00  0.00000000000E+00 -0.50849928382E+00  0.35423328172E+04  0.35423327807E+04 0.  0.
        3    1    3    3  502    0 -0.26587660252E+03 -0.13371943336E+04 -0.11308520318E+04  0.17713287051E+04  0.10100000352E+00 0. -1.
       -3    1    3    3    0  502  0.26587660252E+03  0.13371943336E+04  0.11303435325E+04  0.17710041121E+04  0.10100000352E+00 0.  1.
</event>
<event>
 5   0  0.2848685E-06  0.3379908E+04  0.7818609E-02  0.8142855E-01
        2   -1    0    0  501    0  0.00000000000E+00  0.00000000000E+00  0.16752395367E+04  0.16752395367E+04  0.25500000920E-02 0. -1.
       -2   -1    0    0    0  501  0.00000000000E+00  0.00000000000E+00 -0.17047981184E+04  0.17047981184E+04  0.25500000920E-02 0.  1.
    10030    2    1    2    0    0  0.00000000000E+00  0.00000000000E+00 -0.29558581739E+02  0.33800376551E+04  0.33799084071E+04 0.  0.
        3    1    3    3  502    0 -0.85589813630E+03 -0.13655861180E+04  0.49372627400E+03  0.16855719234E+04  0.10100000352E+00 0.  1.
       -3    1    3    3    0  502  0.85589813630E+03  0.13655861180E+04 -0.52328485574E+03  0.16944657316E+04  0.10100000352E+00 0. -1.
</event>
<event>
 5   0  0.9714317E-07  0.2962212E+04  0.7818609E-02  0.8254604E-01
        1   -1    0    0  501    0  0.00000000000E+00  0.00000000000E+00  0.17062315153E+04  0.17062315153E+04  0.50400001928E-02 0.  1.
       -1   -1    0    0    0  501  0.00000000000E+00  0.00000000000E+00 -0.12856844977E+04  0.12856844977E+04  0.50400001928E-02 0. -1.
    10030    2    1    2    0    0  0.00000000000E+00  0.00000000000E+00  0.42054701767E+03  0.29919160130E+04  0.29622122873E+04 0.  0.
        4    1    3    3  502    0  0.12842566952E+04  0.47558983670E+03 -0.35945083116E+03  0.14158769243E+04  0.12699999809E+01 0. -1.
       -4    1    3    3    0  502 -0.12842566952E+04 -0.47558983670E+03  0.77999784883E+03  0.15760390887E+04  0.12699999809E+01 0.  1.
</event>
<event>
 5   0  0.9232963E-07  0.3450072E+04  0.7818609E-02  0.8125725E-01
        1   -1    0    0  501    0  0.00000000000E+00  0.00000000000E+00  0.20030320701E+04  0.20030320702E+04  0.50400001928E-02 0.  1.
       -1   -1    0    0    0  501  0.00000000000E+00  0.00000000000E+00 -0.14856219892E+04  0.14856219892E+04  0.50400001928E-02 0. -1.
    10030    2    1    2    0    0  0.00000000000E+00  0.00000000000E+00  0.51741008092E+03  0.34886540594E+04  0.34500715868E+04 0.  0.
        3    1    3    3  502    0 -0.32179634381E+03 -0.11015623829E+04  0.15610350290E+04  0.19374785011E+04  0.10100000352E+00 0.  1.
       -3    1    3    3    0  502  0.32179634381E+03  0.11015623829E+04 -0.10436249480E+04  0.15511755583E+04  0.10100000352E+00 0. -1.
</event>
<event>
 5   0  0.2664083E-06  0.2645500E+04  0.7818609E-02  0.8352908E-01
        2   -1    0    0  501    0  0.00000000000E+00  0.00000000000E+00  0.11580085843E+04  0.11580085843E+04  0.25500000920E-02 0. -1.
       -2   -1    0    0    0  501  0.00000000000E+00  0.00000000000E+00 -0.15109278798E+04  0.15109278798E+04  0.25500000920E-02 0.  1.
    10030    2    1    2    0    0  0.00000000000E+00  0.00000000000E+00 -0.35291929558E+03  0.26689364641E+04  0.26454999188E+04 0.  0.
        2    1    3    3  502    0  0.97000256561E+03 -0.61422486866E+03  0.48623886422E+03  0.12468381610E+04  0.25500000920E-02 0. -1.
       -2    1    3    3    0  502 -0.97000256561E+03  0.61422486866E+03 -0.83915815981E+03  0.14220983031E+04  0.25500000920E-02 0.  1.
</event>
<event>
 5   0  0.1010855E-06  0.3060632E+04  0.7818609E-02  0.8226626E-01
        1   -1    0    0  501    0  0.00000000000E+00  0.00000000000E+00  0.92362190050E+03  0.92362190051E+03  0.50400001928E-02 0. -1.
       -1   -1    0    0    0  501  0.00000000000E+00  0.00000000000E+00 -0.25355249822E+04  0.25355249822E+04  0.50400001928E-02 0.  1.
    10030    2    1    2    0    0  0.00000000000E+00  0.00000000000E+00 -0.16119030817E+04  0.34591468827E+04  0.30606315707E+04 0.  0.
        1    1    3    3  502    0 -0.12375680982E+04 -0.86105921668E+03 -0.50935322992E+03  0.15913637187E+04  0.50400001928E-02 0. -1.
       -1    1    3    3    0  502  0.12375680982E+04  0.86105921668E+03 -0.11025498518E+04  0.18677831640E+04  0.50400001928E-02 0.  1.
</event>
<event>
 5   0  0.2767014E-06  0.3330265E+04  0.7818609E-02  0.8155237E-01
        2   -1    0    0  501    0  0.00000000000E+00  0.00000000000E+00  0.14051563745E+04  0.14051563745E+04  0.25500000920E-02 0. -1.
       -2   -1    0    0    0  501  0.00000000000E+00  0.00000000000E+00 -0.19732087608E+04  0.19732087608E+04  0.25500000920E-02 0.  1.
    10030    2    1    2    0    0  0.00000000000E+00  0.00000000000E+00 -0.56805238635E+03  0.33783651353E+04  0.33302653759E+04 0.  0.
        1    1    3    3  502    0  0.13079965247E+04  0.13660743115E+02  0.76120745789E+03  0.15134326277E+04  0.50400001928E-02 0. -1.
       -1    1    3    3    0  502 -0.13079965247E+04 -0.13660743115E+02 -0.13292598442E+04  0.18649325076E+04  0.50400001928E-02 0.  1.
</event>
<event>
 5   0  0.1010551E-06  0.3398475E+04  0.7818609E-02  0.8138281E-01
       -1   -1    0    0    0  501  0.00000000000E+00  0.00000000000E+00  0.13812107110E+04  0.13812107110E+04  0.50400001928E-02 0. -1.
        1   -1    0    0  501    0  0.00000000000E+00  0.00000000000E+00 -0.20904908580E+04  0.20904908580E+04  0.50400001928E-02 0.  1.
    10030    2    1    2    0    0  0.00000000000E+00  0.00000000000E+00 -0.70928014701E+03  0.34717015691E+04  0.33984751666E+04 0.  0.
        2    1    3    3  502    0 -0.57354459761E+03 -0.15367965500E+04  0.98437915922E+02  0.16432854483E+04  0.25500000920E-02 0.  1.
       -2    1    3    3    0  502  0.57354459761E+03  0.15367965500E+04 -0.80771806293E+03  0.18284161208E+04  0.25500000920E-02 0. -1.
</event>
<event>
 5   0  0.9714317E-07  0.3326981E+04  0.7818609E-02  0.8156064E-01
        1   -1    0    0  501    0  0.00000000000E+00  0.00000000000E+00  0.21320501314E+04  0.21320501314E+04  0.50400001928E-02 0.  1.
       -1   -1    0    0    0  501  0.00000000000E+00  0.00000000000E+00 -0.12979057921E+04  0.12979057921E+04  0.50400001928E-02 0. -1.
    10030    2    1    2    0    0  0.00000000000E+00  0.00000000000E+00  0.83414433930E+03  0.34299559235E+04  0.33269807421E+04 0.  0.
        4    1    3    3  502    0  0.12303120053E+04  0.69654962489E+03  0.13207584407E+04  0.19347489455E+04  0.12699999809E+01 0. -1.
       -4    1    3    3    0  502 -0.12303120053E+04 -0.69654962489E+03 -0.48661410144E+03  0.14952069780E+04  0.12699999809E+01 0.  1.
</event>
<event>
 5   0  0.2848685E-06  0.3370850E+04  0.7818609E-02  0.8145098E-01
        2   -1    0    0  501    0  0.00000000000E+00  0.00000000000E+00  0.17165180018E+04  0.17165180018E+04  0.25500000920E-02 0. -1.
       -2   -1    0    0    0  501  0.00000000000E+00  0.00000000000E+00 -0.16548952290E+04  0.16548952290E+04  0.25500000920E-02 0.  1.
    10030    2    1    2    0    0  0.00000000000E+00  0.00000000000E+00  0.61622772800E+02  0.33714132307E+04  0.33708500124E+04 0.  0.
        3    1    3    3  502    0 -0.96141200124E+02  0.26434501220E+03 -0.16312532708E+04  0.16553273573E+04  0.10100000352E+00 0.  1.
       -3    1    3    3    0  502  0.96141200124E+02 -0.26434501220E+03  0.16928760436E+04  0.17160858735E+04  0.10100000352E+00 0. -1.
</event>
<event>
 5   0  0.9232963E-07  0.3436896E+04  0.7818609E-02  0.8128910E-01
       -1   -1    0    0    0  501  0.00000000000E+00  0.00000000000E+00  0.10900710215E+04  0.10900710215E+04  0.50400001928E-02 0. -1.
        1   -1    0    0  501    0  0.00000000000E+00  0.00000000000E+00 -0.27090559279E+04  0.27090559279E+04  0.50400001928E-02 0.  1.
    10030    2    1    2    0    0  0.00000000000E+00  0.00000000000E+00 -0.16189849065E+04  0.37991269494E+04  0.34368959033E+04 0.  0.
        3    1    3    3  502    0 -0.62494089504E+03  0.56938321337E+03 -0.24632735700E+04  0.26043166199E+04  0.10100000352E+00 0.  1.
       -3    1    3    3    0  502  0.62494089504E+03 -0.56938321337E+03  0.84428866351E+03  0.11948103295E+04  0.10100000352E+00 0. -1.
</event>
<event>
 5   0  0.2664083E-06  0.3386460E+04  0.7818609E-02  0.8141238E-01
        2   -1    0    0  501    0  0.00000000000E+00  0.00000000000E+00  0.19376211551E+04  0.19376211551E+04  0.25500000920E-02 0. -1.
       -2   -1    0    0    0  501  0.00000000000E+00  0.00000000000E+00 -0.14796634034E+04  0.14796634034E+04  0.25500000920E-02 0.  1.
    10030    2    1    2    0    0  0.00000000000E+00  0.00000000000E+00  0.45795775177E+03  0.34172845585E+04  0.33864595748E+04 0.  0.
        2    1    3    3  502    0 -0.16182409255E+04  0.41340792717E+03  0.50975118579E+03  0.17462691885E+04  0.25500000920E-02 0. -1.
       -2    1    3    3    0  502  0.16182409255E+04 -0.41340792717E+03 -0.51793434021E+02  0.16710153701E+04  0.25500000920E-02 0.  1.
</event>
<event>
 5   0  0.2848685E-06  0.3431725E+04  0.7818609E-02  0.8130164E-01
        2   -1    0    0  501    0  0.00000000000E+00  0.00000000000E+00  0.28145016921E+04  0.28145016921E+04  0.25500000920E-02 0. -1.
       -2   -1    0    0    0  501  0.00000000000E+00  0.00000000000E+00 -0.10460762216E+04  0.10460762216E+04  0.25500000920E-02 0.  1.
    10030    2    1    2    0    0  0.00000000000E+00  0.00000000000E+00  0.17684254705E+04  0.38605779137E+04  0.34317245202E+04 0.  0.
        3    1    3    3  502    0 -0.16874136137E+04  0.67100903109E+02  0.54240765612E+03  0.17737173706E+04  0.10100000352E+00 0. -1.
       -3    1    3    3    0  502  0.16874136137E+04 -0.67100903109E+02  0.12260178144E+04  0.20868605431E+04  0.10100000352E+00 0.  1.
</event>
<event>
 5   0  0.2664083E-06  0.3446818E+04  0.7818609E-02  0.8126510E-01
        2   -1    0    0  501    0  0.00000000000E+00  0.00000000000E+00  0.21349208622E+04  0.21349208622E+04  0.25500000920E-02 0. -1.
       -2   -1    0    0    0  501  0.00000000000E+00  0.00000000000E+00 -0.13912171889E+04  0.13912171889E+04  0.25500000920E-02 0.  1.
    10030    2    1    2    0    0  0.00000000000E+00  0.00000000000E+00  0.74370367329E+03  0.35261380510E+04  0.34468180111E+04 0.  0.
        2    1    3    3  502    0  0.12054764137E+04 -0.11091143916E+03 -0.88302384711E+03  0.14984010965E+04  0.25500000920E-02 0.  1.
       -2    1    3    3    0  502 -0.12054764137E+04  0.11091143916E+03  0.16267275204E+04  0.20277369546E+04  0.25500000920E-02 0. -1.
</event>
<event>
 5   0  0.2664083E-06  0.3349233E+04  0.7818609E-02  0.8150480E-01
        2   -1    0    0  501    0  0.00000000000E+00  0.00000000000E+00  0.18704867491E+04  0.18704867491E+04  0.25500000920E-02 0. -1.
       -2   -1    0    0    0  501  0.00000000000E+00  0.00000000000E+00 -0.14992566123E+04  0.14992566123E+04  0.25500000920E-02 0.  1.
    10030    2    1    2    0    0  0.00000000000E+00  0.00000000000E+00  0.37123013682E+03  0.33697433613E+04  0.33492325250E+04 0.  0.
        2    1    3    3  502    0  0.17012149306E+03  0.81884841815E+03  0.16453223417E+04  0.18456813545E+04  0.25500000920E-02 0. -1.
       -2    1    3    3    0  502 -0.17012149306E+03 -0.81884841815E+03 -0.12740922048E+04  0.15240620069E+04  0.25500000920E-02 0.  1.
</event>
<event>
 5   0  0.1003191E-06  0.3377078E+04  0.7818609E-02  0.8143555E-01
        1   -1    0    0  501    0  0.00000000000E+00  0.00000000000E+00  0.17981530603E+04  0.17981530603E+04  0.50400001928E-02 0. -1.
       -1   -1    0    0    0  501  0.00000000000E+00  0.00000000000E+00 -0.15856071224E+04  0.15856071224E+04  0.50400001928E-02 0.  1.
    10030    2    1    2    0    0  0.00000000000E+00  0.00000000000E+00  0.21254593789E+03  0.33837601827E+04  0.33770782044E+04 0.  0.
        5    1    3    3  502    0 -0.12053409008E+04  0.31983438980E+03 -0.10344001511E+04  0.16202303807E+04  0.46999998093E+01 0.  1.
       -5    1    3    3    0  502  0.12053409008E+04 -0.31983438980E+03  0.12469460890E+04  0.17635298020E+04  0.46999998093E+01 0. -1.
</event>
<event>
 5   0  0.1010855E-06  0.3459500E+04  0.7818609E-02  0.8123456E-01
       -1   -1    0    0    0  501  0.00000000000E+00  0.00000000000E+00  0.11293975131E+04  0.11293975131E+04  0.50400001928E-02 0. -1.
        1   -1    0    0  501    0  0.00000000000E+00  0.00000000000E+00 -0.26492307196E+04  0.26492307196E+04  0.50400001928E-02 0.  1.
    10030    2    1    2    0    0  0.00000000000E+00  0.00000000000E+00 -0.15198332065E+04  0.37786282326E+04  0.34594997247E+04 0.  0.
        1    1    3    3  502    0 -0.12154056871E+03  0.39601965170E+03  0.10744181646E+04  0.11515112100E+04  0.50400001928E-02 0. -1.
       -1    1    3    3    0  502  0.12154056871E+03 -0.39601965170E+03 -0.25942513711E+04  0.26271170226E+04  0.50400001928E-02 0.  1.
</event>
<event>
 5   0  0.2664083E-06  0.3431734E+04  0.7818609E-02  0.8130161E-01
        2   -1    0    0  501    0  0.00000000000E+00  0.00000000000E+00  0.29451098821E+04  0.29451098821E+04  0.25500000920E-02 0.  1.
       -2   -1    0    0    0  501  0.00000000000E+00  0.00000000000E+00 -0.99969094413E+03  0.99969094414E+03  0.25500000920E-02 0. -1.
    10030    2    1    2    0    0  0.00000000000E+00  0.00000000000E+00  0.19454189379E+04  0.39448008262E+04  0.34317340681E+04 0.  0.
        2    1    3    3  502    0 -0.18137853311E+03  0.79519598525E+03  0.27080322488E+04  0.28281926186E+04  0.25500000920E-02 0.  1.
       -2    1    3    3    0  502  0.18137853311E+03 -0.79519598525E+03 -0.76261331092E+03  0.11166082076E+04  0.25500000920E-02 0. -1.
</event>
<event>
 5   0  0.2664083E-06  0.3445652E+04  0.7818609E-02  0.8126792E-01
        2   -1    0    0  501    0  0.00000000000E+00  0.00000000000E+00  0.21400036160E+04  0.21400036160E+04  0.25500000920E-02 0.  1.
       -2   -1    0    0    0  501  0.00000000000E+00  0.00000000000E+00 -0.13869743835E+04  0.13869743835E+04  0.25500000920E-02 0. -1.
    10030    2    1    2    0    0  0.00000000000E+00  0.00000000000E+00  0.75302923251E+03  0.35269779994E+04  0.34456524467E+04 0.  0.
        2    1    3    3  502    0  0.10905440621E+04  0.10687249160E+04 -0.44023470252E+03  0.15891085208E+04  0.25500000920E-02 0. -1.
       -2    1    3    3    0  502 -0.10905440621E+04 -0.10687249160E+04  0.11932639350E+04  0.19378694786E+04  0.25500000920E-02 0.  1.
</event>
<event>
 5   0  0.2848685E-06  0.3393635E+04  0.7818609E-02  0.8139470E-01
       -2   -1    0    0    0  501  0.00000000000E+00  0.00000000000E+00  0.16276745091E+04  0.16276745091E+04  0.25500000920E-02 0.  1.
        2   -1    0    0  501    0  0.00000000000E+00  0.00000000000E+00 -0.17688975070E+04  0.17688975070E+04  0.25500000920E-02 0. -1.
    10030    2    1    2    0    0  0.00000000000E+00  0.00000000000E+00 -0.14122299786E+03  0.33965720162E+04  0.33936348545E+04 0.  0.
        3    1    3    3  502    0 -0.54865540017E+03 -0.79919705847E+03 -0.14644584393E+04  0.17562395102E+04  0.10100000352E+00 0. -1.
       -3    1    3    3    0  502  0.54865540017E+03  0.79919705847E+03  0.13232354415E+04  0.16403325060E+04  0.10100000352E+00 0.  1.
</event>
<event>
 5   0  0.1010551E-06  0.3563164E+04  0.7818609E-02  0.8098982E-01
        1   -1    0    0  501    0  0.00000000000E+00  0.00000000000E+00  0.14931997577E+04  0.14931997577E+04  0.50400001928E-02 0.  1.
       -1   -1    0    0    0  501  0.00000000000E+00  0.00000000000E+00 -0.21256599293E+04  0.21256599293E+04  0.50400001928E-02 0. -1.
    10030    2    1    2    0    0  0.00000000000E+00  0.00000000000E+00 -0.63246017162E+03  0.36188596870E+04  0.35631642631E+04 0.  0.
        2    1    3    3  502    0  0.16762585431E+04  0.23731754308E+03  0.24730557098E+03  0.17109419526E+04  0.25500000920E-02 0. -1.
       -2    1    3    3    0  502 -0.16762585431E+04 -0.23731754308E+03 -0.87976574260E+03  0.19079177345E+04  0.25500000920E-02 0.  1.
</event>
<event>
 5   0  0.1010855E-06  0.3379775E+04  0.7818609E-02  0.8142888E-01
        1   -1    0    0  501    0  0.00000000000E+00  0.00000000000E+00  0.21213674989E+04  0.21213674989E+04  0.50400001928E-02 0.  1.
       -1   -1    0    0    0  501  0.00000000000E+00  0.00000000000E+00 -0.13461690402E+04  0.13461690403E+04  0.50400001928E-02 0. -1.
    10030    2    1    2    0    0  0.00000000000E+00  0.00000000000E+00  0.77519845866E+03  0.34675365392E+04  0.33797746966E+04 0.  0.
        1    1    3    3  502    0 -0.16324769539E+04  0.40595510852E+03  0.55283625044E+03  0.17707084669E+04  0.50400001928E-02 0. -1.
       -1    1    3    3    0  502  0.16324769539E+04 -0.40595510852E+03  0.22236220823E+03  0.16968280722E+04  0.50400001928E-02 0.  1.
</event>
<event>
 5   0  0.2664083E-06  0.3509227E+04  0.7818609E-02  0.8111607E-01
        2   -1    0    0  501    0  0.00000000000E+00  0.00000000000E+00  0.21968321159E+04  0.21968321159E+04  0.25500000920E-02 0. -1.
       -2   -1    0    0    0  501  0.00000000000E+00  0.00000000000E+00 -0.14014123790E+04  0.14014123790E+04  0.25500000920E-02 0.  1.
    10030    2    1    2    0    0  0.00000000000E+00  0.00000000000E+00  0.79541973692E+03  0.35982444949E+04  0.35092265369E+04 0.  0.
        2    1    3    3  502    0  0.11176643777E+04  0.17213337420E+03 -0.97791218482E+03  0.14950303679E+04  0.25500000920E-02 0.  1.
       -2    1    3    3    0  502 -0.11176643777E+04 -0.17213337420E+03  0.17733319217E+04  0.21032141271E+04  0.25500000920E-02 0. -1.
</event>
<event>
 5   0  0.2906701E-06  0.2097195E+04  0.7818609E-02  0.8562480E-01
        2   -1    0    0  501    0  0.00000000000E+00  0.00000000000E+00  0.12473923972E+04  0.12473923972E+04  0.25500000920E-02 0. -1.
       -2   -1    0    0    0  501  0.00000000000E+00  0.00000000000E+00 -0.88148433480E+03  0.88148433480E+03  0.25500000920E-02 0.  1.
    10030    2    1    2    0    0  0.00000000000E+00  0.00000000000E+00  0.36590806236E+03  0.21288767320E+04  0.20971951339E+04 0.  0.
        5    1    3    3  502    0 -0.26582478747E+03  0.16106199277E+03  0.11995472260E+04  0.12391688426E+04  0.46999998093E+01 0. -1.
       -5    1    3    3    0  502  0.26582478747E+03 -0.16106199277E+03 -0.83363916365E+03  0.88970788932E+03  0.46999998093E+01 0.  1.
</event>
<event>
 5   0  0.1010551E-06  0.3391904E+04  0.7818609E-02  0.8139896E-01
        1   -1    0    0  501    0  0.00000000000E+00  0.00000000000E+00  0.14671440772E+04  0.14671440772E+04  0.50400001928E-02 0. -1.
       -1   -1    0    0    0  501  0.00000000000E+00  0.00000000000E+00 -0.19604439700E+04  0.19604439700E+04  0.50400001928E-02 0.  1.
    10030    2    1    2    0    0  0.00000000000E+00  0.00000000000E+00 -0.49329989282E+03  0.34275880472E+04  0.33919043379E+04 0.  0.
        2    1    3    3  502    0  0.10949806961E+04  0.10670471451E+04 -0.98832047896E+03  0.18205355542E+04  0.25500000920E-02 0.  1.
       -2    1    3    3    0  502 -0.10949806961E+04 -0.10670471451E+04  0.49502058614E+03  0.16070524931E+04  0.25500000920E-02 0. -1.
</event>
<event>
 5   0  0.1003191E-06  0.3316353E+04  0.7818609E-02  0.8158747E-01
        1   -1    0    0  501    0  0.00000000000E+00  0.00000000000E+00  0.14781411852E+04  0.14781411852E+04  0.50400001928E-02 0.  1.
       -1   -1    0    0    0  501  0.00000000000E+00  0.00000000000E+00 -0.18601396303E+04  0.18601396303E+04  0.50400001928E-02 0. -1.
    10030    2    1    2    0    0  0.00000000000E+00  0.00000000000E+00 -0.38199844509E+03  0.33382808156E+04  0.33163528147E+04 0.  0.
        5    1    3    3  502    0  0.72489184796E+02  0.12545924568E+04 -0.12799422892E+04  0.17937478274E+04  0.46999998093E+01 0. -1.
       -5    1    3    3    0  502 -0.72489184796E+02 -0.12545924568E+04  0.89794384412E+03  0.15445329882E+04  0.46999998093E+01 0.  1.
</event>
<event>
 5   0  0.2856440E-06  0.3417203E+04  0.7818609E-02  0.8133697E-01
        2   -1    0    0  501    0  0.00000000000E+00  0.00000000000E+00  0.19296871909E+04  0.19296871909E+04  0.25500000920E-02 0. -1.
       -2   -1    0    0    0  501  0.00000000000E+00  0.00000000000E+00 -0.15128457002E+04  0.15128457002E+04  0.25500000920E-02 0.  1.
    10030    2    1    2    0    0  0.00000000000E+00  0.00000000000E+00  0.41684149067E+03  0.34425328912E+04  0.34172029320E+04 0.  0.
        4    1    3    3  502    0 -0.41096584524E+02 -0.34496573103E+03 -0.14768894321E+04  0.15171994900E+04  0.12699999809E+01 0.  1.
       -4    1    3    3    0  502  0.41096584524E+02  0.34496573103E+03  0.18937309228E+04  0.19253334012E+04  0.12699999809E+01 0. -1.
</event>
<event>
 5   0  0.9232963E-07  0.3368542E+04  0.7818609E-02  0.8145671E-01
        1   -1    0    0  501    0  0.00000000000E+00  0.00000000000E+00  0.29295322145E+04  0.29295322146E+04  0.50400001928E-02 0.  1.
       -1   -1    0    0    0  501  0.00000000000E+00  0.00000000000E+00 -0.96833481124E+03  0.96833481125E+03  0.50400001928E-02 0. -1.
    10030    2    1    2    0    0  0.00000000000E+00  0.00000000000E+00  0.19611974033E+04  0.38978670258E+04  0.33685415384E+04 0.  0.
        3    1    3    3  502    0  0.52483022738E+03  0.15344588577E+04  0.15067558759E+04  0.22136675526E+04  0.10100000352E+00 0. -1.
       -3    1    3    3    0  502 -0.52483022738E+03 -0.15344588577E+04  0.45444152746E+03  0.16841994732E+04  0.10100000352E+00 0.  1.
</event>
<event>
 5   0  0.1010551E-06  0.3422252E+04  0.7818609E-02  0.8132466E-01
        1   -1    0    0  501    0  0.00000000000E+00  0.00000000000E+00  0.12768955467E+04  0.12768955467E+04  0.50400001928E-02 0. -1.
       -1   -1    0    0    0  501  0.00000000000E+00  0.00000000000E+00 -0.22930243735E+04  0.22930243735E+04  0.50400001928E-02 0.  1.
    10030    2    1    2    0    0  0.00000000000E+00  0.00000000000E+00 -0.10161288268E+04  0.35699199202E+04  0.34222522472E+04 0.  0.
        2    1    3    3  502    0 -0.10130883644E+04  0.18173866312E+03  0.91787737871E+03  0.13790851526E+04  0.25500000920E-02 0. -1.
       -2    1    3    3    0  502  0.10130883644E+04 -0.18173866312E+03 -0.19340062055E+04  0.21908347676E+04  0.25500000920E-02 0.  1.
</event>
<event>
 5   0  0.2664083E-06  0.3356212E+04  0.7818609E-02  0.8148738E-01
       -2   -1    0    0    0  501  0.00000000000E+00  0.00000000000E+00  0.17410705631E+04  0.17410705631E+04  0.25500000920E-02 0.  1.
        2   -1    0    0  501    0  0.00000000000E+00  0.00000000000E+00 -0.16174189516E+04  0.16174189516E+04  0.25500000920E-02 0. -1.
    10030    2    1    2    0    0  0.00000000000E+00  0.00000000000E+00  0.12365161145E+03  0.33584895147E+04  0.33562124633E+04 0.  0.
        2    1    3    3  502    0  0.25352030325E+03  0.71719999920E+03 -0.14349805036E+04  0.16241359022E+04  0.25500000920E-02 0. -1.
       -2    1    3    3    0  502 -0.25352030325E+03 -0.71719999920E+03  0.15586321151E+04  0.17343536125E+04  0.25500000920E-02 0.  1.
</event>
<event>
 5   0  0.2848685E-06  0.3154856E+04  0.7818609E-02  0.8200842E-01
        2   -1    0    0  501    0  0.00000000000E+00  0.00000000000E+00  0.28029715980E+04  0.28029715980E+04  0.25500000920E-02 0.  1.
       -2   -1    0    0    0  501  0.00000000000E+00  0.00000000000E+00 -0.88772900708E+03  0.88772900708E+03  0.25500000920E-02 0. -1.
    10030    2    1    2    0    0  0.00000000000E+00  0.00000000000E+00  0.19152425909E+04  0.36907006051E+04  0.31548560624E+04 0.  0.
        3    1    3    3  502    0  0.15487634037E+04 -0.83631979153E+02  0.62137040932E+03  0.16708571406E+04  0.10100000352E+00 0. -1.
       -3    1    3    3    0  502 -0.15487634037E+04  0.83631979153E+02  0.12938721816E+04  0.20198434645E+04  0.10100000352E+00 0.  1.
</event>
<event>
 5   0  0.9714317E-07  0.3520356E+04  0.7818609E-02  0.8108983E-01
        1   -1    0    0  501    0  0.00000000000E+00  0.00000000000E+00  0.17646794800E+04  0.17646794800E+04  0.50400001928E-02 0. -1.
       -1   -1    0    0    0  501  0.00000000000E+00  0.00000000000E+00 -0.17556881946E+04  0.17556881946E+04  0.50400001928E-02 0.  1.
    10030    2    1    2    0    0  0.00000000000E+00  0.00000000000E+00  0.89912853997E+01  0.35203676746E+04  0.35203561924E+04 0.  0.
        4    1    3    3  502    0 -0.71442340649E+03 -0.14227915656E+04  0.75515691818E+03  0.17621010830E+04  0.12699999809E+01 0.  1.
       -4    1    3    3    0  502  0.71442340649E+03  0.14227915656E+04 -0.74616563278E+03  0.17582665916E+04  0.12699999809E+01 0. -1.
</event>
<event>
 5   0  0.2848685E-06  0.3364369E+04  0.7818609E-02  0.8146707E-01
        2   -1    0    0  501    0  0.00000000000E+00  0.00000000000E+00  0.20659828983E+04  0.20659828983E+04  0.25500000920E-02 0.  1.
       -2   -1    0    0    0  501  0.00000000000E+00  0.00000000000E+00 -0.13696843126E+04  0.13696843126E+04  0.25500000920E-02 0. -1.
    10030    2    1    2    0    0  0.00000000000E+00  0.00000000000E+00  0.69629858573E+03  0.34356672109E+04  0.33643688061E+04 0.  0.
        3    1    3    3  502    0  0.16809033057E+04 -0.63631714805E+02  0.36459769797E+03  0.17211671650E+04  0.10100000352E+00 0.  1.
       -3    1    3    3    0  502 -0.16809033057E+04  0.63631714805E+02  0.33170088776E+03  0.17145000459E+04  0.10100000352E+00 0. -1.
</event>
<event>
 5   0  0.9232963E-07  0.3280466E+04  0.7818609E-02  0.8167884E-01
        1   -1    0    0  501    0  0.00000000000E+00  0.00000000000E+00  0.17305539450E+04  0.17305539450E+04  0.50400001928E-02 0. -1.
       -1   -1    0    0    0  501  0.00000000000E+00  0.00000000000E+00 -0.15546262741E+04  0.15546262741E+04  0.50400001928E-02 0.  1.
    10030    2    1    2    0    0  0.00000000000E+00  0.00000000000E+00  0.17592767094E+03  0.32851802192E+04  0.32804662057E+04 0.  0.
        3    1    3    3  502    0  0.33847315824E+03  0.15657178849E+04 -0.26514467756E+03  0.16236804747E+04  0.10100000352E+00 0.  1.
       -3    1    3    3    0  502 -0.33847315824E+03 -0.15657178849E+04  0.44107234851E+03  0.16614997444E+04  0.10100000352E+00 0. -1.
</event>
<event>
 5   0  0.2664083E-06  0.3414099E+04  0.7818609E-02  0.8134455E-01
        2   -1    0    0  501    0  0.00000000000E+00  0.00000000000E+00  0.21884668501E+04  0.21884668501E+04  0.25500000920E-02 0.  1.
       -2   -1    0    0    0  501  0.00000000000E+00  0.00000000000E+00 -0.13315338770E+04  0.13315338770E+04  0.25500000920E-02 0. -1.
    10030    2    1    2    0    0  0.00000000000E+00  0.00000000000E+00  0.85693297317E+03  0.35200007271E+04  0.34140988560E+04 0.  0.
        2    1    3    3  502    0  0.64651688307E+03 -0.14539262857E+04 -0.20887674656E+03  0.16048411821E+04  0.25500000920E-02 0. -1.
       -2    1    3    3    0  502 -0.64651688307E+03  0.14539262857E+04  0.10658097197E+04  0.19151595451E+04  0.25500000920E-02 0.  1.
</event>
<event>
 5   0  0.2848685E-06  0.3371198E+04  0.7818609E-02  0.8145012E-01
        2   -1    0    0  501    0  0.00000000000E+00  0.00000000000E+00  0.20046974297E+04  0.20046974297E+04  0.25500000920E-02 0. -1.
       -2   -1    0    0    0  501  0.00000000000E+00  0.00000000000E+00 -0.14172928447E+04  0.14172928447E+04  0.25500000920E-02 0.  1.
    10030    2    1    2    0    0  0.00000000000E+00  0.00000000000E+00  0.58740458504E+03  0.34219902744E+04  0.33711976049E+04 0.  0.
        3    1    3    3  502    0 -0.28354320180E+03 -0.12550206858E+04  0.13990393366E+04  0.19007326863E+04  0.10100000352E+00 0. -1.
       -3    1    3    3    0  502  0.28354320180E+03  0.12550206858E+04 -0.81163475161E+03  0.15212575881E+04  0.10100000352E+00 0.  1.
</event>
<event>
 5   0  0.2767014E-06  0.2445676E+04  0.7818609E-02  0.8422598E-01
        2   -1    0    0  501    0  0.00000000000E+00  0.00000000000E+00  0.16940037196E+04  0.16940037196E+04  0.25500000920E-02 0. -1.
       -2   -1    0    0    0  501  0.00000000000E+00  0.00000000000E+00 -0.88272138849E+03  0.88272138849E+03  0.25500000920E-02 0.  1.
    10030    2    1    2    0    0  0.00000000000E+00  0.00000000000E+00  0.81128233106E+03  0.25767251080E+04  0.24456764426E+04 0.  0.
        1    1    3    3  502    0  0.11840768790E+02  0.39084851979E+02 -0.88200269637E+03  0.88294766883E+03  0.50400001928E-02 0.  1.
       -1    1    3    3    0  502 -0.11840768790E+02 -0.39084851979E+02  0.16932850274E+04  0.16937774392E+04  0.50400001928E-02 0. -1.
</event>
<event>
 5   0  0.1010855E-06  0.3337196E+04  0.7818609E-02  0.8153495E-01
        1   -1    0    0  501    0  0.00000000000E+00  0.00000000000E+00  0.14651945408E+04  0.14651945408E+04  0.50400001928E-02 0. -1.
       -1   -1    0    0    0  501  0.00000000000E+00  0.00000000000E+00 -0.19002384222E+04  0.19002384222E+04  0.50400001928E-02 0.  1.
    10030    2    1    2    0    0  0.00000000000E+00  0.00000000000E+00 -0.43504388139E+03  0.33654329629E+04  0.33371958063E+04 0.  0.
        1    1    3    3  502    0 -0.10717931698E+04 -0.90084872272E+02  0.10689534544E+04  0.15164159622E+04  0.50400001928E-02 0. -1.
       -1    1    3    3    0  502  0.10717931698E+04  0.90084872272E+02 -0.15039973357E+04  0.18490170007E+04  0.50400001928E-02 0.  1.
</event>
<event>
 5   0  0.2848685E-06  0.2098250E+04  0.7818609E-02  0.8562014E-01
       -2   -1    0    0    0  501  0.00000000000E+00  0.00000000000E+00  0.60393458641E+03  0.60393458642E+03  0.25500000920E-02 0.  1.
        2   -1    0    0  501    0  0.00000000000E+00  0.00000000000E+00 -0.18224881767E+04  0.18224881767E+04  0.25500000920E-02 0. -1.
    10030    2    1    2    0    0  0.00000000000E+00  0.00000000000E+00 -0.12185535903E+04  0.24264227631E+04  0.20982503599E+04 0.  0.
        3    1    3    3  502    0  0.90356093335E+03 -0.78348183398E+02  0.55754106268E+00  0.90695155283E+03  0.10100000352E+00 0.  1.
       -3    1    3    3    0  502 -0.90356093335E+03  0.78348183398E+02 -0.12191111313E+04  0.15194712103E+04  0.10100000352E+00 0. -1.
</event>
<event>
 5   0  0.9714317E-07  0.3879848E+04  0.7818609E-02  0.8029234E-01
        1   -1    0    0  501    0  0.00000000000E+00  0.00000000000E+00  0.19444787492E+04  0.19444787492E+04  0.50400001928E-02 0.  1.
       -1   -1    0    0    0  501  0.00000000000E+00  0.00000000000E+00 -0.19353799426E+04  0.19353799426E+04  0.50400001928E-02 0. -1.
    10030    2    1    2    0    0  0.00000000000E+00  0.00000000000E+00  0.90988065675E+01  0.38798586918E+04  0.38798480228E+04 0.  0.
        4    1    3    3  502    0 -0.86030948195E+03 -0.45679388319E+03 -0.16731055015E+04  0.19359950125E+04  0.12699999809E+01 0. -1.
       -4    1    3    3    0  502  0.86030948195E+03  0.45679388319E+03  0.16822043081E+04  0.19438636793E+04  0.12699999809E+01 0.  1.
</event>
<event>
 5   0  0.2906701E-06  0.3406004E+04  0.7818609E-02  0.8136434E-01
        2   -1    0    0  501    0  0.00000000000E+00  0.00000000000E+00  0.14299803607E+04  0.14299803607E+04  0.25500000920E-02 0. -1.
       -2   -1    0    0    0  501  0.00000000000E+00  0.00000000000E+00 -0.20281504747E+04  0.20281504747E+04  0.25500000920E-02 0.  1.
    10030    2    1    2    0    0  0.00000000000E+00  0.00000000000E+00 -0.59817011401E+03  0.34581308353E+04  0.34060037271E+04 0.  0.
        5    1    3    3  502    0  0.63762811374E+03 -0.11794159780E+04 -0.13652038773E+04  0.19134772999E+04  0.46999998093E+01 0.  1.
       -5    1    3    3    0  502 -0.63762811374E+03  0.11794159780E+04  0.76703376325E+03  0.15446535355E+04  0.46999998093E+01 0. -1.
</event>
<event>
 5   0  0.9714317E-07  0.3219627E+04  0.7818609E-02  0.8183653E-01
        1   -1    0    0  501    0  0.00000000000E+00  0.00000000000E+00  0.14175650818E+04  0.14175650818E+04  0.50400001928E-02 0.  1.
       -1   -1    0    0    0  501  0.00000000000E+00  0.00000000000E+00 -0.18281342002E+04  0.18281342002E+04  0.50400001928E-02 0. -1.
    10030    2    1    2    0    0  0.00000000000E+00  0.00000000000E+00 -0.41056911837E+03  0.32456992820E+04  0.32196268151E+04 0.  0.
        4    1    3    3  502    0 -0.10183742168E+04  0.66288385129E+03  0.85920034053E+03  0.14881961846E+04  0.12699999809E+01 0.  1.
       -4    1    3    3    0  502  0.10183742168E+04 -0.66288385129E+03 -0.12697694589E+04  0.17575030974E+04  0.12699999809E+01 0. -1.
</event>
<event>
 5   0  0.1003191E-06  0.3389662E+04  0.7818609E-02  0.8140448E-01
        1   -1    0    0  501    0  0.00000000000E+00  0.00000000000E+00  0.18345804354E+04  0.18345804354E+04  0.50400001928E-02 0.  1.
       -1   -1    0    0    0  501  0.00000000000E+00  0.00000000000E+00 -0.15657268369E+04  0.15657268369E+04  0.50400001928E-02 0. -1.
    10030    2    1    2    0    0  0.00000000000E+00  0.00000000000E+00  0.26885359850E+03  0.34003072722E+04  0.33896618250E+04 0.  0.
        5    1    3    3  502    0 -0.69382122847E+03  0.75510189094E+03 -0.12192046126E+04  0.15931254628E+04  0.46999998093E+01 0. -1.
       -5    1    3    3    0  502  0.69382122847E+03 -0.75510189094E+03  0.14880582111E+04  0.18071818094E+04  0.46999998093E+01 0.  1.
</event>
<event>
 5   0  0.2767014E-06  0.3674968E+04  0.7818609E-02  0.8073532E-01
       -2   -1    0    0    0  501  0.00000000000E+00  0.00000000000E+00  0.13198503149E+04  0.13198503149E+04  0.25500000920E-02 0.  1.
        2   -1    0    0  501    0  0.00000000000E+00  0.00000000000E+00 -0.25581285689E+04  0.25581285689E+04  0.25500000920E-02 0. -1.
    10030    2    1    2    0    0  0.00000000000E+00  0.00000000000E+00 -0.12382782541E+04  0.38779788838E+04  0.36749676446E+04 0.  0.
        1    1    3    3  502    0  0.68907500352E+03  0.70940803466E+03  0.10150423912E+04  0.14171785971E+04  0.50400001928E-02 0.  1.
       -1    1    3    3    0  502 -0.68907500352E+03 -0.70940803466E+03 -0.22533206453E+04  0.24608002867E+04  0.50400001928E-02 0. -1.
</event>
<event>
 5   0  0.2856440E-06  0.3390158E+04  0.7818609E-02  0.8140326E-01
       -2   -1    0    0    0  501  0.00000000000E+00  0.00000000000E+00  0.12997567641E+04  0.12997567641E+04  0.25500000920E-02 0.  1.
        2   -1    0    0  501    0  0.00000000000E+00  0.00000000000E+00 -0.22106393167E+04  0.22106393167E+04  0.25500000920E-02 0. -1.
    10030    2    1    2    0    0  0.00000000000E+00  0.00000000000E+00 -0.91088255259E+03  0.35103960808E+04  0.33901583472E+04 0.  0.
        4    1    3    3  502    0  0.30900958614E+03  0.13724982681E+04 -0.14345205568E+04  0.20092509204E+04  0.12699999809E+01 0. -1.
       -4    1    3    3    0  502 -0.30900958614E+03 -0.13724982681E+04  0.52363800423E+03  0.15011451604E+04  0.12699999809E+01 0.  1.
</event>
<event>
 5   0  0.2848685E-06  0.3354178E+04  0.7818609E-02  0.8149245E-01
        2   -1    0    0  501    0  0.00000000000E+00  0.00000000000E+00  0.20342671646E+04  0.20342671646E+04  0.25500000920E-02 0. -1.
       -2   -1    0    0    0  501  0.00000000000E+00  0.00000000000E+00 -0.13826244406E+04  0.13826244406E+04  0.25500000920E-02 0.  1.
    10030    2    1    2    0    0  0.00000000000E+00  0.00000000000E+00  0.65164272404E+03  0.34168916052E+04  0.33541779920E+04 0.  0.
        3    1    3    3  502    0  0.11385741666E+04  0.41802939746E+03 -0.85407790675E+03  0.14834246833E+04  0.10100000352E+00 0.  1.
       -3    1    3    3    0  502 -0.11385741666E+04 -0.41802939746E+03  0.15057206308E+04  0.19334669219E+04  0.10100000352E+00 0. -1.
</event>
<event>
 5   0  0.9714317E-07  0.3284134E+04  0.7818609E-02  0.8166944E-01
        1   -1    0    0  501    0  0.00000000000E+00  0.00000000000E+00  0.20774103735E+04  0.20774103735E+04  0.50400001928E-02 0. -1.
       -1   -1    0    0    0  501  0.00000000000E+00  0.00000000000E+00 -0.12979546233E+04  0.12979546233E+04  0.50400001928E-02 0.  1.
    10030    2    1    2    0    0  0.00000000000E+00  0.00000000000E+00  0.77945575020E+03  0.33753649967E+04  0.32841342230E+04 0.  0.
        4    1    3    3  502    0  0.64983914474E+03  0.73198029299E+03 -0.96534234021E+03  0.13747630742E+04  0.12699999809E+01 0.  1.
       -4    1    3    3    0  502 -0.64983914474E+03 -0.73198029299E+03  0.17447980904E+04  0.20006019226E+04  0.12699999809E+01 0. -1.
</event>
<event>
 5   0  0.1010551E-06  0.3367056E+04  0.7818609E-02  0.8146040E-01
       -1   -1    0    0    0  501  0.00000000000E+00  0.00000000000E+00  0.11123277201E+04  0.11123277201E+04  0.50400001928E-02 0. -1.
        1   -1    0    0  501    0  0.00000000000E+00  0.00000000000E+00 -0.25480497416E+04  0.25480497416E+04  0.50400001928E-02 0.  1.
    10030    2    1    2    0    0  0.00000000000E+00  0.00000000000E+00 -0.14357220215E+04  0.36603774617E+04  0.33670559008E+04 0.  0.
        2    1    3    3  502    0  0.10887546161E+04  0.11246455151E+04 -0.13915674227E+04  0.20944388367E+04  0.25500000920E-02 0.  1.
       -2    1    3    3    0  502 -0.10887546161E+04 -0.11246455151E+04 -0.44154598789E+02  0.15659386250E+04  0.25500000920E-02 0. -1.
</event>
<event>
 5   0  0.2906701E-06  0.3390818E+04  0.7818609E-02  0.8140163E-01
       -2   -1    0    0    0  501  0.00000000000E+00  0.00000000000E+00  0.12362217136E+04  0.12362217136E+04  0.25500000920E-02 0.  1.
        2   -1    0    0  501    0  0.00000000000E+00  0.00000000000E+00 -0.23251591930E+04  0.23251591930E+04  0.25500000920E-02 0. -1.
    10030    2    1    2    0    0  0.00000000000E+00  0.00000000000E+00 -0.10889374794E+04  0.35613809066E+04  0.33908183566E+04 0.  0.
        5    1    3    3  502    0 -0.68896402743E+03  0.89782342718E+03  0.78142250079E+03  0.13752823536E+04  0.46999998093E+01 0.  1.
       -5    1    3    3    0  502  0.68896402743E+03 -0.89782342718E+03 -0.18703599802E+04  0.21860985529E+04  0.46999998093E+01 0. -1.
</event>
<event>
 5   0  0.1010855E-06  0.3681818E+04  0.7818609E-02  0.8072003E-01
       -1   -1    0    0    0  501  0.00000000000E+00  0.00000000000E+00  0.16445833521E+04  0.16445833521E+04  0.50400001928E-02 0. -1.
        1   -1    0    0  501    0  0.00000000000E+00  0.00000000000E+00 -0.20606714392E+04  0.20606714392E+04  0.50400001928E-02 0.  1.
    10030    2    1    2    0    0  0.00000000000E+00  0.00000000000E+00 -0.41608808712E+03  0.37052547913E+04  0.36818179982E+04 0.  0.
        1    1    3    3  502    0  0.11987457497E+04  0.37166309591E+03  0.11473107235E+04  0.17004254543E+04  0.50400001928E-02 0. -1.
       -1    1    3    3    0  502 -0.11987457497E+04 -0.37166309591E+03 -0.15633988106E+04  0.20048293370E+04  0.50400001928E-02 0.  1.
</event>
<event>
 5   0  0.2848685E-06  0.3448556E+04  0.7818609E-02  0.8126091E-01
        2   -1    0    0  501    0  0.00000000000E+00  0.00000000000E+00  0.17962853433E+04  0.17962853433E+04  0.25500000920E-02 0. -1.
       -2   -1    0    0    0  501  0.00000000000E+00  0.00000000000E+00 -0.16551570488E+04  0.16551570488E+04  0.25500000920E-02 0.  1.
    10030    2    1    2    0    0  0.00000000000E+00  0.00000000000E+00  0.14112829449E+03  0.34514423921E+04  0.34485558412E+04 0.  0.
        3    1    3    3  502    0  0.10147008539E+04  0.13099889312E+04  0.54787581919E+03  0.17452383064E+04  0.10100000352E+00 0. -1.
       -3    1    3    3    0  502 -0.10147008539E+04 -0.13099889312E+04 -0.40674752471E+03  0.17062040856E+04  0.10100000352E+00 0.  1.
</event>
<event>
 5   0  0.1010551E-06  0.3413493E+04  0.7818609E-02  0.8134603E-01
       -1   -1    0    0    0  501  0.00000000000E+00  0.00000000000E+00  0.12474527875E+04  0.12474527875E+04  0.50400001928E-02 0. -1.
        1   -1    0    0  501    0  0.00000000000E+00  0.00000000000E+00 -0.23351457022E+04  0.23351457022E+04  0.50400001928E-02 0.  1.
    10030    2    1    2    0    0  0.00000000000E+00  0.00000000000E+00 -0.10876929147E+04  0.35825984897E+04  0.34134932345E+04 0.  0.
        2    1    3    3  502    0 -0.11013422787E+04 -0.26663196156E+03  0.79567965012E+03  0.13846131313E+04  0.25500000920E-02 0. -1.
       -2    1    3    3    0  502  0.11013422787E+04  0.26663196156E+03 -0.18833725649E+04  0.21979853584E+04  0.25500000920E-02 0.  1.
</event>
<event>
 5   0  0.9714317E-07  0.3312140E+04  0.7818609E-02  0.8159813E-01
       -1   -1    0    0    0  501  0.00000000000E+00  0.00000000000E+00  0.14367848740E+04  0.14367848740E+04  0.50400001928E-02 0. -1.
        1   -1    0    0  501    0  0.00000000000E+00  0.00000000000E+00 -0.19088230075E+04  0.19088230075E+04  0.50400001928E-02 0.  1.
    10030    2    1    2    0    0  0.00000000000E+00  0.00000000000E+00 -0.47203813350E+03  0.33456078814E+04  0.33121401083E+04 0.  0.
        4    1    3    3  502    0 -0.26227335120E+03  0.11197378953E+04  0.96764510639E+03  0.15029766897E+04  0.12699999809E+01 0. -1.
       -4    1    3    3    0  502  0.26227335120E+03 -0.11197378953E+04 -0.14396832399E+04  0.18426311918E+04  0.12699999809E+01 0.  1.
</event>
<event>
 5   0  0.9070500E-07  0.3360730E+04  0.7818609E-02  0.8147612E-01
       -3   -1    0    0    0  501  0.00000000000E+00  0.00000000000E+00  0.25747304222E+04  0.25747304242E+04  0.10100000352E+00 0.  1.
        3   -1    0    0  501    0  0.00000000000E+00  0.00000000000E+00 -0.10966685952E+04  0.10966685999E+04  0.10100000352E+00 0. -1.
    10030    2    1    2    0    0  0.00000000000E+00  0.00000000000E+00  0.14780618270E+04  0.36713990241E+04  0.33607296871E+04 0.  0.
        5    1    3    3  502    0  0.47876908836E+03  0.70816421124E+03  0.23194452137E+04  0.24719556184E+04  0.46999998093E+01 0.  1.
       -5    1    3    3    0  502 -0.47876908836E+03 -0.70816421124E+03 -0.84138338667E+03  0.11994434057E+04  0.46999998093E+01 0. -1.
</event>
<event>
 5   0  0.2856440E-06  0.3462759E+04  0.7818609E-02  0.8122673E-01
       -2   -1    0    0    0  501  0.00000000000E+00  0.00000000000E+00  0.10276953279E+04  0.10276953280E+04  0.25500000920E-02 0.  1.
        2   -1    0    0  501    0  0.00000000000E+00  0.00000000000E+00 -0.29168901539E+04  0.29168901539E+04  0.25500000920E-02 0. -1.
    10030    2    1    2    0    0  0.00000000000E+00  0.00000000000E+00 -0.18891948259E+04  0.39445854818E+04  0.34627586594E+04 0.  0.
        4    1    3    3  502    0 -0.16833725846E+04 -0.27396794451E+03 -0.60500391220E+03  0.18096499772E+04  0.12699999809E+01 0.  1.
       -4    1    3    3    0  502  0.16833725846E+04  0.27396794451E+03 -0.12841909137E+04  0.21349355047E+04  0.12699999809E+01 0. -1.
</event>
<event>
 5   0  0.1003191E-06  0.2434253E+04  0.7818609E-02  0.8426790E-01
        1   -1    0    0  501    0  0.00000000000E+00  0.00000000000E+00  0.12602953482E+04  0.12602953482E+04  0.50400001928E-02 0. -1.
       -1   -1    0    0    0  501  0.00000000000E+00  0.00000000000E+00 -0.11754362443E+04  0.11754362443E+04  0.50400001928E-02 0.  1.
    10030    2    1    2    0    0  0.00000000000E+00  0.00000000000E+00  0.84859103891E+02  0.24357315924E+04  0.24342529291E+04 0.  0.
        5    1    3    3  502    0 -0.47779705232E+03  0.10379514147E+03 -0.10728376826E+04  0.11790107030E+04  0.46999998093E+01 0.  1.
       -5    1    3    3    0  502  0.47779705232E+03 -0.10379514147E+03  0.11576967865E+04  0.12567208895E+04  0.46999998093E+01 0. -1.
</event>
<event>
 5   0  0.2664083E-06  0.2956677E+04  0.7818609E-02  0.8256211E-01
       -2   -1    0    0    0  501  0.00000000000E+00  0.00000000000E+00  0.92175260268E+03  0.92175260268E+03  0.25500000920E-02 0.  1.
        2   -1    0    0  501    0  0.00000000000E+00  0.00000000000E+00 -0.23710102102E+04  0.23710102102E+04  0.25500000920E-02 0. -1.
    10030    2    1    2    0    0  0.00000000000E+00  0.00000000000E+00 -0.14492576075E+04  0.32927628129E+04  0.29566770755E+04 0.  0.
        2    1    3    3  502    0 -0.49048263342E+03 -0.13916714283E+04 -0.62401406232E+03  0.16020974152E+04  0.25500000920E-02 0.  1.
       -2    1    3    3    0  502  0.49048263342E+03  0.13916714283E+04 -0.82524354521E+03  0.16906653977E+04  0.25500000920E-02 0. -1.
</event>
<event>
 5   0  0.9714317E-07  0.3392549E+04  0.7818609E-02  0.8139737E-01
       -1   -1    0    0    0  501  0.00000000000E+00  0.00000000000E+00  0.18038342919E+04  0.18038342919E+04  0.50400001928E-02 0. -1.
        1   -1    0    0  501    0  0.00000000000E+00  0.00000000000E+00 -0.15951285860E+04  0.15951285861E+04  0.50400001928E-02 0.  1.
    10030    2    1    2    0    0  0.00000000000E+00  0.00000000000E+00  0.20870570586E+03  0.33989628780E+04  0.33925492736E+04 0.  0.
        4    1    3    3  502    0 -0.22915902192E+03  0.39176389740E+03  0.17418702238E+04  0.18000295270E+04  0.12699999809E+01 0. -1.
       -4    1    3    3    0  502  0.22915902192E+03 -0.39176389740E+03 -0.15331645180E+04  0.15989333509E+04  0.12699999809E+01 0.  1.
</event>
<event>
 5   0  0.1010855E-06  0.3072295E+04  0.7818609E-02  0.8223383E-01
       -1   -1    0    0    0  501  0.00000000000E+00  0.00000000000E+00  0.17949950530E+04  0.17949950530E+04  0.50400001928E-02 0. -1.
        1   -1    0    0  501    0  0.00000000000E+00  0.00000000000E+00 -0.13146266855E+04  0.13146266855E+04  0.50400001928E-02 0.  1.
    10030    2    1    2    0    0  0.00000000000E+00  0.00000000000E+00  0.48036836743E+03  0.31096217385E+04  0.30722945152E+04 0.  0.
        1    1    3    3  502    0 -0.10912051704E+04 -0.80599900318E+03  0.96962411954E+03  0.16674933434E+04  0.50400001928E-02 0. -1.
       -1    1    3    3    0  502  0.10912051704E+04  0.80599900318E+03 -0.48925575211E+03  0.14421283951E+04  0.50400001928E-02 0.  1.
</event>
<event>
 5   0  0.2664083E-06  0.3328010E+04  0.7818609E-02  0.8155805E-01
        2   -1    0    0  501    0  0.00000000000E+00  0.00000000000E+00  0.32123863828E+04  0.32123863828E+04  0.25500000920E-02 0. -1.
       -2   -1    0    0    0  501  0.00000000000E+00  0.00000000000E+00 -0.86194901878E+03  0.86194901878E+03  0.25500000920E-02 0.  1.
    10030    2    1    2    0    0  0.00000000000E+00  0.00000000000E+00  0.23504373640E+04  0.40743354016E+04  0.33280103910E+04 0.  0.
        2    1    3    3  502    0 -0.16174529380E+04 -0.19499520672E+03  0.76052993879E+03  0.17979385209E+04  0.25500000920E-02 0.  1.
       -2    1    3    3    0  502  0.16174529380E+04  0.19499520672E+03  0.15899074252E+04  0.22763968806E+04  0.25500000920E-02 0. -1.
</event>
<event>
 5   0  0.2856440E-06  0.3401393E+04  0.7818609E-02  0.8137564E-01
       -2   -1    0    0    0  501  0.00000000000E+00  0.00000000000E+00  0.20482883170E+04  0.20482883170E+04  0.25500000920E-02 0.  1.
        2   -1    0    0  501    0  0.00000000000E+00  0.00000000000E+00 -0.14120907063E+04  0.14120907063E+04  0.25500000920E-02 0. -1.
    10030    2    1    2    0    0  0.00000000000E+00  0.00000000000E+00  0.63619761069E+03  0.34603790233E+04  0.34013931830E+04 0.  0.
        4    1    3    3  502    0 -0.15063033219E+04 -0.34537614234E+03  0.10404349663E+04  0.18629924609E+04  0.12699999809E+01 0.  1.
       -4    1    3    3    0  502  0.15063033219E+04  0.34537614234E+03 -0.40423735564E+03  0.15973865624E+04  0.12699999809E+01 0. -1.
</event>
<event>
 5   0  0.1010551E-06  0.3342606E+04  0.7818609E-02  0.8152138E-01
       -1   -1    0    0    0  501  0.00000000000E+00  0.00000000000E+00  0.26855282812E+04  0.26855282812E+04  0.50400001928E-02 0. -1.
        1   -1    0    0  501    0  0.00000000000E+00  0.00000000000E+00 -0.10401133175E+04  0.10401133175E+04  0.50400001928E-02 0.  1.
    10030    2    1    2    0    0  0.00000000000E+00  0.00000000000E+00  0.16454149637E+04  0.37256415987E+04  0.33426060072E+04 0.  0.
        2    1    3    3  502    0 -0.14125486280E+04 -0.67986517571E+03  0.14685396257E+04  0.21480500264E+04  0.25500000920E-02 0. -1.
       -2    1    3    3    0  502  0.14125486280E+04  0.67986517571E+03  0.17687533792E+03  0.15775915722E+04  0.25500000920E-02 0.  1.
</event>
<event>
 5   0  0.9232963E-07  0.3267508E+04  0.7818609E-02  0.8171212E-01
       -1   -1    0    0    0  501  0.00000000000E+00  0.00000000000E+00  0.21228179975E+04  0.21228179976E+04  0.50400001928E-02 0. -1.
        1   -1    0    0  501    0  0.00000000000E+00  0.00000000000E+00 -0.12573629947E+04  0.12573629947E+04  0.50400001928E-02 0.  1.
    10030    2    1    2    0    0  0.00000000000E+00  0.00000000000E+00  0.86545500286E+03  0.33801809923E+04  0.32675084053E+04 0.  0.
        3    1    3    3  502    0 -0.78190163732E+03 -0.13788424873E+04  0.84206907210E+03  0.17948975201E+04  0.10100000352E+00 0. -1.
       -3    1    3    3    0  502  0.78190163732E+03  0.13788424873E+04  0.23385930765E+02  0.15852834722E+04  0.10100000352E+00 0.  1.
</event>
<event>
 5   0  0.1010855E-06  0.3371488E+04  0.7818609E-02  0.8144940E-01
       -1   -1    0    0    0  501  0.00000000000E+00  0.00000000000E+00  0.92531428718E+03  0.92531428719E+03  0.50400001928E-02 0. -1.
        1   -1    0    0  501    0  0.00000000000E+00  0.00000000000E+00 -0.30710998170E+04  0.30710998170E+04  0.50400001928E-02 0.  1.
    10030    2    1    2    0    0  0.00000000000E+00  0.00000000000E+00 -0.21457855298E+04  0.39964141042E+04  0.33714878247E+04 0.  0.
        1    1    3    3  502    0 -0.73924819503E+03 -0.14668589552E+04 -0.62375465670E+03  0.17570523498E+04  0.50400001928E-02 0. -1.
       -1    1    3    3    0  502  0.73924819503E+03  0.14668589552E+04 -0.15220308731E+04  0.22393617543E+04  0.50400001928E-02 0.  1.
</event>
<event>
 5   0  0.2856440E-06  0.2985683E+04  0.7818609E-02  0.8247831E-01
        2   -1    0    0  501    0  0.00000000000E+00  0.00000000000E+00  0.17234791555E+04  0.17234791555E+04  0.25500000920E-02 0.  1.
       -2   -1    0    0    0  501  0.00000000000E+00  0.00000000000E+00 -0.12930684017E+04  0.12930684017E+04  0.25500000920E-02 0. -1.
    10030    2    1    2    0    0  0.00000000000E+00  0.00000000000E+00  0.43041075375E+03  0.30165475572E+04  0.29856834641E+04 0.  0.
        4    1    3    3  502    0  0.85877590674E+03 -0.89318657292E+03  0.10564570120E+04  0.16283062805E+04  0.12699999809E+01 0.  1.
       -4    1    3    3    0  502 -0.85877590674E+03  0.89318657292E+03 -0.62604625823E+03  0.13882412767E+04  0.12699999809E+01 0. -1.
</event>
<event>
 5   0  0.9232963E-07  0.3363796E+04  0.7818609E-02  0.8146850E-01
        1   -1    0    0  501    0  0.00000000000E+00  0.00000000000E+00  0.18498791801E+04  0.18498791801E+04  0.50400001928E-02 0.  1.
       -1   -1    0    0    0  501  0.00000000000E+00  0.00000000000E+00 -0.15291707790E+04  0.15291707790E+04  0.50400001928E-02 0. -1.
    10030    2    1    2    0    0  0.00000000000E+00  0.00000000000E+00  0.32070840107E+03  0.33790499591E+04  0.33637961810E+04 0.  0.
        3    1    3    3  502    0  0.62980586107E+03  0.73334878124E+03  0.15429404130E+04  0.18207473701E+04  0.10100000352E+00 0.  1.
       -3    1    3    3    0  502 -0.62980586107E+03 -0.73334878124E+03 -0.12222320119E+04  0.15583025890E+04  0.10100000352E+00 0. -1.
</event>
<event>
 5   0  0.1010855E-06  0.3353179E+04  0.7818609E-02  0.8149494E-01
       -1   -1    0    0    0  501  0.00000000000E+00  0.00000000000E+00  0.14560344087E+04  0.14560344087E+04  0.50400001928E-02 0. -1.
        1   -1    0    0  501    0  0.00000000000E+00  0.00000000000E+00 -0.19305533967E+04  0.19305533967E+04  0.50400001928E-02 0.  1.
    10030    2    1    2    0    0  0.00000000000E+00  0.00000000000E+00 -0.47451898796E+03  0.33865878054E+04  0.33531788938E+04 0.  0.
        1    1    3    3  502    0  0.14825380086E+04  0.14161296951E+02  0.55337648942E+03  0.15825122522E+04  0.50400001928E-02 0. -1.
       -1    1    3    3    0  502 -0.14825380086E+04 -0.14161296951E+02 -0.10278954774E+04  0.18040755532E+04  0.50400001928E-02 0.  1.
</event>
<event>
 5   0  0.1010855E-06  0.3408281E+04  0.7818609E-02  0.8135877E-01
        1   -1    0    0  501    0  0.00000000000E+00  0.00000000000E+00  0.18380788377E+04  0.18380788377E+04  0.50400001928E-02 0.  1.
       -1   -1    0    0    0  501  0.00000000000E+00  0.00000000000E+00 -0.15799622034E+04  0.15799622034E+04  0.50400001928E-02 0. -1.
    10030    2    1    2    0    0  0.00000000000E+00  0.00000000000E+00  0.25811663429E+03  0.34180410411E+04  0.34082811448E+04 0.  0.
        1    1    3    3  502    0  0.14606434547E+04  0.82505635743E+03 -0.17162988115E+03  0.16863137640E+04  0.50400001928E-02 0. -1.
       -1    1    3    3    0  502 -0.14606434547E+04 -0.82505635743E+03  0.42974651544E+03  0.17317272771E+04  0.50400001928E-02 0.  1.
</event>
<event>
 5   0  0.2856440E-06  0.3332728E+04  0.7818609E-02  0.8154617E-01
       -2   -1    0    0    0  501  0.00000000000E+00  0.00000000000E+00  0.14240664996E+04  0.14240664996E+04  0.25500000920E-02 0.  1.
        2   -1    0    0  501    0  0.00000000000E+00  0.00000000000E+00 -0.19498874902E+04  0.19498874902E+04  0.25500000920E-02 0. -1.
    10030    2    1    2    0    0  0.00000000000E+00  0.00000000000E+00 -0.52582099054E+03  0.33739539898E+04  0.33327282834E+04 0.  0.
        4    1    3    3  502    0  0.13840749553E+04  0.31148209566E+03  0.62202087699E+03  0.15490629948E+04  0.12699999809E+01 0.  1.
       -4    1    3    3    0  502 -0.13840749553E+04 -0.31148209566E+03 -0.11478418675E+04  0.18248909949E+04  0.12699999809E+01 0. -1.
</event>
<event>
 5   0  0.2848685E-06  0.3439367E+04  0.7818609E-02  0.8128312E-01
        2   -1    0    0  501    0  0.00000000000E+00  0.00000000000E+00  0.23277370613E+04  0.23277370613E+04  0.25500000920E-02 0. -1.
       -2   -1    0    0    0  501  0.00000000000E+00  0.00000000000E+00 -0.12704659560E+04  0.12704659560E+04  0.25500000920E-02 0.  1.
    10030    2    1    2    0    0  0.00000000000E+00  0.00000000000E+00  0.10572711052E+04  0.35982030173E+04  0.34393666225E+04 0.  0.
        3    1    3    3  502    0  0.55036561619E+03 -0.15336847944E+04 -0.46497469176E+02  0.16301083966E+04  0.10100000352E+00 0.  1.
       -3    1    3    3    0  502 -0.55036561619E+03  0.15336847944E+04  0.11037685744E+04  0.19680946207E+04  0.10100000352E+00 0. -1.
</event>
<event>
 5   0  0.2906701E-06  0.3147315E+04  0.7818609E-02  0.8202871E-01
        2   -1    0    0  501    0  0.00000000000E+00  0.00000000000E+00  0.21618632613E+04  0.21618632613E+04  0.25500000920E-02 0.  1.
       -2   -1    0    0    0  501  0.00000000000E+00  0.00000000000E+00 -0.11454927216E+04  0.11454927216E+04  0.25500000920E-02 0. -1.
    10030    2    1    2    0    0  0.00000000000E+00  0.00000000000E+00  0.10163705398E+04  0.33073559829E+04  0.31473154471E+04 0.  0.
        5    1    3    3  502    0 -0.57354955212E+03  0.10446457204E+03 -0.10278195749E+04  0.11816543928E+04  0.46999998093E+01 0. -1.
       -5    1    3    3    0  502  0.57354955212E+03 -0.10446457204E+03  0.20441901146E+04  0.21257015901E+04  0.46999998093E+01 0.  1.
</event>
<event>
 5   0  0.2848685E-06  0.3286609E+04  0.7818609E-02  0.8166311E-01
       -2   -1    0    0    0  501  0.00000000000E+00  0.00000000000E+00  0.11836430449E+04  0.11836430449E+04  0.25500000920E-02 0. -1.
        2   -1    0    0  501    0  0.00000000000E+00  0.00000000000E+00 -0.22814732991E+04  0.22814732991E+04  0.25500000920E-02 0.  1.
    10030    2    1    2    0    0  0.00000000000E+00  0.00000000000E+00 -0.10978302542E+04  0.34651163441E+04  0.32866091966E+04 0.  0.
        3    1    3    3  502    0  0.10628173569E+04  0.59379938027E+03 -0.17126171970E+04  0.21012463234E+04  0.10100000352E+00 0.  1.
       -3    1    3    3    0  502 -0.10628173569E+04 -0.59379938027E+03  0.61478694275E+03  0.13638700207E+04  0.10100000352E+00 0. -1.
</event>
<event>
 5   0  0.1003191E-06  0.3235624E+04  0.7818609E-02  0.8179472E-01
       -1   -1    0    0    0  501  0.00000000000E+00  0.00000000000E+00  0.13148659331E+04  0.13148659331E+04  0.50400001928E-02 0. -1.
        1   -1    0    0  501    0  0.00000000000E+00  0.00000000000E+00 -0.19905567160E+04  0.19905567160E+04  0.50400001928E-02 0.  1.
    10030    2    1    2    0    0  0.00000000000E+00  0.00000000000E+00 -0.67569078295E+03  0.33054226491E+04  0.32356237196E+04 0.  0.
        5    1    3    3  502    0 -0.74946607162E+03  0.12059174006E+04 -0.11300459730E+04  0.18146520771E+04  0.46999998093E+01 0.  1.
       -5    1    3    3    0  502  0.74946607162E+03 -0.12059174006E+04  0.45435519007E+03  0.14907705720E+04  0.46999998093E+01 0. -1.
</event>
<event>
 5   0  0.2906701E-06  0.3504360E+04  0.7818609E-02  0.8112758E-01
       -2   -1    0    0    0  501  0.00000000000E+00  0.00000000000E+00  0.16960121511E+04  0.16960121511E+04  0.25500000920E-02 0.  1.
        2   -1    0    0  501    0  0.00000000000E+00  0.00000000000E+00 -0.18102077643E+04  0.18102077643E+04  0.25500000920E-02 0. -1.
    10030    2    1    2    0    0  0.00000000000E+00  0.00000000000E+00 -0.11419561323E+03  0.35062199154E+04  0.35043597785E+04 0.  0.
        5    1    3    3  502    0 -0.11966781000E+04  0.11799365376E+04  0.43897134726E+03  0.17369532640E+04  0.46999998093E+01 0.  1.
       -5    1    3    3    0  502  0.11966781000E+04 -0.11799365376E+04 -0.55316696049E+03  0.17692666514E+04  0.46999998093E+01 0. -1.
</event>
<event>
 5   0  0.2664083E-06  0.3395302E+04  0.7818609E-02  0.8139060E-01
        2   -1    0    0  501    0  0.00000000000E+00  0.00000000000E+00  0.20849155651E+04  0.20849155651E+04  0.25500000920E-02 0.  1.
       -2   -1    0    0    0  501  0.00000000000E+00  0.00000000000E+00 -0.13823193024E+04  0.13823193024E+04  0.25500000920E-02 0. -1.
    10030    2    1    2    0    0  0.00000000000E+00  0.00000000000E+00  0.70259626267E+03  0.34672348675E+04  0.33953020658E+04 0.  0.
        2    1    3    3  502    0  0.10794536812E+04  0.42165130964E+03  0.16181487761E+04  0.19903305099E+04  0.25500000920E-02 0.  1.
       -2    1    3    3    0  502 -0.10794536812E+04 -0.42165130964E+03 -0.91555251347E+03  0.14769043577E+04  0.25500000920E-02 0. -1.
</event>
<event>
 5   0  0.2906701E-06  0.2172974E+04  0.7818609E-02  0.8529762E-01
       -2   -1    0    0    0  501  0.00000000000E+00  0.00000000000E+00  0.48196030394E+03  0.48196030394E+03  0.25500000920E-02 0.  1.
        2   -1    0    0  501    0  0.00000000000E+00  0.00000000000E+00 -0.24492758504E+04  0.24492758504E+04  0.25500000920E-02 0. -1.
    10030    2    1    2    0    0  0.00000000000E+00  0.00000000000E+00 -0.19673155465E+04  0.29312361544E+04  0.21729737535E+04 0.  0.
        5    1    3    3  502    0 -0.46258823886E+03  0.98279572310E+03 -0.95184049345E+03  0.14442637318E+04  0.46999998093E+01 0. -1.
       -5    1    3    3    0  502  0.46258823886E+03 -0.98279572310E+03 -0.10154750530E+04  0.14869724225E+04  0.46999998093E+01 0.  1.
</event>
<event>
 5   0  0.1010855E-06  0.3540166E+04  0.7818609E-02  0.8104336E-01
        1   -1    0    0  501    0  0.00000000000E+00  0.00000000000E+00  0.16852291111E+04  0.16852291111E+04  0.50400001928E-02 0.  1.
       -1   -1    0    0    0  501  0.00000000000E+00  0.00000000000E+00 -0.18592098110E+04  0.18592098110E+04  0.50400001928E-02 0. -1.
    10030    2    1    2    0    0  0.00000000000E+00  0.00000000000E+00 -0.17398069984E+03  0.35444389221E+04  0.35401663787E+04 0.  0.
        1    1    3    3  502    0 -0.10574460360E+04  0.92165189977E+03  0.99392371959E+03  0.17191622099E+04  0.50400001928E-02 0. -1.
       -1    1    3    3    0  502  0.10574460360E+04 -0.92165189977E+03 -0.11679044194E+04  0.18252767123E+04  0.50400001928E-02 0.  1.
</event>
<event>
 5   0  0.2664083E-06  0.3341782E+04  0.7818609E-02  0.8152345E-01
       -2   -1    0    0    0  501  0.00000000000E+00  0.00000000000E+00  0.10975427198E+04  0.10975427198E+04  0.25500000920E-02 0.  1.
        2   -1    0    0  501    0  0.00000000000E+00  0.00000000000E+00 -0.25437521153E+04  0.25437521153E+04  0.25500000920E-02 0. -1.
    10030    2    1    2    0    0  0.00000000000E+00  0.00000000000E+00 -0.14462093955E+04  0.36412948351E+04  0.33417819289E+04 0.  0.
        2    1    3    3  502    0  0.81160953113E+03  0.75282344472E+03 -0.20868470443E+04  0.23622835893E+04  0.25500000920E-02 0. -1.
       -2    1    3    3    0  502 -0.81160953113E+03 -0.75282344472E+03  0.64063764878E+03  0.12790112458E+04  0.25500000920E-02 0.  1.
</event>
<event>
 5   0  0.1003191E-06  0.3366096E+04  0.7818609E-02  0.8146278E-01
        1   -1    0    0  501    0  0.00000000000E+00  0.00000000000E+00  0.11563914797E+04  0.11563914797E+04  0.50400001928E-02 0. -1.
       -1   -1    0    0    0  501  0.00000000000E+00  0.00000000000E+00 -0.24495605032E+04  0.24495605032E+04  0.50400001928E-02 0.  1.
    10030    2    1    2    0    0  0.00000000000E+00  0.00000000000E+00 -0.12931690235E+04  0.36059519829E+04  0.33660961929E+04 0.  0.
        5    1    3    3  502    0  0.61643577546E+03  0.71150368579E+03  0.84796142730E+03  0.12670008809E+04  0.46999998093E+01 0. -1.
       -5    1    3    3    0  502 -0.61643577546E+03 -0.71150368579E+03 -0.21411304508E+04  0.23389511020E+04  0.46999998093E+01 0.  1.
</event>
<event>
 5   0  0.9232963E-07  0.3604171E+04  0.7818609E-02  0.8089537E-01
       -1   -1    0    0    0  501  0.00000000000E+00  0.00000000000E+00  0.20991363117E+04  0.20991363117E+04  0.50400001928E-02 0. -1.
        1   -1    0    0  501    0  0.00000000000E+00  0.00000000000E+00 -0.15470708801E+04  0.15470708801E+04  0.50400001928E-02 0.  1.
    10030    2    1    2    0    0  0.00000000000E+00  0.00000000000E+00  0.55206543159E+03  0.36462071918E+04  0.36041712841E+04 0.  0.
        3    1    3    3  502    0  0.98023361800E+02 -0.14447449594E+03  0.20905602264E+04  0.20978378226E+04  0.10100000352E+00 0. -1.
       -3    1    3    3    0  502 -0.98023361800E+02  0.14447449594E+03 -0.15384947949E+04  0.15483693692E+04  0.10100000352E+00 0.  1.
</event>
<event>
 5   0  0.2856440E-06  0.3216774E+04  0.7818609E-02  0.8184401E-01
       -2   -1    0    0    0  501  0.00000000000E+00  0.00000000000E+00  0.10936477243E+04  0.10936477243E+04  0.25500000920E-02 0. -1.
        2   -1    0    0  501    0  0.00000000000E+00  0.00000000000E+00 -0.23653953346E+04  0.23653953346E+04  0.25500000920E-02 0.  1.
    10030    2    1    2    0    0  0.00000000000E+00  0.00000000000E+00 -0.12717476103E+04  0.34590430590E+04  0.32167743004E+04 0.  0.
        4    1    3    3  502    0 -0.40988434168E+03  0.14132812336E+03  0.10296239705E+04  0.11171866207E+04  0.12699999809E+01 0. -1.
       -4    1    3    3    0  502  0.40988434168E+03 -0.14132812336E+03 -0.23013715807E+04  0.23418564383E+04  0.12699999809E+01 0.  1.
</event>
<event>
 5   0  0.1003191E-06  0.3299450E+04  0.7818609E-02  0.8163035E-01
        1   -1    0    0  501    0  0.00000000000E+00  0.00000000000E+00  0.19924706688E+04  0.19924706688E+04  0.50400001928E-02 0.  1.
       -1   -1    0    0    0  501  0.00000000000E+00  0.00000000000E+00 -0.13659386604E+04  0.13659386604E+04  0.50400001928E-02 0. -1.
    10030    2    1    2    0    0  0.00000000000E+00  0.00000000000E+00  0.62653200833E+03  0.33584093292E+04  0.32994500853E+04 0.  0.
        5    1    3    3  502    0 -0.43387784852E+03 -0.70133601534E+02 -0.13052430023E+04  0.13772618104E+04  0.46999998093E+01 0. -1.
       -5    1    3    3    0  502  0.43387784852E+03  0.70133601534E+02  0.19317750106E+04  0.19811475188E+04  0.46999998093E+01 0.  1.
</event>
<event>
 5   0  0.1010855E-06  0.2537308E+04  0.7818609E-02  0.8389813E-01
        1   -1    0    0  501    0  0.00000000000E+00  0.00000000000E+00  0.10571217356E+04  0.10571217356E+04  0.50400001928E-02 0. -1.
       -1   -1    0    0    0  501  0.00000000000E+00  0.00000000000E+00 -0.15225148248E+04  0.15225148248E+04  0.50400001928E-02 0.  1.
    10030    2    1    2    0    0  0.00000000000E+00  0.00000000000E+00 -0.46539308925E+03  0.25796365604E+04  0.25373084275E+04 0.  0.
        1    1    3    3  502    0  0.11154557187E+04 -0.56807522961E+03 -0.23021780827E+02  0.12519907864E+04  0.50400001928E-02 0.  1.
       -1    1    3    3    0  502 -0.11154557187E+04  0.56807522961E+03 -0.44237130842E+03  0.13276457740E+04  0.50400001928E-02 0. -1.
</event>
<event>
 5   0  0.1003191E-06  0.3425286E+04  0.7818609E-02  0.8131728E-01
        1   -1    0    0  501    0  0.00000000000E+00  0.00000000000E+00  0.14018553631E+04  0.14018553631E+04  0.50400001928E-02 0.  1.
       -1   -1    0    0    0  501  0.00000000000E+00  0.00000000000E+00 -0.20923315687E+04  0.20923315687E+04  0.50400001928E-02 0. -1.
    10030    2    1    2    0    0  0.00000000000E+00  0.00000000000E+00 -0.69047620559E+03  0.34941869317E+04  0.34252861083E+04 0.  0.
        5    1    3    3  502    0  0.26011891574E+03 -0.54776874161E+03  0.12886707171E+04  0.14242214546E+04  0.46999998093E+01 0.  1.
       -5    1    3    3    0  502 -0.26011891574E+03  0.54776874161E+03 -0.19791469227E+04  0.20699654771E+04  0.46999998093E+01 0. -1.
</event>
<event>
 5   0  0.2906701E-06  0.3394012E+04  0.7818609E-02  0.8139378E-01
        2   -1    0    0  501    0  0.00000000000E+00  0.00000000000E+00  0.98530497173E+03  0.98530497173E+03  0.25500000920E-02 0.  1.
       -2   -1    0    0    0  501  0.00000000000E+00  0.00000000000E+00 -0.29227791271E+04  0.29227791271E+04  0.25500000920E-02 0. -1.
    10030    2    1    2    0    0  0.00000000000E+00  0.00000000000E+00 -0.19374741554E+04  0.39080840988E+04  0.33940116707E+04 0.  0.
        5    1    3    3  502    0  0.83215997744E+03 -0.14760613791E+04 -0.86220767398E+03  0.19012289673E+04  0.46999998093E+01 0.  1.
       -5    1    3    3    0  502 -0.83215997744E+03  0.14760613791E+04 -0.10752664814E+04  0.20068551315E+04  0.46999998093E+01 0. -1.
</event>
<event>
 5   0  0.1010855E-06  0.3278326E+04  0.7818609E-02  0.8168432E-01
        1   -1    0    0  501    0  0.00000000000E+00  0.00000000000E+00  0.19919963169E+04  0.19919963169E+04  0.50400001928E-02 0.  1.
       -1   -1    0    0    0  501  0.00000000000E+00  0.00000000000E+00 -0.13488253849E+04  0.13488253850E+04  0.50400001928E-02 0. -1.
    10030    2    1    2    0    0  0.00000000000E+00  0.00000000000E+00  0.64317093199E+03  0.33408217019E+04  0.32783259136E+04 0.  0.
        1    1    3    3  502    0  0.86504068632E+03 -0.13742381214E+04  0.54952192631E+03  0.17142929011E+04  0.50400001928E-02 0.  1.
       -1    1    3    3    0  502 -0.86504068632E+03  0.13742381214E+04  0.93649005685E+02  0.16265288008E+04  0.50400001928E-02 0. -1.
</event>
<event>
 5   0  0.9070500E-07  0.3602603E+04  0.7818609E-02  0.8089896E-01
        3   -1    0    0  501    0  0.00000000000E+00  0.00000000000E+00  0.32126341489E+04  0.32126341505E+04  0.10100000352E+00 0. -1.
       -3   -1    0    0    0  501  0.00000000000E+00  0.00000000000E+00 -0.10099770497E+04  0.10099770548E+04  0.10100000352E+00 0.  1.
    10030    2    1    2    0    0  0.00000000000E+00  0.00000000000E+00  0.22026570992E+04  0.42226112052E+04  0.36026028221E+04 0.  0.
        3    1    3    3  502    0  0.11445638749E+04 -0.77323389928E+03  0.24564961101E+04  0.28182069257E+04  0.10100000352E+00 0. -1.
       -3    1    3    3    0  502 -0.11445638749E+04  0.77323389928E+03 -0.25383901096E+03  0.14044042796E+04  0.10100000352E+00 0.  1.
</event>
<event>
 5   0  0.2906701E-06  0.2094977E+04  0.7818609E-02  0.8563459E-01
        2   -1    0    0  501    0  0.00000000000E+00  0.00000000000E+00  0.76744148842E+03  0.76744148842E+03  0.25500000920E-02 0.  1.
       -2   -1    0    0    0  501  0.00000000000E+00  0.00000000000E+00 -0.14297276683E+04  0.14297276683E+04  0.25500000920E-02 0. -1.
    10030    2    1    2    0    0  0.00000000000E+00  0.00000000000E+00 -0.66228617991E+03  0.21971691568E+04  0.20949771644E+04 0.  0.
        5    1    3    3  502    0  0.49396651185E+02  0.12521668054E+03 -0.14206079686E+04  0.14269787443E+04  0.46999998093E+01 0. -1.
       -5    1    3    3    0  502 -0.49396651185E+02 -0.12521668054E+03  0.75832178869E+03  0.77019041245E+03  0.46999998093E+01 0.  1.
</event>
<event>
 5   0  0.1003191E-06  0.3365536E+04  0.7818609E-02  0.8146417E-01
       -1   -1    0    0    0  501  0.00000000000E+00  0.00000000000E+00  0.10404232003E+04  0.10404232003E+04  0.50400001928E-02 0. -1.
        1   -1    0    0  501    0  0.00000000000E+00  0.00000000000E+00 -0.27216893744E+04  0.27216893744E+04  0.50400001928E-02 0.  1.
    10030    2    1    2    0    0  0.00000000000E+00  0.00000000000E+00 -0.16812661741E+04  0.37621125746E+04  0.33655363727E+04 0.  0.
        5    1    3    3  502    0  0.57230134212E+03 -0.12607536674E+04 -0.19097048954E+04  0.23588182451E+04  0.46999998093E+01 0.  1.
       -5    1    3    3    0  502 -0.57230134212E+03  0.12607536674E+04  0.22843872127E+03  0.14032943295E+04  0.46999998093E+01 0. -1.
</event>
<event>
 5   0  0.2856440E-06  0.3187660E+04  0.7818609E-02  0.8192084E-01
        2   -1    0    0  501    0  0.00000000000E+00  0.00000000000E+00  0.12721711647E+04  0.12721711647E+04  0.25500000920E-02 0.  1.
       -2   -1    0    0    0  501  0.00000000000E+00  0.00000000000E+00 -0.19968173907E+04  0.19968173907E+04  0.25500000920E-02 0. -1.
    10030    2    1    2    0    0  0.00000000000E+00  0.00000000000E+00 -0.72464622600E+03  0.32689885555E+04  0.31876596467E+04 0.  0.
        4    1    3    3  502    0 -0.30757694308E+03 -0.90081877237E+03  0.94865638444E+03  0.13438856295E+04  0.12699999809E+01 0.  1.
       -4    1    3    3    0  502  0.30757694308E+03  0.90081877237E+03 -0.16733026104E+04  0.19251029260E+04  0.12699999809E+01 0. -1.
</event>
<event>
 5   0  0.9714317E-07  0.3367105E+04  0.7818609E-02  0.8146027E-01
       -1   -1    0    0    0  501  0.00000000000E+00  0.00000000000E+00  0.11942316645E+04  0.11942316645E+04  0.50400001928E-02 0.  1.
        1   -1    0    0  501    0  0.00000000000E+00  0.00000000000E+00 -0.23733658544E+04  0.23733658544E+04  0.50400001928E-02 0. -1.
    10030    2    1    2    0    0  0.00000000000E+00  0.00000000000E+00 -0.11791341899E+04  0.35675975190E+04  0.33671047830E+04 0.  0.
        4    1    3    3  502    0  0.29938398795E+03 -0.13322638678E+04 -0.16329840891E+04  0.21286607137E+04  0.12699999809E+01 0. -1.
       -4    1    3    3    0  502 -0.29938398795E+03  0.13322638678E+04  0.45384989919E+03  0.14389368053E+04  0.12699999809E+01 0.  1.
</event>
<event>
 5   0  0.1010551E-06  0.3341625E+04  0.7818609E-02  0.8152384E-01
       -1   -1    0    0    0  501  0.00000000000E+00  0.00000000000E+00  0.18551627474E+04  0.18551627475E+04  0.50400001928E-02 0.  1.
        1   -1    0    0  501    0  0.00000000000E+00  0.00000000000E+00 -0.15047811501E+04  0.15047811501E+04  0.50400001928E-02 0. -1.
    10030    2    1    2    0    0  0.00000000000E+00  0.00000000000E+00  0.35038159733E+03  0.33599438976E+04  0.33416247143E+04 0.  0.
        2    1    3    3  502    0 -0.56037984836E+03 -0.23430233413E+03  0.17402232398E+04  0.18431766282E+04  0.25500000920E-02 0.  1.
       -2    1    3    3    0  502  0.56037984836E+03  0.23430233413E+03 -0.13898416425E+04  0.15167672694E+04  0.25500000920E-02 0. -1.
</event>
<event>
 5   0  0.9232963E-07  0.3438656E+04  0.7818609E-02  0.8128483E-01
        1   -1    0    0  501    0  0.00000000000E+00  0.00000000000E+00  0.12728714589E+04  0.12728714589E+04  0.50400001928E-02 0. -1.
       -1   -1    0    0    0  501  0.00000000000E+00  0.00000000000E+00 -0.23223785513E+04  0.23223785513E+04  0.50400001928E-02 0.  1.
    10030    2    1    2    0    0  0.00000000000E+00  0.00000000000E+00 -0.10495070924E+04  0.35952500102E+04  0.34386563508E+04 0.  0.
        3    1    3    3  502    0 -0.11127426497E+04 -0.24870484721E+03 -0.18702284704E+04  0.21903892000E+04  0.10100000352E+00 0.  1.
       -3    1    3    3    0  502  0.11127426497E+04  0.24870484721E+03  0.82072137805E+03  0.14048608102E+04  0.10100000352E+00 0. -1.
</event>
<event>
 5   0  0.2848685E-06  0.3404115E+04  0.7818609E-02  0.8136897E-01
       -2   -1    0    0    0  501  0.00000000000E+00  0.00000000000E+00  0.13321068964E+04  0.13321068964E+04  0.25500000920E-02 0. -1.
        2   -1    0    0  501    0  0.00000000000E+00  0.00000000000E+00 -0.21747506525E+04  0.21747506525E+04  0.25500000920E-02 0.  1.
    10030    2    1    2    0    0  0.00000000000E+00  0.00000000000E+00 -0.84264375604E+03  0.35068575489E+04  0.34041153577E+04 0.  0.
        3    1    3    3  502    0  0.33074109324E+03 -0.48994614954E+03 -0.20656040921E+04  0.21485244182E+04  0.10100000352E+00 0.  1.
       -3    1    3    3    0  502 -0.33074109324E+03  0.48994614954E+03  0.12229603360E+04  0.13583331307E+04  0.10100000352E+00 0. -1.
</event>
<event>
 5   0  0.1010551E-06  0.2083745E+04  0.7818609E-02  0.8568438E-01
       -1   -1    0    0    0  501  0.00000000000E+00  0.00000000000E+00  0.15603406434E+04  0.15603406434E+04  0.50400001928E-02 0.  1.
        1   -1    0    0  501    0  0.00000000000E+00  0.00000000000E+00 -0.69568020966E+03  0.69568020967E+03  0.50400001928E-02 0. -1.
    10030    2    1    2    0    0  0.00000000000E+00  0.00000000000E+00  0.86466043374E+03  0.22560208531E+04  0.20837448078E+04 0.  0.
        2    1    3    3  502    0 -0.58918274397E+01  0.12057038445E+03 -0.68808331567E+03  0.69859185548E+03  0.25500000920E-02 0. -1.
       -2    1    3    3    0  502  0.58918274397E+01 -0.12057038445E+03  0.15527437494E+04  0.15574289976E+04  0.25500000920E-02 0.  1.
</event>
<event>
 5   0  0.9714317E-07  0.3002617E+04  0.7818609E-02  0.8242984E-01
        1   -1    0    0  501    0  0.00000000000E+00  0.00000000000E+00  0.18601167452E+04  0.18601167453E+04  0.50400001928E-02 0.  1.
       -1   -1    0    0    0  501  0.00000000000E+00  0.00000000000E+00 -0.12117124110E+04  0.12117124110E+04  0.50400001928E-02 0. -1.
    10030    2    1    2    0    0  0.00000000000E+00  0.00000000000E+00  0.64840433425E+03  0.30718291563E+04  0.30026165564E+04 0.  0.
        4    1    3    3  502    0 -0.26354501079E+03  0.98762828226E+03  0.14491204902E+04  0.17733633031E+04  0.12699999809E+01 0.  1.
       -4    1    3    3    0  502  0.26354501079E+03 -0.98762828226E+03 -0.80071615595E+03  0.12984658532E+04  0.12699999809E+01 0. -1.
</event>
<event>
 5   0  0.2906701E-06  0.3379545E+04  0.7818609E-02  0.8142945E-01
       -2   -1    0    0    0  501  0.00000000000E+00  0.00000000000E+00  0.12487875211E+04  0.12487875211E+04  0.25500000920E-02 0. -1.
        2   -1    0    0  501    0  0.00000000000E+00  0.00000000000E+00 -0.22864832866E+04  0.22864832866E+04  0.25500000920E-02 0.  1.
    10030    2    1    2    0    0  0.00000000000E+00  0.00000000000E+00 -0.10376957655E+04  0.35352708077E+04  0.33795454106E+04 0.  0.
        5    1    3    3  502    0 -0.51353955690E+03  0.67660277701E+01 -0.22028531553E+04  0.22619356245E+04  0.46999998093E+01 0.  1.
       -5    1    3    3    0  502  0.51353955690E+03 -0.67660277701E+01  0.11651573898E+04  0.12733351832E+04  0.46999998093E+01 0. -1.
</event>
<event>
 5   0  0.2856440E-06  0.3448309E+04  0.7818609E-02  0.8126150E-01
       -2   -1    0    0    0  501  0.00000000000E+00  0.00000000000E+00  0.13857698058E+04  0.13857698058E+04  0.25500000920E-02 0.  1.
        2   -1    0    0  501    0  0.00000000000E+00  0.00000000000E+00 -0.21451680725E+04  0.21451680725E+04  0.25500000920E-02 0. -1.
    10030    2    1    2    0    0  0.00000000000E+00  0.00000000000E+00 -0.75939826668E+03  0.35309378783E+04  0.34483092340E+04 0.  0.
        4    1    3    3  502    0  0.95826839093E+03  0.98740794458E+03  0.68416482746E+03  0.15366638807E+04  0.12699999809E+01 0. -1.
       -4    1    3    3    0  502 -0.95826839093E+03 -0.98740794458E+03 -0.14435630941E+04  0.19942739977E+04  0.12699999809E+01 0.  1.
</event>
<event>
 5   0  0.1010551E-06  0.2501054E+04  0.7818609E-02  0.8402610E-01
       -1   -1    0    0    0  501  0.00000000000E+00  0.00000000000E+00  0.77689045966E+03  0.77689045967E+03  0.50400001928E-02 0. -1.
        1   -1    0    0  501    0  0.00000000000E+00  0.00000000000E+00 -0.20129194471E+04  0.20129194471E+04  0.50400001928E-02 0.  1.
    10030    2    1    2    0    0  0.00000000000E+00  0.00000000000E+00 -0.12360289874E+04  0.27898099068E+04  0.25010541094E+04 0.  0.
        2    1    3    3  502    0  0.68583231831E+03  0.40194109103E+03 -0.16948145916E+04  0.18719826680E+04  0.25500000920E-02 0.  1.
       -2    1    3    3    0  502 -0.68583231831E+03 -0.40194109103E+03  0.45878560420E+03  0.91782723871E+03  0.25500000920E-02 0. -1.
</event>
<event>
 5   0  0.9232963E-07  0.3463791E+04  0.7818609E-02  0.8122425E-01
        1   -1    0    0  501    0  0.00000000000E+00  0.00000000000E+00  0.21551687450E+04  0.21551687450E+04  0.50400001928E-02 0.  1.
       -1   -1    0    0    0  501  0.00000000000E+00  0.00000000000E+00 -0.13917530575E+04  0.13917530575E+04  0.50400001928E-02 0. -1.
    10030    2    1    2    0    0  0.00000000000E+00  0.00000000000E+00  0.76341568753E+03  0.35469218025E+04  0.34637913853E+04 0.  0.
        3    1    3    3  502    0 -0.37217264389E+03 -0.12571997842E+04  0.15404119159E+04  0.20228526035E+04  0.10100000352E+00 0.  1.
       -3    1    3    3    0  502  0.37217264389E+03  0.12571997842E+04 -0.77699622841E+03  0.15240691991E+04  0.10100000352E+00 0. -1.
</event>
<event>
 5   0  0.9232963E-07  0.3377263E+04  0.7818609E-02  0.8143509E-01
        1   -1    0    0  501    0  0.00000000000E+00  0.00000000000E+00  0.25965322591E+04  0.25965322591E+04  0.50400001928E-02 0. -1.
       -1   -1    0    0    0  501  0.00000000000E+00  0.00000000000E+00 -0.10981862425E+04  0.10981862425E+04  0.50400001928E-02 0.  1.
    10030    2    1    2    0    0  0.00000000000E+00  0.00000000000E+00  0.14983460166E+04  0.36947185016E+04  0.33772628000E+04 0.  0.
        3    1    3    3  502    0  0.15705924011E+04  0.60668630402E+03  0.60802084848E+03  0.17901167907E+04  0.10100000352E+00 0.  1.
       -3    1    3    3    0  502 -0.15705924011E+04 -0.60668630402E+03  0.89032516812E+03  0.19046017109E+04  0.10100000352E+00 0. -1.
</event>
<event>
 5   0  0.2664083E-06  0.2534635E+04  0.7818609E-02  0.8390749E-01
        2   -1    0    0  501    0  0.00000000000E+00  0.00000000000E+00  0.15010656201E+04  0.15010656201E+04  0.25500000920E-02 0.  1.
       -2   -1    0    0    0  501  0.00000000000E+00  0.00000000000E+00 -0.10699692386E+04  0.10699692386E+04  0.25500000920E-02 0. -1.
    10030    2    1    2    0    0  0.00000000000E+00  0.00000000000E+00  0.43109638156E+03  0.25710348587E+04  0.25346353100E+04 0.  0.
        2    1    3    3  502    0 -0.36031506708E+03  0.73230098687E+03 -0.76791238563E+03  0.11206163996E+04  0.25500000920E-02 0. -1.
       -2    1    3    3    0  502  0.36031506708E+03 -0.73230098687E+03  0.11990087672E+04  0.14504184592E+04  0.25500000920E-02 0.  1.
</event>
<event>
 5   0  0.1010855E-06  0.3568287E+04  0.7818609E-02  0.8097795E-01
       -1   -1    0    0    0  501  0.00000000000E+00  0.00000000000E+00  0.19596114645E+04  0.19596114645E+04  0.50400001928E-02 0.  1.
        1   -1    0    0  501    0  0.00000000000E+00  0.00000000000E+00 -0.16243877499E+04  0.16243877499E+04  0.50400001928E-02 0. -1.
    10030    2    1    2    0    0  0.00000000000E+00  0.00000000000E+00  0.33522371455E+03  0.35839992144E+04  0.35682874646E+04 0.  0.
        1    1    3    3  502    0  0.60703537748E+03 -0.12799770373E+04 -0.92175387244E+03  0.16901075016E+04  0.50400001928E-02 0.  1.
       -1    1    3    3    0  502 -0.60703537748E+03  0.12799770373E+04  0.12569775870E+04  0.18938917128E+04  0.50400001928E-02 0. -1.
</event>
<event>
 5   0  0.2906701E-06  0.3219301E+04  0.7818609E-02  0.8183738E-01
       -2   -1    0    0    0  501  0.00000000000E+00  0.00000000000E+00  0.10425536948E+04  0.10425536948E+04  0.25500000920E-02 0. -1.
        2   -1    0    0  501    0  0.00000000000E+00  0.00000000000E+00 -0.24852188623E+04  0.24852188623E+04  0.25500000920E-02 0.  1.
    10030    2    1    2    0    0  0.00000000000E+00  0.00000000000E+00 -0.14426651675E+04  0.35277725570E+04  0.32193006117E+04 0.  0.
        5    1    3    3  502    0 -0.15154822166E+04 -0.21275988718E+02 -0.13153163142E+04  0.20067929921E+04  0.46999998093E+01 0.  1.
       -5    1    3    3    0  502  0.15154822166E+04  0.21275988718E+02 -0.12734885325E+03  0.15209795650E+04  0.46999998093E+01 0. -1.
</event>
<event>
 5   0  0.9232963E-07  0.3352404E+04  0.7818609E-02  0.8149688E-01
        1   -1    0    0  501    0  0.00000000000E+00  0.00000000000E+00  0.25132751165E+04  0.25132751165E+04  0.50400001928E-02 0.  1.
       -1   -1    0    0    0  501  0.00000000000E+00  0.00000000000E+00 -0.11179252807E+04  0.11179252807E+04  0.50400001928E-02 0. -1.
    10030    2    1    2    0    0  0.00000000000E+00  0.00000000000E+00  0.13953498359E+04  0.36312003972E+04  0.33524043850E+04 0.  0.
        3    1    3    3  502    0  0.56308483209E+03 -0.13634354197E+04  0.15598843073E+04  0.21469186604E+04  0.10100000352E+00 0.  1.
       -3    1    3    3    0  502 -0.56308483209E+03  0.13634354197E+04 -0.16453447145E+03  0.14842817368E+04  0.10100000352E+00 0. -1.
</event>
<event>
 5   0  0.2664083E-06  0.3236431E+04  0.7818609E-02  0.8179262E-01
        2   -1    0    0  501    0  0.00000000000E+00  0.00000000000E+00  0.21817913164E+04  0.21817913164E+04  0.25500000920E-02 0.  1.
       -2   -1    0    0    0  501  0.00000000000E+00  0.00000000000E+00 -0.12002161884E+04  0.12002161884E+04  0.25500000920E-02 0. -1.
    10030    2    1    2    0    0  0.00000000000E+00  0.00000000000E+00  0.98157512803E+03  0.33820075048E+04  0.32364309093E+04 0.  0.
        2    1    3    3  502    0 -0.20247168436E+03 -0.42578697140E+03 -0.11268518276E+04  0.12215090542E+04  0.25500000920E-02 0. -1.
       -2    1    3    3    0  502  0.20247168436E+03  0.42578697140E+03  0.21084269557E+04  0.21604984507E+04  0.25500000920E-02 0.  1.
</event>
<event>
 5   0  0.2906701E-06  0.3465041E+04  0.7818609E-02  0.8122125E-01
       -2   -1    0    0    0  501  0.00000000000E+00  0.00000000000E+00  0.14519885507E+04  0.14519885507E+04  0.25500000920E-02 0.  1.
        2   -1    0    0  501    0  0.00000000000E+00  0.00000000000E+00 -0.20672529256E+04  0.20672529256E+04  0.25500000920E-02 0. -1.
    10030    2    1    2    0    0  0.00000000000E+00  0.00000000000E+00 -0.61526437486E+03  0.35192414763E+04  0.34650411711E+04 0.  0.
        5    1    3    3  502    0  0.35129756121E+03  0.13359255818E+04 -0.13696938561E+04  0.19452995877E+04  0.46999998093E+01 0.  1.
       -5    1    3    3    0  502 -0.35129756121E+03 -0.13359255818E+04  0.75442948124E+03  0.15739418886E+04  0.46999998093E+01 0. -1.
</event>
<event>
 5   0  0.1010855E-06  0.3364999E+04  0.7818609E-02  0.8146550E-01
        1   -1    0    0  501    0  0.00000000000E+00  0.00000000000E+00  0.20493455149E+04  0.20493455149E+04  0.50400001928E-02 0. -1.
       -1   -1    0    0    0  501  0.00000000000E+00  0.00000000000E+00 -0.13813214515E+04  0.13813214515E+04  0.50400001928E-02 0.  1.
    10030    2    1    2    0    0  0.00000000000E+00  0.00000000000E+00  0.66802406344E+03  0.34306669664E+04  0.33649992102E+04 0.  0.
        1    1    3    3  502    0 -0.89940236068E+03  0.11177252375E+04  0.12301248404E+04  0.18898257687E+04  0.50400001928E-02 0. -1.
       -1    1    3    3    0  502  0.89940236068E+03 -0.11177252375E+04 -0.56210077696E+03  0.15408411977E+04  0.50400001928E-02 0.  1.
</event>
<event>
 5   0  0.9714317E-07  0.3385987E+04  0.7818609E-02  0.8141354E-01
        1   -1    0    0  501    0  0.00000000000E+00  0.00000000000E+00  0.28718237529E+04  0.28718237529E+04  0.50400001928E-02 0.  1.
       -1   -1    0    0    0  501  0.00000000000E+00  0.00000000000E+00 -0.99805109309E+03  0.99805109310E+03  0.50400001928E-02 0. -1.
    10030    2    1    2    0    0  0.00000000000E+00  0.00000000000E+00  0.18737726598E+04  0.38698748460E+04  0.33859869083E+04 0.  0.
        4    1    3    3  502    0  0.13927787332E+04 -0.71929326016E+03  0.16678209253E+04  0.22888520367E+04  0.12699999809E+01 0. -1.
       -4    1    3    3    0  502 -0.13927787332E+04  0.71929326016E+03  0.20595173444E+03  0.15810228093E+04  0.12699999809E+01 0.  1.
</event>
<event>
 5   0  0.2848685E-06  0.3372952E+04  0.7818609E-02  0.8144577E-01
        2   -1    0    0  501    0  0.00000000000E+00  0.00000000000E+00  0.25946316928E+04  0.25946316928E+04  0.25500000920E-02 0. -1.
       -2   -1    0    0    0  501  0.00000000000E+00  0.00000000000E+00 -0.10961867184E+04  0.10961867184E+04  0.25500000920E-02 0.  1.
    10030    2    1    2    0    0  0.00000000000E+00  0.00000000000E+00  0.14984449744E+04  0.36908184111E+04  0.33729517047E+04 0.  0.
        3    1    3    3  502    0  0.97792263573E+03 -0.12684458268E+04  0.17132984849E+03  0.16107890688E+04  0.10100000352E+00 0.  1.
       -3    1    3    3    0  502 -0.97792263573E+03  0.12684458268E+04  0.13271151259E+04  0.20800293423E+04  0.10100000352E+00 0. -1.
</event>
<event>
 5   0  0.1003191E-06  0.3300261E+04  0.7818609E-02  0.8162829E-01
        1   -1    0    0  501    0  0.00000000000E+00  0.00000000000E+00  0.22579138308E+04  0.22579138308E+04  0.50400001928E-02 0. -1.
       -1   -1    0    0    0  501  0.00000000000E+00  0.00000000000E+00 -0.12059495983E+04  0.12059495983E+04  0.50400001928E-02 0.  1.
    10030    2    1    2    0    0  0.00000000000E+00  0.00000000000E+00  0.10519642325E+04  0.34638634292E+04  0.33002607638E+04 0.  0.
        5    1    3    3  502    0  0.13972631073E+04  0.20772750388E+03 -0.36918293295E+03  0.14600729554E+04  0.46999998093E+01 0.  1.
       -5    1    3    3    0  502 -0.13972631073E+04 -0.20772750388E+03  0.14211471655E+04  0.20037904738E+04  0.46999998093E+01 0. -1.
</event>
<event>
 5   0  0.2767014E-06  0.3387878E+04  0.7818609E-02  0.8140888E-01
       -2   -1    0    0    0  501  0.00000000000E+00  0.00000000000E+00  0.12764893990E+04  0.12764893990E+04  0.25500000920E-02 0.  1.
        2   -1    0    0  501    0  0.00000000000E+00  0.00000000000E+00 -0.22479071194E+04  0.22479071194E+04  0.25500000920E-02 0. -1.
    10030    2    1    2    0    0  0.00000000000E+00  0.00000000000E+00 -0.97141772034E+03  0.35243965184E+04  0.33878781607E+04 0.  0.
        1    1    3    3  502    0  0.13175457016E+03 -0.23296289358E+03  0.12543550795E+04  0.12825902081E+04  0.50400001928E-02 0.  1.
       -1    1    3    3    0  502 -0.13175457016E+03  0.23296289358E+03 -0.22257727998E+04  0.22418063103E+04  0.50400001928E-02 0. -1.
</event>
<event>
 5   0  0.1010855E-06  0.2175891E+04  0.7818609E-02  0.8528530E-01
        1   -1    0    0  501    0  0.00000000000E+00  0.00000000000E+00  0.15073557821E+04  0.15073557821E+04  0.50400001928E-02 0.  1.
       -1   -1    0    0    0  501  0.00000000000E+00  0.00000000000E+00 -0.78523315508E+03  0.78523315510E+03  0.50400001928E-02 0. -1.
    10030    2    1    2    0    0  0.00000000000E+00  0.00000000000E+00  0.72212262700E+03  0.22925889372E+04  0.21758912993E+04 0.  0.
        1    1    3    3  502    0  0.63084008938E+03 -0.42232613334E+03  0.11821559133E+04  0.14049239070E+04  0.50400001928E-02 0.  1.
       -1    1    3    3    0  502 -0.63084008938E+03  0.42232613334E+03 -0.46003328625E+03  0.88766503016E+03  0.50400001928E-02 0. -1.
</event>
<event>
 5   0  0.2664083E-06  0.3427184E+04  0.7818609E-02  0.8131267E-01
        2   -1    0    0  501    0  0.00000000000E+00  0.00000000000E+00  0.18340345270E+04  0.18340345270E+04  0.25500000920E-02 0.  1.
       -2   -1    0    0    0  501  0.00000000000E+00  0.00000000000E+00 -0.16010588561E+04  0.16010588561E+04  0.25500000920E-02 0. -1.
    10030    2    1    2    0    0  0.00000000000E+00  0.00000000000E+00  0.23297567092E+03  0.34350933832E+04  0.34271838129E+04 0.  0.
        2    1    3    3  502    0 -0.28005326070E+03 -0.97247271408E+03 -0.12695500419E+04  0.16235425210E+04  0.25500000920E-02 0. -1.
       -2    1    3    3    0  502  0.28005326070E+03  0.97247271408E+03  0.15025257128E+04  0.18115508622E+04  0.25500000920E-02 0.  1.
</event>
<event>
 5   0  0.9232963E-07  0.2470640E+04  0.7818609E-02  0.8413521E-01
        1   -1    0    0  501    0  0.00000000000E+00  0.00000000000E+00  0.10366245114E+04  0.10366245114E+04  0.50400001928E-02 0. -1.
       -1   -1    0    0    0  501  0.00000000000E+00  0.00000000000E+00 -0.14721003178E+04  0.14721003178E+04  0.50400001928E-02 0.  1.
    10030    2    1    2    0    0  0.00000000000E+00  0.00000000000E+00 -0.43547580640E+03  0.25087248291E+04  0.24706398140E+04 0.  0.
        3    1    3    3  502    0  0.25834516085E+03  0.62880214124E+03  0.82960790748E+03  0.10725593901E+04  0.10100000352E+00 0. -1.
       -3    1    3    3    0  502 -0.25834516085E+03 -0.62880214124E+03 -0.12650837139E+04  0.14361654390E+04  0.10100000352E+00 0.  1.
</event>
<event>
 5   0  0.2856440E-06  0.3392155E+04  0.7818609E-02  0.8139834E-01
        2   -1    0    0  501    0  0.00000000000E+00  0.00000000000E+00  0.21611091901E+04  0.21611091901E+04  0.25500000920E-02 0. -1.
       -2   -1    0    0    0  501  0.00000000000E+00  0.00000000000E+00 -0.13311120742E+04  0.13311120742E+04  0.25500000920E-02 0.  1.
    10030    2    1    2    0    0  0.00000000000E+00  0.00000000000E+00  0.82999711588E+03  0.34922212642E+04  0.33921547939E+04 0.  0.
        4    1    3    3  502    0  0.91303317633E+03 -0.31271734749E+03 -0.10208689998E+04  0.14048476245E+04  0.12699999809E+01 0.  1.
       -4    1    3    3    0  502 -0.91303317633E+03  0.31271734749E+03  0.18508661157E+04  0.20873736397E+04  0.12699999809E+01 0. -1.
</event>
<event>
 5   0  0.2767014E-06  0.3421028E+04  0.7818609E-02  0.8132765E-01
       -2   -1    0    0    0  501  0.00000000000E+00  0.00000000000E+00  0.13165374800E+04  0.13165374800E+04  0.25500000920E-02 0.  1.
        2   -1    0    0  501    0  0.00000000000E+00  0.00000000000E+00 -0.22223886486E+04  0.22223886486E+04  0.25500000920E-02 0. -1.
    10030    2    1    2    0    0  0.00000000000E+00  0.00000000000E+00 -0.90585116856E+03  0.35389261286E+04  0.34210278870E+04 0.  0.
        1    1    3    3  502    0 -0.14909059048E+04 -0.29891257954E+02  0.41390490200E+03  0.15475823636E+04  0.50400001928E-02 0.  1.
       -1    1    3    3    0  502  0.14909059048E+04  0.29891257954E+02 -0.13197560706E+04  0.19913437649E+04  0.50400001928E-02 0. -1.
</event>
<event>
 5   0  0.9232963E-07  0.3544520E+04  0.7818609E-02  0.8103319E-01
       -1   -1    0    0    0  501  0.00000000000E+00  0.00000000000E+00  0.12541728502E+04  0.12541728502E+04  0.50400001928E-02 0. -1.
        1   -1    0    0  501    0  0.00000000000E+00  0.00000000000E+00 -0.25043647741E+04  0.25043647741E+04  0.50400001928E-02 0.  1.
    10030    2    1    2    0    0  0.00000000000E+00  0.00000000000E+00 -0.12501919239E+04  0.37585376242E+04  0.35445204508E+04 0.  0.
        3    1    3    3  502    0 -0.19772461500E+03 -0.65125558406E+03  0.11100681040E+04  0.13021060114E+04  0.10100000352E+00 0. -1.
       -3    1    3    3    0  502  0.19772461500E+03  0.65125558406E+03 -0.23602600279E+04  0.24564316129E+04  0.10100000352E+00 0.  1.
</event>
<event>
 5   0  0.1003191E-06  0.3387453E+04  0.7818609E-02  0.8140993E-01
        1   -1    0    0  501    0  0.00000000000E+00  0.00000000000E+00  0.14688778886E+04  0.14688778886E+04  0.50400001928E-02 0.  1.
       -1   -1    0    0    0  501  0.00000000000E+00  0.00000000000E+00 -0.19529940763E+04  0.19529940763E+04  0.50400001928E-02 0. -1.
    10030    2    1    2    0    0  0.00000000000E+00  0.00000000000E+00 -0.48411618767E+03  0.34218719650E+04  0.33874532117E+04 0.  0.
        5    1    3    3  502    0 -0.94760409496E+03  0.14892286907E+03  0.11680321785E+04  0.15114406379E+04  0.46999998093E+01 0.  1.
       -5    1    3    3    0  502  0.94760409496E+03 -0.14892286907E+03 -0.16521483662E+04  0.19104313271E+04  0.46999998093E+01 0. -1.
</event>
<event>
 5   0  0.9232963E-07  0.3351957E+04  0.7818609E-02  0.8149799E-01
       -1   -1    0    0    0  501  0.00000000000E+00  0.00000000000E+00  0.12566457664E+04  0.12566457664E+04  0.50400001928E-02 0.  1.
        1   -1    0    0  501    0  0.00000000000E+00  0.00000000000E+00 -0.22352388152E+04  0.22352388152E+04  0.50400001928E-02 0. -1.
    10030    2    1    2    0    0  0.00000000000E+00  0.00000000000E+00 -0.97859304886E+03  0.34918845816E+04  0.33519566787E+04 0.  0.
        3    1    3    3  502    0 -0.12891025195E+04  0.45527030275E+03 -0.14992237264E+04  0.20289721896E+04  0.10100000352E+00 0. -1.
       -3    1    3    3    0  502  0.12891025195E+04 -0.45527030275E+03  0.52063067750E+03  0.14629123920E+04  0.10100000352E+00 0.  1.
</event>
<event>
 5   0  0.9070500E-07  0.3389662E+04  0.7818609E-02  0.8140448E-01
       -3   -1    0    0    0  501  0.00000000000E+00  0.00000000000E+00  0.16013791833E+04  0.16013791865E+04  0.10100000352E+00 0. -1.
        3   -1    0    0  501    0  0.00000000000E+00  0.00000000000E+00 -0.17937368666E+04  0.17937368694E+04  0.10100000352E+00 0.  1.
    10030    2    1    2    0    0  0.00000000000E+00  0.00000000000E+00 -0.19235768329E+03  0.33951160559E+04  0.33896624544E+04 0.  0.
        1    1    3    3  502    0  0.68494518705E+03 -0.30301149265E+03 -0.16189824616E+04  0.17838357786E+04  0.50400001928E-02 0.  1.
       -1    1    3    3    0  502 -0.68494518705E+03  0.30301149265E+03  0.14266247783E+04  0.16112802773E+04  0.50400001928E-02 0. -1.
</event>
<event>
 5   0  0.2664083E-06  0.3248830E+04  0.7818609E-02  0.8176039E-01
        2   -1    0    0  501    0  0.00000000000E+00  0.00000000000E+00  0.20453776764E+04  0.20453776764E+04  0.25500000920E-02 0. -1.
       -2   -1    0    0    0  501  0.00000000000E+00  0.00000000000E+00 -0.12900912018E+04  0.12900912018E+04  0.25500000920E-02 0.  1.
    10030    2    1    2    0    0  0.00000000000E+00  0.00000000000E+00  0.75528647463E+03  0.33354688782E+04  0.32488297860E+04 0.  0.
        2    1    3    3  502    0  0.27169484021E+02 -0.10201371107E+04 -0.91990638086E+03  0.13739161747E+04  0.25500000920E-02 0.  1.
       -2    1    3    3    0  502 -0.27169484021E+02  0.10201371107E+04  0.16751928555E+04  0.19615527035E+04  0.25500000920E-02 0. -1.
</event>
<event>
 5   0  0.9232963E-07  0.3535136E+04  0.7818609E-02  0.8105513E-01
       -1   -1    0    0    0  501  0.00000000000E+00  0.00000000000E+00  0.14819243012E+04  0.14819243012E+04  0.50400001928E-02 0. -1.
        1   -1    0    0  501    0  0.00000000000E+00  0.00000000000E+00 -0.21082695954E+04  0.21082695954E+04  0.50400001928E-02 0.  1.
    10030    2    1    2    0    0  0.00000000000E+00  0.00000000000E+00 -0.62634529421E+03  0.35901938966E+04  0.35351356109E+04 0.  0.
        3    1    3    3  502    0 -0.80312268770E+03  0.10354490175E+04  0.89152966032E+03  0.15849245612E+04  0.10100000352E+00 0. -1.
       -3    1    3    3    0  502  0.80312268770E+03 -0.10354490175E+04 -0.15178749545E+04  0.20052693353E+04  0.10100000352E+00 0.  1.
</event>
<event>
 5   0  0.2767014E-06  0.2491533E+04  0.7818609E-02  0.8406008E-01
        2   -1    0    0  501    0  0.00000000000E+00  0.00000000000E+00  0.15012995940E+04  0.15012995940E+04  0.25500000920E-02 0. -1.
       -2   -1    0    0    0  501  0.00000000000E+00  0.00000000000E+00 -0.10337275221E+04  0.10337275221E+04  0.25500000920E-02 0.  1.
    10030    2    1    2    0    0  0.00000000000E+00  0.00000000000E+00  0.46757207193E+03  0.25350271161E+04  0.24915334309E+04 0.  0.
        1    1    3    3  502    0  0.98319800183E+03  0.26105712092E+03  0.96543961542E+03  0.14024631126E+04  0.50400001928E-02 0. -1.
       -1    1    3    3    0  502 -0.98319800183E+03 -0.26105712092E+03 -0.49786754349E+03  0.11325640035E+04  0.50400001928E-02 0.  1.
</event>
<event>
 5   0  0.2856440E-06  0.3243186E+04  0.7818609E-02  0.8177504E-01
       -2   -1    0    0    0  501  0.00000000000E+00  0.00000000000E+00  0.15783603960E+04  0.15783603960E+04  0.25500000920E-02 0. -1.
        2   -1    0    0  501    0  0.00000000000E+00  0.00000000000E+00 -0.16660094737E+04  0.16660094737E+04  0.25500000920E-02 0.  1.
    10030    2    1    2    0    0  0.00000000000E+00  0.00000000000E+00 -0.87649077634E+02  0.32443698697E+04  0.32431857009E+04 0.  0.
        4    1    3    3  502    0  0.11681327919E+04 -0.11184636398E+04  0.74821576291E+02  0.16189796213E+04  0.12699999809E+01 0.  1.
       -4    1    3    3    0  502 -0.11681327919E+04  0.11184636398E+04 -0.16247065392E+03  0.16253902483E+04  0.12699999809E+01 0. -1.
</event>
<event>
 5   0  0.1003191E-06  0.3079395E+04  0.7818609E-02  0.8221416E-01
        1   -1    0    0  501    0  0.00000000000E+00  0.00000000000E+00  0.24382762339E+04  0.24382762339E+04  0.50400001928E-02 0. -1.
       -1   -1    0    0    0  501  0.00000000000E+00  0.00000000000E+00 -0.97227211843E+03  0.97227211845E+03  0.50400001928E-02 0.  1.
    10030    2    1    2    0    0  0.00000000000E+00  0.00000000000E+00  0.14660041155E+04  0.34105483523E+04  0.30793947453E+04 0.  0.
        5    1    3    3  502    0 -0.43902223618E+03 -0.24261676465E+03 -0.87923418326E+03  0.10122639267E+04  0.46999998093E+01 0.  1.
       -5    1    3    3    0  502  0.43902223618E+03  0.24261676465E+03  0.23452382987E+04  0.23982844256E+04  0.46999998093E+01 0. -1.
</event>
<event>
 5   0  0.2848685E-06  0.3094578E+04  0.7818609E-02  0.8217228E-01
       -2   -1    0    0    0  501  0.00000000000E+00  0.00000000000E+00  0.17994590367E+04  0.17994590367E+04  0.25500000920E-02 0. -1.
        2   -1    0    0  501    0  0.00000000000E+00  0.00000000000E+00 -0.13304569976E+04  0.13304569976E+04  0.25500000920E-02 0.  1.
    10030    2    1    2    0    0  0.00000000000E+00  0.00000000000E+00  0.46900203909E+03  0.31299160343E+04  0.30945777529E+04 0.  0.
        3    1    3    3  502    0  0.10629460170E+04 -0.11234788830E+04  0.28022592140E+03  0.15718096617E+04  0.10100000352E+00 0. -1.
       -3    1    3    3    0  502 -0.10629460170E+04  0.11234788830E+04  0.18877611769E+03  0.15581063726E+04  0.10100000352E+00 0.  1.
</event>
<event>
 5   0  0.2767014E-06  0.3460501E+04  0.7818609E-02  0.8123215E-01
       -2   -1    0    0    0  501  0.00000000000E+00  0.00000000000E+00  0.25471302580E+04  0.25471302580E+04  0.25500000920E-02 0.  1.
        2   -1    0    0  501    0  0.00000000000E+00  0.00000000000E+00 -0.11753488528E+04  0.11753488528E+04  0.25500000920E-02 0. -1.
    10030    2    1    2    0    0  0.00000000000E+00  0.00000000000E+00  0.13717814052E+04  0.37224791108E+04  0.34605009040E+04 0.  0.
        1    1    3    3  502    0 -0.24694037886E+03  0.43981486491E+03  0.24662885538E+04  0.25173390508E+04  0.50400001928E-02 0.  1.
       -1    1    3    3    0  502  0.24694037886E+03 -0.43981486491E+03 -0.10945071485E+04  0.12051400600E+04  0.50400001928E-02 0. -1.
</event>
<event>
 5   0  0.1010551E-06  0.3271941E+04  0.7818609E-02  0.8170072E-01
       -1   -1    0    0    0  501  0.00000000000E+00  0.00000000000E+00  0.17278122034E+04  0.17278122034E+04  0.50400001928E-02 0. -1.
        1   -1    0    0  501    0  0.00000000000E+00  0.00000000000E+00 -0.15490108405E+04  0.15490108405E+04  0.50400001928E-02 0.  1.
    10030    2    1    2    0    0  0.00000000000E+00  0.00000000000E+00  0.17880136285E+03  0.32768230439E+04  0.32719412180E+04 0.  0.
        2    1    3    3  502    0 -0.10544765605E+04  0.96479180256E+02  0.13383262042E+04  0.17065597199E+04  0.25500000920E-02 0. -1.
       -2    1    3    3    0  502  0.10544765605E+04 -0.96479180256E+02 -0.11595248414E+04  0.15702633240E+04  0.25500000920E-02 0.  1.
</event>
<event>
 5   0  0.1151744E-06  0.2089071E+04  0.7818609E-02  0.8566073E-01
       -1   -1    0    0    0  501  0.00000000000E+00  0.00000000000E+00  0.89523266848E+03  0.89523266849E+03  0.50400001928E-02 0. -1.
        1   -1    0    0  501    0  0.00000000000E+00  0.00000000000E+00 -0.12187384887E+04  0.12187384887E+04  0.50400001928E-02 0.  1.
    10030    2    1    2    0    0  0.00000000000E+00  0.00000000000E+00 -0.32350582025E+03  0.21139711572E+04  0.20890710945E+04 0.  0.
        5    1    3    3  502    0  0.72845522881E+03 -0.60728278363E+03  0.28117768395E+03  0.98920290114E+03  0.46999998093E+01 0.  1.
       -5    1    3    3    0  502 -0.72845522881E+03  0.60728278363E+03 -0.60468350420E+03  0.11247682561E+04  0.46999998093E+01 0. -1.
</event>
<event>
 5   0  0.1010855E-06  0.3373003E+04  0.7818609E-02  0.8144564E-01
       -1   -1    0    0    0  501  0.00000000000E+00  0.00000000000E+00  0.13400395187E+04  0.13400395187E+04  0.50400001928E-02 0.  1.
        1   -1    0    0  501    0  0.00000000000E+00  0.00000000000E+00 -0.21225393980E+04  0.21225393980E+04  0.50400001928E-02 0. -1.
    10030    2    1    2    0    0  0.00000000000E+00  0.00000000000E+00 -0.78249987929E+03  0.34625789167E+04  0.33730026228E+04 0.  0.
        1    1    3    3  502    0 -0.58516822004E+03  0.15490390738E+04 -0.62843551382E+02  0.16570736887E+04  0.50400001928E-02 0.  1.
       -1    1    3    3    0  502  0.58516822004E+03 -0.15490390738E+04 -0.71965632791E+03  0.18055052280E+04  0.50400001928E-02 0. -1.
</event>
<event>
 5   0  0.2906701E-06  0.3390826E+04  0.7818609E-02  0.8140162E-01
       -2   -1    0    0    0  501  0.00000000000E+00  0.00000000000E+00  0.19456737249E+04  0.19456737249E+04  0.25500000920E-02 0. -1.
        2   -1    0    0  501    0  0.00000000000E+00  0.00000000000E+00 -0.14773415320E+04  0.14773415320E+04  0.25500000920E-02 0.  1.
    10030    2    1    2    0    0  0.00000000000E+00  0.00000000000E+00  0.46833219283E+03  0.34230152569E+04  0.33908256231E+04 0.  0.
        5    1    3    3  502    0  0.15656367870E+04  0.65019831289E+03  0.21332754178E+03  0.17086565264E+04  0.46999998093E+01 0.  1.
       -5    1    3    3    0  502 -0.15656367870E+04 -0.65019831289E+03  0.25500465105E+03  0.17143587306E+04  0.46999998093E+01 0. -1.
</event>
<event>
 5   0  0.2848685E-06  0.3313926E+04  0.7818609E-02  0.8159361E-01
        2   -1    0    0  501    0  0.00000000000E+00  0.00000000000E+00  0.14456128953E+04  0.14456128953E+04  0.25500000920E-02 0. -1.
       -2   -1    0    0    0  501  0.00000000000E+00  0.00000000000E+00 -0.18992128737E+04  0.18992128737E+04  0.25500000920E-02 0.  1.
    10030    2    1    2    0    0  0.00000000000E+00  0.00000000000E+00 -0.45359997848E+03  0.33448257690E+04  0.33139261435E+04 0.  0.
        3    1    3    3  502    0 -0.46240582622E+03 -0.14388971814E+04 -0.91231047247E+03  0.17653766327E+04  0.10100000352E+00 0.  1.
       -3    1    3    3    0  502  0.46240582622E+03  0.14388971814E+04  0.45871049399E+03  0.15794491363E+04  0.10100000352E+00 0. -1.
</event>
<event>
 5   0  0.2856440E-06  0.2640826E+04  0.7818609E-02  0.8354464E-01
       -2   -1    0    0    0  501  0.00000000000E+00  0.00000000000E+00  0.12010613630E+04  0.12010613630E+04  0.25500000920E-02 0. -1.
        2   -1    0    0  501    0  0.00000000000E+00  0.00000000000E+00 -0.14516248138E+04  0.14516248138E+04  0.25500000920E-02 0.  1.
    10030    2    1    2    0    0  0.00000000000E+00  0.00000000000E+00 -0.25056345085E+03  0.26526861768E+04  0.26408259901E+04 0.  0.
        4    1    3    3  502    0 -0.10793500671E+04  0.58590646478E+03  0.36187668584E+03  0.12803278101E+04  0.12699999809E+01 0. -1.
       -4    1    3    3    0  502  0.10793500671E+04 -0.58590646478E+03 -0.61244013669E+03  0.13723583667E+04  0.12699999809E+01 0.  1.
</event>
<event>
 5   0  0.2848685E-06  0.2915619E+04  0.7818609E-02  0.8268246E-01
       -2   -1    0    0    0  501  0.00000000000E+00  0.00000000000E+00  0.14125497247E+04  0.14125497247E+04  0.25500000920E-02 0.  1.
        2   -1    0    0  501    0  0.00000000000E+00  0.00000000000E+00 -0.15045190698E+04  0.15045190698E+04  0.25500000920E-02 0. -1.
    10030    2    1    2    0    0  0.00000000000E+00  0.00000000000E+00 -0.91969345189E+02  0.29170687945E+04  0.29156186293E+04 0.  0.
        3    1    3    3  502    0  0.11494176330E+03 -0.11048049490E+04 -0.99059536070E+03  0.14883160831E+04  0.10100000352E+00 0. -1.
       -3    1    3    3    0  502 -0.11494176330E+03  0.11048049490E+04  0.89862601551E+03  0.14287527114E+04  0.10100000352E+00 0.  1.
</event>
<event>
 5   0  0.1003191E-06  0.3435789E+04  0.7818609E-02  0.8129178E-01
       -1   -1    0    0    0  501  0.00000000000E+00  0.00000000000E+00  0.15250157691E+04  0.15250157691E+04  0.50400001928E-02 0. -1.
        1   -1    0    0  501    0  0.00000000000E+00  0.00000000000E+00 -0.19351681530E+04  0.19351681530E+04  0.50400001928E-02 0.  1.
    10030    2    1    2    0    0  0.00000000000E+00  0.00000000000E+00 -0.41015238394E+03  0.34601839221E+04  0.34357892538E+04 0.  0.
        5    1    3    3  502    0 -0.12765708755E+04  0.50630983269E+03  0.83431607705E+03  0.16068877538E+04  0.46999998093E+01 0. -1.
       -5    1    3    3    0  502  0.12765708755E+04 -0.50630983269E+03 -0.12444684610E+04  0.18532961683E+04  0.46999998093E+01 0.  1.
</event>
<event>
 5   0  0.9714317E-07  0.3494363E+04  0.7818609E-02  0.8115127E-01
       -1   -1    0    0    0  501  0.00000000000E+00  0.00000000000E+00  0.17369143462E+04  0.17369143462E+04  0.50400001928E-02 0.  1.
        1   -1    0    0  501    0  0.00000000000E+00  0.00000000000E+00 -0.17575093770E+04  0.17575093770E+04  0.50400001928E-02 0. -1.
    10030    2    1    2    0    0  0.00000000000E+00  0.00000000000E+00 -0.20595030803E+02  0.34944237232E+04  0.34943630324E+04 0.  0.
        4    1    3    3  502    0 -0.12521812749E+04  0.24029016009E+03 -0.12048660143E+04  0.17542522714E+04  0.12699999809E+01 0. -1.
       -4    1    3    3    0  502  0.12521812749E+04 -0.24029016009E+03  0.11842709835E+04  0.17401714518E+04  0.12699999809E+01 0.  1.
</event>
<event>
 5   0  0.1003191E-06  0.3355942E+04  0.7818609E-02  0.8148805E-01
        1   -1    0    0  501    0  0.00000000000E+00  0.00000000000E+00  0.17507450872E+04  0.17507450872E+04  0.50400001928E-02 0. -1.
       -1   -1    0    0    0  501  0.00000000000E+00  0.00000000000E+00 -0.16082223516E+04  0.16082223516E+04  0.50400001928E-02 0.  1.
    10030    2    1    2    0    0  0.00000000000E+00  0.00000000000E+00  0.14252273560E+03  0.33589674389E+04  0.33559424198E+04 0.  0.
        5    1    3    3  502    0 -0.42489090684E+03 -0.49857982958E+03 -0.14749453960E+04  0.16138773622E+04  0.46999998093E+01 0.  1.
       -5    1    3    3    0  502  0.42489090684E+03  0.49857982958E+03  0.16174681316E+04  0.17450900767E+04  0.46999998093E+01 0. -1.
</event>
<event>
 5   0  0.9714317E-07  0.3318349E+04  0.7818609E-02  0.8158242E-01
        1   -1    0    0  501    0  0.00000000000E+00  0.00000000000E+00  0.18974152232E+04  0.18974152232E+04  0.50400001928E-02 0.  1.
       -1   -1    0    0    0  501  0.00000000000E+00  0.00000000000E+00 -0.14508478026E+04  0.14508478026E+04  0.50400001928E-02 0. -1.
    10030    2    1    2    0    0  0.00000000000E+00  0.00000000000E+00  0.44656742055E+03  0.33482630258E+04  0.33183494133E+04 0.  0.
        4    1    3    3  502    0  0.18502527263E+03 -0.93969316185E+03  0.15903408121E+04  0.18564598303E+04  0.12699999809E+01 0.  1.
       -4    1    3    3    0  502 -0.18502527263E+03  0.93969316185E+03 -0.11437733916E+04  0.14918031955E+04  0.12699999809E+01 0. -1.
</event>
<event>
 5   0  0.2848685E-06  0.3459910E+04  0.7818609E-02  0.8123357E-01
        2   -1    0    0  501    0  0.00000000000E+00  0.00000000000E+00  0.16503043597E+04  0.16503043597E+04  0.25500000920E-02 0. -1.
       -2   -1    0    0    0  501  0.00000000000E+00  0.00000000000E+00 -0.18134496954E+04  0.18134496954E+04  0.25500000920E-02 0.  1.
    10030    2    1    2    0    0  0.00000000000E+00  0.00000000000E+00 -0.16314533570E+03  0.34637540552E+04  0.34599097899E+04 0.  0.
        3    1    3    3  502    0  0.74919387877E+03  0.97806973373E+03  0.11342033042E+04  0.16746130949E+04  0.10100000352E+00 0. -1.
       -3    1    3    3    0  502 -0.74919387877E+03 -0.97806973373E+03 -0.12973486399E+04  0.17891409603E+04  0.10100000352E+00 0.  1.
</event>
<event>
 5   0  0.9232963E-07  0.3606673E+04  0.7818609E-02  0.8088965E-01
        1   -1    0    0  501    0  0.00000000000E+00  0.00000000000E+00  0.16550483045E+04  0.16550483046E+04  0.50400001928E-02 0.  1.
       -1   -1    0    0    0  501  0.00000000000E+00  0.00000000000E+00 -0.19649105512E+04  0.19649105512E+04  0.50400001928E-02 0. -1.
    10030    2    1    2    0    0  0.00000000000E+00  0.00000000000E+00 -0.30986224663E+03  0.36199588557E+04  0.36066726363E+04 0.  0.
        3    1    3    3  502    0  0.48366074701E+03  0.70445246021E+03  0.14389493486E+04  0.16735460032E+04  0.10100000352E+00 0.  1.
       -3    1    3    3    0  502 -0.48366074701E+03 -0.70445246021E+03 -0.17488115952E+04  0.19464128525E+04  0.10100000352E+00 0. -1.
</event>
<event>
 5   0  0.2906701E-06  0.3182009E+04  0.7818609E-02  0.8193585E-01
       -2   -1    0    0    0  501  0.00000000000E+00  0.00000000000E+00  0.12625207846E+04  0.12625207846E+04  0.25500000920E-02 0.  1.
        2   -1    0    0  501    0  0.00000000000E+00  0.00000000000E+00 -0.20049529734E+04  0.20049529734E+04  0.25500000920E-02 0. -1.
    10030    2    1    2    0    0  0.00000000000E+00  0.00000000000E+00 -0.74243218880E+03  0.32674737581E+04  0.31820086745E+04 0.  0.
        5    1    3    3  502    0  0.10928289996E+03 -0.14312832924E+04 -0.10757625719E+04  0.17938232400E+04  0.46999998093E+01 0.  1.
       -5    1    3    3    0  502 -0.10928289996E+03  0.14312832924E+04  0.33333038307E+03  0.14736505181E+04  0.46999998093E+01 0. -1.
</event>
<event>
 5   0  0.2848685E-06  0.3253245E+04  0.7818609E-02  0.8174895E-01
       -2   -1    0    0    0  501  0.00000000000E+00  0.00000000000E+00  0.15290597178E+04  0.15290597178E+04  0.25500000920E-02 0.  1.
        2   -1    0    0  501    0  0.00000000000E+00  0.00000000000E+00 -0.17304098767E+04  0.17304098767E+04  0.25500000920E-02 0. -1.
    10030    2    1    2    0    0  0.00000000000E+00  0.00000000000E+00 -0.20135015891E+03  0.32594695945E+04  0.32532445575E+04 0.  0.
        3    1    3    3  502    0 -0.13943825797E+04  0.54159333395E+03  0.53951071931E+03  0.15901880217E+04  0.10100000352E+00 0.  1.
       -3    1    3    3    0  502  0.13943825797E+04 -0.54159333395E+03 -0.74086087822E+03  0.16692815727E+04  0.10100000352E+00 0. -1.
</event>
<event>
 5   0  0.9232963E-07  0.3015300E+04  0.7818609E-02  0.8239375E-01
        1   -1    0    0  501    0  0.00000000000E+00  0.00000000000E+00  0.18792074460E+04  0.18792074461E+04  0.50400001928E-02 0.  1.
       -1   -1    0    0    0  501  0.00000000000E+00  0.00000000000E+00 -0.12095569804E+04  0.12095569804E+04  0.50400001928E-02 0. -1.
    10030    2    1    2    0    0  0.00000000000E+00  0.00000000000E+00  0.66965046565E+03  0.30887644265E+04  0.30152999745E+04 0.  0.
        3    1    3    3  502    0 -0.11415408289E+04 -0.97803103534E+03  0.21647549437E+03  0.15187237471E+04  0.10100000352E+00 0. -1.
       -3    1    3    3    0  502  0.11415408289E+04  0.97803103534E+03  0.45317497129E+03  0.15700406794E+04  0.10100000352E+00 0.  1.
</event>
<event>
 5   0  0.2856440E-06  0.3421505E+04  0.7818609E-02  0.8132648E-01
        2   -1    0    0  501    0  0.00000000000E+00  0.00000000000E+00  0.22729294697E+04  0.22729294697E+04  0.25500000920E-02 0.  1.
       -2   -1    0    0    0  501  0.00000000000E+00  0.00000000000E+00 -0.12876217371E+04  0.12876217371E+04  0.25500000920E-02 0. -1.
    10030    2    1    2    0    0  0.00000000000E+00  0.00000000000E+00  0.98530773258E+03  0.35605512068E+04  0.34215045767E+04 0.  0.
        4    1    3    3  502    0  0.53220273748E+03 -0.10569331717E+04  0.17783061318E+04  0.21360528539E+04  0.12699999809E+01 0.  1.
       -4    1    3    3    0  502 -0.53220273748E+03  0.10569331717E+04 -0.79299839924E+03  0.14244983529E+04  0.12699999809E+01 0. -1.
</event>
<event>
 5   0  0.9070500E-07  0.2662714E+04  0.7818609E-02  0.8347205E-01
       -4   -1    0    0    0  501  0.00000000000E+00  0.00000000000E+00  0.20386384061E+04  0.20386388017E+04  0.12699999809E+01 0. -1.
        4   -1    0    0  501    0  0.00000000000E+00  0.00000000000E+00 -0.86945779482E+03  0.86945872235E+03  0.12699999809E+01 0.  1.
    10030    2    1    2    0    0  0.00000000000E+00  0.00000000000E+00  0.11691806113E+04  0.29080975241E+04  0.26627143872E+04 0.  0.
        5    1    3    3  502    0 -0.73414103827E+03  0.88524910793E+03 -0.14793642401E+03  0.11595414278E+04  0.46999998093E+01 0.  1.
       -5    1    3    3    0  502  0.73414103827E+03 -0.88524910793E+03  0.13171170353E+04  0.17485560963E+04  0.46999998093E+01 0. -1.
</event>
<event>
 5   0  0.1010551E-06  0.2152185E+04  0.7818609E-02  0.8538597E-01
       -1   -1    0    0    0  501  0.00000000000E+00  0.00000000000E+00  0.48839651334E+03  0.48839651337E+03  0.50400001928E-02 0.  1.
        1   -1    0    0  501    0  0.00000000000E+00  0.00000000000E+00 -0.23709740393E+04  0.23709740393E+04  0.50400001928E-02 0. -1.
    10030    2    1    2    0    0  0.00000000000E+00  0.00000000000E+00 -0.18825775260E+04  0.28593705527E+04  0.21521853582E+04 0.  0.
        2    1    3    3  502    0  0.14316390947E+03  0.28429907785E+03  0.42441681398E+03  0.53052003038E+03  0.25500000920E-02 0.  1.
       -2    1    3    3    0  502 -0.14316390947E+03 -0.28429907785E+03 -0.23069943400E+04  0.23288505223E+04  0.25500000920E-02 0. -1.
</event>
<event>
 5   0  0.9714317E-07  0.3408062E+04  0.7818609E-02  0.8135930E-01
       -1   -1    0    0    0  501  0.00000000000E+00  0.00000000000E+00  0.18327862453E+04  0.18327862453E+04  0.50400001928E-02 0.  1.
        1   -1    0    0  501    0  0.00000000000E+00  0.00000000000E+00 -0.15843213557E+04  0.15843213557E+04  0.50400001928E-02 0. -1.
    10030    2    1    2    0    0  0.00000000000E+00  0.00000000000E+00  0.24846488954E+03  0.34171076010E+04  0.34080624342E+04 0.  0.
        4    1    3    3  502    0 -0.11206821457E+04 -0.63692936377E+03 -0.99322686091E+03  0.16273010466E+04  0.12699999809E+01 0. -1.
       -4    1    3    3    0  502  0.11206821457E+04  0.63692936377E+03  0.12416917505E+04  0.17898065544E+04  0.12699999809E+01 0.  1.
</event>
<event>
 5   0  0.9232963E-07  0.3376568E+04  0.7818609E-02  0.8143681E-01
        1   -1    0    0  501    0  0.00000000000E+00  0.00000000000E+00  0.11205539039E+04  0.11205539039E+04  0.50400001928E-02 0.  1.
       -1   -1    0    0    0  501  0.00000000000E+00  0.00000000000E+00 -0.25436551520E+04  0.25436551520E+04  0.50400001928E-02 0. -1.
    10030    2    1    2    0    0  0.00000000000E+00  0.00000000000E+00 -0.14231012481E+04  0.36642090559E+04  0.33765679089E+04 0.  0.
        3    1    3    3  502    0  0.54619074907E+02 -0.20355850796E+03  0.11062220239E+04  0.11261201028E+04  0.10100000352E+00 0.  1.
       -3    1    3    3    0  502 -0.54619074907E+02  0.20355850796E+03 -0.25293232720E+04  0.25380889532E+04  0.10100000352E+00 0. -1.
</event>
<event>
 5   0  0.1003191E-06  0.3397488E+04  0.7818609E-02  0.8138523E-01
       -1   -1    0    0    0  501  0.00000000000E+00  0.00000000000E+00  0.15128827802E+04  0.15128827802E+04  0.50400001928E-02 0.  1.
        1   -1    0    0  501    0  0.00000000000E+00  0.00000000000E+00 -0.19074382269E+04  0.19074382269E+04  0.50400001928E-02 0. -1.
    10030    2    1    2    0    0  0.00000000000E+00  0.00000000000E+00 -0.39455544669E+03  0.34203210072E+04  0.33974875705E+04 0.  0.
        5    1    3    3  502    0  0.42095175354E+02  0.11225741835E+04 -0.14801114998E+04  0.18581434130E+04  0.46999998093E+01 0. -1.
       -5    1    3    3    0  502 -0.42095175354E+02 -0.11225741835E+04  0.10855560531E+04  0.15621775942E+04  0.46999998093E+01 0.  1.
</event>
<event>
 5   0  0.2767014E-06  0.2447053E+04  0.7818609E-02  0.8422095E-01
        2   -1    0    0  501    0  0.00000000000E+00  0.00000000000E+00  0.15975931713E+04  0.15975931713E+04  0.25500000920E-02 0. -1.
       -2   -1    0    0    0  501  0.00000000000E+00  0.00000000000E+00 -0.93704531061E+03  0.93704531061E+03  0.25500000920E-02 0.  1.
    10030    2    1    2    0    0  0.00000000000E+00  0.00000000000E+00  0.66054786066E+03  0.25346384819E+04  0.24470530762E+04 0.  0.
        1    1    3    3  502    0 -0.56123593939E+02  0.17163744726E+03 -0.92316641420E+03  0.94066226640E+03  0.50400001928E-02 0.  1.
       -1    1    3    3    0  502  0.56123593939E+02 -0.17163744726E+03  0.15837142749E+04  0.15939762155E+04  0.50400001928E-02 0. -1.
</event>
<event>
 5   0  0.1010855E-06  0.2754711E+04  0.7818609E-02  0.8317468E-01
        1   -1    0    0  501    0  0.00000000000E+00  0.00000000000E+00  0.15260441789E+04  0.15260441789E+04  0.50400001928E-02 0. -1.
       -1   -1    0    0    0  501  0.00000000000E+00  0.00000000000E+00 -0.12431541136E+04  0.12431541136E+04  0.50400001928E-02 0.  1.
    10030    2    1    2    0    0  0.00000000000E+00  0.00000000000E+00  0.28289006536E+03  0.27691982925E+04  0.27547109456E+04 0.  0.
        1    1    3    3  502    0  0.35325913865E+03  0.48374642512E+03  0.13882522668E+04  0.15119679161E+04  0.50400001928E-02 0. -1.
       -1    1    3    3    0  502 -0.35325913865E+03 -0.48374642512E+03 -0.11053622015E+04  0.12572303764E+04  0.50400001928E-02 0.  1.
</event>
<event>
 5   0  0.2767014E-06  0.3408410E+04  0.7818609E-02  0.8135845E-01
       -2   -1    0    0    0  501  0.00000000000E+00  0.00000000000E+00  0.20607086837E+04  0.20607086837E+04  0.25500000920E-02 0.  1.
        2   -1    0    0  501    0  0.00000000000E+00  0.00000000000E+00 -0.14093763859E+04  0.14093763859E+04  0.25500000920E-02 0. -1.
    10030    2    1    2    0    0  0.00000000000E+00  0.00000000000E+00  0.65133229776E+03  0.34700850696E+04  0.34084096919E+04 0.  0.
        1    1    3    3  502    0  0.42291778518E+03  0.12105511833E+04 -0.81715203475E+03  0.15205364410E+04  0.50400001928E-02 0. -1.
       -1    1    3    3    0  502 -0.42291778518E+03 -0.12105511833E+04  0.14684843325E+04  0.19495486286E+04  0.50400001928E-02 0.  1.
</event>
<event>
 5   0  0.9232963E-07  0.3124634E+04  0.7818609E-02  0.8209010E-01
       -1   -1    0    0    0  501  0.00000000000E+00  0.00000000000E+00  0.21297695728E+04  0.21297695728E+04  0.50400001928E-02 0.  1.
        1   -1    0    0  501    0  0.00000000000E+00  0.00000000000E+00 -0.11460558430E+04  0.11460558430E+04  0.50400001928E-02 0. -1.
    10030    2    1    2    0    0  0.00000000000E+00  0.00000000000E+00  0.98371372983E+03  0.32758254158E+04  0.31246342910E+04 0.  0.
        3    1    3    3  502    0  0.14094991719E+04  0.52277081160E+03  0.93770807950E+03  0.17717995625E+04  0.10100000352E+00 0.  1.
       -3    1    3    3    0  502 -0.14094991719E+04 -0.52277081160E+03  0.46005650329E+02  0.15040258532E+04  0.10100000352E+00 0. -1.
</event>
<event>
 5   0  0.1010551E-06  0.3049411E+04  0.7818609E-02  0.8229760E-01
        1   -1    0    0  501    0  0.00000000000E+00  0.00000000000E+00  0.17261455694E+04  0.17261455694E+04  0.50400001928E-02 0.  1.
       -1   -1    0    0    0  501  0.00000000000E+00  0.00000000000E+00 -0.13467736754E+04  0.13467736754E+04  0.50400001928E-02 0. -1.
    10030    2    1    2    0    0  0.00000000000E+00  0.00000000000E+00  0.37937189398E+03  0.30729192448E+04  0.30494113614E+04 0.  0.
        2    1    3    3  502    0  0.11129294504E+04 -0.54136640086E+03  0.10870777473E+04  0.16472484846E+04  0.25500000920E-02 0.  1.
       -2    1    3    3    0  502 -0.11129294504E+04  0.54136640086E+03 -0.70770585333E+03  0.14256707601E+04  0.25500000920E-02 0. -1.
</event>
<event>
 5   0  0.1003191E-06  0.3387832E+04  0.7818609E-02  0.8140899E-01
       -1   -1    0    0    0  501  0.00000000000E+00  0.00000000000E+00  0.10794737630E+04  0.10794737630E+04  0.50400001928E-02 0. -1.
        1   -1    0    0  501    0  0.00000000000E+00  0.00000000000E+00 -0.26581017049E+04  0.26581017049E+04  0.50400001928E-02 0.  1.
    10030    2    1    2    0    0  0.00000000000E+00  0.00000000000E+00 -0.15786279419E+04  0.37375754679E+04  0.33878317844E+04 0.  0.
        5    1    3    3  502    0  0.12294700946E+04  0.10237442209E+03  0.49122413418E+03  0.13279309002E+04  0.46999998093E+01 0. -1.
       -5    1    3    3    0  502 -0.12294700946E+04 -0.10237442209E+03 -0.20698520761E+04  0.24096445677E+04  0.46999998093E+01 0.  1.
</event>
<event>
 5   0  0.2906701E-06  0.3336559E+04  0.7818609E-02  0.8153655E-01
       -2   -1    0    0    0  501  0.00000000000E+00  0.00000000000E+00  0.25516593368E+04  0.25516593368E+04  0.25500000920E-02 0.  1.
        2   -1    0    0  501    0  0.00000000000E+00  0.00000000000E+00 -0.10907238622E+04  0.10907238622E+04  0.25500000920E-02 0. -1.
    10030    2    1    2    0    0  0.00000000000E+00  0.00000000000E+00  0.14609354747E+04  0.36423831990E+04  0.33365585425E+04 0.  0.
        5    1    3    3  502    0 -0.13016744368E+04 -0.98406149087E+03  0.35167588175E+03  0.16692607265E+04  0.46999998093E+01 0. -1.
       -5    1    3    3    0  502  0.13016744368E+04  0.98406149087E+03  0.11092595929E+04  0.19731224725E+04  0.46999998093E+01 0.  1.
</event>
<event>
 5   0  0.2906701E-06  0.3133159E+04  0.7818609E-02  0.8206696E-01
        2   -1    0    0  501    0  0.00000000000E+00  0.00000000000E+00  0.17871507271E+04  0.17871507271E+04  0.25500000920E-02 0. -1.
       -2   -1    0    0    0  501  0.00000000000E+00  0.00000000000E+00 -0.13732315948E+04  0.13732315948E+04  0.25500000920E-02 0.  1.
    10030    2    1    2    0    0  0.00000000000E+00  0.00000000000E+00  0.41391913228E+03  0.31603823219E+04  0.31331593277E+04 0.  0.
        5    1    3    3  502    0 -0.13524798084E+04  0.43913637475E+03 -0.45610066105E+03  0.14933493533E+04  0.46999998093E+01 0.  1.
       -5    1    3    3    0  502  0.13524798084E+04 -0.43913637475E+03  0.87001979333E+03  0.16670329687E+04  0.46999998093E+01 0. -1.
</event>
<event>
 5   0  0.2906701E-06  0.3078559E+04  0.7818609E-02  0.8221647E-01
       -2   -1    0    0    0  501  0.00000000000E+00  0.00000000000E+00  0.10231957686E+04  0.10231957686E+04  0.25500000920E-02 0. -1.
        2   -1    0    0  501    0  0.00000000000E+00  0.00000000000E+00 -0.23156675332E+04  0.23156675332E+04  0.25500000920E-02 0.  1.
    10030    2    1    2    0    0  0.00000000000E+00  0.00000000000E+00 -0.12924717647E+04  0.33388633018E+04  0.30785588976E+04 0.  0.
        5    1    3    3  502    0 -0.25603366857E+03 -0.50682891546E+03 -0.21979178169E+04  0.22700866963E+04  0.46999998093E+01 0.  1.
       -5    1    3    3    0  502  0.25603366857E+03  0.50682891546E+03  0.90544605224E+03  0.10687766055E+04  0.46999998093E+01 0. -1.
</event>
<event>
 5   0  0.9714317E-07  0.3330987E+04  0.7818609E-02  0.8155055E-01
        1   -1    0    0  501    0  0.00000000000E+00  0.00000000000E+00  0.25702334245E+04  0.25702334245E+04  0.50400001928E-02 0. -1.
       -1   -1    0    0    0  501  0.00000000000E+00  0.00000000000E+00 -0.10792280507E+04  0.10792280507E+04  0.50400001928E-02 0.  1.
    10030    2    1    2    0    0  0.00000000000E+00  0.00000000000E+00  0.14910053739E+04  0.36494614752E+04  0.33309866458E+04 0.  0.
        4    1    3    3  502    0  0.12048854838E+04  0.79590445986E+03 -0.16369067874E+03  0.14532753316E+04  0.12699999809E+01 0.  1.
       -4    1    3    3    0  502 -0.12048854838E+04 -0.79590445986E+03  0.16546960526E+04  0.21961861437E+04  0.12699999809E+01 0. -1.
</event>
<event>
 5   0  0.2664083E-06  0.3029168E+04  0.7818609E-02  0.8235451E-01
        2   -1    0    0  501    0  0.00000000000E+00  0.00000000000E+00  0.21309264478E+04  0.21309264478E+04  0.25500000920E-02 0. -1.
       -2   -1    0    0    0  501  0.00000000000E+00  0.00000000000E+00 -0.10765104444E+04  0.10765104444E+04  0.25500000920E-02 0.  1.
    10030    2    1    2    0    0  0.00000000000E+00  0.00000000000E+00  0.10544160034E+04  0.32074368922E+04  0.30291679236E+04 0.  0.
        2    1    3    3  502    0  0.36716903958E+03 -0.13722018736E+04 -0.29281806504E+02  0.14207774315E+04  0.25500000920E-02 0.  1.
       -2    1    3    3    0  502 -0.36716903958E+03  0.13722018736E+04  0.10836978099E+04  0.17866594608E+04  0.25500000920E-02 0. -1.
</event>
<event>
 5   0  0.2848685E-06  0.2481725E+04  0.7818609E-02  0.8409525E-01
       -2   -1    0    0    0  501  0.00000000000E+00  0.00000000000E+00  0.90905746062E+03  0.90905746062E+03  0.25500000920E-02 0. -1.
        2   -1    0    0  501    0  0.00000000000E+00  0.00000000000E+00 -0.16937765438E+04  0.16937765438E+04  0.25500000920E-02 0.  1.
    10030    2    1    2    0    0  0.00000000000E+00  0.00000000000E+00 -0.78471908314E+03  0.26028340044E+04  0.24817253706E+04 0.  0.
        3    1    3    3  502    0 -0.96092708632E+03 -0.41397625166E+03  0.30726406832E+03  0.10904899908E+04  0.10100000352E+00 0. -1.
       -3    1    3    3    0  502  0.96092708632E+03  0.41397625166E+03 -0.10919831515E+04  0.15123440136E+04  0.10100000352E+00 0.  1.
</event>
<event>
 5   0  0.9232963E-07  0.2198643E+04  0.7818609E-02  0.8518993E-01
       -1   -1    0    0    0  501  0.00000000000E+00  0.00000000000E+00  0.10797804557E+04  0.10797804558E+04  0.50400001928E-02 0. -1.
        1   -1    0    0  501    0  0.00000000000E+00  0.00000000000E+00 -0.11192157045E+04  0.11192157045E+04  0.50400001928E-02 0.  1.
    10030    2    1    2    0    0  0.00000000000E+00  0.00000000000E+00 -0.39435248733E+02  0.21989961603E+04  0.21986425298E+04 0.  0.
        3    1    3    3  502    0 -0.69182462715E+03 -0.77779775842E+03 -0.37320984780E+03  0.11058373608E+04  0.10100000352E+00 0.  1.
       -3    1    3    3    0  502  0.69182462715E+03  0.77779775842E+03  0.33377459907E+03  0.10931587995E+04  0.10100000352E+00 0. -1.
</event>
<event>
 5   0  0.2848685E-06  0.3411706E+04  0.7818609E-02  0.8135039E-01
       -2   -1    0    0    0  501  0.00000000000E+00  0.00000000000E+00  0.23095758164E+04  0.23095758164E+04  0.25500000920E-02 0.  1.
        2   -1    0    0  501    0  0.00000000000E+00  0.00000000000E+00 -0.12599435791E+04  0.12599435791E+04  0.25500000920E-02 0. -1.
    10030    2    1    2    0    0  0.00000000000E+00  0.00000000000E+00  0.10496322373E+04  0.35695193956E+04  0.34117064472E+04 0.  0.
        3    1    3    3  502    0  0.93117224140E+03 -0.13016066640E+04 -0.92983445323E+02  0.16030931296E+04  0.10100000352E+00 0. -1.
       -3    1    3    3    0  502 -0.93117224140E+03  0.13016066640E+04  0.11426156826E+04  0.19664262659E+04  0.10100000352E+00 0.  1.
</event>
<event>
 5   0  0.1010855E-06  0.3379169E+04  0.7818609E-02  0.8143038E-01
        1   -1    0    0  501    0  0.00000000000E+00  0.00000000000E+00  0.97873354994E+03  0.97873354996E+03  0.50400001928E-02 0. -1.
       -1   -1    0    0    0  501  0.00000000000E+00  0.00000000000E+00 -0.29167235905E+04  0.29167235905E+04  0.50400001928E-02 0.  1.
    10030    2    1    2    0    0  0.00000000000E+00  0.00000000000E+00 -0.19379900405E+04  0.38954571404E+04  0.33791686752E+04 0.  0.
        1    1    3    3  502    0 -0.56419700868E+03  0.15549782540E+04 -0.13656933322E+04  0.21450859919E+04  0.50400001928E-02 0. -1.
       -1    1    3    3    0  502  0.56419700868E+03 -0.15549782540E+04 -0.57229670837E+03  0.17503711485E+04  0.50400001928E-02 0.  1.
</event>
<event>
 5   0  0.2906701E-06  0.3350623E+04  0.7818609E-02  0.8150133E-01
        2   -1    0    0  501    0  0.00000000000E+00  0.00000000000E+00  0.19373037088E+04  0.19373037088E+04  0.25500000920E-02 0.  1.
       -2   -1    0    0    0  501  0.00000000000E+00  0.00000000000E+00 -0.14487495065E+04  0.14487495065E+04  0.25500000920E-02 0. -1.
    10030    2    1    2    0    0  0.00000000000E+00  0.00000000000E+00  0.48855420235E+03  0.33860532153E+04  0.33506225046E+04 0.  0.
        5    1    3    3  502    0 -0.82930098696E+03  0.66237548029E+03  0.15541952345E+04  0.18820271839E+04  0.46999998093E+01 0.  1.
       -5    1    3    3    0  502  0.82930098696E+03 -0.66237548029E+03 -0.10656410321E+04  0.15040260314E+04  0.46999998093E+01 0. -1.
</event>
<event>
 5   0  0.9232963E-07  0.3385595E+04  0.7818609E-02  0.8141451E-01
       -1   -1    0    0    0  501  0.00000000000E+00  0.00000000000E+00  0.14835172408E+04  0.14835172408E+04  0.50400001928E-02 0. -1.
        1   -1    0    0  501    0  0.00000000000E+00  0.00000000000E+00 -0.19316008815E+04  0.19316008815E+04  0.50400001928E-02 0.  1.
    10030    2    1    2    0    0  0.00000000000E+00  0.00000000000E+00 -0.44808364068E+03  0.34151181223E+04  0.33855949020E+04 0.  0.
        3    1    3    3  502    0  0.33688568714E+03 -0.28869988716E+03 -0.18719102612E+04  0.19237691200E+04  0.10100000352E+00 0.  1.
       -3    1    3    3    0  502 -0.33688568714E+03  0.28869988716E+03  0.14238266205E+04  0.14913490023E+04  0.10100000352E+00 0. -1.
</event>
<event>
 5   0  0.2664083E-06  0.2176964E+04  0.7818609E-02  0.8528078E-01
       -2   -1    0    0    0  501  0.00000000000E+00  0.00000000000E+00  0.51057131295E+03  0.51057131296E+03  0.25500000920E-02 0. -1.
        2   -1    0    0  501    0  0.00000000000E+00  0.00000000000E+00 -0.23205250854E+04  0.23205250854E+04  0.25500000920E-02 0.  1.
    10030    2    1    2    0    0  0.00000000000E+00  0.00000000000E+00 -0.18099537724E+04  0.28310963983E+04  0.21769644366E+04 0.  0.
        2    1    3    3  502    0  0.76979168005E+03 -0.28332028447E+03  0.25519133923E+02  0.82067096968E+03  0.25500000920E-02 0. -1.
       -2    1    3    3    0  502 -0.76979168005E+03  0.28332028447E+03 -0.18354729063E+04  0.20104254286E+04  0.25500000920E-02 0.  1.
</event>
<event>
 5   0  0.1003191E-06  0.3363862E+04  0.7818609E-02  0.8146833E-01
        1   -1    0    0  501    0  0.00000000000E+00  0.00000000000E+00  0.19495220919E+04  0.19495220919E+04  0.50400001928E-02 0.  1.
       -1   -1    0    0    0  501  0.00000000000E+00  0.00000000000E+00 -0.14510693637E+04  0.14510693637E+04  0.50400001928E-02 0. -1.
    10030    2    1    2    0    0  0.00000000000E+00  0.00000000000E+00  0.49845272823E+03  0.34005914556E+04  0.33638619362E+04 0.  0.
        5    1    3    3  502    0 -0.25158589509E+03  0.12001399425E+04  0.14129860101E+04  0.18708775746E+04  0.46999998093E+01 0.  1.
       -5    1    3    3    0  502  0.25158589509E+03 -0.12001399425E+04 -0.91453328185E+03  0.15297138811E+04  0.46999998093E+01 0. -1.
</event>
<event>
 5   0  0.1010551E-06  0.3435997E+04  0.7818609E-02  0.8129127E-01
        1   -1    0    0  501    0  0.00000000000E+00  0.00000000000E+00  0.22927186680E+04  0.22927186680E+04  0.50400001928E-02 0. -1.
       -1   -1    0    0    0  501  0.00000000000E+00  0.00000000000E+00 -0.12873448437E+04  0.12873448437E+04  0.50400001928E-02 0.  1.
    10030    2    1    2    0    0  0.00000000000E+00  0.00000000000E+00  0.10053738243E+04  0.35800635117E+04  0.34359974129E+04 0.  0.
        2    1    3    3  502    0  0.21950568450E+02  0.16631967601E+04  0.54761555823E+02  0.16642428063E+04  0.25500000920E-02 0.  1.
       -2    1    3    3    0  502 -0.21950568450E+02 -0.16631967601E+04  0.95061226846E+03  0.19158207054E+04  0.25500000920E-02 0. -1.
</event>
<event>
 5   0  0.9070500E-07  0.2812622E+04  0.7818609E-02  0.8299360E-01
        3   -1    0    0  501    0  0.00000000000E+00  0.00000000000E+00  0.10698277956E+04  0.10698278003E+04  0.10100000352E+00 0. -1.
       -3   -1    0    0    0  501  0.00000000000E+00  0.00000000000E+00 -0.18486254321E+04  0.18486254349E+04  0.10100000352E+00 0.  1.
    10030    2    1    2    0    0  0.00000000000E+00  0.00000000000E+00 -0.77879763656E+03  0.29184532352E+04  0.28126221800E+04 0.  0.
        2    1    3    3  502    0  0.11920882475E+04  0.62354971387E+03 -0.81447434960E+03  0.15726592453E+04  0.25500000920E-02 0.  1.
       -2    1    3    3    0  502 -0.11920882475E+04 -0.62354971387E+03  0.35676713039E+02  0.13457939900E+04  0.25500000920E-02 0. -1.
</event>
<event>
 5   0  0.2906701E-06  0.4032057E+04  0.7818609E-02  0.7998111E-01
        2   -1    0    0  501    0  0.00000000000E+00  0.00000000000E+00  0.20645123503E+04  0.20645123503E+04  0.25500000920E-02 0. -1.
       -2   -1    0    0    0  501  0.00000000000E+00  0.00000000000E+00 -0.19686833201E+04  0.19686833201E+04  0.25500000920E-02 0.  1.
    10030    2    1    2    0    0  0.00000000000E+00  0.00000000000E+00  0.95829030171E+02  0.40331956704E+04  0.40320570572E+04 0.  0.
        5    1    3    3  502    0 -0.52822126174E+03  0.57646436459E+03  0.19066696216E+04  0.20607619953E+04  0.46999998093E+01 0. -1.
       -5    1    3    3    0  502  0.52822126174E+03 -0.57646436459E+03 -0.18108405915E+04  0.19724336751E+04  0.46999998093E+01 0.  1.
</event>
<event>
 5   0  0.1003191E-06  0.3441537E+04  0.7818609E-02  0.8127786E-01
        1   -1    0    0  501    0  0.00000000000E+00  0.00000000000E+00  0.15099847025E+04  0.15099847026E+04  0.50400001928E-02 0. -1.
       -1   -1    0    0    0  501  0.00000000000E+00  0.00000000000E+00 -0.19609759219E+04  0.19609759219E+04  0.50400001928E-02 0.  1.
    10030    2    1    2    0    0  0.00000000000E+00  0.00000000000E+00 -0.45099121935E+03  0.34709606245E+04  0.34415366592E+04 0.  0.
        5    1    3    3  502    0 -0.21322866285E+03  0.15621223968E+04  0.46983974168E+03  0.16451335259E+04  0.46999998093E+01 0. -1.
       -5    1    3    3    0  502  0.21322866285E+03 -0.15621223968E+04 -0.92083096102E+03  0.18258270986E+04  0.46999998093E+01 0.  1.
</event>
<event>
 5   0  0.2767014E-06  0.3516926E+04  0.7818609E-02  0.8109790E-01
        2   -1    0    0  501    0  0.00000000000E+00  0.00000000000E+00  0.16722854850E+04  0.16722854850E+04  0.25500000920E-02 0. -1.
       -2   -1    0    0    0  501  0.00000000000E+00  0.00000000000E+00 -0.18490811997E+04  0.18490811997E+04  0.25500000920E-02 0.  1.
    10030    2    1    2    0    0  0.00000000000E+00  0.00000000000E+00 -0.17679571467E+03  0.35213666847E+04  0.35169257319E+04 0.  0.
        1    1    3    3  502    0  0.91005309926E+03  0.73304605942E+03 -0.14040732795E+04  0.18267388820E+04  0.50400001928E-02 0.  1.
       -1    1    3    3    0  502 -0.91005309926E+03 -0.73304605942E+03  0.12272775648E+04  0.16946278028E+04  0.50400001928E-02 0. -1.
</event>
<event>
 5   0  0.2906701E-06  0.3446604E+04  0.7818609E-02  0.8126562E-01
       -2   -1    0    0    0  501  0.00000000000E+00  0.00000000000E+00  0.18028995624E+04  0.18028995624E+04  0.25500000920E-02 0. -1.
        2   -1    0    0  501    0  0.00000000000E+00  0.00000000000E+00 -0.16472184512E+04  0.16472184512E+04  0.25500000920E-02 0.  1.
    10030    2    1    2    0    0  0.00000000000E+00  0.00000000000E+00  0.15568111117E+03  0.34501180136E+04  0.34466037920E+04 0.  0.
        5    1    3    3  502    0 -0.69832739797E+03 -0.12807327594E+04 -0.84059686973E+03  0.16836159726E+04  0.46999998093E+01 0.  1.
       -5    1    3    3    0  502  0.69832739797E+03  0.12807327594E+04  0.99627798090E+03  0.17665020410E+04  0.46999998093E+01 0. -1.
</event>
<event>
 5   0  0.2906701E-06  0.3275709E+04  0.7818609E-02  0.8169104E-01
       -2   -1    0    0    0  501  0.00000000000E+00  0.00000000000E+00  0.14024991309E+04  0.14024991309E+04  0.25500000920E-02 0. -1.
        2   -1    0    0  501    0  0.00000000000E+00  0.00000000000E+00 -0.19127046917E+04  0.19127046917E+04  0.25500000920E-02 0.  1.
    10030    2    1    2    0    0  0.00000000000E+00  0.00000000000E+00 -0.51020556087E+03  0.33152038226E+04  0.32757085754E+04 0.  0.
        5    1    3    3  502    0  0.52768013720E+03  0.43038395743E+03 -0.17626492240E+04  0.18896113502E+04  0.46999998093E+01 0.  1.
       -5    1    3    3    0  502 -0.52768013720E+03 -0.43038395743E+03  0.12524436631E+04  0.14255924724E+04  0.46999998093E+01 0. -1.
</event>
<event>
 5   0  0.1003191E-06  0.3433237E+04  0.7818609E-02  0.8129797E-01
       -1   -1    0    0    0  501  0.00000000000E+00  0.00000000000E+00  0.18787771075E+04  0.18787771075E+04  0.50400001928E-02 0.  1.
        1   -1    0    0  501    0  0.00000000000E+00  0.00000000000E+00 -0.15684561910E+04  0.15684561911E+04  0.50400001928E-02 0. -1.
    10030    2    1    2    0    0  0.00000000000E+00  0.00000000000E+00  0.31032091641E+03  0.34472332985E+04  0.34332372978E+04 0.  0.
        5    1    3    3  502    0 -0.10987947903E+03 -0.70062235026E+03 -0.14144821493E+04  0.15823169778E+04  0.46999998093E+01 0. -1.
       -5    1    3    3    0  502  0.10987947903E+03  0.70062235026E+03  0.17248030657E+04  0.18649163207E+04  0.46999998093E+01 0.  1.
</event>
<event>
 5   0  0.1003191E-06  0.3448481E+04  0.7818609E-02  0.8126109E-01
       -1   -1    0    0    0  501  0.00000000000E+00  0.00000000000E+00  0.23213402467E+04  0.23213402467E+04  0.50400001928E-02 0. -1.
        1   -1    0    0  501    0  0.00000000000E+00  0.00000000000E+00 -0.12807282905E+04  0.12807282905E+04  0.50400001928E-02 0.  1.
    10030    2    1    2    0    0  0.00000000000E+00  0.00000000000E+00  0.10406119562E+04  0.36020685372E+04  0.34484814778E+04 0.  0.
        5    1    3    3  502    0 -0.16871854832E+03  0.14704974192E+04  0.14440903395E+04  0.20679089939E+04  0.46999998093E+01 0. -1.
       -5    1    3    3    0  502  0.16871854832E+03 -0.14704974192E+04 -0.40347838326E+03  0.15341595433E+04  0.46999998093E+01 0.  1.
</event>
<event>
 5   0  0.2906701E-06  0.3329520E+04  0.7818609E-02  0.8155424E-01
        2   -1    0    0  501    0  0.00000000000E+00  0.00000000000E+00  0.20822825481E+04  0.20822825481E+04  0.25500000920E-02 0. -1.
       -2   -1    0    0    0  501  0.00000000000E+00  0.00000000000E+00 -0.13309554589E+04  0.13309554589E+04  0.25500000920E-02 0.  1.
    10030    2    1    2    0    0  0.00000000000E+00  0.00000000000E+00  0.75132708928E+03  0.34132380070E+04  0.33295196797E+04 0.  0.
        5    1    3    3  502    0 -0.14564488611E+03  0.76043515812E+01  0.20757140884E+04  0.20808366889E+04  0.46999998093E+01 0. -1.
       -5    1    3    3    0  502  0.14564488611E+03 -0.76043515812E+01 -0.13243869991E+04  0.13324013181E+04  0.46999998093E+01 0.  1.
</event>
<event>
 5   0  0.9714317E-07  0.3411812E+04  0.7818609E-02  0.8135013E-01
       -1   -1    0    0    0  501  0.00000000000E+00  0.00000000000E+00  0.18558242478E+04  0.18558242478E+04  0.50400001928E-02 0. -1.
        1   -1    0    0  501    0  0.00000000000E+00  0.00000000000E+00 -0.15680981052E+04  0.15680981052E+04  0.50400001928E-02 0.  1.
    10030    2    1    2    0    0  0.00000000000E+00  0.00000000000E+00  0.28772614259E+03  0.34239223530E+04  0.34118115344E+04 0.  0.
        4    1    3    3  502    0 -0.77257646376E+03 -0.10738569291E+04 -0.93702551375E+03  0.16211297057E+04  0.12699999809E+01 0. -1.
       -4    1    3    3    0  502  0.77257646376E+03  0.10738569291E+04  0.12247516563E+04  0.18027926473E+04  0.12699999809E+01 0.  1.
</event>
<event>
 5   0  0.2767014E-06  0.3427610E+04  0.7818609E-02  0.8131163E-01
        2   -1    0    0  501    0  0.00000000000E+00  0.00000000000E+00  0.23205604918E+04  0.23205604918E+04  0.25500000920E-02 0. -1.
       -2   -1    0    0    0  501  0.00000000000E+00  0.00000000000E+00 -0.12656977716E+04  0.12656977716E+04  0.25500000920E-02 0.  1.
    10030    2    1    2    0    0  0.00000000000E+00  0.00000000000E+00  0.10548627202E+04  0.35862582634E+04  0.34276103882E+04 0.  0.
        1    1    3    3  502    0 -0.95035431621E+03 -0.13990116150E+04  0.23762465955E+03  0.17078853310E+04  0.50400001928E-02 0.  1.
       -1    1    3    3    0  502  0.95035431621E+03  0.13990116150E+04  0.81723806067E+03  0.18783729323E+04  0.50400001928E-02 0. -1.
</event>
<event>
 5   0  0.1070468E-06  0.2161320E+04  0.7818609E-02  0.8534702E-01
       -1   -1    0    0    0  501  0.00000000000E+00  0.00000000000E+00  0.82762865854E+03  0.82762865856E+03  0.50400001928E-02 0. -1.
        1   -1    0    0  501    0  0.00000000000E+00  0.00000000000E+00 -0.14110510571E+04  0.14110510571E+04  0.50400001928E-02 0.  1.
    10030    2    1    2    0    0  0.00000000000E+00  0.00000000000E+00 -0.58342239860E+03  0.22386797157E+04  0.21613202387E+04 0.  0.
        5    1    3    3  502    0 -0.55979165227E+03  0.76266967961E+03 -0.83268111226E+03  0.12603220457E+04  0.46999998093E+01 0.  1.
       -5    1    3    3    0  502  0.55979165227E+03 -0.76266967961E+03  0.24925871366E+03  0.97835767001E+03  0.46999998093E+01 0. -1.
</event>
<event>
 5   0  0.1010855E-06  0.3429273E+04  0.7818609E-02  0.8130759E-01
        1   -1    0    0  501    0  0.00000000000E+00  0.00000000000E+00  0.19611123226E+04  0.19611123226E+04  0.50400001928E-02 0. -1.
       -1   -1    0    0    0  501  0.00000000000E+00  0.00000000000E+00 -0.14991380359E+04  0.14991380360E+04  0.50400001928E-02 0.  1.
    10030    2    1    2    0    0  0.00000000000E+00  0.00000000000E+00  0.46197428668E+03  0.34602503586E+04  0.34292728533E+04 0.  0.
        1    1    3    3  502    0 -0.64189658762E+03  0.83759420873E+03  0.15946323292E+04  0.19121839747E+04  0.50400001928E-02 0. -1.
       -1    1    3    3    0  502  0.64189658762E+03 -0.83759420873E+03 -0.11326580425E+04  0.15480663839E+04  0.50400001928E-02 0.  1.
</event>
<event>
 5   0  0.1010855E-06  0.3420023E+04  0.7818609E-02  0.8133009E-01
        1   -1    0    0  501    0  0.00000000000E+00  0.00000000000E+00  0.16576615483E+04  0.16576615483E+04  0.50400001928E-02 0.  1.
       -1   -1    0    0    0  501  0.00000000000E+00  0.00000000000E+00 -0.17640146948E+04  0.17640146948E+04  0.50400001928E-02 0. -1.
    10030    2    1    2    0    0  0.00000000000E+00  0.00000000000E+00 -0.10635314649E+03  0.34216762432E+04  0.34200230001E+04 0.  0.
        1    1    3    3  502    0 -0.13622106641E+03 -0.28351642252E+03  0.16284695432E+04  0.16585688994E+04  0.50400001928E-02 0.  1.
       -1    1    3    3    0  502  0.13622106641E+03  0.28351642252E+03 -0.17348226897E+04  0.17631073438E+04  0.50400001928E-02 0. -1.
</event>
<event>
 5   0  0.9714317E-07  0.3306914E+04  0.7818609E-02  0.8161138E-01
        1   -1    0    0  501    0  0.00000000000E+00  0.00000000000E+00  0.16895410119E+04  0.16895410119E+04  0.50400001928E-02 0. -1.
       -1   -1    0    0    0  501  0.00000000000E+00  0.00000000000E+00 -0.16181433798E+04  0.16181433798E+04  0.50400001928E-02 0.  1.
    10030    2    1    2    0    0  0.00000000000E+00  0.00000000000E+00  0.71397632135E+02  0.33076843917E+04  0.33069137294E+04 0.  0.
        4    1    3    3  502    0 -0.10847922937E+04  0.16499622326E+03  0.12728863856E+04  0.16805473625E+04  0.12699999809E+01 0. -1.
       -4    1    3    3    0  502  0.10847922937E+04 -0.16499622326E+03 -0.12014887535E+04  0.16271370292E+04  0.12699999809E+01 0.  1.
</event>
<event>
 5   0  0.2856440E-06  0.3395476E+04  0.7818609E-02  0.8139018E-01
        2   -1    0    0  501    0  0.00000000000E+00  0.00000000000E+00  0.13601807957E+04  0.13601807957E+04  0.25500000920E-02 0. -1.
       -2   -1    0    0    0  501  0.00000000000E+00  0.00000000000E+00 -0.21190665040E+04  0.21190665040E+04  0.25500000920E-02 0.  1.
    10030    2    1    2    0    0  0.00000000000E+00  0.00000000000E+00 -0.75888570835E+03  0.34792472997E+04  0.33954755564E+04 0.  0.
        4    1    3    3  502    0  0.12402414755E+04 -0.55239321814E+03  0.66500603003E+03  0.15118107745E+04  0.12699999809E+01 0. -1.
       -4    1    3    3    0  502 -0.12402414755E+04  0.55239321814E+03 -0.14238917384E+04  0.19674365252E+04  0.12699999809E+01 0.  1.
</event>
<event>
 5   0  0.2767014E-06  0.3377251E+04  0.7818609E-02  0.8143512E-01
       -2   -1    0    0    0  501  0.00000000000E+00  0.00000000000E+00  0.13271053079E+04  0.13271053079E+04  0.25500000920E-02 0.  1.
        2   -1    0    0  501    0  0.00000000000E+00  0.00000000000E+00 -0.21486279303E+04  0.21486279303E+04  0.25500000920E-02 0. -1.
    10030    2    1    2    0    0  0.00000000000E+00  0.00000000000E+00 -0.82152262241E+03  0.34757332383E+04  0.33772506754E+04 0.  0.
        1    1    3    3  502    0 -0.15087971435E+04  0.73155907134E+03 -0.61609892717E+03  0.17864001185E+04  0.50400001928E-02 0. -1.
       -1    1    3    3    0  502  0.15087971435E+04 -0.73155907134E+03 -0.20542369524E+03  0.16893331198E+04  0.50400001928E-02 0.  1.
</event>
<event>
 5   0  0.1010855E-06  0.3259422E+04  0.7818609E-02  0.8173298E-01
       -1   -1    0    0    0  501  0.00000000000E+00  0.00000000000E+00  0.18700839904E+04  0.18700839904E+04  0.50400001928E-02 0. -1.
        1   -1    0    0  501    0  0.00000000000E+00  0.00000000000E+00 -0.14202345383E+04  0.14202345383E+04  0.50400001928E-02 0.  1.
    10030    2    1    2    0    0  0.00000000000E+00  0.00000000000E+00  0.44984945211E+03  0.32903185288E+04  0.32594219566E+04 0.  0.
        1    1    3    3  502    0 -0.63107289345E+03  0.11613543074E+04  0.11873565894E+04  0.17767421013E+04  0.50400001928E-02 0. -1.
       -1    1    3    3    0  502  0.63107289345E+03 -0.11613543074E+04 -0.73750713733E+03  0.15135764274E+04  0.50400001928E-02 0.  1.
</event>
<event>
 5   0  0.2906701E-06  0.3432619E+04  0.7818609E-02  0.8129947E-01
       -2   -1    0    0    0  501  0.00000000000E+00  0.00000000000E+00  0.15359913114E+04  0.15359913114E+04  0.25500000920E-02 0. -1.
        2   -1    0    0  501    0  0.00000000000E+00  0.00000000000E+00 -0.19177957801E+04  0.19177957801E+04  0.25500000920E-02 0.  1.
    10030    2    1    2    0    0  0.00000000000E+00  0.00000000000E+00 -0.38180446875E+03  0.34537870915E+04  0.34326186245E+04 0.  0.
        5    1    3    3  502    0 -0.29978909349E+03  0.10514586037E+04  0.11402290884E+04  0.15797414851E+04  0.46999998093E+01 0. -1.
       -5    1    3    3    0  502  0.29978909349E+03 -0.10514586037E+04 -0.15220335572E+04  0.18740456064E+04  0.46999998093E+01 0.  1.
</event>
<event>
 5   0  0.2848685E-06  0.3374148E+04  0.7818609E-02  0.8144281E-01
        2   -1    0    0  501    0  0.00000000000E+00  0.00000000000E+00  0.25624070366E+04  0.25624070366E+04  0.25500000920E-02 0.  1.
       -2   -1    0    0    0  501  0.00000000000E+00  0.00000000000E+00 -0.11107595713E+04  0.11107595713E+04  0.25500000920E-02 0. -1.
    10030    2    1    2    0    0  0.00000000000E+00  0.00000000000E+00  0.14516474652E+04  0.36731666079E+04  0.33741476799E+04 0.  0.
        3    1    3    3  502    0  0.98784393292E+02  0.16160840270E+04  0.12418944119E+04  0.20405361254E+04  0.10100000352E+00 0. -1.
       -3    1    3    3    0  502 -0.98784393292E+02 -0.16160840270E+04  0.20975305336E+03  0.16326304825E+04  0.10100000352E+00 0.  1.
</event>
<event>
 5   0  0.2664083E-06  0.3331051E+04  0.7818609E-02  0.8155039E-01
        2   -1    0    0  501    0  0.00000000000E+00  0.00000000000E+00  0.23267714469E+04  0.23267714469E+04  0.25500000920E-02 0. -1.
       -2   -1    0    0    0  501  0.00000000000E+00  0.00000000000E+00 -0.11921993686E+04  0.11921993686E+04  0.25500000920E-02 0.  1.
    10030    2    1    2    0    0  0.00000000000E+00  0.00000000000E+00  0.11345720784E+04  0.35189708155E+04  0.33310511553E+04 0.  0.
        2    1    3    3  502    0  0.12843006354E+03 -0.14644304633E+04  0.13943476905E+04  0.20261432193E+04  0.25500000920E-02 0. -1.
       -2    1    3    3    0  502 -0.12843006354E+03  0.14644304633E+04 -0.25977561214E+03  0.14928275962E+04  0.25500000920E-02 0.  1.
</event>
<event>
 5   0  0.2664083E-06  0.3415902E+04  0.7818609E-02  0.8134014E-01
        2   -1    0    0  501    0  0.00000000000E+00  0.00000000000E+00  0.23535252883E+04  0.23535252883E+04  0.25500000920E-02 0. -1.
       -2   -1    0    0    0  501  0.00000000000E+00  0.00000000000E+00 -0.12394584894E+04  0.12394584894E+04  0.25500000920E-02 0.  1.
    10030    2    1    2    0    0  0.00000000000E+00  0.00000000000E+00  0.11140667990E+04  0.35929837777E+04  0.34159021640E+04 0.  0.
        2    1    3    3  502    0  0.51761284282E+03 -0.10202346787E+04  0.18909623393E+04  0.22100996411E+04  0.25500000920E-02 0. -1.
       -2    1    3    3    0  502 -0.51761284282E+03  0.10202346787E+04 -0.77689554032E+03  0.13828841366E+04  0.25500000920E-02 0.  1.
</event>
<event>
 5   0  0.2664083E-06  0.3375759E+04  0.7818609E-02  0.8143882E-01
       -2   -1    0    0    0  501  0.00000000000E+00  0.00000000000E+00  0.18334926259E+04  0.18334926259E+04  0.25500000920E-02 0.  1.
        2   -1    0    0  501    0  0.00000000000E+00  0.00000000000E+00 -0.15538304960E+04  0.15538304960E+04  0.25500000920E-02 0. -1.
    10030    2    1    2    0    0  0.00000000000E+00  0.00000000000E+00  0.27966212990E+03  0.33873231219E+04  0.33757587333E+04 0.  0.
        2    1    3    3  502    0 -0.10420798522E+04 -0.68619655845E+01 -0.11924822368E+04  0.15836639132E+04  0.25500000920E-02 0. -1.
       -2    1    3    3    0  502  0.10420798522E+04  0.68619655845E+01  0.14721443667E+04  0.18036592087E+04  0.25500000920E-02 0.  1.
</event>
<event>
 5   0  0.2664083E-06  0.3400635E+04  0.7818609E-02  0.8137750E-01
        2   -1    0    0  501    0  0.00000000000E+00  0.00000000000E+00  0.28439793007E+04  0.28439793007E+04  0.25500000920E-02 0. -1.
       -2   -1    0    0    0  501  0.00000000000E+00  0.00000000000E+00 -0.10165615881E+04  0.10165615881E+04  0.25500000920E-02 0.  1.
    10030    2    1    2    0    0  0.00000000000E+00  0.00000000000E+00  0.18274177126E+04  0.38605408888E+04  0.34006353021E+04 0.  0.
        2    1    3    3  502    0  0.12685155698E+04  0.79161391674E+03  0.18326903805E+04  0.23652776527E+04  0.25500000920E-02 0. -1.
       -2    1    3    3    0  502 -0.12685155698E+04 -0.79161391674E+03 -0.52726678958E+01  0.14952632360E+04  0.25500000920E-02 0.  1.
</event>
<event>
 5   0  0.2848685E-06  0.2600457E+04  0.7818609E-02  0.8368046E-01
       -2   -1    0    0    0  501  0.00000000000E+00  0.00000000000E+00  0.69268864953E+03  0.69268864954E+03  0.25500000920E-02 0.  1.
        2   -1    0    0  501    0  0.00000000000E+00  0.00000000000E+00 -0.24406254370E+04  0.24406254370E+04  0.25500000920E-02 0. -1.
    10030    2    1    2    0    0  0.00000000000E+00  0.00000000000E+00 -0.17479367875E+04  0.31333140865E+04  0.26004565276E+04 0.  0.
        3    1    3    3  502    0 -0.46422877158E+03  0.11175318594E+04 -0.14470388810E+04  0.18863476197E+04  0.10100000352E+00 0. -1.
       -3    1    3    3    0  502  0.46422877158E+03 -0.11175318594E+04 -0.30089790647E+03  0.12469664668E+04  0.10100000352E+00 0.  1.
</event>
<event>
 5   0  0.2856440E-06  0.3682355E+04  0.7818609E-02  0.8071884E-01
        2   -1    0    0  501    0  0.00000000000E+00  0.00000000000E+00  0.15385627607E+04  0.15385627607E+04  0.25500000920E-02 0.  1.
       -2   -1    0    0    0  501  0.00000000000E+00  0.00000000000E+00 -0.22033120101E+04  0.22033120101E+04  0.25500000920E-02 0. -1.
    10030    2    1    2    0    0  0.00000000000E+00  0.00000000000E+00 -0.66474924945E+03  0.37418747708E+04  0.36823545777E+04 0.  0.
        4    1    3    3  502    0 -0.12034232974E+04 -0.10803823667E+04 -0.12266439384E+04  0.20298055709E+04  0.12699999809E+01 0. -1.
       -4    1    3    3    0  502  0.12034232974E+04  0.10803823667E+04  0.56189468895E+03  0.17120691999E+04  0.12699999809E+01 0.  1.
</event>
<event>
 5   0  0.2767014E-06  0.3438166E+04  0.7818609E-02  0.8128602E-01
        2   -1    0    0  501    0  0.00000000000E+00  0.00000000000E+00  0.22633449181E+04  0.22633449181E+04  0.25500000920E-02 0.  1.
       -2   -1    0    0    0  501  0.00000000000E+00  0.00000000000E+00 -0.13056984273E+04  0.13056984273E+04  0.25500000920E-02 0. -1.
    10030    2    1    2    0    0  0.00000000000E+00  0.00000000000E+00  0.95764649085E+03  0.35690433454E+04  0.34381657319E+04 0.  0.
        1    1    3    3  502    0  0.11925446426E+04  0.11989370970E+04  0.79984091204E+03  0.18706572032E+04  0.50400001928E-02 0.  1.
       -1    1    3    3    0  502 -0.11925446426E+04 -0.11989370970E+04  0.15780557882E+03  0.16983861422E+04  0.50400001928E-02 0. -1.
</event>
<event>
 5   0  0.1010855E-06  0.3319539E+04  0.7818609E-02  0.8157941E-01
       -1   -1    0    0    0  501  0.00000000000E+00  0.00000000000E+00  0.15559117339E+04  0.15559117340E+04  0.50400001928E-02 0.  1.
        1   -1    0    0  501    0  0.00000000000E+00  0.00000000000E+00 -0.17705595706E+04  0.17705595706E+04  0.50400001928E-02 0. -1.
    10030    2    1    2    0    0  0.00000000000E+00  0.00000000000E+00 -0.21464783663E+03  0.33264713045E+04  0.33195387701E+04 0.  0.
        1    1    3    3  502    0 -0.10470671947E+03  0.16368143280E+04 -0.36223632015E+03  0.16796844325E+04  0.50400001928E-02 0.  1.
       -1    1    3    3    0  502  0.10470671947E+03 -0.16368143280E+04  0.14758848352E+03  0.16467868720E+04  0.50400001928E-02 0. -1.
</event>
<event>
 5   0  0.9232963E-07  0.2594062E+04  0.7818609E-02  0.8370221E-01
        1   -1    0    0  501    0  0.00000000000E+00  0.00000000000E+00  0.12913265500E+04  0.12913265500E+04  0.50400001928E-02 0. -1.
       -1   -1    0    0    0  501  0.00000000000E+00  0.00000000000E+00 -0.13027609403E+04  0.13027609403E+04  0.50400001928E-02 0.  1.
    10030    2    1    2    0    0  0.00000000000E+00  0.00000000000E+00 -0.11434390373E+02  0.25940874903E+04  0.25940622895E+04 0.  0.
        3    1    3    3  502    0  0.11563700799E+04  0.10368347832E+01  0.58173803613E+03  0.12944543211E+04  0.10100000352E+00 0. -1.
       -3    1    3    3    0  502 -0.11563700799E+04 -0.10368347832E+01 -0.59317242650E+03  0.12996331692E+04  0.10100000352E+00 0.  1.
</event>
<event>
 5   0  0.1010855E-06  0.3378418E+04  0.7818609E-02  0.8143224E-01
        1   -1    0    0  501    0  0.00000000000E+00  0.00000000000E+00  0.20403603965E+04  0.20403603965E+04  0.50400001928E-02 0.  1.
       -1   -1    0    0    0  501  0.00000000000E+00  0.00000000000E+00 -0.13984914984E+04  0.13984914984E+04  0.50400001928E-02 0. -1.
    10030    2    1    2    0    0  0.00000000000E+00  0.00000000000E+00  0.64186889814E+03  0.34388518949E+04  0.33784177765E+04 0.  0.
        1    1    3    3  502    0  0.19390447674E+03 -0.22326994542E+03 -0.13719390211E+04  0.14034475738E+04  0.50400001928E-02 0. -1.
       -1    1    3    3    0  502 -0.19390447674E+03  0.22326994542E+03  0.20138079193E+04  0.20354043211E+04  0.50400001928E-02 0.  1.
</event>
<event>
 5   0  0.2856440E-06  0.3508641E+04  0.7818609E-02  0.8111745E-01
       -2   -1    0    0    0  501  0.00000000000E+00  0.00000000000E+00  0.18911665824E+04  0.18911665824E+04  0.25500000920E-02 0.  1.
        2   -1    0    0  501    0  0.00000000000E+00  0.00000000000E+00 -0.16273763848E+04  0.16273763848E+04  0.25500000920E-02 0. -1.
    10030    2    1    2    0    0  0.00000000000E+00  0.00000000000E+00  0.26379019757E+03  0.35185429673E+04  0.35086406690E+04 0.  0.
        4    1    3    3  502    0  0.95790558762E+03 -0.44650362799E+03 -0.12723030317E+04  0.16539967419E+04  0.12699999809E+01 0. -1.
       -4    1    3    3    0  502 -0.95790558762E+03  0.44650362799E+03  0.15360932293E+04  0.18645462254E+04  0.12699999809E+01 0.  1.
</event>
<event>
 5   0  0.2664083E-06  0.3069630E+04  0.7818609E-02  0.8224122E-01
        2   -1    0    0  501    0  0.00000000000E+00  0.00000000000E+00  0.22978297351E+04  0.22978297351E+04  0.25500000920E-02 0. -1.
       -2   -1    0    0    0  501  0.00000000000E+00  0.00000000000E+00 -0.10251659597E+04  0.10251659597E+04  0.25500000920E-02 0.  1.
    10030    2    1    2    0    0  0.00000000000E+00  0.00000000000E+00  0.12726637754E+04  0.33229956948E+04  0.30696298315E+04 0.  0.
        2    1    3    3  502    0  0.89172375395E+02 -0.10235290125E+04 -0.59799747675E+03  0.11887658870E+04  0.25500000920E-02 0.  1.
       -2    1    3    3    0  502 -0.89172375395E+02  0.10235290125E+04  0.18706612522E+04  0.21342298078E+04  0.25500000920E-02 0. -1.
</event>
<event>
 5   0  0.2664083E-06  0.3422539E+04  0.7818609E-02  0.8132397E-01
       -2   -1    0    0    0  501  0.00000000000E+00  0.00000000000E+00  0.13575904974E+04  0.13575904974E+04  0.25500000920E-02 0.  1.
        2   -1    0    0  501    0  0.00000000000E+00  0.00000000000E+00 -0.21570884264E+04  0.21570884264E+04  0.25500000920E-02 0. -1.
    10030    2    1    2    0    0  0.00000000000E+00  0.00000000000E+00 -0.79949792909E+03  0.35146789238E+04  0.34225386775E+04 0.  0.
        2    1    3    3  502    0  0.67334401452E+03 -0.11011989471E+04  0.75407022535E+03  0.14948756429E+04  0.25500000920E-02 0.  1.
       -2    1    3    3    0  502 -0.67334401452E+03  0.11011989471E+04 -0.15535681544E+04  0.20198032809E+04  0.25500000920E-02 0. -1.
</event>
<event>
 5   0  0.2767014E-06  0.3117212E+04  0.7818609E-02  0.8211030E-01
       -2   -1    0    0    0  501  0.00000000000E+00  0.00000000000E+00  0.17210222150E+04  0.17210222150E+04  0.25500000920E-02 0.  1.
        2   -1    0    0  501    0  0.00000000000E+00  0.00000000000E+00 -0.14115171532E+04  0.14115171532E+04  0.25500000920E-02 0. -1.
    10030    2    1    2    0    0  0.00000000000E+00  0.00000000000E+00  0.30950506183E+03  0.31325393681E+04  0.31172118166E+04 0.  0.
        1    1    3    3  502    0  0.62653532911E+03  0.35607497061E+03  0.15435451867E+04  0.17034869083E+04  0.50400001928E-02 0.  1.
       -1    1    3    3    0  502 -0.62653532911E+03 -0.35607497061E+03 -0.12340401248E+04  0.14290524599E+04  0.50400001928E-02 0. -1.
</event>
<event>
 5   0  0.2906701E-06  0.3434594E+04  0.7818609E-02  0.8129468E-01
       -2   -1    0    0    0  501  0.00000000000E+00  0.00000000000E+00  0.15243929032E+04  0.15243929032E+04  0.25500000920E-02 0.  1.
        2   -1    0    0  501    0  0.00000000000E+00  0.00000000000E+00 -0.19346116526E+04  0.19346116526E+04  0.25500000920E-02 0. -1.
    10030    2    1    2    0    0  0.00000000000E+00  0.00000000000E+00 -0.41021874945E+03  0.34590045558E+04  0.34345935851E+04 0.  0.
        5    1    3    3  502    0  0.53868048833E+03  0.44617475999E+03 -0.17846434425E+04  0.19168262550E+04  0.46999998093E+01 0. -1.
       -5    1    3    3    0  502 -0.53868048833E+03 -0.44617475999E+03  0.13744246930E+04  0.15421783009E+04  0.46999998093E+01 0.  1.
</event>
<event>
 5   0  0.1010551E-06  0.2995442E+04  0.7818609E-02  0.8245034E-01
        1   -1    0    0  501    0  0.00000000000E+00  0.00000000000E+00  0.16558999490E+04  0.16558999490E+04  0.50400001928E-02 0. -1.
       -1   -1    0    0    0  501  0.00000000000E+00  0.00000000000E+00 -0.13546520100E+04  0.13546520100E+04  0.50400001928E-02 0.  1.
    10030    2    1    2    0    0  0.00000000000E+00  0.00000000000E+00  0.30124793900E+03  0.30105519590E+04  0.29954420003E+04 0.  0.
        2    1    3    3  502    0  0.83630610573E+02  0.46258526206E+03 -0.12785861514E+04  0.13622634658E+04  0.25500000920E-02 0.  1.
       -2    1    3    3    0  502 -0.83630610573E+02 -0.46258526206E+03  0.15798340904E+04  0.16482884932E+04  0.25500000920E-02 0. -1.
</event>
<event>
 5   0  0.9232963E-07  0.3389528E+04  0.7818609E-02  0.8140481E-01
       -1   -1    0    0    0  501  0.00000000000E+00  0.00000000000E+00  0.97643579910E+03  0.97643579911E+03  0.50400001928E-02 0.  1.
        1   -1    0    0  501    0  0.00000000000E+00  0.00000000000E+00 -0.29415403627E+04  0.29415403627E+04  0.50400001928E-02 0. -1.
    10030    2    1    2    0    0  0.00000000000E+00  0.00000000000E+00 -0.19651045636E+04  0.39179761619E+04  0.33895281764E+04 0.  0.
        3    1    3    3  502    0  0.82697710998E+03 -0.14337556120E+04 -0.14035925663E+04  0.21701655232E+04  0.10100000352E+00 0. -1.
       -3    1    3    3    0  502 -0.82697710998E+03  0.14337556120E+04 -0.56151199731E+03  0.17478106387E+04  0.10100000352E+00 0.  1.
</event>
<event>
 5   0  0.1010855E-06  0.3416763E+04  0.7818609E-02  0.8133804E-01
        1   -1    0    0  501    0  0.00000000000E+00  0.00000000000E+00  0.20293982596E+04  0.20293982596E+04  0.50400001928E-02 0.  1.
       -1   -1    0    0    0  501  0.00000000000E+00  0.00000000000E+00 -0.14381438189E+04  0.14381438189E+04  0.50400001928E-02 0. -1.
    10030    2    1    2    0    0  0.00000000000E+00  0.00000000000E+00  0.59125444064E+03  0.34675420785E+04  0.34167625397E+04 0.  0.
        1    1    3    3  502    0 -0.12273627092E+04  0.10284525551E+04  0.89981762713E+03  0.18367922148E+04  0.50400001928E-02 0.  1.
       -1    1    3    3    0  502  0.12273627092E+04 -0.10284525551E+04 -0.30856318649E+03  0.16307498638E+04  0.50400001928E-02 0. -1.
</event>
<event>
 5   0  0.1010551E-06  0.3132307E+04  0.7818609E-02  0.8206927E-01
        1   -1    0    0  501    0  0.00000000000E+00  0.00000000000E+00  0.16423975155E+04  0.16423975155E+04  0.50400001928E-02 0.  1.
       -1   -1    0    0    0  501  0.00000000000E+00  0.00000000000E+00 -0.14934487608E+04  0.14934487608E+04  0.50400001928E-02 0. -1.
    10030    2    1    2    0    0  0.00000000000E+00  0.00000000000E+00  0.14894875466E+03  0.31358462763E+04  0.31323068396E+04 0.  0.
        2    1    3    3  502    0  0.12271975325E+04  0.68159143031E+03  0.76970553687E+03  0.16009457439E+04  0.25500000920E-02 0.  1.
       -2    1    3    3    0  502 -0.12271975325E+04 -0.68159143031E+03 -0.62075678222E+03  0.15349005324E+04  0.25500000920E-02 0. -1.
</event>
<event>
 5   0  0.2848685E-06  0.3417637E+04  0.7818609E-02  0.8133591E-01
       -2   -1    0    0    0  501  0.00000000000E+00  0.00000000000E+00  0.24131274937E+04  0.24131274937E+04  0.25500000920E-02 0.  1.
        2   -1    0    0  501    0  0.00000000000E+00  0.00000000000E+00 -0.12100734321E+04  0.12100734321E+04  0.25500000920E-02 0. -1.
    10030    2    1    2    0    0  0.00000000000E+00  0.00000000000E+00  0.12030540616E+04  0.36232009258E+04  0.34176374696E+04 0.  0.
        3    1    3    3  502    0 -0.34457771861E+03  0.15946633705E+04  0.62646071879E+02  0.16326694735E+04  0.10100000352E+00 0. -1.
       -3    1    3    3    0  502  0.34457771861E+03 -0.15946633705E+04  0.11404079897E+04  0.19905314523E+04  0.10100000352E+00 0.  1.
</event>
<event>
 5   0  0.1010551E-06  0.2245604E+04  0.7818609E-02  0.8499683E-01
       -1   -1    0    0    0  501  0.00000000000E+00  0.00000000000E+00  0.73004993908E+03  0.73004993910E+03  0.50400001928E-02 0.  1.
        1   -1    0    0  501    0  0.00000000000E+00  0.00000000000E+00 -0.17268460344E+04  0.17268460344E+04  0.50400001928E-02 0. -1.
    10030    2    1    2    0    0  0.00000000000E+00  0.00000000000E+00 -0.99679609535E+03  0.24568959735E+04  0.22456035645E+04 0.  0.
        2    1    3    3  502    0 -0.67853586673E+03  0.86531919319E+03 -0.74667636812E+03  0.13291778765E+04  0.25500000920E-02 0. -1.
       -2    1    3    3    0  502  0.67853586673E+03 -0.86531919319E+03 -0.25011972723E+03  0.11277180971E+04  0.25500000920E-02 0.  1.
</event>
<event>
 5   0  0.2906701E-06  0.3425690E+04  0.7818609E-02  0.8131630E-01
        2   -1    0    0  501    0  0.00000000000E+00  0.00000000000E+00  0.21275475446E+04  0.21275475446E+04  0.25500000920E-02 0. -1.
       -2   -1    0    0    0  501  0.00000000000E+00  0.00000000000E+00 -0.13789761381E+04  0.13789761381E+04  0.25500000920E-02 0.  1.
    10030    2    1    2    0    0  0.00000000000E+00  0.00000000000E+00  0.74857140642E+03  0.35065236827E+04  0.34256895929E+04 0.  0.
        5    1    3    3  502    0 -0.41354477511E+03 -0.51774267043E+02  0.20748473668E+04  0.21162971297E+04  0.46999998093E+01 0. -1.
       -5    1    3    3    0  502  0.41354477511E+03  0.51774267043E+02 -0.13262759603E+04  0.13902265530E+04  0.46999998093E+01 0.  1.
</event>
<event>
 5   0  0.2856440E-06  0.3245820E+04  0.7818609E-02  0.8176820E-01
        2   -1    0    0  501    0  0.00000000000E+00  0.00000000000E+00  0.18663275232E+04  0.18663275232E+04  0.25500000920E-02 0. -1.
       -2   -1    0    0    0  501  0.00000000000E+00  0.00000000000E+00 -0.14112403192E+04  0.14112403192E+04  0.25500000920E-02 0.  1.
    10030    2    1    2    0    0  0.00000000000E+00  0.00000000000E+00  0.45508720398E+03  0.32775678425E+04  0.32458198654E+04 0.  0.
        4    1    3    3  502    0  0.96263877253E+03  0.77959546676E+03  0.12863185787E+04  0.17857938283E+04  0.12699999809E+01 0. -1.
       -4    1    3    3    0  502 -0.96263877253E+03 -0.77959546676E+03 -0.83123137475E+03  0.14917740142E+04  0.12699999809E+01 0.  1.
</event>
<event>
 5   0  0.1003191E-06  0.3439635E+04  0.7818609E-02  0.8128247E-01
        1   -1    0    0  501    0  0.00000000000E+00  0.00000000000E+00  0.15376102407E+04  0.15376102407E+04  0.50400001928E-02 0. -1.
       -1   -1    0    0    0  501  0.00000000000E+00  0.00000000000E+00 -0.19236158296E+04  0.19236158296E+04  0.50400001928E-02 0.  1.
    10030    2    1    2    0    0  0.00000000000E+00  0.00000000000E+00 -0.38600558892E+03  0.34612260703E+04  0.34396345147E+04 0.  0.
        5    1    3    3  502    0 -0.73283278383E+02  0.35953195966E+03  0.14977573506E+04  0.15420547462E+04  0.46999998093E+01 0. -1.
       -5    1    3    3    0  502  0.73283278383E+02 -0.35953195966E+03 -0.18837629395E+04  0.19191713241E+04  0.46999998093E+01 0.  1.
</event>
<event>
 5   0  0.9232963E-07  0.3382727E+04  0.7818609E-02  0.8142159E-01
       -1   -1    0    0    0  501  0.00000000000E+00  0.00000000000E+00  0.14373001006E+04  0.14373001006E+04  0.50400001928E-02 0.  1.
        1   -1    0    0  501    0  0.00000000000E+00  0.00000000000E+00 -0.19903356712E+04  0.19903356712E+04  0.50400001928E-02 0. -1.
    10030    2    1    2    0    0  0.00000000000E+00  0.00000000000E+00 -0.55303557057E+03  0.34276357718E+04  0.33827265100E+04 0.  0.
        3    1    3    3  502    0  0.53809152418E+03  0.59381250034E+03 -0.17857732935E+04  0.19573303349E+04  0.10100000352E+00 0. -1.
       -3    1    3    3    0  502 -0.53809152418E+03 -0.59381250034E+03  0.12327377229E+04  0.14703054369E+04  0.10100000352E+00 0.  1.
</event>
<event>
 5   0  0.1010855E-06  0.3333196E+04  0.7818609E-02  0.8154500E-01
       -1   -1    0    0    0  501  0.00000000000E+00  0.00000000000E+00  0.12697610819E+04  0.12697610819E+04  0.50400001928E-02 0. -1.
        1   -1    0    0  501    0  0.00000000000E+00  0.00000000000E+00 -0.21874575503E+04  0.21874575503E+04  0.50400001928E-02 0.  1.
    10030    2    1    2    0    0  0.00000000000E+00  0.00000000000E+00 -0.91769646843E+03  0.34572186322E+04  0.33331957432E+04 0.  0.
        1    1    3    3  502    0  0.12860305924E+04 -0.94476892536E+03 -0.95744830445E+03  0.18609595005E+04  0.50400001928E-02 0.  1.
       -1    1    3    3    0  502 -0.12860305924E+04  0.94476892536E+03  0.39751836017E+02  0.15962591317E+04  0.50400001928E-02 0. -1.
</event>
<event>
 5   0  0.1003191E-06  0.3072409E+04  0.7818609E-02  0.8223351E-01
        1   -1    0    0  501    0  0.00000000000E+00  0.00000000000E+00  0.17047370568E+04  0.17047370568E+04  0.50400001928E-02 0.  1.
       -1   -1    0    0    0  501  0.00000000000E+00  0.00000000000E+00 -0.13843335268E+04  0.13843335268E+04  0.50400001928E-02 0. -1.
    10030    2    1    2    0    0  0.00000000000E+00  0.00000000000E+00  0.32040353000E+03  0.30890705837E+04  0.30724092580E+04 0.  0.
        5    1    3    3  502    0 -0.94386185408E+03 -0.75864029992E+03 -0.79017140234E+03  0.14459610089E+04  0.46999998093E+01 0. -1.
       -5    1    3    3    0  502  0.94386185408E+03  0.75864029992E+03  0.11105749323E+04  0.16431095747E+04  0.46999998093E+01 0.  1.
</event>
<event>
 5   0  0.2664083E-06  0.3340866E+04  0.7818609E-02  0.8152574E-01
        2   -1    0    0  501    0  0.00000000000E+00  0.00000000000E+00  0.20603998146E+04  0.20603998146E+04  0.25500000920E-02 0.  1.
       -2   -1    0    0    0  501  0.00000000000E+00  0.00000000000E+00 -0.13542744584E+04  0.13542744584E+04  0.25500000920E-02 0. -1.
    10030    2    1    2    0    0  0.00000000000E+00  0.00000000000E+00  0.70612535612E+03  0.34146742730E+04  0.33408662608E+04 0.  0.
        2    1    3    3  502    0 -0.45540466196E+03  0.70294309219E+03 -0.11241436609E+04  0.14018635338E+04  0.25500000920E-02 0. -1.
       -2    1    3    3    0  502  0.45540466196E+03 -0.70294309219E+03  0.18302690171E+04  0.20128107392E+04  0.25500000920E-02 0.  1.
</event>
<event>
 5   0  0.1010551E-06  0.3393512E+04  0.7818609E-02  0.8139500E-01
       -1   -1    0    0    0  501  0.00000000000E+00  0.00000000000E+00  0.29915018237E+04  0.29915018237E+04  0.50400001928E-02 0.  1.
        1   -1    0    0  501    0  0.00000000000E+00  0.00000000000E+00 -0.96238672673E+03  0.96238672674E+03  0.50400001928E-02 0. -1.
    10030    2    1    2    0    0  0.00000000000E+00  0.00000000000E+00  0.20291150970E+04  0.39538885505E+04  0.33935124271E+04 0.  0.
        2    1    3    3  502    0 -0.16093008558E+04  0.53164280854E+03  0.92070601587E+03  0.19287801555E+04  0.25500000920E-02 0.  1.
       -2    1    3    3    0  502  0.16093008558E+04 -0.53164280854E+03  0.11084090811E+04  0.20251083950E+04  0.25500000920E-02 0. -1.
</event>
<event>
 5   0  0.2906701E-06  0.3562289E+04  0.7818609E-02  0.8099185E-01
       -2   -1    0    0    0  501  0.00000000000E+00  0.00000000000E+00  0.11868330112E+04  0.11868330112E+04  0.25500000920E-02 0.  1.
        2   -1    0    0  501    0  0.00000000000E+00  0.00000000000E+00 -0.26730594989E+04  0.26730594989E+04  0.25500000920E-02 0. -1.
    10030    2    1    2    0    0  0.00000000000E+00  0.00000000000E+00 -0.14862264877E+04  0.38598925102E+04  0.35622887330E+04 0.  0.
        5    1    3    3  502    0 -0.42194720756E+03  0.52474871571E+03 -0.25298266261E+04  0.26179086135E+04  0.46999998093E+01 0. -1.
       -5    1    3    3    0  502  0.42194720756E+03 -0.52474871571E+03  0.10436001384E+04  0.12419838966E+04  0.46999998093E+01 0.  1.
</event>
<event>
 5   0  0.9232963E-07  0.3346207E+04  0.7818609E-02  0.8151237E-01
       -1   -1    0    0    0  501  0.00000000000E+00  0.00000000000E+00  0.17178386105E+04  0.17178386105E+04  0.50400001928E-02 0.  1.
        1   -1    0    0  501    0  0.00000000000E+00  0.00000000000E+00 -0.16295334570E+04  0.16295334570E+04  0.50400001928E-02 0. -1.
    10030    2    1    2    0    0  0.00000000000E+00  0.00000000000E+00  0.88305153534E+02  0.33473720675E+04  0.33462071003E+04 0.  0.
        3    1    3    3  502    0  0.40486988690E+03  0.12789300972E+03 -0.15747430763E+04  0.16309788514E+04  0.10100000352E+00 0. -1.
       -3    1    3    3    0  502 -0.40486988690E+03 -0.12789300972E+03  0.16630482298E+04  0.17163932161E+04  0.10100000352E+00 0.  1.
</event>
<event>
 5   0  0.2848685E-06  0.3140253E+04  0.7818609E-02  0.8204777E-01
        2   -1    0    0  501    0  0.00000000000E+00  0.00000000000E+00  0.18111963149E+04  0.18111963149E+04  0.25500000920E-02 0.  1.
       -2   -1    0    0    0  501  0.00000000000E+00  0.00000000000E+00 -0.13611433007E+04  0.13611433007E+04  0.25500000920E-02 0. -1.
    10030    2    1    2    0    0  0.00000000000E+00  0.00000000000E+00  0.45005301415E+03  0.31723396156E+04  0.31402533212E+04 0.  0.
        3    1    3    3  502    0  0.18385552085E+03  0.55304218180E+03 -0.12478277271E+04  0.13772191380E+04  0.10100000352E+00 0. -1.
       -3    1    3    3    0  502 -0.18385552085E+03 -0.55304218180E+03  0.16978807413E+04  0.17951204776E+04  0.10100000352E+00 0.  1.
</event>
<event>
 5   0  0.2906701E-06  0.2319525E+04  0.7818609E-02  0.8470262E-01
        2   -1    0    0  501    0  0.00000000000E+00  0.00000000000E+00  0.10194041345E+04  0.10194041345E+04  0.25500000920E-02 0. -1.
       -2   -1    0    0    0  501  0.00000000000E+00  0.00000000000E+00 -0.13194468504E+04  0.13194468504E+04  0.25500000920E-02 0.  1.
    10030    2    1    2    0    0  0.00000000000E+00  0.00000000000E+00 -0.30004271592E+03  0.23388509849E+04  0.23195254468E+04 0.  0.
        5    1    3    3  502    0  0.72704526990E+02 -0.11419758831E+04  0.40317422157E+02  0.11450076202E+04  0.46999998093E+01 0. -1.
       -5    1    3    3    0  502 -0.72704526990E+02  0.11419758831E+04 -0.34036013807E+03  0.11938433647E+04  0.46999998093E+01 0.  1.
</event>
<event>
 5   0  0.2906701E-06  0.3436481E+04  0.7818609E-02  0.8129010E-01
       -2   -1    0    0    0  501  0.00000000000E+00  0.00000000000E+00  0.25783438276E+04  0.25783438276E+04  0.25500000920E-02 0.  1.
        2   -1    0    0  501    0  0.00000000000E+00  0.00000000000E+00 -0.11450572145E+04  0.11450572145E+04  0.25500000920E-02 0. -1.
    10030    2    1    2    0    0  0.00000000000E+00  0.00000000000E+00  0.14332866131E+04  0.37234010422E+04  0.34364814572E+04 0.  0.
        5    1    3    3  502    0  0.13971107397E+03 -0.14963486243E+04  0.16191024202E+04  0.22090932816E+04  0.46999998093E+01 0. -1.
       -5    1    3    3    0  502 -0.13971107397E+03  0.14963486243E+04 -0.18581580706E+03  0.15143077606E+04  0.46999998093E+01 0.  1.
</event>
<event>
 5   0  0.2848685E-06  0.3436152E+04  0.7818609E-02  0.8129090E-01
       -2   -1    0    0    0  501  0.00000000000E+00  0.00000000000E+00  0.13041149260E+04  0.13041149260E+04  0.25500000920E-02 0. -1.
        2   -1    0    0  501    0  0.00000000000E+00  0.00000000000E+00 -0.22634391931E+04  0.22634391931E+04  0.25500000920E-02 0.  1.
    10030    2    1    2    0    0  0.00000000000E+00  0.00000000000E+00 -0.95932426703E+03  0.35675541191E+04  0.34361518220E+04 0.  0.
        3    1    3    3  502    0 -0.22299532932E+03  0.38094952869E+03 -0.22035599434E+04  0.22473375124E+04  0.10100000352E+00 0.  1.
       -3    1    3    3    0  502  0.22299532932E+03 -0.38094952869E+03  0.12442356763E+04  0.13202166068E+04  0.10100000352E+00 0. -1.
</event>
<event>
 5   0  0.1010855E-06  0.3336441E+04  0.7818609E-02  0.8153684E-01
        1   -1    0    0  501    0  0.00000000000E+00  0.00000000000E+00  0.19024161840E+04  0.19024161840E+04  0.50400001928E-02 0.  1.
       -1   -1    0    0    0  501  0.00000000000E+00  0.00000000000E+00 -0.14628554398E+04  0.14628554398E+04  0.50400001928E-02 0. -1.
    10030    2    1    2    0    0  0.00000000000E+00  0.00000000000E+00  0.43956074424E+03  0.33652716238E+04  0.33364411360E+04 0.  0.
        1    1    3    3  502    0 -0.65177926807E+01  0.13246131944E+04  0.12426027485E+04  0.18162335167E+04  0.50400001928E-02 0.  1.
       -1    1    3    3    0  502  0.65177926807E+01 -0.13246131944E+04 -0.80304200426E+03  0.15490381071E+04  0.50400001928E-02 0. -1.
</event>
<event>
 5   0  0.9714317E-07  0.3384272E+04  0.7818609E-02  0.8141777E-01
       -1   -1    0    0    0  501  0.00000000000E+00  0.00000000000E+00  0.16839127477E+04  0.16839127477E+04  0.50400001928E-02 0. -1.
        1   -1    0    0  501    0  0.00000000000E+00  0.00000000000E+00 -0.17003990381E+04  0.17003990381E+04  0.50400001928E-02 0.  1.
    10030    2    1    2    0    0  0.00000000000E+00  0.00000000000E+00 -0.16486290441E+02  0.33843117858E+04  0.33842716301E+04 0.  0.
        4    1    3    3  502    0 -0.25730327982E+03 -0.35223569752E+03 -0.16432081214E+04  0.17001204391E+04  0.12699999809E+01 0.  1.
       -4    1    3    3    0  502  0.25730327982E+03  0.35223569752E+03  0.16267218309E+04  0.16841913468E+04  0.12699999809E+01 0. -1.
</event>
<event>
 5   0  0.1003191E-06  0.3436824E+04  0.7818609E-02  0.8128927E-01
        1   -1    0    0  501    0  0.00000000000E+00  0.00000000000E+00  0.13374145502E+04  0.13374145502E+04  0.50400001928E-02 0.  1.
       -1   -1    0    0    0  501  0.00000000000E+00  0.00000000000E+00 -0.22079467302E+04  0.22079467302E+04  0.50400001928E-02 0. -1.
    10030    2    1    2    0    0  0.00000000000E+00  0.00000000000E+00 -0.87053218000E+03  0.35453612804E+04  0.34368241637E+04 0.  0.
        5    1    3    3  502    0 -0.36725602080E+03  0.24412175008E+03  0.12780417192E+04  0.13519930250E+04  0.46999998093E+01 0.  1.
       -5    1    3    3    0  502  0.36725602080E+03 -0.24412175008E+03 -0.21485738992E+04  0.21933682554E+04  0.46999998093E+01 0. -1.
</event>
<event>
 5   0  0.2664083E-06  0.2732014E+04  0.7818609E-02  0.8324692E-01
       -2   -1    0    0    0  501  0.00000000000E+00  0.00000000000E+00  0.92893888121E+03  0.92893888121E+03  0.25500000920E-02 0. -1.
        2   -1    0    0  501    0  0.00000000000E+00  0.00000000000E+00 -0.20087174274E+04  0.20087174274E+04  0.25500000920E-02 0.  1.
    10030    2    1    2    0    0  0.00000000000E+00  0.00000000000E+00 -0.10797785462E+04  0.29376563086E+04  0.27320144361E+04 0.  0.
        2    1    3    3  502    0  0.10664181395E+03  0.18482062045E+03  0.91090798303E+03  0.93556640158E+03  0.25500000920E-02 0. -1.
       -2    1    3    3    0  502 -0.10664181395E+03 -0.18482062045E+03 -0.19906865292E+04  0.20020899071E+04  0.25500000920E-02 0.  1.
</event>
<event>
 5   0  0.9232963E-07  0.2516484E+04  0.7818609E-02  0.8397136E-01
        1   -1    0    0  501    0  0.00000000000E+00  0.00000000000E+00  0.14219689797E+04  0.14219689797E+04  0.50400001928E-02 0. -1.
       -1   -1    0    0    0  501  0.00000000000E+00  0.00000000000E+00 -0.11133666775E+04  0.11133666775E+04  0.50400001928E-02 0.  1.
    10030    2    1    2    0    0  0.00000000000E+00  0.00000000000E+00  0.30860230215E+03  0.25353356572E+04  0.25164839586E+04 0.  0.
        3    1    3    3  502    0 -0.83589268174E+03 -0.52032691522E+02 -0.79174812861E+03  0.11525142453E+04  0.10100000352E+00 0.  1.
       -3    1    3    3    0  502  0.83589268174E+03  0.52032691522E+02  0.11003504308E+04  0.13828214118E+04  0.10100000352E+00 0. -1.
</event>
<event>
 5   0  0.9714317E-07  0.3353673E+04  0.7818609E-02  0.8149371E-01
        1   -1    0    0  501    0  0.00000000000E+00  0.00000000000E+00  0.25817748226E+04  0.25817748226E+04  0.50400001928E-02 0. -1.
       -1   -1    0    0    0  501  0.00000000000E+00  0.00000000000E+00 -0.10890884129E+04  0.10890884129E+04  0.50400001928E-02 0.  1.
    10030    2    1    2    0    0  0.00000000000E+00  0.00000000000E+00  0.14926864097E+04  0.36708632355E+04  0.33536732364E+04 0.  0.
        4    1    3    3  502    0 -0.65137538009E+03  0.10510167644E+04 -0.49341205147E+03  0.13313088260E+04  0.12699999809E+01 0.  1.
       -4    1    3    3    0  502  0.65137538009E+03 -0.10510167644E+04  0.19860984612E+04  0.23395544095E+04  0.12699999809E+01 0. -1.
</event>
<event>
 5   0  0.2856440E-06  0.3365155E+04  0.7818609E-02  0.8146512E-01
        2   -1    0    0  501    0  0.00000000000E+00  0.00000000000E+00  0.16238911163E+04  0.16238911163E+04  0.25500000920E-02 0. -1.
       -2   -1    0    0    0  501  0.00000000000E+00  0.00000000000E+00 -0.17433846845E+04  0.17433846845E+04  0.25500000920E-02 0.  1.
    10030    2    1    2    0    0  0.00000000000E+00  0.00000000000E+00 -0.11949356824E+03  0.33672758008E+04  0.33651549155E+04 0.  0.
        4    1    3    3  502    0 -0.64390431759E+03  0.12287375385E+04  0.89303849001E+03  0.16498266776E+04  0.12699999809E+01 0. -1.
       -4    1    3    3    0  502  0.64390431759E+03 -0.12287375385E+04 -0.10125320583E+04  0.17174491231E+04  0.12699999809E+01 0.  1.
</event>
<event>
 5   0  0.9714317E-07  0.3286541E+04  0.7818609E-02  0.8166328E-01
        1   -1    0    0  501    0  0.00000000000E+00  0.00000000000E+00  0.16125351439E+04  0.16125351439E+04  0.50400001928E-02 0.  1.
       -1   -1    0    0    0  501  0.00000000000E+00  0.00000000000E+00 -0.16745918415E+04  0.16745918415E+04  0.50400001928E-02 0. -1.
    10030    2    1    2    0    0  0.00000000000E+00  0.00000000000E+00 -0.62056697620E+02  0.32871269855E+04  0.32865411582E+04 0.  0.
        4    1    3    3  502    0 -0.90325591617E+02 -0.60782020452E+03  0.14932946483E+04  0.16147862499E+04  0.12699999809E+01 0.  1.
       -4    1    3    3    0  502  0.90325591617E+02  0.60782020452E+03 -0.15553513459E+04  0.16723407355E+04  0.12699999809E+01 0. -1.
</event>
<event>
 5   0  0.9714317E-07  0.2314884E+04  0.7818609E-02  0.8472076E-01
        1   -1    0    0  501    0  0.00000000000E+00  0.00000000000E+00  0.14470772980E+04  0.14470772981E+04  0.50400001928E-02 0. -1.
       -1   -1    0    0    0  501  0.00000000000E+00  0.00000000000E+00 -0.92577766956E+03  0.92577766957E+03  0.50400001928E-02 0.  1.
    10030    2    1    2    0    0  0.00000000000E+00  0.00000000000E+00  0.52129962849E+03  0.23728549676E+04  0.23148838836E+04 0.  0.
        4    1    3    3  502    0  0.32771417545E+03  0.18185751419E+02  0.13983747542E+04  0.14363776901E+04  0.12699999809E+01 0. -1.
       -4    1    3    3    0  502 -0.32771417545E+03 -0.18185751419E+02 -0.87707512573E+03  0.93647727758E+03  0.12699999809E+01 0.  1.
</event>
<event>
 5   0  0.1010855E-06  0.3385857E+04  0.7818609E-02  0.8141386E-01
       -1   -1    0    0    0  501  0.00000000000E+00  0.00000000000E+00  0.12587716690E+04  0.12587716690E+04  0.50400001928E-02 0.  1.
        1   -1    0    0  501    0  0.00000000000E+00  0.00000000000E+00 -0.22768286223E+04  0.22768286224E+04  0.50400001928E-02 0. -1.
    10030    2    1    2    0    0  0.00000000000E+00  0.00000000000E+00 -0.10180569533E+04  0.35356002914E+04  0.33858572711E+04 0.  0.
        1    1    3    3  502    0 -0.73771464202E+03 -0.14746235257E+04 -0.10829875621E+03  0.16524121932E+04  0.50400001928E-02 0.  1.
       -1    1    3    3    0  502  0.73771464202E+03  0.14746235257E+04 -0.90975819714E+03  0.18831880981E+04  0.50400001928E-02 0. -1.
</event>
<event>
 5   0  0.2767014E-06  0.3384435E+04  0.7818609E-02  0.8141737E-01
        2   -1    0    0  501    0  0.00000000000E+00  0.00000000000E+00  0.16905736873E+04  0.16905736873E+04  0.25500000920E-02 0. -1.
       -2   -1    0    0    0  501  0.00000000000E+00  0.00000000000E+00 -0.16938633918E+04  0.16938633918E+04  0.25500000920E-02 0.  1.
    10030    2    1    2    0    0  0.00000000000E+00  0.00000000000E+00 -0.32897045599E+01  0.33844370791E+04  0.33844354803E+04 0.  0.
        1    1    3    3  502    0 -0.11997335353E+04  0.11727680948E+04  0.21938764806E+03  0.16920036939E+04  0.50400001928E-02 0. -1.
       -1    1    3    3    0  502  0.11997335353E+04 -0.11727680948E+04 -0.22267735262E+03  0.16924333852E+04  0.50400001928E-02 0.  1.
</event>
<event>
 5   0  0.9232963E-07  0.2488264E+04  0.7818609E-02  0.8407179E-01
       -1   -1    0    0    0  501  0.00000000000E+00  0.00000000000E+00  0.98450219427E+03  0.98450219428E+03  0.50400001928E-02 0.  1.
        1   -1    0    0  501    0  0.00000000000E+00  0.00000000000E+00 -0.15722300835E+04  0.15722300835E+04  0.50400001928E-02 0. -1.
    10030    2    1    2    0    0  0.00000000000E+00  0.00000000000E+00 -0.58772788923E+03  0.25567322778E+04  0.24882636252E+04 0.  0.
        3    1    3    3  502    0  0.15866500701E+03  0.35958608411E+03 -0.15067633272E+04  0.15571809370E+04  0.10100000352E+00 0. -1.
       -3    1    3    3    0  502 -0.15866500701E+03 -0.35958608411E+03  0.91903543796E+03  0.99955134074E+03  0.10100000352E+00 0.  1.
</event>
<event>
 5   0  0.2664083E-06  0.3411806E+04  0.7818609E-02  0.8135015E-01
       -2   -1    0    0    0  501  0.00000000000E+00  0.00000000000E+00  0.20548251633E+04  0.20548251633E+04  0.25500000920E-02 0. -1.
        2   -1    0    0  501    0  0.00000000000E+00  0.00000000000E+00 -0.14162304012E+04  0.14162304012E+04  0.25500000920E-02 0.  1.
    10030    2    1    2    0    0  0.00000000000E+00  0.00000000000E+00  0.63859476215E+03  0.34710555645E+04  0.34118064807E+04 0.  0.
        2    1    3    3  502    0 -0.16612030609E+04  0.38099879479E+03  0.24488226915E+03  0.17218371052E+04  0.25500000920E-02 0. -1.
       -2    1    3    3    0  502  0.16612030609E+04 -0.38099879479E+03  0.39371249300E+03  0.17492184593E+04  0.25500000920E-02 0.  1.
</event>
<event>
 5   0  0.2848685E-06  0.3483804E+04  0.7818609E-02  0.8117639E-01
       -2   -1    0    0    0  501  0.00000000000E+00  0.00000000000E+00  0.13811982451E+04  0.13811982451E+04  0.25500000920E-02 0.  1.
        2   -1    0    0  501    0  0.00000000000E+00  0.00000000000E+00 -0.21968044893E+04  0.21968044893E+04  0.25500000920E-02 0. -1.
    10030    2    1    2    0    0  0.00000000000E+00  0.00000000000E+00 -0.81560624418E+03  0.35780027345E+04  0.34838039587E+04 0.  0.
        3    1    3    3  502    0 -0.42754643209E+03 -0.79002253881E+03 -0.19405676257E+04  0.21383952590E+04  0.10100000352E+00 0. -1.
       -3    1    3    3    0  502  0.42754643209E+03  0.79002253881E+03  0.11249613815E+04  0.14396074755E+04  0.10100000352E+00 0.  1.
</event>
<event>
 5   0  0.1003191E-06  0.3381284E+04  0.7818609E-02  0.8142515E-01
        1   -1    0    0  501    0  0.00000000000E+00  0.00000000000E+00  0.18647854451E+04  0.18647854451E+04  0.50400001928E-02 0.  1.
       -1   -1    0    0    0  501  0.00000000000E+00  0.00000000000E+00 -0.15327608564E+04  0.15327608564E+04  0.50400001928E-02 0. -1.
    10030    2    1    2    0    0  0.00000000000E+00  0.00000000000E+00  0.33202458875E+03  0.33975463015E+04  0.33812838602E+04 0.  0.
        5    1    3    3  502    0  0.12963018731E+04 -0.75882207470E+03 -0.61363092485E+03  0.16225826602E+04  0.46999998093E+01 0. -1.
       -5    1    3    3    0  502 -0.12963018731E+04  0.75882207470E+03  0.94565551359E+03  0.17749636412E+04  0.46999998093E+01 0.  1.
</event>
<event>
 5   0  0.2856440E-06  0.2960611E+04  0.7818609E-02  0.8255069E-01
        2   -1    0    0  501    0  0.00000000000E+00  0.00000000000E+00  0.16864734242E+04  0.16864734242E+04  0.25500000920E-02 0. -1.
       -2   -1    0    0    0  501  0.00000000000E+00  0.00000000000E+00 -0.12993415235E+04  0.12993415235E+04  0.25500000920E-02 0.  1.
    10030    2    1    2    0    0  0.00000000000E+00  0.00000000000E+00  0.38713190068E+03  0.29858149477E+04  0.29606113884E+04 0.  0.
        4    1    3    3  502    0 -0.67921374266E+03 -0.83253318024E+03  0.12204978722E+04  0.16260564177E+04  0.12699999809E+01 0. -1.
       -4    1    3    3    0  502  0.67921374266E+03  0.83253318024E+03 -0.83336597156E+03  0.13597585300E+04  0.12699999809E+01 0.  1.
</event>
<event>
 5   0  0.2856440E-06  0.3159649E+04  0.7818609E-02  0.8199556E-01
       -2   -1    0    0    0  501  0.00000000000E+00  0.00000000000E+00  0.15790813881E+04  0.15790813881E+04  0.25500000920E-02 0.  1.
        2   -1    0    0  501    0  0.00000000000E+00  0.00000000000E+00 -0.15805675408E+04  0.15805675408E+04  0.25500000920E-02 0. -1.
    10030    2    1    2    0    0  0.00000000000E+00  0.00000000000E+00 -0.14861527109E+01  0.31596489288E+04  0.31596485793E+04 0.  0.
        4    1    3    3  502    0  0.13925612844E+04 -0.60173660323E+03  0.44031173407E+03  0.15796170126E+04  0.12699999809E+01 0.  1.
       -4    1    3    3    0  502 -0.13925612844E+04  0.60173660323E+03 -0.44179788678E+03  0.15800319162E+04  0.12699999809E+01 0. -1.
</event>
<event>
 5   0  0.2664083E-06  0.2237373E+04  0.7818609E-02  0.8503032E-01
       -2   -1    0    0    0  501  0.00000000000E+00  0.00000000000E+00  0.98117317424E+03  0.98117317424E+03  0.25500000920E-02 0. -1.
        2   -1    0    0  501    0  0.00000000000E+00  0.00000000000E+00 -0.12754730599E+04  0.12754730599E+04  0.25500000920E-02 0.  1.
    10030    2    1    2    0    0  0.00000000000E+00  0.00000000000E+00 -0.29429988562E+03  0.22566462341E+04  0.22373734161E+04 0.  0.
        2    1    3    3  502    0 -0.77877106760E+03 -0.20233576711E+03  0.63674227353E+03  0.10260920335E+04  0.25500000920E-02 0. -1.
       -2    1    3    3    0  502  0.77877106760E+03  0.20233576711E+03 -0.93104215916E+03  0.12305542006E+04  0.25500000920E-02 0.  1.
</event>
<event>
 5   0  0.1003191E-06  0.3152894E+04  0.7818609E-02  0.8201370E-01
       -1   -1    0    0    0  501  0.00000000000E+00  0.00000000000E+00  0.95951229844E+03  0.95951229846E+03  0.50400001928E-02 0.  1.
        1   -1    0    0  501    0  0.00000000000E+00  0.00000000000E+00 -0.25900500144E+04  0.25900500144E+04  0.50400001928E-02 0. -1.
    10030    2    1    2    0    0  0.00000000000E+00  0.00000000000E+00 -0.16305377159E+04  0.35495623129E+04  0.31528938088E+04 0.  0.
        5    1    3    3  502    0 -0.47844083698E+03  0.78032278570E+03 -0.22602389501E+04  0.24385470030E+04  0.46999998093E+01 0. -1.
       -5    1    3    3    0  502  0.47844083698E+03 -0.78032278570E+03  0.62970123416E+03  0.11110153098E+04  0.46999998093E+01 0.  1.
</event>
<event>
 5   0  0.2848685E-06  0.3458601E+04  0.7818609E-02  0.8123672E-01
       -2   -1    0    0    0  501  0.00000000000E+00  0.00000000000E+00  0.13261681025E+04  0.13261681025E+04  0.25500000920E-02 0.  1.
        2   -1    0    0  501    0  0.00000000000E+00  0.00000000000E+00 -0.22549788079E+04  0.22549788079E+04  0.25500000920E-02 0. -1.
    10030    2    1    2    0    0  0.00000000000E+00  0.00000000000E+00 -0.92881070539E+03  0.35811469104E+04  0.34586014323E+04 0.  0.
        3    1    3    3  502    0  0.38040612715E+03  0.97871335349E+03 -0.18870951890E+04  0.21595640561E+04  0.10100000352E+00 0. -1.
       -3    1    3    3    0  502 -0.38040612715E+03 -0.97871335349E+03  0.95828448364E+03  0.14215828543E+04  0.10100000352E+00 0.  1.
</event>
<event>
 5   0  0.9232963E-07  0.3372717E+04  0.7818609E-02  0.8144635E-01
        1   -1    0    0  501    0  0.00000000000E+00  0.00000000000E+00  0.17215326415E+04  0.17215326415E+04  0.50400001928E-02 0. -1.
       -1   -1    0    0    0  501  0.00000000000E+00  0.00000000000E+00 -0.16519033899E+04  0.16519033899E+04  0.50400001928E-02 0.  1.
    10030    2    1    2    0    0  0.00000000000E+00  0.00000000000E+00  0.69629251659E+02  0.33734360314E+04  0.33727173651E+04 0.  0.
        3    1    3    3  502    0  0.12584280228E+04 -0.27582222706E+03  0.11232039293E+04  0.17091828652E+04  0.10100000352E+00 0. -1.
       -3    1    3    3    0  502 -0.12584280228E+04  0.27582222706E+03 -0.10535746777E+04  0.16642531662E+04  0.10100000352E+00 0.  1.
</event>
<event>
 5   0  0.2856440E-06  0.2224939E+04  0.7818609E-02  0.8508119E-01
       -2   -1    0    0    0  501  0.00000000000E+00  0.00000000000E+00  0.87909107508E+03  0.87909107508E+03  0.25500000920E-02 0.  1.
        2   -1    0    0  501    0  0.00000000000E+00  0.00000000000E+00 -0.14078040803E+04  0.14078040803E+04  0.25500000920E-02 0. -1.
    10030    2    1    2    0    0  0.00000000000E+00  0.00000000000E+00 -0.52871300524E+03  0.22868951554E+04  0.22249386531E+04 0.  0.
        4    1    3    3  502    0 -0.40163836842E+03 -0.65385951059E+03 -0.10922296633E+04  0.13348456423E+04  0.12699999809E+01 0. -1.
       -4    1    3    3    0  502  0.40163836842E+03  0.65385951059E+03  0.56351665804E+03  0.95204951308E+03  0.12699999809E+01 0.  1.
</event>
<event>
 5   0  0.9714317E-07  0.2374488E+04  0.7818609E-02  0.8449117E-01
       -1   -1    0    0    0  501  0.00000000000E+00  0.00000000000E+00  0.60232703959E+03  0.60232703961E+03  0.50400001928E-02 0. -1.
        1   -1    0    0  501    0  0.00000000000E+00  0.00000000000E+00 -0.23401711019E+04  0.23401711019E+04  0.50400001928E-02 0.  1.
    10030    2    1    2    0    0  0.00000000000E+00  0.00000000000E+00 -0.17378440623E+04  0.29424981415E+04  0.23744880138E+04 0.  0.
        4    1    3    3  502    0 -0.95087896367E+02 -0.68948472170E+03 -0.20608342492E+04  0.21751943143E+04  0.12699999809E+01 0.  1.
       -4    1    3    3    0  502  0.95087896367E+02  0.68948472170E+03  0.32299018690E+03  0.76730382719E+03  0.12699999809E+01 0. -1.
</event>
<event>
 5   0  0.9232963E-07  0.2208544E+04  0.7818609E-02  0.8514880E-01
       -1   -1    0    0    0  501  0.00000000000E+00  0.00000000000E+00  0.61965166012E+03  0.61965166014E+03  0.50400001928E-02 0.  1.
        1   -1    0    0  501    0  0.00000000000E+00  0.00000000000E+00 -0.19679068632E+04  0.19679068632E+04  0.50400001928E-02 0. -1.
    10030    2    1    2    0    0  0.00000000000E+00  0.00000000000E+00 -0.13482552030E+04  0.25875585233E+04  0.22085440949E+04 0.  0.
        3    1    3    3  502    0  0.61074290280E+03 -0.91915090374E+03 -0.62768283400E+03  0.12695790749E+04  0.10100000352E+00 0. -1.
       -3    1    3    3    0  502 -0.61074290280E+03  0.91915090374E+03 -0.72057236904E+03  0.13179794484E+04  0.10100000352E+00 0.  1.
</event>
<event>
 5   0  0.2664083E-06  0.3336827E+04  0.7818609E-02  0.8153587E-01
       -2   -1    0    0    0  501  0.00000000000E+00  0.00000000000E+00  0.13004292991E+04  0.13004292991E+04  0.25500000920E-02 0. -1.
        2   -1    0    0  501    0  0.00000000000E+00  0.00000000000E+00 -0.21405272218E+04  0.21405272218E+04  0.25500000920E-02 0.  1.
    10030    2    1    2    0    0  0.00000000000E+00  0.00000000000E+00 -0.84009792266E+03  0.34409565209E+04  0.33368274242E+04 0.  0.
        2    1    3    3  502    0 -0.16075585175E+04 -0.15863466966E+02 -0.88018907664E+03  0.18328199168E+04  0.25500000920E-02 0. -1.
       -2    1    3    3    0  502  0.16075585175E+04  0.15863466966E+02  0.40091153983E+02  0.16081366041E+04  0.25500000920E-02 0.  1.
</event>
<event>
 5   0  0.9232963E-07  0.2849656E+04  0.7818609E-02  0.8288016E-01
       -1   -1    0    0    0  501  0.00000000000E+00  0.00000000000E+00  0.15268385326E+04  0.15268385326E+04  0.50400001928E-02 0. -1.
        1   -1    0    0  501    0  0.00000000000E+00  0.00000000000E+00 -0.13296328364E+04  0.13296328364E+04  0.50400001928E-02 0.  1.
    10030    2    1    2    0    0  0.00000000000E+00  0.00000000000E+00  0.19720569618E+03  0.28564713690E+04  0.28496558731E+04 0.  0.
        3    1    3    3  502    0  0.82092589805E+03  0.46878567793E+03  0.11671990753E+04  0.15020096649E+04  0.10100000352E+00 0. -1.
       -3    1    3    3    0  502 -0.82092589805E+03 -0.46878567793E+03 -0.96999337916E+03  0.13544617040E+04  0.10100000352E+00 0.  1.
</event>
<event>
 5   0  0.2856440E-06  0.3349230E+04  0.7818609E-02  0.8150481E-01
       -2   -1    0    0    0  501  0.00000000000E+00  0.00000000000E+00  0.10848170619E+04  0.10848170619E+04  0.25500000920E-02 0.  1.
        2   -1    0    0  501    0  0.00000000000E+00  0.00000000000E+00 -0.25850768827E+04  0.25850768827E+04  0.25500000920E-02 0. -1.
    10030    2    1    2    0    0  0.00000000000E+00  0.00000000000E+00 -0.15002598208E+04  0.36698939446E+04  0.33492300660E+04 0.  0.
        4    1    3    3  502    0 -0.11484226576E+04  0.43637972287E+03  0.49681936759E+03  0.13251916691E+04  0.12699999809E+01 0.  1.
       -4    1    3    3    0  502  0.11484226576E+04 -0.43637972287E+03 -0.19970791884E+04  0.23447022755E+04  0.12699999809E+01 0. -1.
</event>
<event>
 5   0  0.2767014E-06  0.2659085E+04  0.7818609E-02  0.8348404E-01
        2   -1    0    0  501    0  0.00000000000E+00  0.00000000000E+00  0.13949990768E+04  0.13949990768E+04  0.25500000920E-02 0.  1.
       -2   -1    0    0    0  501  0.00000000000E+00  0.00000000000E+00 -0.12671575605E+04  0.12671575605E+04  0.25500000920E-02 0. -1.
    10030    2    1    2    0    0  0.00000000000E+00  0.00000000000E+00  0.12784151637E+03  0.26621566373E+04  0.26590852766E+04 0.  0.
        1    1    3    3  502    0 -0.74905445504E+03  0.81590555512E+03 -0.67238720859E+03  0.12957194950E+04  0.50400001928E-02 0. -1.
       -1    1    3    3    0  502  0.74905445504E+03 -0.81590555512E+03  0.80022872496E+03  0.13664371423E+04  0.50400001928E-02 0.  1.
</event>
<event>
 5   0  0.2767014E-06  0.3285973E+04  0.7818609E-02  0.8166474E-01
       -2   -1    0    0    0  501  0.00000000000E+00  0.00000000000E+00  0.24021054818E+04  0.24021054818E+04  0.25500000920E-02 0. -1.
        2   -1    0    0  501    0  0.00000000000E+00  0.00000000000E+00 -0.11237659382E+04  0.11237659382E+04  0.25500000920E-02 0.  1.
    10030    2    1    2    0    0  0.00000000000E+00  0.00000000000E+00  0.12783395437E+04  0.35258714200E+04  0.32859728059E+04 0.  0.
        1    1    3    3  502    0 -0.82761111321E+03 -0.13683210920E+04  0.23459985363E+03  0.16162548862E+04  0.50400001928E-02 0.  1.
       -1    1    3    3    0  502  0.82761111321E+03  0.13683210920E+04  0.10437396900E+04  0.19096165338E+04  0.50400001928E-02 0. -1.
</event>
<event>
 5   0  0.2848685E-06  0.3441805E+04  0.7818609E-02  0.8127721E-01
       -2   -1    0    0    0  501  0.00000000000E+00  0.00000000000E+00  0.10935468219E+04  0.10935468219E+04  0.25500000920E-02 0. -1.
        2   -1    0    0  501    0  0.00000000000E+00  0.00000000000E+00 -0.27081658034E+04  0.27081658034E+04  0.25500000920E-02 0.  1.
    10030    2    1    2    0    0  0.00000000000E+00  0.00000000000E+00 -0.16146189815E+04  0.38017126253E+04  0.34418054027E+04 0.  0.
        3    1    3    3  502    0 -0.59874337328E+03 -0.15989006375E+04 -0.10455720855E+04  0.20020484189E+04  0.10100000352E+00 0. -1.
       -3    1    3    3    0  502  0.59874337328E+03  0.15989006375E+04 -0.56904689600E+03  0.17996642064E+04  0.10100000352E+00 0.  1.
</event>
<event>
 5   0  0.2906701E-06  0.3409306E+04  0.7818609E-02  0.8135626E-01
        2   -1    0    0  501    0  0.00000000000E+00  0.00000000000E+00  0.24191317075E+04  0.24191317075E+04  0.25500000920E-02 0. -1.
       -2   -1    0    0    0  501  0.00000000000E+00  0.00000000000E+00 -0.12011923901E+04  0.12011923901E+04  0.25500000920E-02 0.  1.
    10030    2    1    2    0    0  0.00000000000E+00  0.00000000000E+00  0.12179393174E+04  0.36203240976E+04  0.34093064383E+04 0.  0.
        5    1    3    3  502    0 -0.19128349451E+03  0.16928470307E+04  0.67179275486E+03  0.18312968193E+04  0.46999998093E+01 0. -1.
       -5    1    3    3    0  502  0.19128349451E+03 -0.16928470307E+04  0.54614656254E+03  0.17890272783E+04  0.46999998093E+01 0.  1.
</event>
<event>
 5   0  0.9232963E-07  0.3370590E+04  0.7818609E-02  0.8145162E-01
       -1   -1    0    0    0  501  0.00000000000E+00  0.00000000000E+00  0.12776399074E+04  0.12776399074E+04  0.50400001928E-02 0.  1.
        1   -1    0    0  501    0  0.00000000000E+00  0.00000000000E+00 -0.22230200916E+04  0.22230200916E+04  0.50400001928E-02 0. -1.
    10030    2    1    2    0    0  0.00000000000E+00  0.00000000000E+00 -0.94538018421E+03  0.35006599990E+04  0.33705899685E+04 0.  0.
        3    1    3    3  502    0  0.11684338998E+03 -0.43412492926E+02 -0.22182260553E+04  0.22217254252E+04  0.10100000352E+00 0. -1.
       -3    1    3    3    0  502 -0.11684338998E+03  0.43412492926E+02  0.12728458711E+04  0.12789345738E+04  0.10100000352E+00 0.  1.
</event>
<event>
 5   0  0.9714317E-07  0.2907517E+04  0.7818609E-02  0.8270644E-01
       -1   -1    0    0    0  501  0.00000000000E+00  0.00000000000E+00  0.95918710728E+03  0.95918710730E+03  0.50400001928E-02 0. -1.
        1   -1    0    0  501    0  0.00000000000E+00  0.00000000000E+00 -0.22033387582E+04  0.22033387582E+04  0.50400001928E-02 0.  1.
    10030    2    1    2    0    0  0.00000000000E+00  0.00000000000E+00 -0.12441516510E+04  0.31625258655E+04  0.29075172432E+04 0.  0.
        4    1    3    3  502    0  0.62132427028E+02 -0.58471336749E+03 -0.20682195052E+04  0.21501822470E+04  0.12699999809E+01 0.  1.
       -4    1    3    3    0  502 -0.62132427028E+02  0.58471336749E+03  0.82406785429E+03  0.10123436185E+04  0.12699999809E+01 0. -1.
</event>
<event>
 5   0  0.2856440E-06  0.3405447E+04  0.7818609E-02  0.8136571E-01
       -2   -1    0    0    0  501  0.00000000000E+00  0.00000000000E+00  0.12535570650E+04  0.12535570650E+04  0.25500000920E-02 0.  1.
        2   -1    0    0  501    0  0.00000000000E+00  0.00000000000E+00 -0.23128317015E+04  0.23128317015E+04  0.25500000920E-02 0. -1.
    10030    2    1    2    0    0  0.00000000000E+00  0.00000000000E+00 -0.10592746365E+04  0.35663887664E+04  0.34054465314E+04 0.  0.
        4    1    3    3  502    0  0.31964602684E+03 -0.10963037681E+04 -0.18523437447E+04  0.21760593962E+04  0.12699999809E+01 0. -1.
       -4    1    3    3    0  502 -0.31964602684E+03  0.10963037681E+04  0.79306910823E+03  0.13903293702E+04  0.12699999809E+01 0.  1.
</event>
<event>
 5   0  0.9232963E-07  0.3388219E+04  0.7818609E-02  0.8140804E-01
       -1   -1    0    0    0  501  0.00000000000E+00  0.00000000000E+00  0.14545314509E+04  0.14545314509E+04  0.50400001928E-02 0. -1.
        1   -1    0    0  501    0  0.00000000000E+00  0.00000000000E+00 -0.19731484158E+04  0.19731484158E+04  0.50400001928E-02 0.  1.
    10030    2    1    2    0    0  0.00000000000E+00  0.00000000000E+00 -0.51861696498E+03  0.34276798667E+04  0.33882186636E+04 0.  0.
        3    1    3    3  502    0 -0.12411528009E+04  0.40153219669E+03  0.83416779115E+03  0.15483941017E+04  0.10100000352E+00 0. -1.
       -3    1    3    3    0  502  0.12411528009E+04 -0.40153219669E+03 -0.13527847561E+04  0.18792857650E+04  0.10100000352E+00 0.  1.
</event>
<event>
 5   0  0.9714317E-07  0.2079750E+04  0.7818609E-02  0.8570216E-01
        1   -1    0    0  501    0  0.00000000000E+00  0.00000000000E+00  0.22807665747E+04  0.22807665747E+04  0.50400001928E-02 0.  1.
       -1   -1    0    0    0  501  0.00000000000E+00  0.00000000000E+00 -0.47411254362E+03  0.47411254364E+03  0.50400001928E-02 0. -1.
    10030    2    1    2    0    0  0.00000000000E+00  0.00000000000E+00  0.18066540311E+04  0.27548791183E+04  0.20797500255E+04 0.  0.
        4    1    3    3  502    0 -0.28226339517E+03 -0.93369579637E+03  0.42595259280E+03  0.10643766667E+04  0.12699999809E+01 0.  1.
       -4    1    3    3    0  502  0.28226339517E+03  0.93369579637E+03  0.13807014383E+04  0.16905024516E+04  0.12699999809E+01 0. -1.
</event>
<event>
 5   0  0.1003191E-06  0.3426268E+04  0.7818609E-02  0.8131489E-01
       -1   -1    0    0    0  501  0.00000000000E+00  0.00000000000E+00  0.14560371095E+04  0.14560371095E+04  0.50400001928E-02 0. -1.
        1   -1    0    0  501    0  0.00000000000E+00  0.00000000000E+00 -0.20156275503E+04  0.20156275503E+04  0.50400001928E-02 0.  1.
    10030    2    1    2    0    0  0.00000000000E+00  0.00000000000E+00 -0.55959044075E+03  0.34716646598E+04  0.34262682394E+04 0.  0.
        5    1    3    3  502    0  0.11677380304E+03 -0.10657522331E+04  0.10740754412E+04  0.15176047202E+04  0.46999998093E+01 0. -1.
       -5    1    3    3    0  502 -0.11677380304E+03  0.10657522331E+04 -0.16336658820E+04  0.19540599395E+04  0.46999998093E+01 0.  1.
</event>
<event>
 5   0  0.9232963E-07  0.3467751E+04  0.7818609E-02  0.8121475E-01
       -1   -1    0    0    0  501  0.00000000000E+00  0.00000000000E+00  0.10110742659E+04  0.10110742659E+04  0.50400001928E-02 0. -1.
        1   -1    0    0  501    0  0.00000000000E+00  0.00000000000E+00 -0.29733964324E+04  0.29733964324E+04  0.50400001928E-02 0.  1.
    10030    2    1    2    0    0  0.00000000000E+00  0.00000000000E+00 -0.19623221664E+04  0.39844706983E+04  0.34677512109E+04 0.  0.
        3    1    3    3  502    0 -0.17665731753E+03 -0.17205356660E+04 -0.84103016890E+03  0.19232219167E+04  0.10100000352E+00 0. -1.
       -3    1    3    3    0  502  0.17665731753E+03  0.17205356660E+04 -0.11212919975E+04  0.20612487816E+04  0.10100000352E+00 0.  1.
</event>
<event>
 5   0  0.1003191E-06  0.3436009E+04  0.7818609E-02  0.8129125E-01
        1   -1    0    0  501    0  0.00000000000E+00  0.00000000000E+00  0.20166214047E+04  0.20166214047E+04  0.50400001928E-02 0.  1.
       -1   -1    0    0    0  501  0.00000000000E+00  0.00000000000E+00 -0.14636062712E+04  0.14636062712E+04  0.50400001928E-02 0. -1.
    10030    2    1    2    0    0  0.00000000000E+00  0.00000000000E+00  0.55301513350E+03  0.34802276759E+04  0.34360091586E+04 0.  0.
        5    1    3    3  502    0 -0.13952970156E+04  0.89696065375E+03  0.72961848195E+03  0.18121140680E+04  0.46999998093E+01 0.  1.
       -5    1    3    3    0  502  0.13952970156E+04 -0.89696065375E+03 -0.17660334846E+03  0.16681136079E+04  0.46999998093E+01 0. -1.
</event>
<event>
 5   0  0.1010551E-06  0.3181287E+04  0.7818609E-02  0.8193777E-01
        1   -1    0    0  501    0  0.00000000000E+00  0.00000000000E+00  0.18982021739E+04  0.18982021739E+04  0.50400001928E-02 0. -1.
       -1   -1    0    0    0  501  0.00000000000E+00  0.00000000000E+00 -0.13329173876E+04  0.13329173877E+04  0.50400001928E-02 0.  1.
    10030    2    1    2    0    0  0.00000000000E+00  0.00000000000E+00  0.56528478622E+03  0.32311195615E+04  0.31812869615E+04 0.  0.
        2    1    3    3  502    0  0.12140614010E+04 -0.22756738053E+03 -0.73526134630E+03  0.14374773896E+04  0.25500000920E-02 0.  1.
       -2    1    3    3    0  502 -0.12140614010E+04  0.22756738053E+03  0.13005461325E+04  0.17936421719E+04  0.25500000920E-02 0. -1.
</event>
<event>
 5   0  0.1010551E-06  0.3324557E+04  0.7818609E-02  0.8156675E-01
       -1   -1    0    0    0  501  0.00000000000E+00  0.00000000000E+00  0.20431660251E+04  0.20431660251E+04  0.50400001928E-02 0.  1.
        1   -1    0    0  501    0  0.00000000000E+00  0.00000000000E+00 -0.13523960809E+04  0.13523960810E+04  0.50400001928E-02 0. -1.
    10030    2    1    2    0    0  0.00000000000E+00  0.00000000000E+00  0.69076994417E+03  0.33955621061E+04  0.33245569480E+04 0.  0.
        2    1    3    3  502    0  0.18900859877E+03  0.15397160039E+04 -0.26463168435E+03  0.15736834343E+04  0.25500000920E-02 0. -1.
       -2    1    3    3    0  502 -0.18900859877E+03 -0.15397160039E+04  0.95540162853E+03  0.18218786718E+04  0.25500000920E-02 0.  1.
</event>
<event>
 5   0  0.2906701E-06  0.2597081E+04  0.7818609E-02  0.8369193E-01
        2   -1    0    0  501    0  0.00000000000E+00  0.00000000000E+00  0.15121357962E+04  0.15121357962E+04  0.25500000920E-02 0. -1.
       -2   -1    0    0    0  501  0.00000000000E+00  0.00000000000E+00 -0.11151165461E+04  0.11151165461E+04  0.25500000920E-02 0.  1.
    10030    2    1    2    0    0  0.00000000000E+00  0.00000000000E+00  0.39701925010E+03  0.26272523423E+04  0.25970811665E+04 0.  0.
        5    1    3    3  502    0 -0.55142463898E+03  0.11384602760E+04 -0.98197281812E+02  0.12687890797E+04  0.46999998093E+01 0.  1.
       -5    1    3    3    0  502  0.55142463898E+03 -0.11384602760E+04  0.49521653192E+03  0.13584632627E+04  0.46999998093E+01 0. -1.
</event>
<event>
 5   0  0.9232963E-07  0.3397309E+04  0.7818609E-02  0.8138567E-01
        1   -1    0    0  501    0  0.00000000000E+00  0.00000000000E+00  0.26417973810E+04  0.26417973810E+04  0.50400001928E-02 0.  1.
       -1   -1    0    0    0  501  0.00000000000E+00  0.00000000000E+00 -0.10922209103E+04  0.10922209103E+04  0.50400001928E-02 0. -1.
    10030    2    1    2    0    0  0.00000000000E+00  0.00000000000E+00  0.15495764707E+04  0.37340182913E+04  0.33973085466E+04 0.  0.
        3    1    3    3  502    0 -0.88433103915E+03  0.15977725544E+03  0.23591311671E+04  0.25244940150E+04  0.10100000352E+00 0.  1.
       -3    1    3    3    0  502  0.88433103915E+03 -0.15977725544E+03 -0.80955469639E+03  0.12095242762E+04  0.10100000352E+00 0. -1.
</event>
<event>
 5   0  0.2906701E-06  0.3407286E+04  0.7818609E-02  0.8136120E-01
       -2   -1    0    0    0  501  0.00000000000E+00  0.00000000000E+00  0.11960555804E+04  0.11960555804E+04  0.25500000920E-02 0.  1.
        2   -1    0    0  501    0  0.00000000000E+00  0.00000000000E+00 -0.24266432717E+04  0.24266432717E+04  0.25500000920E-02 0. -1.
    10030    2    1    2    0    0  0.00000000000E+00  0.00000000000E+00 -0.12305876913E+04  0.36226988521E+04  0.34072864434E+04 0.  0.
        5    1    3    3  502    0  0.12588063203E+04  0.67365803354E+03 -0.16035575117E+04  0.21470508335E+04  0.46999998093E+01 0. -1.
       -5    1    3    3    0  502 -0.12588063203E+04 -0.67365803354E+03  0.37296982039E+03  0.14756480187E+04  0.46999998093E+01 0.  1.
</event>
<event>
 5   0  0.9232963E-07  0.3341570E+04  0.7818609E-02  0.8152398E-01
       -1   -1    0    0    0  501  0.00000000000E+00  0.00000000000E+00  0.15024748738E+04  0.15024748738E+04  0.50400001928E-02 0. -1.
        1   -1    0    0  501    0  0.00000000000E+00  0.00000000000E+00 -0.18579494481E+04  0.18579494481E+04  0.50400001928E-02 0.  1.
    10030    2    1    2    0    0  0.00000000000E+00  0.00000000000E+00 -0.35547457433E+03  0.33604243220E+04  0.33415699081E+04 0.  0.
        3    1    3    3  502    0 -0.16404202058E+04 -0.60255653990E+02  0.13532801665E+03  0.16470952850E+04  0.10100000352E+00 0. -1.
       -3    1    3    3    0  502  0.16404202058E+04  0.60255653990E+02 -0.49080259099E+03  0.17133290370E+04  0.10100000352E+00 0.  1.
</event>
<event>
 5   0  0.2856440E-06  0.3463309E+04  0.7818609E-02  0.8122541E-01
       -2   -1    0    0    0  501  0.00000000000E+00  0.00000000000E+00  0.14716744032E+04  0.14716744032E+04  0.25500000920E-02 0. -1.
        2   -1    0    0  501    0  0.00000000000E+00  0.00000000000E+00 -0.20375615646E+04  0.20375615646E+04  0.25500000920E-02 0.  1.
    10030    2    1    2    0    0  0.00000000000E+00  0.00000000000E+00 -0.56588716141E+03  0.35092359678E+04  0.34633089378E+04 0.  0.
        4    1    3    3  502    0  0.17667703471E+03 -0.42472112065E+03  0.14086327423E+04  0.14818402817E+04  0.12699999809E+01 0. -1.
       -4    1    3    3    0  502 -0.17667703471E+03  0.42472112065E+03 -0.19745199037E+04  0.20273956861E+04  0.12699999809E+01 0.  1.
</event>
<event>
 5   0  0.9714317E-07  0.3412766E+04  0.7818609E-02  0.8134780E-01
       -1   -1    0    0    0  501  0.00000000000E+00  0.00000000000E+00  0.19468226828E+04  0.19468226828E+04  0.50400001928E-02 0. -1.
        1   -1    0    0  501    0  0.00000000000E+00  0.00000000000E+00 -0.14956384889E+04  0.14956384889E+04  0.50400001928E-02 0.  1.
    10030    2    1    2    0    0  0.00000000000E+00  0.00000000000E+00  0.45118419390E+03  0.34424611718E+04  0.34127659959E+04 0.  0.
        4    1    3    3  502    0 -0.14399650610E+04  0.26837122303E+03  0.11085478703E+04  0.18369546766E+04  0.12699999809E+01 0. -1.
       -4    1    3    3    0  502  0.14399650610E+04 -0.26837122303E+03 -0.65736367635E+03  0.16055064952E+04  0.12699999809E+01 0.  1.
</event>
<event>
 5   0  0.2856440E-06  0.3361671E+04  0.7818609E-02  0.8147378E-01
       -2   -1    0    0    0  501  0.00000000000E+00  0.00000000000E+00  0.20765039351E+04  0.20765039351E+04  0.25500000920E-02 0. -1.
        2   -1    0    0  501    0  0.00000000000E+00  0.00000000000E+00 -0.13605597221E+04  0.13605597221E+04  0.25500000920E-02 0.  1.
    10030    2    1    2    0    0  0.00000000000E+00  0.00000000000E+00  0.71594421298E+03  0.34370636572E+04  0.33616707851E+04 0.  0.
        4    1    3    3  502    0  0.75689771654E+03 -0.50917143141E+03 -0.10854461024E+04  0.14178661975E+04  0.12699999809E+01 0.  1.
       -4    1    3    3    0  502 -0.75689771654E+03  0.50917143141E+03  0.18013903154E+04  0.20191974597E+04  0.12699999809E+01 0. -1.
</event>
<event>
 5   0  0.2664083E-06  0.2760330E+04  0.7818609E-02  0.8315691E-01
       -2   -1    0    0    0  501  0.00000000000E+00  0.00000000000E+00  0.13765627726E+04  0.13765627726E+04  0.25500000920E-02 0. -1.
        2   -1    0    0  501    0  0.00000000000E+00  0.00000000000E+00 -0.13837766066E+04  0.13837766066E+04  0.25500000920E-02 0.  1.
    10030    2    1    2    0    0  0.00000000000E+00  0.00000000000E+00 -0.72138339873E+01  0.27603393792E+04  0.27603299529E+04 0.  0.
        2    1    3    3  502    0  0.56019602054E+03 -0.12243967869E+04 -0.30673876405E+03  0.13809618903E+04  0.25500000920E-02 0.  1.
       -2    1    3    3    0  502 -0.56019602054E+03  0.12243967869E+04  0.29952493006E+03  0.13793774889E+04  0.25500000920E-02 0. -1.
</event>
<event>
 5   0  0.1010855E-06  0.3389717E+04  0.7818609E-02  0.8140435E-01
        1   -1    0    0  501    0  0.00000000000E+00  0.00000000000E+00  0.15558355469E+04  0.15558355469E+04  0.50400001928E-02 0.  1.
       -1   -1    0    0    0  501  0.00000000000E+00  0.00000000000E+00 -0.18463043117E+04  0.18463043117E+04  0.50400001928E-02 0. -1.
    10030    2    1    2    0    0  0.00000000000E+00  0.00000000000E+00 -0.29046876480E+03  0.34021398586E+04  0.33897173207E+04 0.  0.
        1    1    3    3  502    0  0.26281770931E+03 -0.10463776106E+04 -0.14571461874E+04  0.18130786701E+04  0.50400001928E-02 0. -1.
       -1    1    3    3    0  502 -0.26281770931E+03  0.10463776106E+04  0.11666774226E+04  0.15890611885E+04  0.50400001928E-02 0.  1.
</event>
<event>
 5   0  0.1010855E-06  0.3455539E+04  0.7818609E-02  0.8124408E-01
        1   -1    0    0  501    0  0.00000000000E+00  0.00000000000E+00  0.12693434824E+04  0.12693434824E+04  0.50400001928E-02 0. -1.
       -1   -1    0    0    0  501  0.00000000000E+00  0.00000000000E+00 -0.23517567560E+04  0.23517567560E+04  0.50400001928E-02 0.  1.
    10030    2    1    2    0    0  0.00000000000E+00  0.00000000000E+00 -0.10824132736E+04  0.36211002384E+04  0.34555388063E+04 0.  0.
        1    1    3    3  502    0 -0.71031230838E+03  0.80656103625E+03  0.87642213437E+03  0.13867948797E+04  0.50400001928E-02 0. -1.
       -1    1    3    3    0  502  0.71031230838E+03 -0.80656103625E+03 -0.19588354079E+04  0.22343053587E+04  0.50400001928E-02 0.  1.
</event>
<event>
 5   0  0.2906701E-06  0.3525612E+04  0.7818609E-02  0.8107747E-01
       -2   -1    0    0    0  501  0.00000000000E+00  0.00000000000E+00  0.26126556580E+04  0.26126556580E+04  0.25500000920E-02 0.  1.
        2   -1    0    0  501    0  0.00000000000E+00  0.00000000000E+00 -0.11893969000E+04  0.11893969000E+04  0.25500000920E-02 0. -1.
    10030    2    1    2    0    0  0.00000000000E+00  0.00000000000E+00  0.14232587580E+04  0.38020525580E+04  0.35256117429E+04 0.  0.
        5    1    3    3  502    0 -0.22193470810E+03  0.17348805978E+04  0.94887145645E+03  0.19898353786E+04  0.46999998093E+01 0.  1.
       -5    1    3    3    0  502  0.22193470810E+03 -0.17348805978E+04  0.47438730160E+03  0.18122171794E+04  0.46999998093E+01 0. -1.
</event>
<event>
 5   0  0.2848685E-06  0.3385863E+04  0.7818609E-02  0.8141385E-01
        2   -1    0    0  501    0  0.00000000000E+00  0.00000000000E+00  0.17516124231E+04  0.17516124231E+04  0.25500000920E-02 0.  1.
       -2   -1    0    0    0  501  0.00000000000E+00  0.00000000000E+00 -0.16362160772E+04  0.16362160772E+04  0.25500000920E-02 0. -1.
    10030    2    1    2    0    0  0.00000000000E+00  0.00000000000E+00  0.11539634591E+03  0.33878285003E+04  0.33858626125E+04 0.  0.
        3    1    3    3  502    0  0.62848260041E+03  0.32985108833E+02  0.16302143119E+04  0.17474773559E+04  0.10100000352E+00 0.  1.
       -3    1    3    3    0  502 -0.62848260041E+03 -0.32985108833E+02 -0.15148179660E+04  0.16403511444E+04  0.10100000352E+00 0. -1.
</event>
<event>
 5   0  0.2906701E-06  0.3304176E+04  0.7818609E-02  0.8161834E-01
       -2   -1    0    0    0  501  0.00000000000E+00  0.00000000000E+00  0.13057672691E+04  0.13057672691E+04  0.25500000920E-02 0.  1.
        2   -1    0    0  501    0  0.00000000000E+00  0.00000000000E+00 -0.20902614109E+04  0.20902614109E+04  0.25500000920E-02 0. -1.
    10030    2    1    2    0    0  0.00000000000E+00  0.00000000000E+00 -0.78449414186E+03  0.33960286800E+04  0.33041761056E+04 0.  0.
        5    1    3    3  502    0 -0.10309880817E+04  0.12907118368E+04 -0.36927918195E+03  0.16927086798E+04  0.46999998093E+01 0.  1.
       -5    1    3    3    0  502  0.10309880817E+04 -0.12907118368E+04 -0.41521495991E+03  0.17033200002E+04  0.46999998093E+01 0. -1.
</event>
<event>
 5   0  0.1010551E-06  0.3368023E+04  0.7818609E-02  0.8145800E-01
       -1   -1    0    0    0  501  0.00000000000E+00  0.00000000000E+00  0.12875139712E+04  0.12875139713E+04  0.50400001928E-02 0.  1.
        1   -1    0    0  501    0  0.00000000000E+00  0.00000000000E+00 -0.22026122024E+04  0.22026122024E+04  0.50400001928E-02 0. -1.
    10030    2    1    2    0    0  0.00000000000E+00  0.00000000000E+00 -0.91509823114E+03  0.34901261737E+04  0.33680225556E+04 0.  0.
        2    1    3    3  502    0  0.14482207454E+04  0.56889194696E+03  0.20994040674E+03  0.15700497920E+04  0.25500000920E-02 0.  1.
       -2    1    3    3    0  502 -0.14482207454E+04 -0.56889194696E+03 -0.11250386379E+04  0.19200763817E+04  0.25500000920E-02 0. -1.
</event>
<event>
 5   0  0.2856440E-06  0.3381881E+04  0.7818609E-02  0.8142368E-01
        2   -1    0    0  501    0  0.00000000000E+00  0.00000000000E+00  0.30466039112E+04  0.30466039112E+04  0.25500000920E-02 0.  1.
       -2   -1    0    0    0  501  0.00000000000E+00  0.00000000000E+00 -0.93851372126E+03  0.93851372126E+03  0.25500000920E-02 0. -1.
    10030    2    1    2    0    0  0.00000000000E+00  0.00000000000E+00  0.21080901899E+04  0.39851176324E+04  0.33818808813E+04 0.  0.
        4    1    3    3  502    0 -0.16619186677E+04 -0.18403230310E+02  0.68710789964E+03  0.17984524502E+04  0.12699999809E+01 0. -1.
       -4    1    3    3    0  502  0.16619186677E+04  0.18403230310E+02  0.14209822903E+04  0.21866651822E+04  0.12699999809E+01 0.  1.
</event>
<event>
 5   0  0.9232963E-07  0.2420056E+04  0.7818609E-02  0.8432033E-01
       -1   -1    0    0    0  501  0.00000000000E+00  0.00000000000E+00  0.97731866772E+03  0.97731866773E+03  0.50400001928E-02 0. -1.
        1   -1    0    0  501    0  0.00000000000E+00  0.00000000000E+00 -0.14981475113E+04  0.14981475113E+04  0.50400001928E-02 0.  1.
    10030    2    1    2    0    0  0.00000000000E+00  0.00000000000E+00 -0.52082884356E+03  0.24754661790E+04  0.24200558091E+04 0.  0.
        3    1    3    3  502    0 -0.49959857617E+03 -0.78197870204E+03 -0.10547762960E+04  0.14048638626E+04  0.10100000352E+00 0.  1.
       -3    1    3    3    0  502  0.49959857617E+03  0.78197870204E+03  0.53394745241E+03  0.10706023164E+04  0.10100000352E+00 0. -1.
</event>
<event>
 5   0  0.2848685E-06  0.3419103E+04  0.7818609E-02  0.8133234E-01
        2   -1    0    0  501    0  0.00000000000E+00  0.00000000000E+00  0.14404140346E+04  0.14404140346E+04  0.25500000920E-02 0.  1.
       -2   -1    0    0    0  501  0.00000000000E+00  0.00000000000E+00 -0.20289766404E+04  0.20289766404E+04  0.25500000920E-02 0. -1.
    10030    2    1    2    0    0  0.00000000000E+00  0.00000000000E+00 -0.58856260576E+03  0.34693906750E+04  0.34191030570E+04 0.  0.
        3    1    3    3  502    0 -0.13078490840E+04  0.94208042335E+03  0.28381875038E+03  0.16366239164E+04  0.10100000352E+00 0.  1.
       -3    1    3    3    0  502  0.13078490840E+04 -0.94208042335E+03 -0.87238135614E+03  0.18327667585E+04  0.10100000352E+00 0. -1.
</event>
<event>
 5   0  0.1010855E-06  0.3214418E+04  0.7818609E-02  0.8185020E-01
        1   -1    0    0  501    0  0.00000000000E+00  0.00000000000E+00  0.26692049968E+04  0.26692049968E+04  0.50400001928E-02 0.  1.
       -1   -1    0    0    0  501  0.00000000000E+00  0.00000000000E+00 -0.96774938547E+03  0.96774938549E+03  0.50400001928E-02 0. -1.
    10030    2    1    2    0    0  0.00000000000E+00  0.00000000000E+00  0.17014556114E+04  0.36369543823E+04  0.32144184516E+04 0.  0.
        1    1    3    3  502    0  0.47474453607E+03 -0.79197462538E+03  0.23391398128E+04  0.25147924856E+04  0.50400001928E-02 0.  1.
       -1    1    3    3    0  502 -0.47474453607E+03  0.79197462538E+03 -0.63768420141E+03  0.11221618968E+04  0.50400001928E-02 0. -1.
</event>
<event>
 5   0  0.2906701E-06  0.3068472E+04  0.7818609E-02  0.8224444E-01
       -2   -1    0    0    0  501  0.00000000000E+00  0.00000000000E+00  0.13660097496E+04  0.13660097496E+04  0.25500000920E-02 0. -1.
        2   -1    0    0  501    0  0.00000000000E+00  0.00000000000E+00 -0.17231794093E+04  0.17231794093E+04  0.25500000920E-02 0.  1.
    10030    2    1    2    0    0  0.00000000000E+00  0.00000000000E+00 -0.35716965975E+03  0.30891891589E+04  0.30684718499E+04 0.  0.
        5    1    3    3  502    0 -0.52733241282E+03  0.10212950284E+04  0.84451204757E+03  0.14263049103E+04  0.46999998093E+01 0. -1.
       -5    1    3    3    0  502  0.52733241282E+03 -0.10212950284E+04 -0.12016817073E+04  0.16628842486E+04  0.46999998093E+01 0.  1.
</event>
<event>
 5   0  0.9714317E-07  0.3318255E+04  0.7818609E-02  0.8158266E-01
        1   -1    0    0  501    0  0.00000000000E+00  0.00000000000E+00  0.88847019189E+03  0.88847019190E+03  0.50400001928E-02 0. -1.
       -1   -1    0    0    0  501  0.00000000000E+00  0.00000000000E+00 -0.30982517513E+04  0.30982517513E+04  0.50400001928E-02 0.  1.
    10030    2    1    2    0    0  0.00000000000E+00  0.00000000000E+00 -0.22097815594E+04  0.39867219432E+04  0.33182551608E+04 0.  0.
        4    1    3    3  502    0  0.72573125964E+03 -0.21816202340E+03  0.66838872125E+03  0.10104581264E+04  0.12699999809E+01 0. -1.
       -4    1    3    3    0  502 -0.72573125964E+03  0.21816202340E+03 -0.28781702807E+04  0.29762638168E+04  0.12699999809E+01 0.  1.
</event>
<event>
 5   0  0.2664083E-06  0.3303903E+04  0.7818609E-02  0.8161903E-01
        2   -1    0    0  501    0  0.00000000000E+00  0.00000000000E+00  0.97910940514E+03  0.97910940514E+03  0.25500000920E-02 0. -1.
       -2   -1    0    0    0  501  0.00000000000E+00  0.00000000000E+00 -0.27871697668E+04  0.27871697668E+04  0.25500000920E-02 0.  1.
    10030    2    1    2    0    0  0.00000000000E+00  0.00000000000E+00 -0.18080603617E+04  0.37662791720E+04  0.33039032264E+04 0.  0.
        2    1    3    3  502    0 -0.10028861191E+04 -0.10858691687E+04 -0.63205828337E+02  0.14794888969E+04  0.25500000920E-02 0. -1.
       -2    1    3    3    0  502  0.10028861191E+04  0.10858691687E+04 -0.17448545333E+04  0.22867902750E+04  0.25500000920E-02 0.  1.
</event>
<event>
 5   0  0.2848685E-06  0.3100434E+04  0.7818609E-02  0.8215619E-01
        2   -1    0    0  501    0  0.00000000000E+00  0.00000000000E+00  0.19839636519E+04  0.19839636519E+04  0.25500000920E-02 0. -1.
       -2   -1    0    0    0  501  0.00000000000E+00  0.00000000000E+00 -0.12112988646E+04  0.12112988646E+04  0.25500000920E-02 0.  1.
    10030    2    1    2    0    0  0.00000000000E+00  0.00000000000E+00  0.77266478738E+03  0.31952625165E+04  0.31004341109E+04 0.  0.
        3    1    3    3  502    0  0.27636548974E+03 -0.23244936676E+03 -0.11673457216E+04  0.12219274266E+04  0.10100000352E+00 0.  1.
       -3    1    3    3    0  502 -0.27636548974E+03  0.23244936676E+03  0.19400105089E+04  0.19733350899E+04  0.10100000352E+00 0. -1.
</event>
<event>
 5   0  0.1003191E-06  0.3383168E+04  0.7818609E-02  0.8142050E-01
       -1   -1    0    0    0  501  0.00000000000E+00  0.00000000000E+00  0.16507280137E+04  0.16507280137E+04  0.50400001928E-02 0. -1.
        1   -1    0    0  501    0  0.00000000000E+00  0.00000000000E+00 -0.17334512414E+04  0.17334512414E+04  0.50400001928E-02 0.  1.
    10030    2    1    2    0    0  0.00000000000E+00  0.00000000000E+00 -0.82723227675E+02  0.33841792552E+04  0.33831680565E+04 0.  0.
        5    1    3    3  502    0 -0.29053953217E+03  0.40089376806E+03  0.15766215801E+04  0.16525394791E+04  0.46999998093E+01 0. -1.
       -5    1    3    3    0  502  0.29053953217E+03 -0.40089376806E+03 -0.16593448078E+04  0.17316397761E+04  0.46999998093E+01 0.  1.
</event>
<event>
 5   0  0.1010551E-06  0.3370122E+04  0.7818609E-02  0.8145279E-01
       -1   -1    0    0    0  501  0.00000000000E+00  0.00000000000E+00  0.18185159473E+04  0.18185159473E+04  0.50400001928E-02 0.  1.
        1   -1    0    0  501    0  0.00000000000E+00  0.00000000000E+00 -0.15613994228E+04  0.15613994228E+04  0.50400001928E-02 0. -1.
    10030    2    1    2    0    0  0.00000000000E+00  0.00000000000E+00  0.25711652449E+03  0.33799153701E+04  0.33701215115E+04 0.  0.
        2    1    3    3  502    0  0.13122351930E+03  0.15060082963E+04  0.87513353551E+03  0.17467510714E+04  0.25500000920E-02 0.  1.
       -2    1    3    3    0  502 -0.13122351930E+03 -0.15060082963E+04 -0.61801701102E+03  0.16331642987E+04  0.25500000920E-02 0. -1.
</event>
<event>
 5   0  0.2856440E-06  0.3321992E+04  0.7818609E-02  0.8157322E-01
        2   -1    0    0  501    0  0.00000000000E+00  0.00000000000E+00  0.13626344858E+04  0.13626344858E+04  0.25500000920E-02 0.  1.
       -2   -1    0    0    0  501  0.00000000000E+00  0.00000000000E+00 -0.20246866054E+04  0.20246866054E+04  0.25500000920E-02 0. -1.
    10030    2    1    2    0    0  0.00000000000E+00  0.00000000000E+00 -0.66205211959E+03  0.33873210912E+04  0.33219920478E+04 0.  0.
        4    1    3    3  502    0  0.43641866864E+03 -0.10047550802E+04  0.94209176632E+03  0.14448295867E+04  0.12699999809E+01 0.  1.
       -4    1    3    3    0  502 -0.43641866864E+03  0.10047550802E+04 -0.16041438859E+04  0.19424915045E+04  0.12699999809E+01 0. -1.
</event>
<event>
 5   0  0.2664083E-06  0.3206459E+04  0.7818609E-02  0.8187114E-01
       -2   -1    0    0    0  501  0.00000000000E+00  0.00000000000E+00  0.13200162100E+04  0.13200162100E+04  0.25500000920E-02 0. -1.
        2   -1    0    0  501    0  0.00000000000E+00  0.00000000000E+00 -0.19472064664E+04  0.19472064664E+04  0.25500000920E-02 0.  1.
    10030    2    1    2    0    0  0.00000000000E+00  0.00000000000E+00 -0.62719025643E+03  0.32672226764E+04  0.32064585448E+04 0.  0.
        2    1    3    3  502    0  0.82086132279E+03 -0.60627913082E+03 -0.15735374273E+04  0.18754753346E+04  0.25500000920E-02 0.  1.
       -2    1    3    3    0  502 -0.82086132279E+03  0.60627913082E+03  0.94634717083E+03  0.13917473418E+04  0.25500000920E-02 0. -1.
</event>
<event>
 5   0  0.1010551E-06  0.3339457E+04  0.7818609E-02  0.8152928E-01
        1   -1    0    0  501    0  0.00000000000E+00  0.00000000000E+00  0.17108075754E+04  0.17108075754E+04  0.50400001928E-02 0.  1.
       -1   -1    0    0    0  501  0.00000000000E+00  0.00000000000E+00 -0.16296355150E+04  0.16296355150E+04  0.50400001928E-02 0. -1.
    10030    2    1    2    0    0  0.00000000000E+00  0.00000000000E+00  0.81172060374E+02  0.33404430905E+04  0.33394567129E+04 0.  0.
        2    1    3    3  502    0 -0.13571394999E+04 -0.69022059216E+03  0.72617938215E+03  0.16868813186E+04  0.25500000920E-02 0.  1.
       -2    1    3    3    0  502  0.13571394999E+04  0.69022059216E+03 -0.64500732178E+03  0.16535617718E+04  0.25500000920E-02 0. -1.
</event>
<event>
 5   0  0.2664083E-06  0.3510515E+04  0.7818609E-02  0.8111303E-01
        2   -1    0    0  501    0  0.00000000000E+00  0.00000000000E+00  0.20569621980E+04  0.20569621980E+04  0.25500000920E-02 0. -1.
       -2   -1    0    0    0  501  0.00000000000E+00  0.00000000000E+00 -0.14978054300E+04  0.14978054300E+04  0.25500000920E-02 0.  1.
    10030    2    1    2    0    0  0.00000000000E+00  0.00000000000E+00  0.55915676798E+03  0.35547676280E+04  0.35105151470E+04 0.  0.
        2    1    3    3  502    0  0.13807629496E+04  0.10452291052E+04  0.56940117769E+03  0.18229722725E+04  0.25500000920E-02 0. -1.
       -2    1    3    3    0  502 -0.13807629496E+04 -0.10452291052E+04 -0.10244409712E+02  0.17317953554E+04  0.25500000920E-02 0.  1.
</event>
<event>
 5   0  0.2906701E-06  0.3490015E+04  0.7818609E-02  0.8116160E-01
       -2   -1    0    0    0  501  0.00000000000E+00  0.00000000000E+00  0.13934873252E+04  0.13934873252E+04  0.25500000920E-02 0.  1.
        2   -1    0    0  501    0  0.00000000000E+00  0.00000000000E+00 -0.21852014466E+04  0.21852014466E+04  0.25500000920E-02 0. -1.
    10030    2    1    2    0    0  0.00000000000E+00  0.00000000000E+00 -0.79171412132E+03  0.35786887718E+04  0.34900146240E+04 0.  0.
        5    1    3    3  502    0  0.62831282313E+02  0.51346431714E+03  0.13130507712E+04  0.14112823222E+04  0.46999998093E+01 0.  1.
       -5    1    3    3    0  502 -0.62831282313E+02 -0.51346431714E+03 -0.21047648926E+04  0.21674064496E+04  0.46999998093E+01 0. -1.
</event>
<event>
 5   0  0.2856440E-06  0.3430726E+04  0.7818609E-02  0.8130406E-01
        2   -1    0    0  501    0  0.00000000000E+00  0.00000000000E+00  0.24198969904E+04  0.24198969904E+04  0.25500000920E-02 0.  1.
       -2   -1    0    0    0  501  0.00000000000E+00  0.00000000000E+00 -0.12159483528E+04  0.12159483528E+04  0.25500000920E-02 0. -1.
    10030    2    1    2    0    0  0.00000000000E+00  0.00000000000E+00  0.12039486376E+04  0.36358453432E+04  0.34307257304E+04 0.  0.
        4    1    3    3  502    0 -0.73271904720E+03  0.51235485636E+03 -0.94947982077E+03  0.13041848964E+04  0.12699999809E+01 0. -1.
       -4    1    3    3    0  502  0.73271904720E+03 -0.51235485636E+03  0.21534284583E+04  0.23316604468E+04  0.12699999809E+01 0.  1.
</event>
<event>
 5   0  0.2664083E-06  0.3670907E+04  0.7818609E-02  0.8074440E-01
       -2   -1    0    0    0  501  0.00000000000E+00  0.00000000000E+00  0.15857733949E+04  0.15857733949E+04  0.25500000920E-02 0. -1.
        2   -1    0    0  501    0  0.00000000000E+00  0.00000000000E+00 -0.21244451947E+04  0.21244451947E+04  0.25500000920E-02 0.  1.
    10030    2    1    2    0    0  0.00000000000E+00  0.00000000000E+00 -0.53867179981E+03  0.37102185896E+04  0.36709065194E+04 0.  0.
        2    1    3    3  502    0  0.12359999846E+04  0.13544515556E+04 -0.35177959732E+03  0.18670789655E+04  0.25500000920E-02 0. -1.
       -2    1    3    3    0  502 -0.12359999846E+04 -0.13544515556E+04 -0.18689220249E+03  0.18431396241E+04  0.25500000920E-02 0.  1.
</event>
<event>
 5   0  0.2906701E-06  0.3264372E+04  0.7818609E-02  0.8172020E-01
       -2   -1    0    0    0  501  0.00000000000E+00  0.00000000000E+00  0.12693498847E+04  0.12693498847E+04  0.25500000920E-02 0. -1.
        2   -1    0    0  501    0  0.00000000000E+00  0.00000000000E+00 -0.20987372907E+04  0.20987372907E+04  0.25500000920E-02 0.  1.
    10030    2    1    2    0    0  0.00000000000E+00  0.00000000000E+00 -0.82938740595E+03  0.33680871754E+04  0.32643724898E+04 0.  0.
        5    1    3    3  502    0 -0.49413583440E+03 -0.39960210921E+03 -0.19658408323E+04  0.20660116980E+04  0.46999998093E+01 0.  1.
       -5    1    3    3    0  502  0.49413583440E+03  0.39960210921E+03  0.11364534264E+04  0.13020754774E+04  0.46999998093E+01 0. -1.
</event>
<event>
 5   0  0.1010855E-06  0.3239187E+04  0.7818609E-02  0.8178544E-01
       -1   -1    0    0    0  501  0.00000000000E+00  0.00000000000E+00  0.17845903536E+04  0.17845903536E+04  0.50400001928E-02 0. -1.
        1   -1    0    0  501    0  0.00000000000E+00  0.00000000000E+00 -0.14698514858E+04  0.14698514858E+04  0.50400001928E-02 0.  1.
    10030    2    1    2    0    0  0.00000000000E+00  0.00000000000E+00  0.31473886784E+03  0.32544418394E+04  0.32391868009E+04 0.  0.
        1    1    3    3  502    0  0.12193035381E+04 -0.10189849462E+04 -0.15723678015E+03  0.15967951790E+04  0.50400001928E-02 0.  1.
       -1    1    3    3    0  502 -0.12193035381E+04  0.10189849462E+04  0.47197564799E+03  0.16576466604E+04  0.50400001928E-02 0. -1.
</event>
<event>
 5   0  0.2848685E-06  0.3074753E+04  0.7818609E-02  0.8222701E-01
        2   -1    0    0  501    0  0.00000000000E+00  0.00000000000E+00  0.22146479833E+04  0.22146479833E+04  0.25500000920E-02 0. -1.
       -2   -1    0    0    0  501  0.00000000000E+00  0.00000000000E+00 -0.10672243751E+04  0.10672243751E+04  0.25500000920E-02 0.  1.
    10030    2    1    2    0    0  0.00000000000E+00  0.00000000000E+00  0.11474236082E+04  0.32818723584E+04  0.30747528747E+04 0.  0.
        3    1    3    3  502    0 -0.12139903822E+04  0.92680199870E+03  0.38641586886E+03  0.15754528958E+04  0.10100000352E+00 0.  1.
       -3    1    3    3    0  502  0.12139903822E+04 -0.92680199870E+03  0.76100773935E+03  0.17064194626E+04  0.10100000352E+00 0. -1.
</event>
<event>
 5   0  0.1010855E-06  0.2623898E+04  0.7818609E-02  0.8360129E-01
       -1   -1    0    0    0  501  0.00000000000E+00  0.00000000000E+00  0.89628424250E+03  0.89628424252E+03  0.50400001928E-02 0.  1.
        1   -1    0    0  501    0  0.00000000000E+00  0.00000000000E+00 -0.19203841563E+04  0.19203841563E+04  0.50400001928E-02 0. -1.
    10030    2    1    2    0    0  0.00000000000E+00  0.00000000000E+00 -0.10240999138E+04  0.28166683988E+04  0.26238979087E+04 0.  0.
        1    1    3    3  502    0  0.26752857660E+03  0.52012162449E+03 -0.17726826301E+04  0.18666820164E+04  0.50400001928E-02 0. -1.
       -1    1    3    3    0  502 -0.26752857660E+03 -0.52012162449E+03  0.74858271628E+03  0.94998638237E+03  0.50400001928E-02 0.  1.
</event>
<event>
 5   0  0.2664083E-06  0.3416853E+04  0.7818609E-02  0.8133782E-01
        2   -1    0    0  501    0  0.00000000000E+00  0.00000000000E+00  0.23548621978E+04  0.23548621978E+04  0.25500000920E-02 0. -1.
       -2   -1    0    0    0  501  0.00000000000E+00  0.00000000000E+00 -0.12394446069E+04  0.12394446069E+04  0.25500000920E-02 0.  1.
    10030    2    1    2    0    0  0.00000000000E+00  0.00000000000E+00  0.11154175909E+04  0.35943068048E+04  0.34168530850E+04 0.  0.
        2    1    3    3  502    0 -0.90338424313E+03 -0.85651367137E+03 -0.67310104136E+03  0.14151974321E+04  0.25500000920E-02 0.  1.
       -2    1    3    3    0  502  0.90338424313E+03  0.85651367137E+03  0.17885186323E+04  0.21791093726E+04  0.25500000920E-02 0. -1.
</event>
<event>
 5   0  0.2906701E-06  0.2115135E+04  0.7818609E-02  0.8554606E-01
        2   -1    0    0  501    0  0.00000000000E+00  0.00000000000E+00  0.21016299367E+04  0.21016299367E+04  0.25500000920E-02 0.  1.
       -2   -1    0    0    0  501  0.00000000000E+00  0.00000000000E+00 -0.53218160463E+03  0.53218160464E+03  0.25500000920E-02 0. -1.
    10030    2    1    2    0    0  0.00000000000E+00  0.00000000000E+00  0.15694483321E+04  0.26338115414E+04  0.21151347873E+04 0.  0.
        5    1    3    3  502    0  0.19236753743E+03  0.95621308136E+03  0.12937106509E+04  0.16202030937E+04  0.46999998093E+01 0.  1.
       -5    1    3    3    0  502 -0.19236753743E+03 -0.95621308136E+03  0.27573768117E+03  0.10136084477E+04  0.46999998093E+01 0. -1.
</event>
<event>
 5   0  0.9232963E-07  0.3373151E+04  0.7818609E-02  0.8144527E-01
        1   -1    0    0  501    0  0.00000000000E+00  0.00000000000E+00  0.20022908478E+04  0.20022908478E+04  0.50400001928E-02 0. -1.
       -1   -1    0    0    0  501  0.00000000000E+00  0.00000000000E+00 -0.14206415225E+04  0.14206415225E+04  0.50400001928E-02 0.  1.
    10030    2    1    2    0    0  0.00000000000E+00  0.00000000000E+00  0.58164932529E+03  0.34229323703E+04  0.33731513565E+04 0.  0.
        3    1    3    3  502    0 -0.10145722921E+04  0.11934897350E+04 -0.34351097293E+03  0.16036753045E+04  0.10100000352E+00 0.  1.
       -3    1    3    3    0  502  0.10145722921E+04 -0.11934897350E+04  0.92516029822E+03  0.18192570657E+04  0.10100000352E+00 0. -1.
</event>
<event>
 5   0  0.1010855E-06  0.2698958E+04  0.7818609E-02  0.8335343E-01
       -1   -1    0    0    0  501  0.00000000000E+00  0.00000000000E+00  0.11561847939E+04  0.11561847939E+04  0.50400001928E-02 0.  1.
        1   -1    0    0  501    0  0.00000000000E+00  0.00000000000E+00 -0.15750881662E+04  0.15750881662E+04  0.50400001928E-02 0. -1.
    10030    2    1    2    0    0  0.00000000000E+00  0.00000000000E+00 -0.41890337229E+03  0.27312729602E+04  0.26989575669E+04 0.  0.
        1    1    3    3  502    0 -0.94720943636E+03 -0.39050330641E+03 -0.10982583462E+04  0.15019553734E+04  0.50400001928E-02 0. -1.
       -1    1    3    3    0  502  0.94720943636E+03  0.39050330641E+03  0.67935497390E+03  0.12293175868E+04  0.50400001928E-02 0.  1.
</event>
<event>
 5   0  0.1003191E-06  0.3434702E+04  0.7818609E-02  0.8129441E-01
        1   -1    0    0  501    0  0.00000000000E+00  0.00000000000E+00  0.10663868725E+04  0.10663868725E+04  0.50400001928E-02 0.  1.
       -1   -1    0    0    0  501  0.00000000000E+00  0.00000000000E+00 -0.27656897000E+04  0.27656897000E+04  0.50400001928E-02 0. -1.
    10030    2    1    2    0    0  0.00000000000E+00  0.00000000000E+00 -0.16993028275E+04  0.38320765724E+04  0.34347024263E+04 0.  0.
        5    1    3    3  502    0 -0.10448773017E+04 -0.65635793981E+03 -0.21822863865E+04  0.25069843006E+04  0.46999998093E+01 0. -1.
       -5    1    3    3    0  502  0.10448773017E+04  0.65635793981E+03  0.48298355897E+03  0.13250922719E+04  0.46999998093E+01 0.  1.
</event>
<event>
 5   0  0.9232963E-07  0.2290975E+04  0.7818609E-02  0.8481488E-01
       -1   -1    0    0    0  501  0.00000000000E+00  0.00000000000E+00  0.15659301908E+04  0.15659301908E+04  0.50400001928E-02 0. -1.
        1   -1    0    0  501    0  0.00000000000E+00  0.00000000000E+00 -0.83793128189E+03  0.83793128191E+03  0.50400001928E-02 0.  1.
    10030    2    1    2    0    0  0.00000000000E+00  0.00000000000E+00  0.72799890886E+03  0.24038614727E+04  0.22909752440E+04 0.  0.
        3    1    3    3  502    0 -0.71856135122E+03  0.78572823163E+03  0.80723882258E+03  0.13361638359E+04  0.10100000352E+00 0. -1.
       -3    1    3    3    0  502  0.71856135122E+03 -0.78572823163E+03 -0.79239913715E+02  0.10676976368E+04  0.10100000352E+00 0.  1.
</event>
<event>
 5   0  0.2906701E-06  0.3373740E+04  0.7818609E-02  0.8144382E-01
        2   -1    0    0  501    0  0.00000000000E+00  0.00000000000E+00  0.22887924502E+04  0.22887924502E+04  0.25500000920E-02 0.  1.
       -2   -1    0    0    0  501  0.00000000000E+00  0.00000000000E+00 -0.12432450073E+04  0.12432450073E+04  0.25500000920E-02 0. -1.
    10030    2    1    2    0    0  0.00000000000E+00  0.00000000000E+00  0.10455474430E+04  0.35320374575E+04  0.33737396381E+04 0.  0.
        5    1    3    3  502    0 -0.28626681689E+02  0.10475161177E+04  0.19066895546E+04  0.21756830310E+04  0.46999998093E+01 0.  1.
       -5    1    3    3    0  502  0.28626681689E+02 -0.10475161177E+04 -0.86114211162E+03  0.13563544265E+04  0.46999998093E+01 0. -1.
</event>
<event>
 5   0  0.2906701E-06  0.2364323E+04  0.7818609E-02  0.8452982E-01
       -2   -1    0    0    0  501  0.00000000000E+00  0.00000000000E+00  0.64358654671E+03  0.64358654671E+03  0.25500000920E-02 0.  1.
        2   -1    0    0  501    0  0.00000000000E+00  0.00000000000E+00 -0.21714348975E+04  0.21714348975E+04  0.25500000920E-02 0. -1.
    10030    2    1    2    0    0  0.00000000000E+00  0.00000000000E+00 -0.15278483508E+04  0.28150214443E+04  0.23643234018E+04 0.  0.
        5    1    3    3  502    0  0.36320684675E+03  0.63514014595E+03 -0.18694509368E+04  0.20075335897E+04  0.46999998093E+01 0. -1.
       -5    1    3    3    0  502 -0.36320684675E+03 -0.63514014595E+03  0.34160258599E+03  0.80748785457E+03  0.46999998093E+01 0.  1.
</event>
<event>
 5   0  0.1010855E-06  0.3510691E+04  0.7818609E-02  0.8111261E-01
       -1   -1    0    0    0  501  0.00000000000E+00  0.00000000000E+00  0.15018640475E+04  0.15018640475E+04  0.50400001928E-02 0. -1.
        1   -1    0    0  501    0  0.00000000000E+00  0.00000000000E+00 -0.20516093211E+04  0.20516093211E+04  0.50400001928E-02 0.  1.
    10030    2    1    2    0    0  0.00000000000E+00  0.00000000000E+00 -0.54974527358E+03  0.35534733686E+04  0.35106912590E+04 0.  0.
        1    1    3    3  502    0 -0.10803776194E+04 -0.12889227643E+04  0.23394663459E+03  0.16980190578E+04  0.50400001928E-02 0.  1.
       -1    1    3    3    0  502  0.10803776194E+04  0.12889227643E+04 -0.78369190817E+03  0.18554543108E+04  0.50400001928E-02 0. -1.
</event>
<event>
 5   0  0.9070500E-07  0.3412650E+04  0.7818609E-02  0.8134809E-01
        3   -1    0    0  501    0  0.00000000000E+00  0.00000000000E+00  0.20862450019E+04  0.20862450043E+04  0.10100000352E+00 0. -1.
       -3   -1    0    0    0  501  0.00000000000E+00  0.00000000000E+00 -0.13955910544E+04  0.13955910580E+04  0.10100000352E+00 0.  1.
    10030    2    1    2    0    0  0.00000000000E+00  0.00000000000E+00  0.69065394751E+03  0.34818360624E+04  0.34126499220E+04 0.  0.
        2    1    3    3  502    0 -0.11381043551E+04  0.54866853402E+03 -0.82475638720E+03  0.15088213219E+04  0.25500000920E-02 0.  1.
       -2    1    3    3    0  502  0.11381043551E+04 -0.54866853402E+03  0.15154103347E+04  0.19730147404E+04  0.25500000920E-02 0. -1.
</event>
<event>
 5   0  0.2848685E-06  0.3344730E+04  0.7818609E-02  0.8151606E-01
        2   -1    0    0  501    0  0.00000000000E+00  0.00000000000E+00  0.20771529981E+04  0.20771529981E+04  0.25500000920E-02 0. -1.
       -2   -1    0    0    0  501  0.00000000000E+00  0.00000000000E+00 -0.13464604342E+04  0.13464604342E+04  0.25500000920E-02 0.  1.
    10030    2    1    2    0    0  0.00000000000E+00  0.00000000000E+00  0.73069256386E+03  0.34236134323E+04  0.33447297815E+04 0.  0.
        3    1    3    3  502    0 -0.67519634734E+03  0.71177918500E+03 -0.10209531480E+04  0.14159325748E+04  0.10100000352E+00 0.  1.
       -3    1    3    3    0  502  0.67519634734E+03 -0.71177918500E+03  0.17516457119E+04  0.20076808576E+04  0.10100000352E+00 0. -1.
</event>
<event>
 5   0  0.2906701E-06  0.2233413E+04  0.7818609E-02  0.8504648E-01
       -2   -1    0    0    0  501  0.00000000000E+00  0.00000000000E+00  0.59005983989E+03  0.59005983989E+03  0.25500000920E-02 0. -1.
        2   -1    0    0  501    0  0.00000000000E+00  0.00000000000E+00 -0.21134019593E+04  0.21134019593E+04  0.25500000920E-02 0.  1.
    10030    2    1    2    0    0  0.00000000000E+00  0.00000000000E+00 -0.15233421194E+04  0.27034617992E+04  0.22334131922E+04 0.  0.
        5    1    3    3  502    0  0.10994515963E+04 -0.12989867295E+03 -0.93851476844E+03  0.14513784959E+04  0.46999998093E+01 0. -1.
       -5    1    3    3    0  502 -0.10994515963E+04  0.12989867295E+03 -0.58482735098E+03  0.12520833033E+04  0.46999998093E+01 0.  1.
</event>
<event>
 5   0  0.2856440E-06  0.3210173E+04  0.7818609E-02  0.8186136E-01
       -2   -1    0    0    0  501  0.00000000000E+00  0.00000000000E+00  0.13367498415E+04  0.13367498415E+04  0.25500000920E-02 0.  1.
        2   -1    0    0  501    0  0.00000000000E+00  0.00000000000E+00 -0.19272888990E+04  0.19272888990E+04  0.25500000920E-02 0. -1.
    10030    2    1    2    0    0  0.00000000000E+00  0.00000000000E+00 -0.59053905751E+03  0.32640387404E+04  0.32101732852E+04 0.  0.
        4    1    3    3  502    0  0.34276569318E+03 -0.14585763290E+04 -0.88057461927E+03  0.17379144113E+04  0.12699999809E+01 0. -1.
       -4    1    3    3    0  502 -0.34276569318E+03  0.14585763290E+04  0.29003556176E+03  0.15261243291E+04  0.12699999809E+01 0.  1.
</event>
<event>
 5   0  0.9232963E-07  0.3370436E+04  0.7818609E-02  0.8145201E-01
       -1   -1    0    0    0  501  0.00000000000E+00  0.00000000000E+00  0.12015106211E+04  0.12015106212E+04  0.50400001928E-02 0. -1.
        1   -1    0    0  501    0  0.00000000000E+00  0.00000000000E+00 -0.23636579157E+04  0.23636579157E+04  0.50400001928E-02 0.  1.
    10030    2    1    2    0    0  0.00000000000E+00  0.00000000000E+00 -0.11621472945E+04  0.35651685368E+04  0.33704362272E+04 0.  0.
        3    1    3    3  502    0  0.14315396361E+04 -0.68454414767E+03  0.19212153746E+02  0.15869075389E+04  0.10100000352E+00 0. -1.
       -3    1    3    3    0  502 -0.14315396361E+04  0.68454414767E+03 -0.11813594483E+04  0.19782609980E+04  0.10100000352E+00 0.  1.
</event>
<event>
 5   0  0.9714317E-07  0.3356188E+04  0.7818609E-02  0.8148744E-01
        1   -1    0    0  501    0  0.00000000000E+00  0.00000000000E+00  0.11288119856E+04  0.11288119856E+04  0.50400001928E-02 0.  1.
       -1   -1    0    0    0  501  0.00000000000E+00  0.00000000000E+00 -0.24946569261E+04  0.24946569261E+04  0.50400001928E-02 0. -1.
    10030    2    1    2    0    0  0.00000000000E+00  0.00000000000E+00 -0.13658449405E+04  0.36234689116E+04  0.33561875025E+04 0.  0.
        4    1    3    3  502    0 -0.96579688174E+03 -0.80201335483E+03 -0.18851607859E+04  0.22649110004E+04  0.12699999809E+01 0. -1.
       -4    1    3    3    0  502  0.96579688174E+03  0.80201335483E+03  0.51931584537E+03  0.13585579113E+04  0.12699999809E+01 0.  1.
</event>
<event>
 5   0  0.9714317E-07  0.3474665E+04  0.7818609E-02  0.8119820E-01
        1   -1    0    0  501    0  0.00000000000E+00  0.00000000000E+00  0.19419393428E+04  0.19419393428E+04  0.50400001928E-02 0. -1.
       -1   -1    0    0    0  501  0.00000000000E+00  0.00000000000E+00 -0.15542832399E+04  0.15542832399E+04  0.50400001928E-02 0.  1.
    10030    2    1    2    0    0  0.00000000000E+00  0.00000000000E+00  0.38765610285E+03  0.34962225827E+04  0.34746647455E+04 0.  0.
        4    1    3    3  502    0  0.15581789423E+04 -0.73662455880E+03 -0.26125545809E+02  0.17237231547E+04  0.12699999809E+01 0.  1.
       -4    1    3    3    0  502 -0.15581789423E+04  0.73662455880E+03  0.41378164866E+03  0.17724994281E+04  0.12699999809E+01 0. -1.
</event>
<event>
 5   0  0.9714317E-07  0.3369804E+04  0.7818609E-02  0.8145357E-01
        1   -1    0    0  501    0  0.00000000000E+00  0.00000000000E+00  0.12456281658E+04  0.12456281659E+04  0.50400001928E-02 0.  1.
       -1   -1    0    0    0  501  0.00000000000E+00  0.00000000000E+00 -0.22790867341E+04  0.22790867341E+04  0.50400001928E-02 0. -1.
    10030    2    1    2    0    0  0.00000000000E+00  0.00000000000E+00 -0.10334585682E+04  0.35247148999E+04  0.33698039280E+04 0.  0.
        4    1    3    3  502    0 -0.12124604108E+03  0.83016062111E+03 -0.20450725984E+04  0.22104729822E+04  0.12699999809E+01 0. -1.
       -4    1    3    3    0  502  0.12124604108E+03 -0.83016062111E+03  0.10116140302E+04  0.13142419177E+04  0.12699999809E+01 0.  1.
</event>
<event>
 5   0  0.1010855E-06  0.3365567E+04  0.7818609E-02  0.8146409E-01
        1   -1    0    0  501    0  0.00000000000E+00  0.00000000000E+00  0.23275223269E+04  0.23275223269E+04  0.50400001928E-02 0. -1.
       -1   -1    0    0    0  501  0.00000000000E+00  0.00000000000E+00 -0.12166413142E+04  0.12166413143E+04  0.50400001928E-02 0.  1.
    10030    2    1    2    0    0  0.00000000000E+00  0.00000000000E+00  0.11108810126E+04  0.35441636412E+04  0.33655667117E+04 0.  0.
        1    1    3    3  502    0 -0.11421049699E+04 -0.10295244269E+04  0.12754138469E+04  0.19977499315E+04  0.50400001928E-02 0.  1.
       -1    1    3    3    0  502  0.11421049699E+04  0.10295244269E+04 -0.16453283425E+03  0.15464137097E+04  0.50400001928E-02 0. -1.
</event>
<event>
 5   0  0.1003191E-06  0.3371990E+04  0.7818609E-02  0.8144815E-01
        1   -1    0    0  501    0  0.00000000000E+00  0.00000000000E+00  0.19188781274E+04  0.19188781274E+04  0.50400001928E-02 0. -1.
       -1   -1    0    0    0  501  0.00000000000E+00  0.00000000000E+00 -0.14813758103E+04  0.14813758104E+04  0.50400001928E-02 0.  1.
    10030    2    1    2    0    0  0.00000000000E+00  0.00000000000E+00  0.43750231708E+03  0.34002539378E+04  0.33719902971E+04 0.  0.
        5    1    3    3  502    0 -0.42312436985E+03  0.23035807592E+03 -0.14104827137E+04  0.14904974509E+04  0.46999998093E+01 0.  1.
       -5    1    3    3    0  502  0.42312436985E+03 -0.23035807592E+03  0.18479850307E+04  0.19097564869E+04  0.46999998093E+01 0. -1.
</event>
<event>
 5   0  0.2856440E-06  0.3377899E+04  0.7818609E-02  0.8143352E-01
       -2   -1    0    0    0  501  0.00000000000E+00  0.00000000000E+00  0.17992192410E+04  0.17992192410E+04  0.25500000920E-02 0.  1.
        2   -1    0    0  501    0  0.00000000000E+00  0.00000000000E+00 -0.15854375050E+04  0.15854375051E+04  0.25500000920E-02 0. -1.
    10030    2    1    2    0    0  0.00000000000E+00  0.00000000000E+00  0.21378173593E+03  0.33846567460E+04  0.33778985565E+04 0.  0.
        4    1    3    3  502    0  0.13324967912E+03 -0.13674806010E+04 -0.87731122838E+03  0.16301641867E+04  0.12699999809E+01 0. -1.
       -4    1    3    3    0  502 -0.13324967912E+03  0.13674806010E+04  0.10910929643E+04  0.17544925594E+04  0.12699999809E+01 0.  1.
</event>
<event>
 5   0  0.1003191E-06  0.3395216E+04  0.7818609E-02  0.8139081E-01
       -1   -1    0    0    0  501  0.00000000000E+00  0.00000000000E+00  0.10260799503E+04  0.10260799503E+04  0.50400001928E-02 0. -1.
        1   -1    0    0  501    0  0.00000000000E+00  0.00000000000E+00 -0.28086239448E+04  0.28086239448E+04  0.50400001928E-02 0.  1.
    10030    2    1    2    0    0  0.00000000000E+00  0.00000000000E+00 -0.17825439945E+04  0.38347038951E+04  0.33952158799E+04 0.  0.
        5    1    3    3  502    0 -0.77977522037E+03  0.12469349329E+04  0.66396378290E+02  0.14721843262E+04  0.46999998093E+01 0. -1.
       -5    1    3    3    0  502  0.77977522037E+03 -0.12469349329E+04 -0.18489403728E+04  0.23625195689E+04  0.46999998093E+01 0.  1.
</event>
<event>
 5   0  0.2856440E-06  0.3412626E+04  0.7818609E-02  0.8134814E-01
        2   -1    0    0  501    0  0.00000000000E+00  0.00000000000E+00  0.12044552452E+04  0.12044552452E+04  0.25500000920E-02 0. -1.
       -2   -1    0    0    0  501  0.00000000000E+00  0.00000000000E+00 -0.24172790078E+04  0.24172790078E+04  0.25500000920E-02 0.  1.
    10030    2    1    2    0    0  0.00000000000E+00  0.00000000000E+00 -0.12128237626E+04  0.36217342530E+04  0.34126261911E+04 0.  0.
        4    1    3    3  502    0  0.23285159019E+03  0.13520638107E+04  0.47024938868E+03  0.14503215201E+04  0.12699999809E+01 0. -1.
       -4    1    3    3    0  502 -0.23285159019E+03 -0.13520638107E+04 -0.16830731512E+04  0.21714127329E+04  0.12699999809E+01 0.  1.
</event>
<event>
 5   0  0.1010855E-06  0.3347622E+04  0.7818609E-02  0.8150883E-01
        1   -1    0    0  501    0  0.00000000000E+00  0.00000000000E+00  0.22778413428E+04  0.22778413428E+04  0.50400001928E-02 0. -1.
       -1   -1    0    0    0  501  0.00000000000E+00  0.00000000000E+00 -0.12299552123E+04  0.12299552123E+04  0.50400001928E-02 0.  1.
    10030    2    1    2    0    0  0.00000000000E+00  0.00000000000E+00  0.10478861305E+04  0.35077965552E+04  0.33476217424E+04 0.  0.
        1    1    3    3  502    0 -0.53695982940E+03  0.54967104040E+03  0.20820954926E+04  0.22193660698E+04  0.50400001928E-02 0. -1.
       -1    1    3    3    0  502  0.53695982940E+03 -0.54967104040E+03 -0.10342093621E+04  0.12884304854E+04  0.50400001928E-02 0.  1.
</event>
<event>
 5   0  0.2767014E-06  0.3426348E+04  0.7818609E-02  0.8131470E-01
        2   -1    0    0  501    0  0.00000000000E+00  0.00000000000E+00  0.27495787333E+04  0.27495787333E+04  0.25500000920E-02 0. -1.
       -2   -1    0    0    0  501  0.00000000000E+00  0.00000000000E+00 -0.10674236797E+04  0.10674236797E+04  0.25500000920E-02 0.  1.
    10030    2    1    2    0    0  0.00000000000E+00  0.00000000000E+00  0.16821550536E+04  0.38170024130E+04  0.34263481721E+04 0.  0.
        1    1    3    3  502    0  0.13032809412E+04 -0.88474366087E+03  0.15914083444E+04  0.22391724087E+04  0.50400001928E-02 0.  1.
       -1    1    3    3    0  502 -0.13032809412E+04  0.88474366087E+03  0.90746709188E+02  0.15778300043E+04  0.50400001928E-02 0. -1.
</event>
<event>
 5   0  0.9232963E-07  0.3426714E+04  0.7818609E-02  0.8131381E-01
        1   -1    0    0  501    0  0.00000000000E+00  0.00000000000E+00  0.28283335954E+04  0.28283335954E+04  0.50400001928E-02 0. -1.
       -1   -1    0    0    0  501  0.00000000000E+00  0.00000000000E+00 -0.10379227055E+04  0.10379227056E+04  0.50400001928E-02 0.  1.
    10030    2    1    2    0    0  0.00000000000E+00  0.00000000000E+00  0.17904108899E+04  0.38662563010E+04  0.34267136779E+04 0.  0.
        3    1    3    3  502    0 -0.12748216359E+04  0.11388949417E+04  0.10255181508E+04  0.19934741983E+04  0.10100000352E+00 0.  1.
       -3    1    3    3    0  502  0.12748216359E+04 -0.11388949417E+04  0.76489273908E+03  0.18727821027E+04  0.10100000352E+00 0. -1.
</event>
<event>
 5   0  0.2664083E-06  0.2169963E+04  0.7818609E-02  0.8531035E-01
       -2   -1    0    0    0  501  0.00000000000E+00  0.00000000000E+00  0.62813454882E+03  0.62813454883E+03  0.25500000920E-02 0.  1.
        2   -1    0    0  501    0  0.00000000000E+00  0.00000000000E+00 -0.18740969009E+04  0.18740969009E+04  0.25500000920E-02 0. -1.
    10030    2    1    2    0    0  0.00000000000E+00  0.00000000000E+00 -0.12459623521E+04  0.25022314498E+04  0.21699631438E+04 0.  0.
        2    1    3    3  502    0 -0.20670101374E+03  0.63926164266E+03  0.35941095599E+03  0.76194290609E+03  0.25500000920E-02 0.  1.
       -2    1    3    3    0  502  0.20670101374E+03 -0.63926164266E+03 -0.16053733081E+04  0.17402885437E+04  0.25500000920E-02 0. -1.
</event>
<event>
 5   0  0.1010855E-06  0.3419559E+04  0.7818609E-02  0.8133123E-01
        1   -1    0    0  501    0  0.00000000000E+00  0.00000000000E+00  0.17011459017E+04  0.17011459017E+04  0.50400001928E-02 0. -1.
       -1   -1    0    0    0  501  0.00000000000E+00  0.00000000000E+00 -0.17184568160E+04  0.17184568160E+04  0.50400001928E-02 0.  1.
    10030    2    1    2    0    0  0.00000000000E+00  0.00000000000E+00 -0.17310914288E+02  0.34196027178E+04  0.34195589013E+04 0.  0.
        1    1    3    3  502    0  0.57325340249E+03  0.10194361772E+04  0.12385478340E+04  0.17034876929E+04  0.50400001928E-02 0. -1.
       -1    1    3    3    0  502 -0.57325340249E+03 -0.10194361772E+04 -0.12558587483E+04  0.17161150248E+04  0.50400001928E-02 0.  1.
</event>
<event>
 5   0  0.9232963E-07  0.3386706E+04  0.7818609E-02  0.8141177E-01
       -1   -1    0    0    0  501  0.00000000000E+00  0.00000000000E+00  0.20533486523E+04  0.20533486523E+04  0.50400001928E-02 0. -1.
        1   -1    0    0  501    0  0.00000000000E+00  0.00000000000E+00 -0.13964720732E+04  0.13964720732E+04  0.50400001928E-02 0.  1.
    10030    2    1    2    0    0  0.00000000000E+00  0.00000000000E+00  0.65687657909E+03  0.34498207254E+04  0.33867058032E+04 0.  0.
        3    1    3    3  502    0 -0.16871599216E+04  0.25459434876E+02  0.47352602458E+03  0.17525363592E+04  0.10100000352E+00 0. -1.
       -3    1    3    3    0  502  0.16871599216E+04 -0.25459434876E+02  0.18335055451E+03  0.16972843663E+04  0.10100000352E+00 0.  1.
</event>
<event>
 5   0  0.1010855E-06  0.3258630E+04  0.7818609E-02  0.8173502E-01
       -1   -1    0    0    0  501  0.00000000000E+00  0.00000000000E+00  0.30278647228E+04  0.30278647228E+04  0.50400001928E-02 0. -1.
        1   -1    0    0  501    0  0.00000000000E+00  0.00000000000E+00 -0.87674589435E+03  0.87674589436E+03  0.50400001928E-02 0.  1.
    10030    2    1    2    0    0  0.00000000000E+00  0.00000000000E+00  0.21511188285E+04  0.39046106172E+04  0.32586303653E+04 0.  0.
        1    1    3    3  502    0 -0.13066838475E+04 -0.11741741488E+03  0.22332436609E+04  0.25900939704E+04  0.50400001928E-02 0. -1.
       -1    1    3    3    0  502  0.13066838475E+04  0.11741741488E+03 -0.82124832393E+02  0.13145166468E+04  0.50400001928E-02 0.  1.
</event>
<event>
 5   0  0.2906701E-06  0.2368765E+04  0.7818609E-02  0.8451291E-01
       -2   -1    0    0    0  501  0.00000000000E+00  0.00000000000E+00  0.88332412479E+03  0.88332412480E+03  0.25500000920E-02 0.  1.
        2   -1    0    0  501    0  0.00000000000E+00  0.00000000000E+00 -0.15880490876E+04  0.15880490876E+04  0.25500000920E-02 0. -1.
    10030    2    1    2    0    0  0.00000000000E+00  0.00000000000E+00 -0.70472496284E+03  0.24713732124E+04  0.23687651386E+04 0.  0.
        5    1    3    3  502    0 -0.69672065113E+03 -0.67246191514E+03  0.35917312734E+03  0.10327885158E+04  0.46999998093E+01 0.  1.
       -5    1    3    3    0  502  0.69672065113E+03  0.67246191514E+03 -0.10638980902E+04  0.14385846966E+04  0.46999998093E+01 0. -1.
</event>
<event>
 5   0  0.2848685E-06  0.3363114E+04  0.7818609E-02  0.8147019E-01
        2   -1    0    0  501    0  0.00000000000E+00  0.00000000000E+00  0.25348394864E+04  0.25348394864E+04  0.25500000920E-02 0.  1.
       -2   -1    0    0    0  501  0.00000000000E+00  0.00000000000E+00 -0.11155080838E+04  0.11155080838E+04  0.25500000920E-02 0. -1.
    10030    2    1    2    0    0  0.00000000000E+00  0.00000000000E+00  0.14193314026E+04  0.36503475703E+04  0.33631139965E+04 0.  0.
        3    1    3    3  502    0 -0.69908931458E+03 -0.10388127402E+04  0.19279238374E+04  0.22988580017E+04  0.10100000352E+00 0.  1.
       -3    1    3    3    0  502  0.69908931458E+03  0.10388127402E+04 -0.50859243483E+03  0.13514895686E+04  0.10100000352E+00 0. -1.
</event>
<event>
 5   0  0.2767014E-06  0.3419348E+04  0.7818609E-02  0.8133174E-01
       -2   -1    0    0    0  501  0.00000000000E+00  0.00000000000E+00  0.15610472032E+04  0.15610472032E+04  0.25500000920E-02 0.  1.
        2   -1    0    0  501    0  0.00000000000E+00  0.00000000000E+00 -0.18724516459E+04  0.18724516460E+04  0.25500000920E-02 0. -1.
    10030    2    1    2    0    0  0.00000000000E+00  0.00000000000E+00 -0.31140444280E+03  0.34334988491E+04  0.34193481279E+04 0.  0.
        1    1    3    3  502    0 -0.15388764173E+04  0.73569295126E+03 -0.27280671453E+03  0.17273703279E+04  0.50400001928E-02 0. -1.
       -1    1    3    3    0  502  0.15388764173E+04 -0.73569295126E+03 -0.38597728264E+02  0.17061285212E+04  0.50400001928E-02 0.  1.
</event>
<event>
 5   0  0.1010551E-06  0.3478377E+04  0.7818609E-02  0.8118934E-01
        1   -1    0    0  501    0  0.00000000000E+00  0.00000000000E+00  0.23213325205E+04  0.23213325205E+04  0.50400001928E-02 0.  1.
       -1   -1    0    0    0  501  0.00000000000E+00  0.00000000000E+00 -0.13030343231E+04  0.13030343231E+04  0.50400001928E-02 0. -1.
    10030    2    1    2    0    0  0.00000000000E+00  0.00000000000E+00  0.10182981974E+04  0.36243668437E+04  0.34783766039E+04 0.  0.
        2    1    3    3  502    0 -0.87685021576E+03  0.81098483382E+03 -0.80811516714E+03  0.14420862751E+04  0.25500000920E-02 0. -1.
       -2    1    3    3    0  502  0.87685021576E+03 -0.81098483382E+03  0.18264133646E+04  0.21822805685E+04  0.25500000920E-02 0.  1.
</event>
<event>
 5   0  0.1010855E-06  0.3267475E+04  0.7818609E-02  0.8171221E-01
        1   -1    0    0  501    0  0.00000000000E+00  0.00000000000E+00  0.20431263832E+04  0.20431263832E+04  0.50400001928E-02 0.  1.
       -1   -1    0    0    0  501  0.00000000000E+00  0.00000000000E+00 -0.13063791291E+04  0.13063791291E+04  0.50400001928E-02 0. -1.
    10030    2    1    2    0    0  0.00000000000E+00  0.00000000000E+00  0.73674725413E+03  0.33495055123E+04  0.32674746610E+04 0.  0.
        1    1    3    3  502    0 -0.15539815288E+04 -0.41702404152E+03  0.65891461641E+03  0.17386592866E+04  0.50400001928E-02 0. -1.
       -1    1    3    3    0  502  0.15539815288E+04  0.41702404152E+03  0.77832637715E+02  0.16108462256E+04  0.50400001928E-02 0.  1.
</event>
<event>
 5   0  0.2906701E-06  0.2798801E+04  0.7818609E-02  0.8303641E-01
       -2   -1    0    0    0  501  0.00000000000E+00  0.00000000000E+00  0.11637826933E+04  0.11637826933E+04  0.25500000920E-02 0.  1.
        2   -1    0    0  501    0  0.00000000000E+00  0.00000000000E+00 -0.16827209867E+04  0.16827209867E+04  0.25500000920E-02 0. -1.
    10030    2    1    2    0    0  0.00000000000E+00  0.00000000000E+00 -0.51893829337E+03  0.28465036800E+04  0.27988008589E+04 0.  0.
        5    1    3    3  502    0 -0.11457967907E+04 -0.45282332429E+03 -0.93440658113E+03  0.15462978360E+04  0.46999998093E+01 0. -1.
       -5    1    3    3    0  502  0.11457967907E+04  0.45282332429E+03  0.41546828776E+03  0.13002058440E+04  0.46999998093E+01 0.  1.
</event>
<event>
 5   0  0.1003191E-06  0.3220641E+04  0.7818609E-02  0.8183387E-01
        1   -1    0    0  501    0  0.00000000000E+00  0.00000000000E+00  0.19046379266E+04  0.19046379266E+04  0.50400001928E-02 0.  1.
       -1   -1    0    0    0  501  0.00000000000E+00  0.00000000000E+00 -0.13614833131E+04  0.13614833131E+04  0.50400001928E-02 0. -1.
    10030    2    1    2    0    0  0.00000000000E+00  0.00000000000E+00  0.54315461347E+03  0.32661212397E+04  0.32206413986E+04 0.  0.
        5    1    3    3  502    0  0.20689733150E+03  0.10448949165E+04  0.14963146632E+04  0.18367339365E+04  0.46999998093E+01 0.  1.
       -5    1    3    3    0  502 -0.20689733150E+03 -0.10448949165E+04 -0.95316004968E+03  0.14293873032E+04  0.46999998093E+01 0. -1.
</event>
<event>
 5   0  0.9794781E-07  0.2144297E+04  0.7818609E-02  0.8541977E-01
       -1   -1    0    0    0  501  0.00000000000E+00  0.00000000000E+00  0.87312613772E+03  0.87312613773E+03  0.50400001928E-02 0.  1.
        1   -1    0    0  501    0  0.00000000000E+00  0.00000000000E+00 -0.13165366152E+04  0.13165366152E+04  0.50400001928E-02 0. -1.
    10030    2    1    2    0    0  0.00000000000E+00  0.00000000000E+00 -0.44341047747E+03  0.21896627529E+04  0.21442971156E+04 0.  0.
        4    1    3    3  502    0 -0.77473619008E+03 -0.63358933013E+03  0.17094143785E+03  0.10153197484E+04  0.12699999809E+01 0. -1.
       -4    1    3    3    0  502  0.77473619008E+03  0.63358933013E+03 -0.61435191532E+03  0.11743430045E+04  0.12699999809E+01 0.  1.
</event>
<event>
 5   0  0.2906701E-06  0.3339060E+04  0.7818609E-02  0.8153027E-01
       -2   -1    0    0    0  501  0.00000000000E+00  0.00000000000E+00  0.13586618867E+04  0.13586618867E+04  0.25500000920E-02 0.  1.
        2   -1    0    0  501    0  0.00000000000E+00  0.00000000000E+00 -0.20515256189E+04  0.20515256189E+04  0.25500000920E-02 0. -1.
    10030    2    1    2    0    0  0.00000000000E+00  0.00000000000E+00 -0.69286373213E+03  0.34101875056E+04  0.33390595491E+04 0.  0.
        5    1    3    3  502    0 -0.27076662126E+03 -0.99018107583E+03 -0.16911161625E+04  0.19782995453E+04  0.46999998093E+01 0. -1.
       -5    1    3    3    0  502  0.27076662126E+03  0.99018107583E+03  0.99825243033E+03  0.14318879603E+04  0.46999998093E+01 0.  1.
</event>
<event>
 5   0  0.9070500E-07  0.3360576E+04  0.7818609E-02  0.8147651E-01
        3   -1    0    0  501    0  0.00000000000E+00  0.00000000000E+00  0.28270517519E+04  0.28270517537E+04  0.10100000352E+00 0.  1.
       -3   -1    0    0    0  501  0.00000000000E+00  0.00000000000E+00 -0.99869683203E+03  0.99869683714E+03  0.10100000352E+00 0. -1.
    10030    2    1    2    0    0  0.00000000000E+00  0.00000000000E+00  0.18283549199E+04  0.38257485909E+04  0.33605759279E+04 0.  0.
        3    1    3    3  502    0  0.80712197423E+03  0.79425221189E+03  0.23274178338E+04  0.25882728297E+04  0.10100000352E+00 0.  1.
       -3    1    3    3    0  502 -0.80712197423E+03 -0.79425221189E+03 -0.49906291391E+03  0.12374757612E+04  0.10100000352E+00 0. -1.
</event>
<event>
 5   0  0.2906701E-06  0.3406369E+04  0.7818609E-02  0.8136345E-01
        2   -1    0    0  501    0  0.00000000000E+00  0.00000000000E+00  0.19155859104E+04  0.19155859104E+04  0.25500000920E-02 0. -1.
       -2   -1    0    0    0  501  0.00000000000E+00  0.00000000000E+00 -0.15143347294E+04  0.15143347294E+04  0.25500000920E-02 0.  1.
    10030    2    1    2    0    0  0.00000000000E+00  0.00000000000E+00  0.40125118100E+03  0.34299206399E+04  0.34063694875E+04 0.  0.
        5    1    3    3  502    0 -0.75217301588E+03  0.91194730130E+03  0.14352366880E+04  0.18593919885E+04  0.46999998093E+01 0. -1.
       -5    1    3    3    0  502  0.75217301588E+03 -0.91194730130E+03 -0.10339855070E+04  0.15705286514E+04  0.46999998093E+01 0.  1.
</event>
<event>
 5   0  0.2856440E-06  0.3423979E+04  0.7818609E-02  0.8132046E-01
        2   -1    0    0  501    0  0.00000000000E+00  0.00000000000E+00  0.18067994353E+04  0.18067994353E+04  0.25500000920E-02 0. -1.
       -2   -1    0    0    0  501  0.00000000000E+00  0.00000000000E+00 -0.16221543458E+04  0.16221543458E+04  0.25500000920E-02 0.  1.
    10030    2    1    2    0    0  0.00000000000E+00  0.00000000000E+00  0.18464508953E+03  0.34289537811E+04  0.34239787125E+04 0.  0.
        4    1    3    3  502    0  0.24323404628E+03  0.71437454630E+01 -0.16047465036E+04  0.16230917374E+04  0.12699999809E+01 0.  1.
       -4    1    3    3    0  502 -0.24323404628E+03 -0.71437454630E+01  0.17893915931E+04  0.18058620437E+04  0.12699999809E+01 0. -1.
</event>
<event>
 5   0  0.2767014E-06  0.3265416E+04  0.7818609E-02  0.8171752E-01
        2   -1    0    0  501    0  0.00000000000E+00  0.00000000000E+00  0.16348267280E+04  0.16348267281E+04  0.25500000920E-02 0. -1.
       -2   -1    0    0    0  501  0.00000000000E+00  0.00000000000E+00 -0.16305916682E+04  0.16305916682E+04  0.25500000920E-02 0.  1.
    10030    2    1    2    0    0  0.00000000000E+00  0.00000000000E+00  0.42350598394E+01  0.32654183963E+04  0.32654156499E+04 0.  0.
        1    1    3    3  502    0  0.39593691336E+03  0.12951508726E+04 -0.90977852677E+03  0.16315265214E+04  0.50400001928E-02 0.  1.
       -1    1    3    3    0  502 -0.39593691336E+03 -0.12951508726E+04  0.91401358661E+03  0.16338918749E+04  0.50400001928E-02 0. -1.
</event>
<event>
 5   0  0.2767014E-06  0.3389917E+04  0.7818609E-02  0.8140385E-01
        2   -1    0    0  501    0  0.00000000000E+00  0.00000000000E+00  0.19707539892E+04  0.19707539892E+04  0.25500000920E-02 0.  1.
       -2   -1    0    0    0  501  0.00000000000E+00  0.00000000000E+00 -0.14577593031E+04  0.14577593031E+04  0.25500000920E-02 0. -1.
    10030    2    1    2    0    0  0.00000000000E+00  0.00000000000E+00  0.51299468608E+03  0.34285132923E+04  0.33899173806E+04 0.  0.
        1    1    3    3  502    0  0.15085258224E+04 -0.32899978421E+03 -0.45074534408E+03  0.16084347609E+04  0.50400001928E-02 0. -1.
       -1    1    3    3    0  502 -0.15085258224E+04  0.32899978421E+03  0.96374003016E+03  0.18200785314E+04  0.50400001928E-02 0.  1.
</event>
<event>
 5   0  0.1010551E-06  0.3340217E+04  0.7818609E-02  0.8152737E-01
        1   -1    0    0  501    0  0.00000000000E+00  0.00000000000E+00  0.18918373437E+04  0.18918373437E+04  0.50400001928E-02 0. -1.
       -1   -1    0    0    0  501  0.00000000000E+00  0.00000000000E+00 -0.14743666351E+04  0.14743666351E+04  0.50400001928E-02 0.  1.
    10030    2    1    2    0    0  0.00000000000E+00  0.00000000000E+00  0.41747070856E+03  0.33662039788E+04  0.33402166748E+04 0.  0.
        2    1    3    3  502    0 -0.13399556243E+04  0.26869591414E+03 -0.75872479467E+03  0.15631192800E+04  0.25500000920E-02 0.  1.
       -2    1    3    3    0  502  0.13399556243E+04 -0.26869591414E+03  0.11761955032E+04  0.18030846988E+04  0.25500000920E-02 0. -1.
</event>
<event>
 5   0  0.2767014E-06  0.3339743E+04  0.7818609E-02  0.8152856E-01
        2   -1    0    0  501    0  0.00000000000E+00  0.00000000000E+00  0.14848188620E+04  0.14848188620E+04  0.25500000920E-02 0.  1.
       -2   -1    0    0    0  501  0.00000000000E+00  0.00000000000E+00 -0.18779873006E+04  0.18779873006E+04  0.25500000920E-02 0. -1.
    10030    2    1    2    0    0  0.00000000000E+00  0.00000000000E+00 -0.39316843853E+03  0.33628061626E+04  0.33397430838E+04 0.  0.
        1    1    3    3  502    0  0.91456738826E+03  0.82461754549E+03  0.93905330315E+03  0.15486280090E+04  0.50400001928E-02 0.  1.
       -1    1    3    3    0  502 -0.91456738826E+03 -0.82461754549E+03 -0.13322217417E+04  0.18141781536E+04  0.50400001928E-02 0. -1.
</event>
<event>
 5   0  0.1003191E-06  0.3431063E+04  0.7818609E-02  0.8130324E-01
       -1   -1    0    0    0  501  0.00000000000E+00  0.00000000000E+00  0.15946933019E+04  0.15946933019E+04  0.50400001928E-02 0. -1.
        1   -1    0    0  501    0  0.00000000000E+00  0.00000000000E+00 -0.18455260241E+04  0.18455260241E+04  0.50400001928E-02 0.  1.
    10030    2    1    2    0    0  0.00000000000E+00  0.00000000000E+00 -0.25083272224E+03  0.34402193260E+04  0.34310628027E+04 0.  0.
        5    1    3    3  502    0  0.39924200797E+03 -0.78744724904E+02  0.15455938429E+04  0.15982732338E+04  0.46999998093E+01 0. -1.
       -5    1    3    3    0  502 -0.39924200797E+03  0.78744724904E+02 -0.17964265651E+04  0.18419460922E+04  0.46999998093E+01 0.  1.
</event>
<event>
 5   0  0.9232963E-07  0.3441509E+04  0.7818609E-02  0.8127793E-01
        1   -1    0    0  501    0  0.00000000000E+00  0.00000000000E+00  0.19636507270E+04  0.19636507270E+04  0.50400001928E-02 0. -1.
       -1   -1    0    0    0  501  0.00000000000E+00  0.00000000000E+00 -0.15079035163E+04  0.15079035163E+04  0.50400001928E-02 0.  1.
    10030    2    1    2    0    0  0.00000000000E+00  0.00000000000E+00  0.45574721066E+03  0.34715542433E+04  0.34415088760E+04 0.  0.
        3    1    3    3  502    0 -0.10237426412E+04 -0.70959183980E+03  0.14254307322E+04  0.18929929627E+04  0.10100000352E+00 0.  1.
       -3    1    3    3    0  502  0.10237426412E+04  0.70959183980E+03 -0.96968352151E+03  0.15785612806E+04  0.10100000352E+00 0. -1.
</event>
<event>
 5   0  0.2856440E-06  0.2184169E+04  0.7818609E-02  0.8525046E-01
        2   -1    0    0  501    0  0.00000000000E+00  0.00000000000E+00  0.89953879298E+03  0.89953879299E+03  0.25500000920E-02 0.  1.
       -2   -1    0    0    0  501  0.00000000000E+00  0.00000000000E+00 -0.13258440943E+04  0.13258440943E+04  0.25500000920E-02 0. -1.
    10030    2    1    2    0    0  0.00000000000E+00  0.00000000000E+00 -0.42630530130E+03  0.22253828873E+04  0.21841686714E+04 0.  0.
        4    1    3    3  502    0 -0.74134422273E+03 -0.31712445437E+03 -0.96358820373E+03  0.12564485725E+04  0.12699999809E+01 0. -1.
       -4    1    3    3    0  502  0.74134422273E+03  0.31712445437E+03  0.53728290243E+03  0.96893431474E+03  0.12699999809E+01 0.  1.
</event>
<event>
 5   0  0.1010855E-06  0.3361509E+04  0.7818609E-02  0.8147418E-01
        1   -1    0    0  501    0  0.00000000000E+00  0.00000000000E+00  0.11564301193E+04  0.11564301193E+04  0.50400001928E-02 0.  1.
       -1   -1    0    0    0  501  0.00000000000E+00  0.00000000000E+00 -0.24428075356E+04  0.24428075356E+04  0.50400001928E-02 0. -1.
    10030    2    1    2    0    0  0.00000000000E+00  0.00000000000E+00 -0.12863774163E+04  0.35992376549E+04  0.33615093097E+04 0.  0.
        1    1    3    3  502    0  0.73691237257E+03  0.20941329352E+03  0.95861894390E+03  0.12271283763E+04  0.50400001928E-02 0.  1.
       -1    1    3    3    0  502 -0.73691237257E+03 -0.20941329352E+03 -0.22449963602E+04  0.23721092786E+04  0.50400001928E-02 0. -1.
</event>
<event>
 5   0  0.2848685E-06  0.3486808E+04  0.7818609E-02  0.8116923E-01
       -2   -1    0    0    0  501  0.00000000000E+00  0.00000000000E+00  0.14309091144E+04  0.14309091144E+04  0.25500000920E-02 0.  1.
        2   -1    0    0  501    0  0.00000000000E+00  0.00000000000E+00 -0.21241448648E+04  0.21241448648E+04  0.25500000920E-02 0. -1.
    10030    2    1    2    0    0  0.00000000000E+00  0.00000000000E+00 -0.69323575045E+03  0.35550539792E+04  0.34868084245E+04 0.  0.
        3    1    3    3  502    0 -0.67996735563E+03 -0.14998754948E+04  0.23683789471E+03  0.16637530776E+04  0.10100000352E+00 0. -1.
       -3    1    3    3    0  502  0.67996735563E+03  0.14998754948E+04 -0.93007364516E+03  0.18913009016E+04  0.10100000352E+00 0.  1.
</event>
<event>
 5   0  0.2848685E-06  0.3319245E+04  0.7818609E-02  0.8158016E-01
       -2   -1    0    0    0  501  0.00000000000E+00  0.00000000000E+00  0.15998690976E+04  0.15998690976E+04  0.25500000920E-02 0.  1.
        2   -1    0    0  501    0  0.00000000000E+00  0.00000000000E+00 -0.17216072820E+04  0.17216072820E+04  0.25500000920E-02 0. -1.
    10030    2    1    2    0    0  0.00000000000E+00  0.00000000000E+00 -0.12173818444E+03  0.33214763796E+04  0.33192446663E+04 0.  0.
        3    1    3    3  502    0 -0.45135877718E+03 -0.13435229104E+04  0.80317409671E+03  0.16290694265E+04  0.10100000352E+00 0. -1.
       -3    1    3    3    0  502  0.45135877718E+03  0.13435229104E+04 -0.92491228115E+03  0.16924069530E+04  0.10100000352E+00 0.  1.
</event>
<event>
 5   0  0.2848685E-06  0.3394386E+04  0.7818609E-02  0.8139286E-01
       -2   -1    0    0    0  501  0.00000000000E+00  0.00000000000E+00  0.25738215402E+04  0.25738215402E+04  0.25500000920E-02 0. -1.
        2   -1    0    0  501    0  0.00000000000E+00  0.00000000000E+00 -0.11191389398E+04  0.11191389398E+04  0.25500000920E-02 0.  1.
    10030    2    1    2    0    0  0.00000000000E+00  0.00000000000E+00  0.14546826004E+04  0.36929604800E+04  0.33943859001E+04 0.  0.
        3    1    3    3  502    0  0.69396379808E+03 -0.14797044235E+04  0.22954346461E+03  0.16503942397E+04  0.10100000352E+00 0. -1.
       -3    1    3    3    0  502 -0.69396379808E+03  0.14797044235E+04  0.12251391358E+04  0.20425662404E+04  0.10100000352E+00 0.  1.
</event>
<event>
 5   0  0.1010551E-06  0.3649720E+04  0.7818609E-02  0.8079197E-01
        1   -1    0    0  501    0  0.00000000000E+00  0.00000000000E+00  0.21031951965E+04  0.21031951965E+04  0.50400001928E-02 0. -1.
       -1   -1    0    0    0  501  0.00000000000E+00  0.00000000000E+00 -0.15833592216E+04  0.15833592216E+04  0.50400001928E-02 0.  1.
    10030    2    1    2    0    0  0.00000000000E+00  0.00000000000E+00  0.51983597496E+03  0.36865544181E+04  0.36497197203E+04 0.  0.
        2    1    3    3  502    0  0.52627466718E+03  0.17472799348E+04  0.27274708328E+03  0.18450862222E+04  0.25500000920E-02 0. -1.
       -2    1    3    3    0  502 -0.52627466718E+03 -0.17472799348E+04  0.24708889168E+03  0.18414681959E+04  0.25500000920E-02 0.  1.
</event>
<event>
 5   0  0.2906701E-06  0.3341947E+04  0.7818609E-02  0.8152303E-01
       -2   -1    0    0    0  501  0.00000000000E+00  0.00000000000E+00  0.14334517290E+04  0.14334517290E+04  0.25500000920E-02 0. -1.
        2   -1    0    0  501    0  0.00000000000E+00  0.00000000000E+00 -0.19478527707E+04  0.19478527707E+04  0.25500000920E-02 0.  1.
    10030    2    1    2    0    0  0.00000000000E+00  0.00000000000E+00 -0.51440104177E+03  0.33813044997E+04  0.33419472898E+04 0.  0.
        5    1    3    3  502    0 -0.35423375869E+03  0.12157991995E+04  0.84581319955E+03  0.15228497325E+04  0.46999998093E+01 0. -1.
       -5    1    3    3    0  502  0.35423375869E+03 -0.12157991995E+04 -0.13602142413E+04  0.18584547672E+04  0.46999998093E+01 0.  1.
</event>
<event>
 5   0  0.2906701E-06  0.3435279E+04  0.7818609E-02  0.8129301E-01
        2   -1    0    0  501    0  0.00000000000E+00  0.00000000000E+00  0.12322726248E+04  0.12322726248E+04  0.25500000920E-02 0.  1.
       -2   -1    0    0    0  501  0.00000000000E+00  0.00000000000E+00 -0.23941829383E+04  0.23941829383E+04  0.25500000920E-02 0. -1.
    10030    2    1    2    0    0  0.00000000000E+00  0.00000000000E+00 -0.11619103134E+04  0.36264555631E+04  0.34352793736E+04 0.  0.
        5    1    3    3  502    0  0.54026538486E+03 -0.91220622977E+03 -0.20075519994E+04  0.22703070304E+04  0.46999998093E+01 0.  1.
       -5    1    3    3    0  502 -0.54026538486E+03  0.91220622977E+03  0.84564168600E+03  0.13561485327E+04  0.46999998093E+01 0. -1.
</event>
<event>
 5   0  0.2856440E-06  0.3021511E+04  0.7818609E-02  0.8237615E-01
        2   -1    0    0  501    0  0.00000000000E+00  0.00000000000E+00  0.17614516002E+04  0.17614516002E+04  0.25500000920E-02 0. -1.
       -2   -1    0    0    0  501  0.00000000000E+00  0.00000000000E+00 -0.12957390940E+04  0.12957390940E+04  0.25500000920E-02 0.  1.
    10030    2    1    2    0    0  0.00000000000E+00  0.00000000000E+00  0.46571250629E+03  0.30571906942E+04  0.30215106821E+04 0.  0.
        4    1    3    3  502    0 -0.92202639309E+03 -0.52103966478E+03 -0.85725434853E+03  0.13625350024E+04  0.12699999809E+01 0.  1.
       -4    1    3    3    0  502  0.92202639309E+03  0.52103966478E+03  0.13229668548E+04  0.16946556918E+04  0.12699999809E+01 0. -1.
</event>
<event>
 5   0  0.2856440E-06  0.3387724E+04  0.7818609E-02  0.8140926E-01
        2   -1    0    0  501    0  0.00000000000E+00  0.00000000000E+00  0.17713301605E+04  0.17713301605E+04  0.25500000920E-02 0. -1.
       -2   -1    0    0    0  501  0.00000000000E+00  0.00000000000E+00 -0.16197823387E+04  0.16197823387E+04  0.25500000920E-02 0.  1.
    10030    2    1    2    0    0  0.00000000000E+00  0.00000000000E+00  0.15154782181E+03  0.33911124992E+04  0.33877244929E+04 0.  0.
        4    1    3    3  502    0  0.50725411148E+03  0.11761567218E+04 -0.10337191242E+04  0.16459733317E+04  0.12699999809E+01 0.  1.
       -4    1    3    3    0  502 -0.50725411148E+03 -0.11761567218E+04  0.11852669460E+04  0.17451391675E+04  0.12699999809E+01 0. -1.
</event>
<event>
 5   0  0.9714317E-07  0.3424106E+04  0.7818609E-02  0.8132015E-01
       -1   -1    0    0    0  501  0.00000000000E+00  0.00000000000E+00  0.24740210926E+04  0.24740210926E+04  0.50400001928E-02 0. -1.
        1   -1    0    0  501    0  0.00000000000E+00  0.00000000000E+00 -0.11847619038E+04  0.11847619038E+04  0.50400001928E-02 0.  1.
    10030    2    1    2    0    0  0.00000000000E+00  0.00000000000E+00  0.12892591889E+04  0.36587829964E+04  0.34241062715E+04 0.  0.
        4    1    3    3  502    0  0.75090868365E+03 -0.13871112160E+04  0.13559756687E+04  0.20800512021E+04  0.12699999809E+01 0. -1.
       -4    1    3    3    0  502 -0.75090868365E+03  0.13871112160E+04 -0.66716479815E+02  0.15787317942E+04  0.12699999809E+01 0.  1.
</event>
<event>
 5   0  0.2848685E-06  0.3347112E+04  0.7818609E-02  0.8151010E-01
        2   -1    0    0  501    0  0.00000000000E+00  0.00000000000E+00  0.24243510214E+04  0.24243510214E+04  0.25500000920E-02 0.  1.
       -2   -1    0    0    0  501  0.00000000000E+00  0.00000000000E+00 -0.11552736886E+04  0.11552736886E+04  0.25500000920E-02 0. -1.
    10030    2    1    2    0    0  0.00000000000E+00  0.00000000000E+00  0.12690773328E+04  0.35796247101E+04  0.33471115590E+04 0.  0.
        3    1    3    3  502    0  0.12586723065E+04  0.95318846158E+03  0.12280346609E+04  0.20002233268E+04  0.10100000352E+00 0.  1.
       -3    1    3    3    0  502 -0.12586723065E+04 -0.95318846158E+03  0.41042671961E+02  0.15794013833E+04  0.10100000352E+00 0. -1.
</event>
<event>
 5   0  0.9714317E-07  0.3356899E+04  0.7818609E-02  0.8148567E-01
        1   -1    0    0  501    0  0.00000000000E+00  0.00000000000E+00  0.16627214473E+04  0.16627214473E+04  0.50400001928E-02 0.  1.
       -1   -1    0    0    0  501  0.00000000000E+00  0.00000000000E+00 -0.16943259102E+04  0.16943259102E+04  0.50400001928E-02 0. -1.
    10030    2    1    2    0    0  0.00000000000E+00  0.00000000000E+00 -0.31604462869E+02  0.33570473575E+04  0.33568985863E+04 0.  0.
        4    1    3    3  502    0 -0.67068426723E+03  0.10489508151E+03  0.15193130465E+04  0.16640715461E+04  0.12699999809E+01 0.  1.
       -4    1    3    3    0  502  0.67068426723E+03 -0.10489508151E+03 -0.15509175093E+04  0.16929758114E+04  0.12699999809E+01 0. -1.
</event>
<event>
 5   0  0.2767014E-06  0.3386999E+04  0.7818609E-02  0.8141105E-01
       -2   -1    0    0    0  501  0.00000000000E+00  0.00000000000E+00  0.12876700616E+04  0.12876700616E+04  0.25500000920E-02 0.  1.
        2   -1    0    0  501    0  0.00000000000E+00  0.00000000000E+00 -0.22272320666E+04  0.22272320666E+04  0.25500000920E-02 0. -1.
    10030    2    1    2    0    0  0.00000000000E+00  0.00000000000E+00 -0.93956200504E+03  0.35149021282E+04  0.33869987023E+04 0.  0.
        1    1    3    3  502    0 -0.41942576318E+02 -0.13872473149E+04  0.53729078944E+03  0.14882525608E+04  0.50400001928E-02 0.  1.
       -1    1    3    3    0  502  0.41942576318E+02  0.13872473149E+04 -0.14768527945E+04  0.20266495674E+04  0.50400001928E-02 0. -1.
</event>
<event>
 5   0  0.2664083E-06  0.2908027E+04  0.7818609E-02  0.8270493E-01
        2   -1    0    0  501    0  0.00000000000E+00  0.00000000000E+00  0.14216845282E+04  0.14216845282E+04  0.25500000920E-02 0. -1.
       -2   -1    0    0    0  501  0.00000000000E+00  0.00000000000E+00 -0.14870773019E+04  0.14870773019E+04  0.25500000920E-02 0.  1.
    10030    2    1    2    0    0  0.00000000000E+00  0.00000000000E+00 -0.65392773703E+02  0.29087618301E+04  0.29080266796E+04 0.  0.
        2    1    3    3  502    0  0.12658272349E+04 -0.64399211354E+03 -0.34440052017E+03  0.14613884320E+04  0.25500000920E-02 0.  1.
       -2    1    3    3    0  502 -0.12658272349E+04  0.64399211354E+03  0.27900774647E+03  0.14473733981E+04  0.25500000920E-02 0. -1.
</event>
<event>
 5   0  0.1010855E-06  0.2944809E+04  0.7818609E-02  0.8259669E-01
        1   -1    0    0  501    0  0.00000000000E+00  0.00000000000E+00  0.87164299498E+03  0.87164299499E+03  0.50400001928E-02 0.  1.
       -1   -1    0    0    0  501  0.00000000000E+00  0.00000000000E+00 -0.24872276428E+04  0.24872276428E+04  0.50400001928E-02 0. -1.
    10030    2    1    2    0    0  0.00000000000E+00  0.00000000000E+00 -0.16155846479E+04  0.33588706378E+04  0.29448086877E+04 0.  0.
        1    1    3    3  502    0  0.24412570827E+03  0.12039191057E+04 -0.17336929827E+04  0.21247846792E+04  0.50400001928E-02 0. -1.
       -1    1    3    3    0  502 -0.24412570827E+03 -0.12039191057E+04  0.11810833487E+03  0.12340859586E+04  0.50400001928E-02 0.  1.
</event>
<event>
 5   0  0.1010551E-06  0.3410433E+04  0.7818609E-02  0.8135351E-01
        1   -1    0    0  501    0  0.00000000000E+00  0.00000000000E+00  0.14071424370E+04  0.14071424370E+04  0.50400001928E-02 0. -1.
       -1   -1    0    0    0  501  0.00000000000E+00  0.00000000000E+00 -0.20664308049E+04  0.20664308049E+04  0.50400001928E-02 0.  1.
    10030    2    1    2    0    0  0.00000000000E+00  0.00000000000E+00 -0.65928836794E+03  0.34735732419E+04  0.34104325114E+04 0.  0.
        2    1    3    3  502    0 -0.28811671919E+03 -0.12019713461E+04  0.86684583537E+03  0.15096913801E+04  0.25500000920E-02 0. -1.
       -2    1    3    3    0  502  0.28811671919E+03  0.12019713461E+04 -0.15261342033E+04  0.19638818618E+04  0.25500000920E-02 0.  1.
</event>
<event>
 5   0  0.2856440E-06  0.3089678E+04  0.7818609E-02  0.8218577E-01
        2   -1    0    0  501    0  0.00000000000E+00  0.00000000000E+00  0.19367075318E+04  0.19367075318E+04  0.25500000920E-02 0. -1.
       -2   -1    0    0    0  501  0.00000000000E+00  0.00000000000E+00 -0.12322597629E+04  0.12322597629E+04  0.25500000920E-02 0.  1.
    10030    2    1    2    0    0  0.00000000000E+00  0.00000000000E+00  0.70444776890E+03  0.31689672946E+04  0.30896775002E+04 0.  0.
        4    1    3    3  502    0 -0.14282741169E+04 -0.57622665789E+03  0.22862816829E+03  0.15570088524E+04  0.12699999809E+01 0.  1.
       -4    1    3    3    0  502  0.14282741169E+04  0.57622665789E+03  0.47581960061E+03  0.16119584422E+04  0.12699999809E+01 0. -1.
</event>
<event>
 5   0  0.2856440E-06  0.3416153E+04  0.7818609E-02  0.8133953E-01
        2   -1    0    0  501    0  0.00000000000E+00  0.00000000000E+00  0.10883217875E+04  0.10883217875E+04  0.25500000920E-02 0. -1.
       -2   -1    0    0    0  501  0.00000000000E+00  0.00000000000E+00 -0.26807559477E+04  0.26807559477E+04  0.25500000920E-02 0.  1.
    10030    2    1    2    0    0  0.00000000000E+00  0.00000000000E+00 -0.15924341602E+04  0.37690777352E+04  0.34161528683E+04 0.  0.
        4    1    3    3  502    0 -0.31887544188E+03 -0.11874633857E+03 -0.26429828250E+04  0.26647968152E+04  0.12699999809E+01 0.  1.
       -4    1    3    3    0  502  0.31887544188E+03  0.11874633857E+03  0.10505486647E+04  0.11042809200E+04  0.12699999809E+01 0. -1.
</event>
<event>
 5   0  0.9714317E-07  0.3384976E+04  0.7818609E-02  0.8141604E-01
        1   -1    0    0  501    0  0.00000000000E+00  0.00000000000E+00  0.29500401863E+04  0.29500401863E+04  0.50400001928E-02 0. -1.
       -1   -1    0    0    0  501  0.00000000000E+00  0.00000000000E+00 -0.97100910527E+03  0.97100910528E+03  0.50400001928E-02 0.  1.
    10030    2    1    2    0    0  0.00000000000E+00  0.00000000000E+00  0.19790310811E+04  0.39210492916E+04  0.33849761487E+04 0.  0.
        4    1    3    3  502    0 -0.12006865111E+04 -0.10495339929E+04  0.33286822830E+03  0.16291017680E+04  0.12699999809E+01 0. -1.
       -4    1    3    3    0  502  0.12006865111E+04  0.10495339929E+04  0.16461628528E+04  0.22919475236E+04  0.12699999809E+01 0.  1.
</event>
<event>
 5   0  0.1010551E-06  0.3358414E+04  0.7818609E-02  0.8148189E-01
        1   -1    0    0  501    0  0.00000000000E+00  0.00000000000E+00  0.21457484120E+04  0.21457484120E+04  0.50400001928E-02 0.  1.
       -1   -1    0    0    0  501  0.00000000000E+00  0.00000000000E+00 -0.13141034315E+04  0.13141034315E+04  0.50400001928E-02 0. -1.
    10030    2    1    2    0    0  0.00000000000E+00  0.00000000000E+00  0.83164498053E+03  0.34598518435E+04  0.33584135251E+04 0.  0.
        2    1    3    3  502    0 -0.22685105299E+03  0.10560416924E+04  0.17403662561E+04  0.20483066572E+04  0.25500000920E-02 0.  1.
       -2    1    3    3    0  502  0.22685105299E+03 -0.10560416924E+04 -0.90872127558E+03  0.14115451864E+04  0.25500000920E-02 0. -1.
</event>
<event>
 5   0  0.2906701E-06  0.3019045E+04  0.7818609E-02  0.8238313E-01
       -2   -1    0    0    0  501  0.00000000000E+00  0.00000000000E+00  0.14926337481E+04  0.14926337481E+04  0.25500000920E-02 0. -1.
        2   -1    0    0  501    0  0.00000000000E+00  0.00000000000E+00 -0.15266024907E+04  0.15266024907E+04  0.25500000920E-02 0.  1.
    10030    2    1    2    0    0  0.00000000000E+00  0.00000000000E+00 -0.33968742611E+02  0.30192362388E+04  0.30190451454E+04 0.  0.
        5    1    3    3  502    0 -0.12714495226E+04 -0.19680127550E+03 -0.80654158071E+03  0.15185012486E+04  0.46999998093E+01 0.  1.
       -5    1    3    3    0  502  0.12714495226E+04  0.19680127550E+03  0.77257283809E+03  0.15007349902E+04  0.46999998093E+01 0. -1.
</event>
<event>
 5   0  0.2906701E-06  0.3629045E+04  0.7818609E-02  0.8083871E-01
        2   -1    0    0  501    0  0.00000000000E+00  0.00000000000E+00  0.27237482811E+04  0.27237482811E+04  0.25500000920E-02 0. -1.
       -2   -1    0    0    0  501  0.00000000000E+00  0.00000000000E+00 -0.12088088588E+04  0.12088088588E+04  0.25500000920E-02 0.  1.
    10030    2    1    2    0    0  0.00000000000E+00  0.00000000000E+00  0.15149394223E+04  0.39325571399E+04  0.36290445307E+04 0.  0.
        5    1    3    3  502    0  0.10140618392E+04  0.23663396243E+03 -0.85279478893E+03  0.13459561983E+04  0.46999998093E+01 0.  1.
       -5    1    3    3    0  502 -0.10140618392E+04 -0.23663396243E+03  0.23677342113E+04  0.25866009416E+04  0.46999998093E+01 0. -1.
</event>
<event>
 5   0  0.1003191E-06  0.3226544E+04  0.7818609E-02  0.8181842E-01
        1   -1    0    0  501    0  0.00000000000E+00  0.00000000000E+00  0.19642622076E+04  0.19642622076E+04  0.50400001928E-02 0. -1.
       -1   -1    0    0    0  501  0.00000000000E+00  0.00000000000E+00 -0.13249993187E+04  0.13249993187E+04  0.50400001928E-02 0.  1.
    10030    2    1    2    0    0  0.00000000000E+00  0.00000000000E+00  0.63926288886E+03  0.32892615263E+04  0.32265437154E+04 0.  0.
        5    1    3    3  502    0  0.17549118762E+03 -0.11045149262E+04  0.15049331190E+04  0.18749923098E+04  0.46999998093E+01 0. -1.
       -5    1    3    3    0  502 -0.17549118762E+03  0.11045149262E+04 -0.86567023016E+03  0.14142692164E+04  0.46999998093E+01 0.  1.
</event>
<event>
 5   0  0.2664083E-06  0.3448557E+04  0.7818609E-02  0.8126091E-01
        2   -1    0    0  501    0  0.00000000000E+00  0.00000000000E+00  0.19416970806E+04  0.19416970806E+04  0.25500000920E-02 0. -1.
       -2   -1    0    0    0  501  0.00000000000E+00  0.00000000000E+00 -0.15312050171E+04  0.15312050171E+04  0.25500000920E-02 0.  1.
    10030    2    1    2    0    0  0.00000000000E+00  0.00000000000E+00  0.41049206345E+03  0.34729020977E+04  0.34485569803E+04 0.  0.
        2    1    3    3  502    0 -0.13306949175E+04  0.10033271077E+04 -0.24028199225E+03  0.16837902733E+04  0.25500000920E-02 0.  1.
       -2    1    3    3    0  502  0.13306949175E+04 -0.10033271077E+04  0.65077405571E+03  0.17891118244E+04  0.25500000920E-02 0. -1.
</event>
<event>
 5   0  0.9714317E-07  0.3366310E+04  0.7818609E-02  0.8146225E-01
       -1   -1    0    0    0  501  0.00000000000E+00  0.00000000000E+00  0.15736001038E+04  0.15736001038E+04  0.50400001928E-02 0. -1.
        1   -1    0    0  501    0  0.00000000000E+00  0.00000000000E+00 -0.18003374201E+04  0.18003374202E+04  0.50400001928E-02 0.  1.
    10030    2    1    2    0    0  0.00000000000E+00  0.00000000000E+00 -0.22673731634E+03  0.33739375240E+04  0.33663102360E+04 0.  0.
        4    1    3    3  502    0  0.13652414617E+04 -0.98072766408E+03 -0.27743606391E+02  0.16812145373E+04  0.12699999809E+01 0. -1.
       -4    1    3    3    0  502 -0.13652414617E+04  0.98072766408E+03 -0.19899370995E+03  0.16927229866E+04  0.12699999809E+01 0.  1.
</event>
<event>
 5   0  0.2848685E-06  0.3376380E+04  0.7818609E-02  0.8143728E-01
       -2   -1    0    0    0  501  0.00000000000E+00  0.00000000000E+00  0.20200576306E+04  0.20200576306E+04  0.25500000920E-02 0. -1.
        2   -1    0    0  501    0  0.00000000000E+00  0.00000000000E+00 -0.14108432947E+04  0.14108432947E+04  0.25500000920E-02 0.  1.
    10030    2    1    2    0    0  0.00000000000E+00  0.00000000000E+00  0.60921433595E+03  0.34309009253E+04  0.33763795776E+04 0.  0.
        3    1    3    3  502    0  0.12356775064E+04 -0.58498116441E+03  0.13109952658E+04  0.18941516464E+04  0.10100000352E+00 0. -1.
       -3    1    3    3    0  502 -0.12356775064E+04  0.58498116441E+03 -0.70178092986E+03  0.15367492789E+04  0.10100000352E+00 0.  1.
</event>
<event>
 5   0  0.1010551E-06  0.2321285E+04  0.7818609E-02  0.8469576E-01
       -1   -1    0    0    0  501  0.00000000000E+00  0.00000000000E+00  0.67126470751E+03  0.67126470753E+03  0.50400001928E-02 0. -1.
        1   -1    0    0  501    0  0.00000000000E+00  0.00000000000E+00 -0.20067951766E+04  0.20067951766E+04  0.50400001928E-02 0.  1.
    10030    2    1    2    0    0  0.00000000000E+00  0.00000000000E+00 -0.13355304691E+04  0.26780598842E+04  0.23212847971E+04 0.  0.
        2    1    3    3  502    0  0.79028094580E+03 -0.80154344072E+03 -0.99423284813E+03  0.15018371473E+04  0.25500000920E-02 0.  1.
       -2    1    3    3    0  502 -0.79028094580E+03  0.80154344072E+03 -0.34129762097E+03  0.11762227369E+04  0.25500000920E-02 0. -1.
</event>
<event>
 5   0  0.2664083E-06  0.3398445E+04  0.7818609E-02  0.8138288E-01
        2   -1    0    0  501    0  0.00000000000E+00  0.00000000000E+00  0.27022841722E+04  0.27022841722E+04  0.25500000920E-02 0. -1.
       -2   -1    0    0    0  501  0.00000000000E+00  0.00000000000E+00 -0.10684872935E+04  0.10684872935E+04  0.25500000920E-02 0.  1.
    10030    2    1    2    0    0  0.00000000000E+00  0.00000000000E+00  0.16337968786E+04  0.37707714657E+04  0.33984445274E+04 0.  0.
        2    1    3    3  502    0 -0.38784077126E+03  0.82895860324E+03 -0.77165526407E+03  0.11970984405E+04  0.25500000920E-02 0.  1.
       -2    1    3    3    0  502  0.38784077126E+03 -0.82895860324E+03  0.24054521427E+04  0.25736730252E+04  0.25500000920E-02 0. -1.
</event>
<event>
 5   0  0.9232963E-07  0.2799229E+04  0.7818609E-02  0.8303508E-01
        1   -1    0    0  501    0  0.00000000000E+00  0.00000000000E+00  0.17907313434E+04  0.17907313434E+04  0.50400001928E-02 0. -1.
       -1   -1    0    0    0  501  0.00000000000E+00  0.00000000000E+00 -0.10939218436E+04  0.10939218436E+04  0.50400001928E-02 0.  1.
    10030    2    1    2    0    0  0.00000000000E+00  0.00000000000E+00  0.69680949988E+03  0.28846531870E+04  0.27992285598E+04 0.  0.
        3    1    3    3  502    0  0.19478213417E+03  0.10715884846E+02  0.17766529714E+04  0.17873306076E+04  0.10100000352E+00 0. -1.
       -3    1    3    3    0  502 -0.19478213417E+03 -0.10715884846E+02 -0.10798434715E+04  0.10973225794E+04  0.10100000352E+00 0.  1.
</event>
<event>
 5   0  0.2664083E-06  0.3007524E+04  0.7818609E-02  0.8241586E-01
        2   -1    0    0  501    0  0.00000000000E+00  0.00000000000E+00  0.13113539412E+04  0.13113539412E+04  0.25500000920E-02 0. -1.
       -2   -1    0    0    0  501  0.00000000000E+00  0.00000000000E+00 -0.17244008172E+04  0.17244008172E+04  0.25500000920E-02 0.  1.
    10030    2    1    2    0    0  0.00000000000E+00  0.00000000000E+00 -0.41304687600E+03  0.30357547584E+04  0.30075237707E+04 0.  0.
        2    1    3    3  502    0  0.50639381089E+03  0.14153952831E+04 -0.16715335739E+03  0.15125206590E+04  0.25500000920E-02 0. -1.
       -2    1    3    3    0  502 -0.50639381089E+03 -0.14153952831E+04 -0.24589351861E+03  0.15232340994E+04  0.25500000920E-02 0.  1.
</event>
<event>
 5   0  0.1003191E-06  0.3377036E+04  0.7818609E-02  0.8143566E-01
        1   -1    0    0  501    0  0.00000000000E+00  0.00000000000E+00  0.15035446602E+04  0.15035446602E+04  0.50400001928E-02 0.  1.
       -1   -1    0    0    0  501  0.00000000000E+00  0.00000000000E+00 -0.18962474029E+04  0.18962474029E+04  0.50400001928E-02 0. -1.
    10030    2    1    2    0    0  0.00000000000E+00  0.00000000000E+00 -0.39270274271E+03  0.33997920630E+04  0.33770357753E+04 0.  0.
        5    1    3    3  502    0  0.34719106641E+02  0.95453900999E+03  0.12054106445E+04  0.15379814856E+04  0.46999998093E+01 0.  1.
       -5    1    3    3    0  502 -0.34719106641E+02 -0.95453900999E+03 -0.15981133872E+04  0.18618105775E+04  0.46999998093E+01 0. -1.
</event>
<event>
 5   0  0.9714317E-07  0.3370969E+04  0.7818609E-02  0.8145069E-01
       -1   -1    0    0    0  501  0.00000000000E+00  0.00000000000E+00  0.96758085577E+03  0.96758085578E+03  0.50400001928E-02 0. -1.
        1   -1    0    0  501    0  0.00000000000E+00  0.00000000000E+00 -0.29360414344E+04  0.29360414344E+04  0.50400001928E-02 0.  1.
    10030    2    1    2    0    0  0.00000000000E+00  0.00000000000E+00 -0.19684605786E+04  0.39036222902E+04  0.33709686938E+04 0.  0.
        4    1    3    3  502    0 -0.58289404241E+03 -0.95254327383E+02  0.84382182281E+03  0.10299882199E+04  0.12699999809E+01 0. -1.
       -4    1    3    3    0  502  0.58289404241E+03  0.95254327383E+02 -0.28122824014E+04  0.28736340703E+04  0.12699999809E+01 0.  1.
</event>
<event>
 5   0  0.2848685E-06  0.2958578E+04  0.7818609E-02  0.8255659E-01
       -2   -1    0    0    0  501  0.00000000000E+00  0.00000000000E+00  0.24822257445E+04  0.24822257445E+04  0.25500000920E-02 0. -1.
        2   -1    0    0  501    0  0.00000000000E+00  0.00000000000E+00 -0.88158636038E+03  0.88158636038E+03  0.25500000920E-02 0.  1.
    10030    2    1    2    0    0  0.00000000000E+00  0.00000000000E+00  0.16006393842E+04  0.33638121049E+04  0.29585782800E+04 0.  0.
        3    1    3    3  502    0  0.64771998453E+03 -0.62170593367E+02 -0.71013424048E+03  0.96317029166E+03  0.10100000352E+00 0.  1.
       -3    1    3    3    0  502 -0.64771998453E+03  0.62170593367E+02  0.23107736246E+04  0.24006418133E+04  0.10100000352E+00 0. -1.
</event>
<event>
 5   0  0.9232963E-07  0.2218384E+04  0.7818609E-02  0.8510815E-01
       -1   -1    0    0    0  501  0.00000000000E+00  0.00000000000E+00  0.12170697840E+04  0.12170697840E+04  0.50400001928E-02 0.  1.
        1   -1    0    0  501    0  0.00000000000E+00  0.00000000000E+00 -0.10108761606E+04  0.10108761606E+04  0.50400001928E-02 0. -1.
    10030    2    1    2    0    0  0.00000000000E+00  0.00000000000E+00  0.20619362347E+03  0.22279459446E+04  0.22183839437E+04 0.  0.
        3    1    3    3  502    0  0.13572585250E+03 -0.65215867045E+03 -0.78761627901E+03  0.10315385847E+04  0.10100000352E+00 0. -1.
       -3    1    3    3    0  502 -0.13572585250E+03  0.65215867045E+03  0.99380990248E+03  0.11964073600E+04  0.10100000352E+00 0.  1.
</event>
<event>
 5   0  0.1010551E-06  0.3451167E+04  0.7818609E-02  0.8125461E-01
       -1   -1    0    0    0  501  0.00000000000E+00  0.00000000000E+00  0.25551637136E+04  0.25551637136E+04  0.50400001928E-02 0.  1.
        1   -1    0    0  501    0  0.00000000000E+00  0.00000000000E+00 -0.11653417732E+04  0.11653417732E+04  0.50400001928E-02 0. -1.
    10030    2    1    2    0    0  0.00000000000E+00  0.00000000000E+00  0.13898219404E+04  0.37205054868E+04  0.34511673462E+04 0.  0.
        2    1    3    3  502    0  0.14110129838E+04 -0.37967757732E+03  0.16844380106E+04  0.22298977812E+04  0.25500000920E-02 0.  1.
       -2    1    3    3    0  502 -0.14110129838E+04  0.37967757732E+03 -0.29461607025E+03  0.14906077056E+04  0.25500000920E-02 0. -1.
</event>
<event>
 5   0  0.1010551E-06  0.3425783E+04  0.7818609E-02  0.8131607E-01
       -1   -1    0    0    0  501  0.00000000000E+00  0.00000000000E+00  0.16575303484E+04  0.16575303484E+04  0.50400001928E-02 0.  1.
        1   -1    0    0  501    0  0.00000000000E+00  0.00000000000E+00 -0.17701018523E+04  0.17701018523E+04  0.50400001928E-02 0. -1.
    10030    2    1    2    0    0  0.00000000000E+00  0.00000000000E+00 -0.11257150393E+03  0.34276322007E+04  0.34257831454E+04 0.  0.
        2    1    3    3  502    0 -0.69491338680E+02 -0.82128007862E+03  0.14460797435E+04  0.16644748836E+04  0.25500000920E-02 0.  1.
       -2    1    3    3    0  502  0.69491338680E+02  0.82128007862E+03 -0.15586512474E+04  0.17631573171E+04  0.25500000920E-02 0. -1.
</event>
<event>
 5   0  0.2856440E-06  0.3419586E+04  0.7818609E-02  0.8133116E-01
        2   -1    0    0  501    0  0.00000000000E+00  0.00000000000E+00  0.22964045595E+04  0.22964045595E+04  0.25500000920E-02 0. -1.
       -2   -1    0    0    0  501  0.00000000000E+00  0.00000000000E+00 -0.12730299607E+04  0.12730299607E+04  0.25500000920E-02 0.  1.
    10030    2    1    2    0    0  0.00000000000E+00  0.00000000000E+00  0.10233745988E+04  0.35694345202E+04  0.34195858264E+04 0.  0.
        4    1    3    3  502    0 -0.11249141685E+04 -0.12337658466E+04  0.12705651475E+03  0.16744417045E+04  0.12699999809E+01 0. -1.
       -4    1    3    3    0  502  0.11249141685E+04  0.12337658466E+04  0.89631808410E+03  0.18949928157E+04  0.12699999809E+01 0.  1.
</event>
<event>
 5   0  0.1010855E-06  0.2284119E+04  0.7818609E-02  0.8484209E-01
       -1   -1    0    0    0  501  0.00000000000E+00  0.00000000000E+00  0.10695425514E+04  0.10695425514E+04  0.50400001928E-02 0. -1.
        1   -1    0    0  501    0  0.00000000000E+00  0.00000000000E+00 -0.12194936748E+04  0.12194936748E+04  0.50400001928E-02 0.  1.
    10030    2    1    2    0    0  0.00000000000E+00  0.00000000000E+00 -0.14995112342E+03  0.22890362262E+04  0.22841194158E+04 0.  0.
        1    1    3    3  502    0 -0.11327456456E+04  0.16731499498E+02 -0.21988189268E+03  0.11540106964E+04  0.50400001928E-02 0. -1.
       -1    1    3    3    0  502  0.11327456456E+04 -0.16731499498E+02  0.69930769262E+02  0.11350255298E+04  0.50400001928E-02 0.  1.
</event>
<event>
 5   0  0.1010855E-06  0.2179206E+04  0.7818609E-02  0.8527133E-01
        1   -1    0    0  501    0  0.00000000000E+00  0.00000000000E+00  0.13027992229E+04  0.13027992229E+04  0.50400001928E-02 0.  1.
       -1   -1    0    0    0  501  0.00000000000E+00  0.00000000000E+00 -0.91129528703E+03  0.91129528704E+03  0.50400001928E-02 0. -1.
    10030    2    1    2    0    0  0.00000000000E+00  0.00000000000E+00  0.39150393588E+03  0.22140945100E+04  0.21792060864E+04 0.  0.
        1    1    3    3  502    0 -0.67887251913E+03 -0.10285301550E+02 -0.67010119058E+03  0.95394407084E+03  0.50400001928E-02 0. -1.
       -1    1    3    3    0  502  0.67887251913E+03  0.10285301550E+02  0.10616051265E+04  0.12601504391E+04  0.50400001928E-02 0.  1.
</event>
<event>
 5   0  0.2906701E-06  0.3383339E+04  0.7818609E-02  0.8142008E-01
       -2   -1    0    0    0  501  0.00000000000E+00  0.00000000000E+00  0.19072402144E+04  0.19072402144E+04  0.25500000920E-02 0. -1.
        2   -1    0    0  501    0  0.00000000000E+00  0.00000000000E+00 -0.15004638218E+04  0.15004638218E+04  0.25500000920E-02 0.  1.
    10030    2    1    2    0    0  0.00000000000E+00  0.00000000000E+00  0.40677639266E+03  0.34077040362E+04  0.33833385530E+04 0.  0.
        5    1    3    3  502    0  0.74070798359E+03  0.14613596529E+04  0.62773276418E+03  0.17545058750E+04  0.46999998093E+01 0. -1.
       -5    1    3    3    0  502 -0.74070798359E+03 -0.14613596529E+04 -0.22095637152E+03  0.16531981612E+04  0.46999998093E+01 0.  1.
</event>
<event>
 5   0  0.2767014E-06  0.3420302E+04  0.7818609E-02  0.8132941E-01
        2   -1    0    0  501    0  0.00000000000E+00  0.00000000000E+00  0.12560176566E+04  0.12560176566E+04  0.25500000920E-02 0.  1.
       -2   -1    0    0    0  501  0.00000000000E+00  0.00000000000E+00 -0.23284837978E+04  0.23284837978E+04  0.25500000920E-02 0. -1.
    10030    2    1    2    0    0  0.00000000000E+00  0.00000000000E+00 -0.10724661412E+04  0.35845014543E+04  0.34203021873E+04 0.  0.
        1    1    3    3  502    0  0.26901952787E+03  0.16883880363E+04 -0.57803654828E+03  0.18047581330E+04  0.50400001928E-02 0. -1.
       -1    1    3    3    0  502 -0.26901952787E+03 -0.16883880363E+04 -0.49442959293E+03  0.17797433213E+04  0.50400001928E-02 0.  1.
</event>
<event>
 5   0  0.2767014E-06  0.3343616E+04  0.7818609E-02  0.8151885E-01
        2   -1    0    0  501    0  0.00000000000E+00  0.00000000000E+00  0.14897814303E+04  0.14897814303E+04  0.25500000920E-02 0.  1.
       -2   -1    0    0    0  501  0.00000000000E+00  0.00000000000E+00 -0.18760753600E+04  0.18760753600E+04  0.25500000920E-02 0. -1.
    10030    2    1    2    0    0  0.00000000000E+00  0.00000000000E+00 -0.38629392978E+03  0.33658567903E+04  0.33436161461E+04 0.  0.
        1    1    3    3  502    0 -0.67910654924E+03 -0.77387499038E+03 -0.15190543594E+04  0.18351006383E+04  0.50400001928E-02 0. -1.
       -1    1    3    3    0  502  0.67910654924E+03  0.77387499038E+03  0.11327604296E+04  0.15307561520E+04  0.50400001928E-02 0.  1.
</event>
<event>
 5   0  0.9232963E-07  0.3039594E+04  0.7818609E-02  0.8232514E-01
       -1   -1    0    0    0  501  0.00000000000E+00  0.00000000000E+00  0.83813297299E+03  0.83813297301E+03  0.50400001928E-02 0.  1.
        1   -1    0    0  501    0  0.00000000000E+00  0.00000000000E+00 -0.27558668285E+04  0.27558668285E+04  0.50400001928E-02 0. -1.
    10030    2    1    2    0    0  0.00000000000E+00  0.00000000000E+00 -0.19177338555E+04  0.35939998015E+04  0.30395939585E+04 0.  0.
        3    1    3    3  502    0  0.10667292173E+04  0.38853434042E+03 -0.21535611889E+04  0.24344806348E+04  0.10100000352E+00 0. -1.
       -3    1    3    3    0  502 -0.10667292173E+04 -0.38853434042E+03  0.23582733334E+03  0.11595191667E+04  0.10100000352E+00 0.  1.
</event>
<event>
 5   0  0.2906701E-06  0.3381756E+04  0.7818609E-02  0.8142398E-01
        2   -1    0    0  501    0  0.00000000000E+00  0.00000000000E+00  0.17126045945E+04  0.17126045945E+04  0.25500000920E-02 0. -1.
       -2   -1    0    0    0  501  0.00000000000E+00  0.00000000000E+00 -0.16694273742E+04  0.16694273742E+04  0.25500000920E-02 0.  1.
    10030    2    1    2    0    0  0.00000000000E+00  0.00000000000E+00  0.43177220247E+02  0.33820319687E+04  0.33817563433E+04 0.  0.
        5    1    3    3  502    0  0.38701071952E+03 -0.11831056771E+04  0.11660290991E+04  0.17056266562E+04  0.46999998093E+01 0. -1.
       -5    1    3    3    0  502 -0.38701071952E+03  0.11831056771E+04 -0.11228518788E+04  0.16764053126E+04  0.46999998093E+01 0.  1.
</event>
<event>
 5   0  0.2664083E-06  0.2333736E+04  0.7818609E-02  0.8464737E-01
        2   -1    0    0  501    0  0.00000000000E+00  0.00000000000E+00  0.14496649941E+04  0.14496649941E+04  0.25500000920E-02 0.  1.
       -2   -1    0    0    0  501  0.00000000000E+00  0.00000000000E+00 -0.93923870056E+03  0.93923870056E+03  0.25500000920E-02 0. -1.
    10030    2    1    2    0    0  0.00000000000E+00  0.00000000000E+00  0.51042629351E+03  0.23889036946E+04  0.23337364592E+04 0.  0.
        2    1    3    3  502    0 -0.11249854744E+04  0.27193033320E+03  0.10323449376E+03  0.11619792530E+04  0.25500000920E-02 0.  1.
       -2    1    3    3    0  502  0.11249854744E+04 -0.27193033320E+03  0.40719179975E+03  0.12269244416E+04  0.25500000920E-02 0. -1.
</event>
<event>
 5   0  0.1003191E-06  0.3457129E+04  0.7818609E-02  0.8124026E-01
        1   -1    0    0  501    0  0.00000000000E+00  0.00000000000E+00  0.28966997066E+04  0.28966997066E+04  0.50400001928E-02 0.  1.
       -1   -1    0    0    0  501  0.00000000000E+00  0.00000000000E+00 -0.10314960825E+04  0.10314960825E+04  0.50400001928E-02 0. -1.
    10030    2    1    2    0    0  0.00000000000E+00  0.00000000000E+00  0.18652036241E+04  0.39281957890E+04  0.34571285191E+04 0.  0.
        5    1    3    3  502    0  0.53697290513E+03  0.10243995468E+04  0.23922325295E+04  0.26571663285E+04  0.46999998093E+01 0.  1.
       -5    1    3    3    0  502 -0.53697290513E+03 -0.10243995468E+04 -0.52702890538E+03  0.12710294605E+04  0.46999998093E+01 0. -1.
</event>
<event>
 5   0  0.2767014E-06  0.3328604E+04  0.7818609E-02  0.8155655E-01
       -2   -1    0    0    0  501  0.00000000000E+00  0.00000000000E+00  0.15136779842E+04  0.15136779842E+04  0.25500000920E-02 0. -1.
        2   -1    0    0  501    0  0.00000000000E+00  0.00000000000E+00 -0.18299146194E+04  0.18299146195E+04  0.25500000920E-02 0.  1.
    10030    2    1    2    0    0  0.00000000000E+00  0.00000000000E+00 -0.31623663529E+03  0.33435926036E+04  0.33286041954E+04 0.  0.
        1    1    3    3  502    0 -0.12218353766E+04  0.38579109901E+03  0.90882503670E+03  0.15708849120E+04  0.50400001928E-02 0. -1.
       -1    1    3    3    0  502  0.12218353766E+04 -0.38579109901E+03 -0.12250616720E+04  0.17727076916E+04  0.50400001928E-02 0.  1.
</event>
<event>
 5   0  0.2856440E-06  0.3343590E+04  0.7818609E-02  0.8151892E-01
        2   -1    0    0  501    0  0.00000000000E+00  0.00000000000E+00  0.21030485767E+04  0.21030485767E+04  0.25500000920E-02 0.  1.
       -2   -1    0    0    0  501  0.00000000000E+00  0.00000000000E+00 -0.13289746480E+04  0.13289746480E+04  0.25500000920E-02 0. -1.
    10030    2    1    2    0    0  0.00000000000E+00  0.00000000000E+00  0.77407392863E+03  0.34320232247E+04  0.33435898325E+04 0.  0.
        4    1    3    3  502    0  0.70176108670E+02 -0.16646392172E+04  0.52833021719E+03  0.17478795270E+04  0.12699999809E+01 0.  1.
       -4    1    3    3    0  502 -0.70176108670E+02  0.16646392172E+04  0.24574371144E+03  0.16841436977E+04  0.12699999809E+01 0. -1.
</event>
<event>
 5   0  0.2767014E-06  0.3362326E+04  0.7818609E-02  0.8147215E-01
       -2   -1    0    0    0  501  0.00000000000E+00  0.00000000000E+00  0.17615047049E+04  0.17615047049E+04  0.25500000920E-02 0. -1.
        2   -1    0    0  501    0  0.00000000000E+00  0.00000000000E+00 -0.16044853412E+04  0.16044853412E+04  0.25500000920E-02 0.  1.
    10030    2    1    2    0    0  0.00000000000E+00  0.00000000000E+00  0.15701936376E+03  0.33659900461E+04  0.33623256698E+04 0.  0.
        1    1    3    3  502    0 -0.95019515366E+03 -0.54423720203E+03 -0.11985151018E+04  0.16234233617E+04  0.50400001928E-02 0.  1.
       -1    1    3    3    0  502  0.95019515366E+03  0.54423720203E+03  0.13555344656E+04  0.17425666844E+04  0.50400001928E-02 0. -1.
</event>
<event>
 5   0  0.2664083E-06  0.3398191E+04  0.7818609E-02  0.8138351E-01
        2   -1    0    0  501    0  0.00000000000E+00  0.00000000000E+00  0.12414481961E+04  0.12414481961E+04  0.25500000920E-02 0. -1.
       -2   -1    0    0    0  501  0.00000000000E+00  0.00000000000E+00 -0.23254492206E+04  0.23254492206E+04  0.25500000920E-02 0.  1.
    10030    2    1    2    0    0  0.00000000000E+00  0.00000000000E+00 -0.10840010245E+04  0.35668974167E+04  0.33981905421E+04 0.  0.
        2    1    3    3  502    0  0.35606461863E+03 -0.12660816341E+04 -0.16711289782E+04  0.21265974651E+04  0.25500000920E-02 0.  1.
       -2    1    3    3    0  502 -0.35606461863E+03  0.12660816341E+04  0.58712795369E+03  0.14402999517E+04  0.25500000920E-02 0. -1.
</event>
<event>
 5   0  0.1010551E-06  0.3285507E+04  0.7818609E-02  0.8166593E-01
        1   -1    0    0  501    0  0.00000000000E+00  0.00000000000E+00  0.15680087845E+04  0.15680087845E+04  0.50400001928E-02 0.  1.
       -1   -1    0    0    0  501  0.00000000000E+00  0.00000000000E+00 -0.17210615361E+04  0.17210615361E+04  0.50400001928E-02 0. -1.
    10030    2    1    2    0    0  0.00000000000E+00  0.00000000000E+00 -0.15305275165E+03  0.32890703206E+04  0.32855073320E+04 0.  0.
        2    1    3    3  502    0 -0.12288111311E+04 -0.86958256735E+03  0.58182574047E+03  0.16138995724E+04  0.25500000920E-02 0.  1.
       -2    1    3    3    0  502  0.12288111311E+04  0.86958256735E+03 -0.73487849212E+03  0.16751707482E+04  0.25500000920E-02 0. -1.
</event>
<event>
 5   0  0.1010551E-06  0.3375317E+04  0.7818609E-02  0.8143991E-01
       -1   -1    0    0    0  501  0.00000000000E+00  0.00000000000E+00  0.14719794962E+04  0.14719794962E+04  0.50400001928E-02 0.  1.
        1   -1    0    0  501    0  0.00000000000E+00  0.00000000000E+00 -0.19349393545E+04  0.19349393545E+04  0.50400001928E-02 0. -1.
    10030    2    1    2    0    0  0.00000000000E+00  0.00000000000E+00 -0.46295985833E+03  0.34069188508E+04  0.33753169074E+04 0.  0.
        2    1    3    3  502    0 -0.79242601905E+03  0.50334401237E+03 -0.16470716975E+04  0.18958215547E+04  0.25500000920E-02 0. -1.
       -2    1    3    3    0  502  0.79242601905E+03 -0.50334401237E+03  0.11841118392E+04  0.15110972961E+04  0.25500000920E-02 0.  1.
</event>
<event>
 5   0  0.2767014E-06  0.3367027E+04  0.7818609E-02  0.8146047E-01
       -2   -1    0    0    0  501  0.00000000000E+00  0.00000000000E+00  0.25737932840E+04  0.25737932840E+04  0.25500000920E-02 0.  1.
        2   -1    0    0  501    0  0.00000000000E+00  0.00000000000E+00 -0.11011832457E+04  0.11011832457E+04  0.25500000920E-02 0. -1.
    10030    2    1    2    0    0  0.00000000000E+00  0.00000000000E+00  0.14726100383E+04  0.36749765297E+04  0.33670272005E+04 0.  0.
        1    1    3    3  502    0  0.98261738993E+02 -0.14782261025E+04 -0.13646083409E+03  0.14877598391E+04  0.50400001928E-02 0. -1.
       -1    1    3    3    0  502 -0.98261738993E+02  0.14782261025E+04  0.16090708724E+04  0.21872166906E+04  0.50400001928E-02 0.  1.
</event>
<event>
 5   0  0.9232963E-07  0.3311102E+04  0.7818609E-02  0.8160076E-01
        1   -1    0    0  501    0  0.00000000000E+00  0.00000000000E+00  0.18723900138E+04  0.18723900138E+04  0.50400001928E-02 0. -1.
       -1   -1    0    0    0  501  0.00000000000E+00  0.00000000000E+00 -0.14638241603E+04  0.14638241603E+04  0.50400001928E-02 0.  1.
    10030    2    1    2    0    0  0.00000000000E+00  0.00000000000E+00  0.40856585349E+03  0.33362141741E+04  0.33111023782E+04 0.  0.
        3    1    3    3  502    0  0.15118151733E+04  0.49927038546E+03  0.66159037647E+03  0.17241107483E+04  0.10100000352E+00 0. -1.
       -3    1    3    3    0  502 -0.15118151733E+04 -0.49927038546E+03 -0.25302452298E+03  0.16121034258E+04  0.10100000352E+00 0.  1.
</event>
<event>
 5   0  0.1003191E-06  0.3427946E+04  0.7818609E-02  0.8131081E-01
       -1   -1    0    0    0  501  0.00000000000E+00  0.00000000000E+00  0.18121452841E+04  0.18121452841E+04  0.50400001928E-02 0. -1.
        1   -1    0    0  501    0  0.00000000000E+00  0.00000000000E+00 -0.16211191879E+04  0.16211191879E+04  0.50400001928E-02 0.  1.
    10030    2    1    2    0    0  0.00000000000E+00  0.00000000000E+00  0.19102609623E+03  0.34332644720E+04  0.34279460272E+04 0.  0.
        5    1    3    3  502    0 -0.10318036108E+04 -0.11755702540E+04  0.79738364957E+03  0.17556841652E+04  0.46999998093E+01 0. -1.
       -5    1    3    3    0  502  0.10318036108E+04  0.11755702540E+04 -0.60635755334E+03  0.16775803068E+04  0.46999998093E+01 0.  1.
</event>
<event>
 5   0  0.2767014E-06  0.3416988E+04  0.7818609E-02  0.8133749E-01
       -2   -1    0    0    0  501  0.00000000000E+00  0.00000000000E+00  0.14339484572E+04  0.14339484572E+04  0.25500000920E-02 0.  1.
        2   -1    0    0  501    0  0.00000000000E+00  0.00000000000E+00 -0.20356041835E+04  0.20356041835E+04  0.25500000920E-02 0. -1.
    10030    2    1    2    0    0  0.00000000000E+00  0.00000000000E+00 -0.60165572625E+03  0.34695526407E+04  0.34169878422E+04 0.  0.
        1    1    3    3  502    0 -0.90404680155E+03 -0.94846396253E+03  0.81242643260E+03  0.15417266995E+04  0.50400001928E-02 0.  1.
       -1    1    3    3    0  502  0.90404680155E+03  0.94846396253E+03 -0.14140821589E+04  0.19278259412E+04  0.50400001928E-02 0. -1.
</event>
<event>
 5   0  0.9714317E-07  0.3340043E+04  0.7818609E-02  0.8152781E-01
       -1   -1    0    0    0  501  0.00000000000E+00  0.00000000000E+00  0.11288551882E+04  0.11288551882E+04  0.50400001928E-02 0.  1.
        1   -1    0    0  501    0  0.00000000000E+00  0.00000000000E+00 -0.24706193183E+04  0.24706193183E+04  0.50400001928E-02 0. -1.
    10030    2    1    2    0    0  0.00000000000E+00  0.00000000000E+00 -0.13417641301E+04  0.35994745066E+04  0.33400427755E+04 0.  0.
        4    1    3    3  502    0 -0.76555823132E+03 -0.14817185050E+04 -0.57817279707E+03  0.17651783281E+04  0.12699999809E+01 0. -1.
       -4    1    3    3    0  502  0.76555823132E+03  0.14817185050E+04 -0.76359133305E+03  0.18342961785E+04  0.12699999809E+01 0.  1.
</event>
<event>
 5   0  0.2664083E-06  0.3346962E+04  0.7818609E-02  0.8151048E-01
       -2   -1    0    0    0  501  0.00000000000E+00  0.00000000000E+00  0.12860205392E+04  0.12860205392E+04  0.25500000920E-02 0.  1.
        2   -1    0    0  501    0  0.00000000000E+00  0.00000000000E+00 -0.21776785836E+04  0.21776785836E+04  0.25500000920E-02 0. -1.
    10030    2    1    2    0    0  0.00000000000E+00  0.00000000000E+00 -0.89165804440E+03  0.34636991228E+04  0.33469624355E+04 0.  0.
        2    1    3    3  502    0  0.98217027592E+02 -0.80015556041E+03 -0.19634858248E+04  0.21225390666E+04  0.25500000920E-02 0. -1.
       -2    1    3    3    0  502 -0.98217027592E+02  0.80015556041E+03  0.10718277804E+04  0.13411600561E+04  0.25500000920E-02 0.  1.
</event>
<event>
 5   0  0.1010855E-06  0.3394777E+04  0.7818609E-02  0.8139190E-01
       -1   -1    0    0    0  501  0.00000000000E+00  0.00000000000E+00  0.13227517232E+04  0.13227517232E+04  0.50400001928E-02 0. -1.
        1   -1    0    0  501    0  0.00000000000E+00  0.00000000000E+00 -0.21781313350E+04  0.21781313350E+04  0.50400001928E-02 0.  1.
    10030    2    1    2    0    0  0.00000000000E+00  0.00000000000E+00 -0.85537961188E+03  0.35008830582E+04  0.33947765621E+04 0.  0.
        1    1    3    3  502    0  0.29667323890E+03  0.34903311046E+03 -0.21131820315E+04  0.21622621075E+04  0.50400001928E-02 0.  1.
       -1    1    3    3    0  502 -0.29667323890E+03 -0.34903311046E+03  0.12578024197E+04  0.13386209508E+04  0.50400001928E-02 0. -1.
</event>
<event>
 5   0  0.1010855E-06  0.2433606E+04  0.7818609E-02  0.8427028E-01
       -1   -1    0    0    0  501  0.00000000000E+00  0.00000000000E+00  0.98852862384E+03  0.98852862385E+03  0.50400001928E-02 0. -1.
        1   -1    0    0  501    0  0.00000000000E+00  0.00000000000E+00 -0.14977909289E+04  0.14977909289E+04  0.50400001928E-02 0.  1.
    10030    2    1    2    0    0  0.00000000000E+00  0.00000000000E+00 -0.50926230504E+03  0.24863195527E+04  0.24336057246E+04 0.  0.
        1    1    3    3  502    0  0.12071555863E+04 -0.14541889306E+03 -0.20629955931E+03  0.12332602208E+04  0.50400001928E-02 0.  1.
       -1    1    3    3    0  502 -0.12071555863E+04  0.14541889306E+03 -0.30296274572E+03  0.12530593319E+04  0.50400001928E-02 0. -1.
</event>
<event>
 5   0  0.2906701E-06  0.2338895E+04  0.7818609E-02  0.8462742E-01
        2   -1    0    0  501    0  0.00000000000E+00  0.00000000000E+00  0.96568282316E+03  0.96568282316E+03  0.25500000920E-02 0.  1.
       -2   -1    0    0    0  501  0.00000000000E+00  0.00000000000E+00 -0.14162071923E+04  0.14162071923E+04  0.25500000920E-02 0. -1.
    10030    2    1    2    0    0  0.00000000000E+00  0.00000000000E+00 -0.45052436910E+03  0.23818900154E+04  0.23388945762E+04 0.  0.
        5    1    3    3  502    0 -0.10403628488E+04  0.29238814864E+02 -0.76833347412E+03  0.12936646331E+04  0.46999998093E+01 0. -1.
       -5    1    3    3    0  502  0.10403628488E+04 -0.29238814864E+02  0.31780910501E+03  0.10882253823E+04  0.46999998093E+01 0.  1.
</event>
<event>
 5   0  0.9232963E-07  0.2453539E+04  0.7818609E-02  0.8419727E-01
       -1   -1    0    0    0  501  0.00000000000E+00  0.00000000000E+00  0.99246915816E+03  0.99246915818E+03  0.50400001928E-02 0.  1.
        1   -1    0    0  501    0  0.00000000000E+00  0.00000000000E+00 -0.15163827503E+04  0.15163827503E+04  0.50400001928E-02 0. -1.
    10030    2    1    2    0    0  0.00000000000E+00  0.00000000000E+00 -0.52391359210E+03  0.25088519084E+04  0.24535387599E+04 0.  0.
        3    1    3    3  502    0 -0.11827802487E+04 -0.22512044338E+03 -0.50244991881E+03  0.13046471791E+04  0.10100000352E+00 0. -1.
       -3    1    3    3    0  502  0.11827802487E+04  0.22512044338E+03 -0.21463673292E+02  0.12042047294E+04  0.10100000352E+00 0.  1.
</event>
<event>
 5   0  0.1003191E-06  0.3387947E+04  0.7818609E-02  0.8140871E-01
        1   -1    0    0  501    0  0.00000000000E+00  0.00000000000E+00  0.13859133182E+04  0.13859133182E+04  0.50400001928E-02 0.  1.
       -1   -1    0    0    0  501  0.00000000000E+00  0.00000000000E+00 -0.20705085752E+04  0.20705085752E+04  0.50400001928E-02 0. -1.
    10030    2    1    2    0    0  0.00000000000E+00  0.00000000000E+00 -0.68459525697E+03  0.34564218934E+04  0.33879465225E+04 0.  0.
        5    1    3    3  502    0  0.30384867148E+03  0.13954675600E+04 -0.12716814905E+04  0.19122891071E+04  0.46999998093E+01 0. -1.
       -5    1    3    3    0  502 -0.30384867148E+03 -0.13954675600E+04  0.58708623350E+03  0.15441327863E+04  0.46999998093E+01 0.  1.
</event>
<event>
 5   0  0.2664083E-06  0.3379827E+04  0.7818609E-02  0.8142875E-01
        2   -1    0    0  501    0  0.00000000000E+00  0.00000000000E+00  0.27719742775E+04  0.27719742775E+04  0.25500000920E-02 0.  1.
       -2   -1    0    0    0  501  0.00000000000E+00  0.00000000000E+00 -0.10302430923E+04  0.10302430923E+04  0.25500000920E-02 0. -1.
    10030    2    1    2    0    0  0.00000000000E+00  0.00000000000E+00  0.17417311851E+04  0.38022173698E+04  0.33798268308E+04 0.  0.
        2    1    3    3  502    0  0.78417306540E+03  0.13809531959E+04  0.15208710881E+04  0.21988651601E+04  0.25500000920E-02 0.  1.
       -2    1    3    3    0  502 -0.78417306540E+03 -0.13809531959E+04  0.22086009706E+03  0.16033522097E+04  0.25500000920E-02 0. -1.
</event>
<event>
 5   0  0.2856440E-06  0.3341868E+04  0.7818609E-02  0.8152323E-01
        2   -1    0    0  501    0  0.00000000000E+00  0.00000000000E+00  0.24465070107E+04  0.24465070107E+04  0.25500000920E-02 0.  1.
       -2   -1    0    0    0  501  0.00000000000E+00  0.00000000000E+00 -0.11412273852E+04  0.11412273853E+04  0.25500000920E-02 0. -1.
    10030    2    1    2    0    0  0.00000000000E+00  0.00000000000E+00  0.13052796254E+04  0.35877343959E+04  0.33418682193E+04 0.  0.
        4    1    3    3  502    0 -0.11857908065E+04  0.11625358986E+04  0.45343622118E+03  0.17213934971E+04  0.12699999809E+01 0.  1.
       -4    1    3    3    0  502  0.11857908065E+04 -0.11625358986E+04  0.85184340424E+03  0.18663408988E+04  0.12699999809E+01 0. -1.
</event>
<event>
 5   0  0.9232963E-07  0.3295111E+04  0.7818609E-02  0.8164141E-01
       -1   -1    0    0    0  501  0.00000000000E+00  0.00000000000E+00  0.12577210380E+04  0.12577210380E+04  0.50400001928E-02 0. -1.
        1   -1    0    0  501    0  0.00000000000E+00  0.00000000000E+00 -0.21582197214E+04  0.21582197214E+04  0.50400001928E-02 0.  1.
    10030    2    1    2    0    0  0.00000000000E+00  0.00000000000E+00 -0.90049868335E+03  0.34159407594E+04  0.32951105282E+04 0.  0.
        3    1    3    3  502    0  0.10531653323E+04 -0.90935147514E+03  0.46434999408E+03  0.14668668139E+04  0.10100000352E+00 0. -1.
       -3    1    3    3    0  502 -0.10531653323E+04  0.90935147514E+03 -0.13648486774E+04  0.19490739455E+04  0.10100000352E+00 0.  1.
</event>
<event>
 5   0  0.2664083E-06  0.3219964E+04  0.7818609E-02  0.8183564E-01
       -2   -1    0    0    0  501  0.00000000000E+00  0.00000000000E+00  0.15658600625E+04  0.15658600625E+04  0.25500000920E-02 0.  1.
        2   -1    0    0  501    0  0.00000000000E+00  0.00000000000E+00 -0.16553474943E+04  0.16553474943E+04  0.25500000920E-02 0. -1.
    10030    2    1    2    0    0  0.00000000000E+00  0.00000000000E+00 -0.89487431847E+02  0.32212075568E+04  0.32199643047E+04 0.  0.
        2    1    3    3  502    0 -0.14665373618E+03 -0.15900785995E+04  0.16072609258E+03  0.16048956813E+04  0.25500000920E-02 0.  1.
       -2    1    3    3    0  502  0.14665373618E+03  0.15900785995E+04 -0.25021352442E+03  0.16163118755E+04  0.25500000920E-02 0. -1.
</event>
<event>
 5   0  0.2856440E-06  0.3340333E+04  0.7818609E-02  0.8152708E-01
       -2   -1    0    0    0  501  0.00000000000E+00  0.00000000000E+00  0.13738875424E+04  0.13738875424E+04  0.25500000920E-02 0.  1.
        2   -1    0    0  501    0  0.00000000000E+00  0.00000000000E+00 -0.20303385407E+04  0.20303385407E+04  0.25500000920E-02 0. -1.
    10030    2    1    2    0    0  0.00000000000E+00  0.00000000000E+00 -0.65645099833E+03  0.34042260830E+04  0.33403334132E+04 0.  0.
        4    1    3    3  502    0  0.12437500962E+04 -0.23012147417E+03  0.78331763513E+03  0.14877695807E+04  0.12699999809E+01 0.  1.
       -4    1    3    3    0  502 -0.12437500962E+04  0.23012147417E+03 -0.14397686335E+04  0.19164565024E+04  0.12699999809E+01 0. -1.
</event>
<event>
 5   0  0.2848685E-06  0.2276566E+04  0.7818609E-02  0.8487218E-01
        2   -1    0    0  501    0  0.00000000000E+00  0.00000000000E+00  0.12506496913E+04  0.12506496913E+04  0.25500000920E-02 0. -1.
       -2   -1    0    0    0  501  0.00000000000E+00  0.00000000000E+00 -0.10360121771E+04  0.10360121771E+04  0.25500000920E-02 0.  1.
    10030    2    1    2    0    0  0.00000000000E+00  0.00000000000E+00  0.21463751420E+03  0.22866618683E+04  0.22765661066E+04 0.  0.
        3    1    3    3  502    0  0.27400286856E+03 -0.88664816464E+03  0.76938197624E+03  0.12054754976E+04  0.10100000352E+00 0. -1.
       -3    1    3    3    0  502 -0.27400286856E+03  0.88664816464E+03 -0.55474446204E+03  0.10811863707E+04  0.10100000352E+00 0.  1.
</event>
<event>
 5   0  0.1003191E-06  0.3101333E+04  0.7818609E-02  0.8215372E-01
        1   -1    0    0  501    0  0.00000000000E+00  0.00000000000E+00  0.19836410963E+04  0.19836410963E+04  0.50400001928E-02 0.  1.
       -1   -1    0    0    0  501  0.00000000000E+00  0.00000000000E+00 -0.12121984148E+04  0.12121984148E+04  0.50400001928E-02 0. -1.
    10030    2    1    2    0    0  0.00000000000E+00  0.00000000000E+00  0.77144268146E+03  0.31958395111E+04  0.31013329989E+04 0.  0.
        5    1    3    3  502    0 -0.12179198499E+03  0.33188317208E+03  0.19415527338E+04  0.19734813999E+04  0.46999998093E+01 0.  1.
       -5    1    3    3    0  502  0.12179198499E+03 -0.33188317208E+03 -0.11701100523E+04  0.12223581112E+04  0.46999998093E+01 0. -1.
</event>
<event>
 5   0  0.2664083E-06  0.3186438E+04  0.7818609E-02  0.8192408E-01
       -2   -1    0    0    0  501  0.00000000000E+00  0.00000000000E+00  0.18860941055E+04  0.18860941055E+04  0.25500000920E-02 0.  1.
        2   -1    0    0  501    0  0.00000000000E+00  0.00000000000E+00 -0.13458219370E+04  0.13458219370E+04  0.25500000920E-02 0. -1.
    10030    2    1    2    0    0  0.00000000000E+00  0.00000000000E+00  0.54027216842E+03  0.32319160425E+04  0.31864380254E+04 0.  0.
        2    1    3    3  502    0 -0.10401569118E+04 -0.10386848491E+04 -0.35308803192E+03  0.15117750412E+04  0.25500000920E-02 0. -1.
       -2    1    3    3    0  502  0.10401569118E+04  0.10386848491E+04  0.89336020035E+03  0.17201410013E+04  0.25500000920E-02 0.  1.
</event>
<event>
 5   0  0.9070500E-07  0.3485203E+04  0.7818609E-02  0.8117305E-01
        3   -1    0    0  501    0  0.00000000000E+00  0.00000000000E+00  0.18542627471E+04  0.18542627498E+04  0.10100000352E+00 0.  1.
       -3   -1    0    0    0  501  0.00000000000E+00  0.00000000000E+00 -0.16376647749E+04  0.16376647780E+04  0.10100000352E+00 0. -1.
    10030    2    1    2    0    0  0.00000000000E+00  0.00000000000E+00  0.21659797220E+03  0.34919275278E+04  0.34852034629E+04 0.  0.
        5    1    3    3  502    0  0.67153715442E+03 -0.96434974723E+03  0.13975239661E+04  0.18259320663E+04  0.46999998093E+01 0.  1.
       -5    1    3    3    0  502 -0.67153715442E+03  0.96434974723E+03 -0.11809259939E+04  0.16659954616E+04  0.46999998093E+01 0. -1.
</event>
<event>
 5   0  0.9714317E-07  0.2173807E+04  0.7818609E-02  0.8529410E-01
        1   -1    0    0  501    0  0.00000000000E+00  0.00000000000E+00  0.78514177922E+03  0.78514177924E+03  0.50400001928E-02 0. -1.
       -1   -1    0    0    0  501  0.00000000000E+00  0.00000000000E+00 -0.15046445102E+04  0.15046445102E+04  0.50400001928E-02 0.  1.
    10030    2    1    2    0    0  0.00000000000E+00  0.00000000000E+00 -0.71950273100E+03  0.22897862895E+04  0.21738070456E+04 0.  0.
        4    1    3    3  502    0  0.10024793377E+04  0.16474263673E+03 -0.76669574176E+03  0.12727642877E+04  0.12699999809E+01 0.  1.
       -4    1    3    3    0  502 -0.10024793377E+04 -0.16474263673E+03  0.47193010763E+02  0.10170220017E+04  0.12699999809E+01 0. -1.
</event>
<event>
 5   0  0.2664083E-06  0.3474728E+04  0.7818609E-02  0.8119805E-01
        2   -1    0    0  501    0  0.00000000000E+00  0.00000000000E+00  0.26060284370E+04  0.26060284370E+04  0.25500000920E-02 0. -1.
       -2   -1    0    0    0  501  0.00000000000E+00  0.00000000000E+00 -0.11582505152E+04  0.11582505152E+04  0.25500000920E-02 0.  1.
    10030    2    1    2    0    0  0.00000000000E+00  0.00000000000E+00  0.14477779218E+04  0.37642789523E+04  0.34747280641E+04 0.  0.
        2    1    3    3  502    0  0.15756374547E+04  0.53004808572E+03  0.17699541184E+03  0.16717989525E+04  0.25500000920E-02 0.  1.
       -2    1    3    3    0  502 -0.15756374547E+04 -0.53004808572E+03  0.12707825099E+04  0.20924799997E+04  0.25500000920E-02 0. -1.
</event>
<event>
 5   0  0.1003191E-06  0.3367391E+04  0.7818609E-02  0.8145956E-01
       -1   -1    0    0    0  501  0.00000000000E+00  0.00000000000E+00  0.17082066066E+04  0.17082066066E+04  0.50400001928E-02 0.  1.
        1   -1    0    0  501    0  0.00000000000E+00  0.00000000000E+00 -0.16595356503E+04  0.16595356503E+04  0.50400001928E-02 0. -1.
    10030    2    1    2    0    0  0.00000000000E+00  0.00000000000E+00  0.48670956293E+02  0.33677422569E+04  0.33673905397E+04 0.  0.
        5    1    3    3  502    0 -0.75076956616E+03 -0.14830348154E+04 -0.24357394277E+03  0.16799992740E+04  0.46999998093E+01 0. -1.
       -5    1    3    3    0  502  0.75076956616E+03  0.14830348154E+04  0.29224489906E+03  0.16877429829E+04  0.46999998093E+01 0.  1.
</event>
<event>
 5   0  0.1003191E-06  0.3486487E+04  0.7818609E-02  0.8117000E-01
       -1   -1    0    0    0  501  0.00000000000E+00  0.00000000000E+00  0.14895165121E+04  0.14895165121E+04  0.50400001928E-02 0.  1.
        1   -1    0    0  501    0  0.00000000000E+00  0.00000000000E+00 -0.20401905222E+04  0.20401905222E+04  0.50400001928E-02 0. -1.
    10030    2    1    2    0    0  0.00000000000E+00  0.00000000000E+00 -0.55067401009E+03  0.35297070343E+04  0.34864867536E+04 0.  0.
        5    1    3    3  502    0 -0.83006624756E+03 -0.11191677863E+04 -0.13358574464E+04  0.19303066379E+04  0.46999998093E+01 0. -1.
       -5    1    3    3    0  502  0.83006624756E+03  0.11191677863E+04  0.78518343636E+03  0.15994003964E+04  0.46999998093E+01 0.  1.
</event>
<event>
 5   0  0.9232963E-07  0.3376290E+04  0.7818609E-02  0.8143750E-01
        1   -1    0    0  501    0  0.00000000000E+00  0.00000000000E+00  0.15345206038E+04  0.15345206038E+04  0.50400001928E-02 0.  1.
       -1   -1    0    0    0  501  0.00000000000E+00  0.00000000000E+00 -0.18571488197E+04  0.18571488197E+04  0.50400001928E-02 0. -1.
    10030    2    1    2    0    0  0.00000000000E+00  0.00000000000E+00 -0.32262821591E+03  0.33916694236E+04  0.33762897555E+04 0.  0.
        3    1    3    3  502    0 -0.60686513207E+03 -0.93530643881E+03 -0.14346644763E+04  0.18169605369E+04  0.10100000352E+00 0. -1.
       -3    1    3    3    0  502  0.60686513207E+03  0.93530643881E+03  0.11120362604E+04  0.15747088866E+04  0.10100000352E+00 0.  1.
</event>
<event>
 5   0  0.1010551E-06  0.3314409E+04  0.7818609E-02  0.8159239E-01
        1   -1    0    0  501    0  0.00000000000E+00  0.00000000000E+00  0.16358098650E+04  0.16358098650E+04  0.50400001928E-02 0. -1.
       -1   -1    0    0    0  501  0.00000000000E+00  0.00000000000E+00 -0.16788794075E+04  0.16788794075E+04  0.50400001928E-02 0.  1.
    10030    2    1    2    0    0  0.00000000000E+00  0.00000000000E+00 -0.43069542504E+02  0.33146892726E+04  0.33144094479E+04 0.  0.
        2    1    3    3  502    0  0.16349937242E+04 -0.21278705243E+03 -0.18841613974E+03  0.16595130158E+04  0.25500000920E-02 0. -1.
       -2    1    3    3    0  502 -0.16349937242E+04  0.21278705243E+03  0.14534659724E+03  0.16551762568E+04  0.25500000920E-02 0.  1.
</event>
<event>
 5   0  0.2906701E-06  0.3340424E+04  0.7818609E-02  0.8152685E-01
       -2   -1    0    0    0  501  0.00000000000E+00  0.00000000000E+00  0.97649572062E+03  0.97649572062E+03  0.25500000920E-02 0.  1.
        2   -1    0    0  501    0  0.00000000000E+00  0.00000000000E+00 -0.28567534691E+04  0.28567534691E+04  0.25500000920E-02 0. -1.
    10030    2    1    2    0    0  0.00000000000E+00  0.00000000000E+00 -0.18802577484E+04  0.38332491897E+04  0.33404236482E+04 0.  0.
        5    1    3    3  502    0 -0.65428780897E+03 -0.29684325151E+03  0.79009074954E+03  0.10679297427E+04  0.46999998093E+01 0.  1.
       -5    1    3    3    0  502  0.65428780897E+03  0.29684325151E+03 -0.26703484980E+04  0.27653194469E+04  0.46999998093E+01 0. -1.
</event>
<event>
 5   0  0.9714317E-07  0.3400450E+04  0.7818609E-02  0.8137796E-01
       -1   -1    0    0    0  501  0.00000000000E+00  0.00000000000E+00  0.10721687561E+04  0.10721687561E+04  0.50400001928E-02 0. -1.
        1   -1    0    0  501    0  0.00000000000E+00  0.00000000000E+00 -0.26961850300E+04  0.26961850300E+04  0.50400001928E-02 0.  1.
    10030    2    1    2    0    0  0.00000000000E+00  0.00000000000E+00 -0.16240162739E+04  0.37683537861E+04  0.34004501760E+04 0.  0.
        4    1    3    3  502    0  0.41691121717E+03 -0.15829891233E+04 -0.13211671237E+04  0.21036049318E+04  0.12699999809E+01 0.  1.
       -4    1    3    3    0  502 -0.41691121717E+03  0.15829891233E+04 -0.30284915018E+03  0.16647488543E+04  0.12699999809E+01 0. -1.
</event>
<event>
 5   0  0.1003191E-06  0.3410938E+04  0.7818609E-02  0.8135227E-01
        1   -1    0    0  501    0  0.00000000000E+00  0.00000000000E+00  0.19004899585E+04  0.19004899586E+04  0.50400001928E-02 0. -1.
       -1   -1    0    0    0  501  0.00000000000E+00  0.00000000000E+00 -0.15304604335E+04  0.15304604335E+04  0.50400001928E-02 0.  1.
    10030    2    1    2    0    0  0.00000000000E+00  0.00000000000E+00  0.37002952505E+03  0.34309503921E+04  0.34109381031E+04 0.  0.
        5    1    3    3  502    0 -0.31118633522E+03  0.10506951597E+04 -0.11294827965E+04  0.15737060499E+04  0.46999998093E+01 0.  1.
       -5    1    3    3    0  502  0.31118633522E+03 -0.10506951597E+04  0.14995123216E+04  0.18572443421E+04  0.46999998093E+01 0. -1.
</event>
<event>
 5   0  0.2664083E-06  0.2757595E+04  0.7818609E-02  0.8316556E-01
        2   -1    0    0  501    0  0.00000000000E+00  0.00000000000E+00  0.15251529834E+04  0.15251529834E+04  0.25500000920E-02 0. -1.
       -2   -1    0    0    0  501  0.00000000000E+00  0.00000000000E+00 -0.12464864105E+04  0.12464864105E+04  0.25500000920E-02 0.  1.
    10030    2    1    2    0    0  0.00000000000E+00  0.00000000000E+00  0.27866657283E+03  0.27716393939E+04  0.27575949432E+04 0.  0.
        2    1    3    3  502    0 -0.44135655587E+03  0.23587363581E+03  0.14306530963E+04  0.15156517619E+04  0.25500000920E-02 0. -1.
       -2    1    3    3    0  502  0.44135655587E+03 -0.23587363581E+03 -0.11519865235E+04  0.12559876320E+04  0.25500000920E-02 0.  1.
</event>
<event>
 5   0  0.1010551E-06  0.3272576E+04  0.7818609E-02  0.8169909E-01
        1   -1    0    0  501    0  0.00000000000E+00  0.00000000000E+00  0.18503483355E+04  0.18503483355E+04  0.50400001928E-02 0. -1.
       -1   -1    0    0    0  501  0.00000000000E+00  0.00000000000E+00 -0.14469918035E+04  0.14469918035E+04  0.50400001928E-02 0.  1.
    10030    2    1    2    0    0  0.00000000000E+00  0.00000000000E+00  0.40335653206E+03  0.32973401390E+04  0.32725762788E+04 0.  0.
        2    1    3    3  502    0  0.15632670539E+04  0.44942996541E+03  0.22434093954E+02  0.16267435152E+04  0.25500000920E-02 0.  1.
       -2    1    3    3    0  502 -0.15632670539E+04 -0.44942996541E+03  0.38092243810E+03  0.16705966238E+04  0.25500000920E-02 0. -1.
</event>
<event>
 5   0  0.2906701E-06  0.2854036E+04  0.7818609E-02  0.8286686E-01
       -2   -1    0    0    0  501  0.00000000000E+00  0.00000000000E+00  0.78936912936E+03  0.78936912937E+03  0.25500000920E-02 0. -1.
        2   -1    0    0  501    0  0.00000000000E+00  0.00000000000E+00 -0.25797559351E+04  0.25797559351E+04  0.25500000920E-02 0.  1.
    10030    2    1    2    0    0  0.00000000000E+00  0.00000000000E+00 -0.17903868057E+04  0.33691250645E+04  0.28540355264E+04 0.  0.
        5    1    3    3  502    0  0.10993581918E+04  0.34951751792E+03 -0.18867992953E+04  0.22115118358E+04  0.46999998093E+01 0.  1.
       -5    1    3    3    0  502 -0.10993581918E+04 -0.34951751792E+03  0.96412489530E+02  0.11576132287E+04  0.46999998093E+01 0. -1.
</event>
<event>
 5   0  0.1010855E-06  0.3380953E+04  0.7818609E-02  0.8142597E-01
       -1   -1    0    0    0  501  0.00000000000E+00  0.00000000000E+00  0.17506910340E+04  0.17506910340E+04  0.50400001928E-02 0. -1.
        1   -1    0    0  501    0  0.00000000000E+00  0.00000000000E+00 -0.16323328044E+04  0.16323328044E+04  0.50400001928E-02 0.  1.
    10030    2    1    2    0    0  0.00000000000E+00  0.00000000000E+00  0.11835822955E+03  0.33830238384E+04  0.33809527682E+04 0.  0.
        1    1    3    3  502    0  0.29673775368E+03  0.95429045401E+03  0.14234609979E+04  0.17392425874E+04  0.50400001928E-02 0. -1.
       -1    1    3    3    0  502 -0.29673775368E+03 -0.95429045401E+03 -0.13051027684E+04  0.16437812510E+04  0.50400001928E-02 0.  1.
</event>
<event>
 5   0  0.2848685E-06  0.3471505E+04  0.7818609E-02  0.8120576E-01
       -2   -1    0    0    0  501  0.00000000000E+00  0.00000000000E+00  0.14482895091E+04  0.14482895091E+04  0.25500000920E-02 0.  1.
        2   -1    0    0  501    0  0.00000000000E+00  0.00000000000E+00 -0.20802730309E+04  0.20802730309E+04  0.25500000920E-02 0. -1.
    10030    2    1    2    0    0  0.00000000000E+00  0.00000000000E+00 -0.63198352188E+03  0.35285625400E+04  0.34715054986E+04 0.  0.
        3    1    3    3  502    0 -0.14074049236E+04  0.67960149194E+03 -0.10835123963E+04  0.19017481248E+04  0.10100000352E+00 0.  1.
       -3    1    3    3    0  502  0.14074049236E+04 -0.67960149194E+03  0.45152887446E+03  0.16268144152E+04  0.10100000352E+00 0. -1.
</event>
<event>
 5   0  0.2906701E-06  0.2539866E+04  0.7818609E-02  0.8388919E-01
        2   -1    0    0  501    0  0.00000000000E+00  0.00000000000E+00  0.26423730952E+04  0.26423730952E+04  0.25500000920E-02 0.  1.
       -2   -1    0    0    0  501  0.00000000000E+00  0.00000000000E+00 -0.61033370437E+03  0.61033370438E+03  0.25500000920E-02 0. -1.
    10030    2    1    2    0    0  0.00000000000E+00  0.00000000000E+00  0.20320393908E+04  0.32527067996E+04  0.25398656339E+04 0.  0.
        5    1    3    3  502    0 -0.26724163773E+02  0.12041165355E+04  0.15316292277E+04  0.19484663182E+04  0.46999998093E+01 0.  1.
       -5    1    3    3    0  502  0.26724163773E+02 -0.12041165355E+04  0.50041016307E+03  0.13042404814E+04  0.46999998093E+01 0. -1.
</event>
<event>
 5   0  0.1010855E-06  0.3017614E+04  0.7818609E-02  0.8238719E-01
        1   -1    0    0  501    0  0.00000000000E+00  0.00000000000E+00  0.14676071665E+04  0.14676071666E+04  0.50400001928E-02 0.  1.
       -1   -1    0    0    0  501  0.00000000000E+00  0.00000000000E+00 -0.15511637696E+04  0.15511637696E+04  0.50400001928E-02 0. -1.
    10030    2    1    2    0    0  0.00000000000E+00  0.00000000000E+00 -0.83556603025E+02  0.30187709361E+04  0.30176143324E+04 0.  0.
        1    1    3    3  502    0  0.10110837113E+04  0.88729518311E+03  0.64179615900E+03  0.14904648010E+04  0.50400001928E-02 0. -1.
       -1    1    3    3    0  502 -0.10110837113E+04 -0.88729518311E+03 -0.72535276202E+03  0.15283061351E+04  0.50400001928E-02 0.  1.
</event>
<event>
 5   0  0.2664083E-06  0.3030737E+04  0.7818609E-02  0.8235008E-01
        2   -1    0    0  501    0  0.00000000000E+00  0.00000000000E+00  0.21951829812E+04  0.21951829812E+04  0.25500000920E-02 0.  1.
       -2   -1    0    0    0  501  0.00000000000E+00  0.00000000000E+00 -0.10460824492E+04  0.10460824492E+04  0.25500000920E-02 0. -1.
    10030    2    1    2    0    0  0.00000000000E+00  0.00000000000E+00  0.11491005320E+04  0.32412654304E+04  0.30307374611E+04 0.  0.
        2    1    3    3  502    0 -0.39206871268E+03 -0.12418140812E+04 -0.25421368177E+03  0.13268175021E+04  0.25500000920E-02 0. -1.
       -2    1    3    3    0  502  0.39206871268E+03  0.12418140812E+04  0.14033142138E+04  0.19144479284E+04  0.25500000920E-02 0.  1.
</event>
<event>
 5   0  0.2906701E-06  0.3408431E+04  0.7818609E-02  0.8135840E-01
       -2   -1    0    0    0  501  0.00000000000E+00  0.00000000000E+00  0.16071831471E+04  0.16071831471E+04  0.25500000920E-02 0.  1.
        2   -1    0    0  501    0  0.00000000000E+00  0.00000000000E+00 -0.18071063359E+04  0.18071063359E+04  0.25500000920E-02 0. -1.
    10030    2    1    2    0    0  0.00000000000E+00  0.00000000000E+00 -0.19992318877E+03  0.34142894830E+04  0.34084312215E+04 0.  0.
        5    1    3    3  502    0  0.13791413884E+04 -0.95950701640E+03 -0.38618697379E+03  0.17239046240E+04  0.46999998093E+01 0. -1.
       -5    1    3    3    0  502 -0.13791413884E+04  0.95950701640E+03  0.18626378502E+03  0.16903848590E+04  0.46999998093E+01 0.  1.
</event>
<event>
 5   0  0.9714317E-07  0.2771006E+04  0.7818609E-02  0.8312327E-01
        1   -1    0    0  501    0  0.00000000000E+00  0.00000000000E+00  0.14222418251E+04  0.14222418251E+04  0.50400001928E-02 0.  1.
       -1   -1    0    0    0  501  0.00000000000E+00  0.00000000000E+00 -0.13497132404E+04  0.13497132404E+04  0.50400001928E-02 0. -1.
    10030    2    1    2    0    0  0.00000000000E+00  0.00000000000E+00  0.72528584672E+02  0.27719550655E+04  0.27710060429E+04 0.  0.
        4    1    3    3  502    0  0.90264562027E+03 -0.69731668897E+02 -0.10128967868E+04  0.13585260892E+04  0.12699999809E+01 0. -1.
       -4    1    3    3    0  502 -0.90264562027E+03  0.69731668897E+02  0.10854253714E+04  0.14134289764E+04  0.12699999809E+01 0.  1.
</event>
<event>
 5   0  0.2906701E-06  0.2880203E+04  0.7818609E-02  0.8278792E-01
       -2   -1    0    0    0  501  0.00000000000E+00  0.00000000000E+00  0.84284260317E+03  0.84284260317E+03  0.25500000920E-02 0. -1.
        2   -1    0    0  501    0  0.00000000000E+00  0.00000000000E+00 -0.24605928402E+04  0.24605928402E+04  0.25500000920E-02 0.  1.
    10030    2    1    2    0    0  0.00000000000E+00  0.00000000000E+00 -0.16177502370E+04  0.33034354434E+04  0.28802031003E+04 0.  0.
        5    1    3    3  502    0 -0.26744616762E+03 -0.47034805420E+03  0.72182025376E+03  0.90210936887E+03  0.46999998093E+01 0. -1.
       -5    1    3    3    0  502  0.26744616762E+03  0.47034805420E+03 -0.23395704908E+04  0.24013260745E+04  0.46999998093E+01 0.  1.
</event>
<event>
 5   0  0.9714317E-07  0.3377293E+04  0.7818609E-02  0.8143502E-01
        1   -1    0    0  501    0  0.00000000000E+00  0.00000000000E+00  0.24026112268E+04  0.24026112268E+04  0.50400001928E-02 0.  1.
       -1   -1    0    0    0  501  0.00000000000E+00  0.00000000000E+00 -0.11868448792E+04  0.11868448792E+04  0.50400001928E-02 0. -1.
    10030    2    1    2    0    0  0.00000000000E+00  0.00000000000E+00  0.12157663476E+04  0.35894561059E+04  0.33772928988E+04 0.  0.
        4    1    3    3  502    0  0.88990735715E+03  0.10570586521E+04 -0.42377403111E+03  0.14453007094E+04  0.12699999809E+01 0. -1.
       -4    1    3    3    0  502 -0.88990735715E+03 -0.10570586521E+04  0.16395403787E+04  0.21441553965E+04  0.12699999809E+01 0.  1.
</event>
<event>
 5   0  0.1003191E-06  0.3481693E+04  0.7818609E-02  0.8118142E-01
       -1   -1    0    0    0  501  0.00000000000E+00  0.00000000000E+00  0.11842866499E+04  0.11842866499E+04  0.50400001928E-02 0.  1.
        1   -1    0    0  501    0  0.00000000000E+00  0.00000000000E+00 -0.25589638522E+04  0.25589638522E+04  0.50400001928E-02 0. -1.
    10030    2    1    2    0    0  0.00000000000E+00  0.00000000000E+00 -0.13746772022E+04  0.37432505021E+04  0.34816931098E+04 0.  0.
        5    1    3    3  502    0  0.11641902907E+04  0.63331086821E+03 -0.19008969543E+04  0.23172943295E+04  0.46999998093E+01 0. -1.
       -5    1    3    3    0  502 -0.11641902907E+04 -0.63331086821E+03  0.52621975208E+03  0.14259561726E+04  0.46999998093E+01 0.  1.
</event>
<event>
 5   0  0.1003191E-06  0.2438828E+04  0.7818609E-02  0.8425108E-01
        1   -1    0    0  501    0  0.00000000000E+00  0.00000000000E+00  0.19725123643E+04  0.19725123643E+04  0.50400001928E-02 0.  1.
       -1   -1    0    0    0  501  0.00000000000E+00  0.00000000000E+00 -0.75384610762E+03  0.75384610764E+03  0.50400001928E-02 0. -1.
    10030    2    1    2    0    0  0.00000000000E+00  0.00000000000E+00  0.12186662566E+04  0.27263584719E+04  0.24388282170E+04 0.  0.
        5    1    3    3  502    0 -0.69363169875E+02  0.29876322579E+03 -0.71001158325E+03  0.77343988310E+03  0.46999998093E+01 0. -1.
       -5    1    3    3    0  502  0.69363169875E+02 -0.29876322579E+03  0.19286778399E+04  0.19529185888E+04  0.46999998093E+01 0.  1.
</event>
<event>
 5   0  0.2848685E-06  0.3423542E+04  0.7818609E-02  0.8132152E-01
        2   -1    0    0  501    0  0.00000000000E+00  0.00000000000E+00  0.21220556175E+04  0.21220556175E+04  0.25500000920E-02 0.  1.
       -2   -1    0    0    0  501  0.00000000000E+00  0.00000000000E+00 -0.13808122703E+04  0.13808122703E+04  0.25500000920E-02 0. -1.
    10030    2    1    2    0    0  0.00000000000E+00  0.00000000000E+00  0.74124334723E+03  0.35028678878E+04  0.34235422795E+04 0.  0.
        3    1    3    3  502    0  0.82457493513E+01  0.54797088372E+03  0.20298689089E+04  0.21025479493E+04  0.10100000352E+00 0.  1.
       -3    1    3    3    0  502 -0.82457493513E+01 -0.54797088372E+03 -0.12886255616E+04  0.14003199385E+04  0.10100000352E+00 0. -1.
</event>
<event>
 5   0  0.1003191E-06  0.3294607E+04  0.7818609E-02  0.8164269E-01
       -1   -1    0    0    0  501  0.00000000000E+00  0.00000000000E+00  0.13274016589E+04  0.13274016589E+04  0.50400001928E-02 0. -1.
        1   -1    0    0  501    0  0.00000000000E+00  0.00000000000E+00 -0.20443007483E+04  0.20443007483E+04  0.50400001928E-02 0.  1.
    10030    2    1    2    0    0  0.00000000000E+00  0.00000000000E+00 -0.71689908942E+03  0.33717024073E+04  0.32946066258E+04 0.  0.
        5    1    3    3  502    0  0.11524492320E+04  0.11686724857E+04 -0.21498533797E+03  0.16553475154E+04  0.46999998093E+01 0.  1.
       -5    1    3    3    0  502 -0.11524492320E+04 -0.11686724857E+04 -0.50191375146E+03  0.17163548919E+04  0.46999998093E+01 0. -1.
</event>
<event>
 5   0  0.1003191E-06  0.3502898E+04  0.7818609E-02  0.8113103E-01
       -1   -1    0    0    0  501  0.00000000000E+00  0.00000000000E+00  0.12945074743E+04  0.12945074743E+04  0.50400001928E-02 0.  1.
        1   -1    0    0  501    0  0.00000000000E+00  0.00000000000E+00 -0.23696843632E+04  0.23696843632E+04  0.50400001928E-02 0. -1.
    10030    2    1    2    0    0  0.00000000000E+00  0.00000000000E+00 -0.10751768889E+04  0.36641918374E+04  0.35028982970E+04 0.  0.
        5    1    3    3  502    0 -0.75237067769E+03  0.15793484078E+04 -0.62603345230E+03  0.18580481703E+04  0.46999998093E+01 0. -1.
       -5    1    3    3    0  502  0.75237067769E+03 -0.15793484078E+04 -0.44914343658E+03  0.18061436671E+04  0.46999998093E+01 0.  1.
</event>
<event>
 5   0  0.2848685E-06  0.3284188E+04  0.7818609E-02  0.8166930E-01
        2   -1    0    0  501    0  0.00000000000E+00  0.00000000000E+00  0.16797053372E+04  0.16797053372E+04  0.25500000920E-02 0. -1.
       -2   -1    0    0    0  501  0.00000000000E+00  0.00000000000E+00 -0.16053247381E+04  0.16053247381E+04  0.25500000920E-02 0.  1.
    10030    2    1    2    0    0  0.00000000000E+00  0.00000000000E+00  0.74380599146E+02  0.32850300753E+04  0.32841878938E+04 0.  0.
        3    1    3    3  502    0  0.38309859442E+03 -0.13246361909E+04 -0.85469240422E+03  0.16223207720E+04  0.10100000352E+00 0.  1.
       -3    1    3    3    0  502 -0.38309859442E+03  0.13246361909E+04  0.92907300337E+03  0.16627093033E+04  0.10100000352E+00 0. -1.
</event>
<event>
 5   0  0.2767014E-06  0.3401060E+04  0.7818609E-02  0.8137646E-01
        2   -1    0    0  501    0  0.00000000000E+00  0.00000000000E+00  0.22205509585E+04  0.22205509585E+04  0.25500000920E-02 0.  1.
       -2   -1    0    0    0  501  0.00000000000E+00  0.00000000000E+00 -0.13022902907E+04  0.13022902907E+04  0.25500000920E-02 0. -1.
    10030    2    1    2    0    0  0.00000000000E+00  0.00000000000E+00  0.91826066781E+03  0.35228412491E+04  0.34010598073E+04 0.  0.
        1    1    3    3  502    0  0.66369773067E+03 -0.71761924785E+03 -0.98221643426E+03  0.13857204575E+04  0.50400001928E-02 0. -1.
       -1    1    3    3    0  502 -0.66369773067E+03  0.71761924785E+03  0.19004771021E+04  0.21371207916E+04  0.50400001928E-02 0.  1.
</event>
<event>
 5   0  0.2856440E-06  0.3345961E+04  0.7818609E-02  0.8151298E-01
        2   -1    0    0  501    0  0.00000000000E+00  0.00000000000E+00  0.22699332162E+04  0.22699332162E+04  0.25500000920E-02 0. -1.
       -2   -1    0    0    0  501  0.00000000000E+00  0.00000000000E+00 -0.12330158837E+04  0.12330158837E+04  0.25500000920E-02 0.  1.
    10030    2    1    2    0    0  0.00000000000E+00  0.00000000000E+00  0.10369173325E+04  0.35029490999E+04  0.33459609744E+04 0.  0.
        4    1    3    3  502    0 -0.10711694561E+04  0.10349856700E+04  0.13159487728E+04  0.19875417295E+04  0.12699999809E+01 0. -1.
       -4    1    3    3    0  502  0.10711694561E+04 -0.10349856700E+04 -0.27903144033E+03  0.15154073704E+04  0.12699999809E+01 0.  1.
</event>
<event>
 5   0  0.1010551E-06  0.3382186E+04  0.7818609E-02  0.8142292E-01
       -1   -1    0    0    0  501  0.00000000000E+00  0.00000000000E+00  0.27308834526E+04  0.27308834526E+04  0.50400001928E-02 0.  1.
        1   -1    0    0  501    0  0.00000000000E+00  0.00000000000E+00 -0.10472051263E+04  0.10472051264E+04  0.50400001928E-02 0. -1.
    10030    2    1    2    0    0  0.00000000000E+00  0.00000000000E+00  0.16836783262E+04  0.37780885789E+04  0.33821857731E+04 0.  0.
        2    1    3    3  502    0  0.11024738305E+04  0.18153524866E+03 -0.57615753484E+03  0.12571241380E+04  0.25500000920E-02 0. -1.
       -2    1    3    3    0  502 -0.11024738305E+04 -0.18153524866E+03  0.22598358611E+04  0.25209644409E+04  0.25500000920E-02 0.  1.
</event>
<event>
 5   0  0.2906701E-06  0.3456949E+04  0.7818609E-02  0.8124069E-01
        2   -1    0    0  501    0  0.00000000000E+00  0.00000000000E+00  0.16191942136E+04  0.16191942136E+04  0.25500000920E-02 0. -1.
       -2   -1    0    0    0  501  0.00000000000E+00  0.00000000000E+00 -0.18451306758E+04  0.18451306758E+04  0.25500000920E-02 0.  1.
    10030    2    1    2    0    0  0.00000000000E+00  0.00000000000E+00 -0.22593646218E+03  0.34643248894E+04  0.34569494724E+04 0.  0.
        5    1    3    3  502    0 -0.19535205480E+03  0.12327833588E+04  0.10852773937E+04  0.16540152195E+04  0.46999998093E+01 0. -1.
       -5    1    3    3    0  502  0.19535205480E+03 -0.12327833588E+04 -0.13112138559E+04  0.18103096699E+04  0.46999998093E+01 0.  1.
</event>
<event>
 5   0  0.9714317E-07  0.3511063E+04  0.7818609E-02  0.8111173E-01
       -1   -1    0    0    0  501  0.00000000000E+00  0.00000000000E+00  0.97459253414E+03  0.97459253415E+03  0.50400001928E-02 0.  1.
        1   -1    0    0  501    0  0.00000000000E+00  0.00000000000E+00 -0.31622353861E+04  0.31622353861E+04  0.50400001928E-02 0. -1.
    10030    2    1    2    0    0  0.00000000000E+00  0.00000000000E+00 -0.21876428520E+04  0.41368279203E+04  0.35110630860E+04 0.  0.
        4    1    3    3  502    0 -0.25330360931E+03 -0.15335799300E+04 -0.13238616345E+03  0.15599864837E+04  0.12699999809E+01 0.  1.
       -4    1    3    3    0  502  0.25330360931E+03  0.15335799300E+04 -0.20552566885E+04  0.25768414365E+04  0.12699999809E+01 0. -1.
</event>
<event>
 5   0  0.2767014E-06  0.2399748E+04  0.7818609E-02  0.8439598E-01
       -2   -1    0    0    0  501  0.00000000000E+00  0.00000000000E+00  0.15451974151E+04  0.15451974151E+04  0.25500000920E-02 0.  1.
        2   -1    0    0  501    0  0.00000000000E+00  0.00000000000E+00 -0.93172445152E+03  0.93172445152E+03  0.25500000920E-02 0. -1.
    10030    2    1    2    0    0  0.00000000000E+00  0.00000000000E+00  0.61347296358E+03  0.24769218666E+04  0.23997484985E+04 0.  0.
        1    1    3    3  502    0  0.79191904776E+03  0.22915158650E+03 -0.59310959536E+03  0.10155910692E+04  0.50400001928E-02 0. -1.
       -1    1    3    3    0  502 -0.79191904776E+03 -0.22915158650E+03  0.12065825589E+04  0.14613307974E+04  0.50400001928E-02 0.  1.
</event>
<event>
 5   0  0.2906701E-06  0.3141414E+04  0.7818609E-02  0.8204463E-01
        2   -1    0    0  501    0  0.00000000000E+00  0.00000000000E+00  0.27362712651E+04  0.27362712651E+04  0.25500000920E-02 0.  1.
       -2   -1    0    0    0  501  0.00000000000E+00  0.00000000000E+00 -0.90163582642E+03  0.90163582642E+03  0.25500000920E-02 0. -1.
    10030    2    1    2    0    0  0.00000000000E+00  0.00000000000E+00  0.18346354387E+04  0.36379070915E+04  0.31414138240E+04 0.  0.
        5    1    3    3  502    0  0.15480488969E+04  0.13592321044E+03  0.11818184712E+04  0.19523441027E+04  0.46999998093E+01 0.  1.
       -5    1    3    3    0  502 -0.15480488969E+04 -0.13592321044E+03  0.65281696745E+03  0.16855629888E+04  0.46999998093E+01 0. -1.
</event>
<event>
 5   0  0.2664083E-06  0.3397795E+04  0.7818609E-02  0.8138448E-01
       -2   -1    0    0    0  501  0.00000000000E+00  0.00000000000E+00  0.15360802325E+04  0.15360802325E+04  0.25500000920E-02 0.  1.
        2   -1    0    0  501    0  0.00000000000E+00  0.00000000000E+00 -0.18789730870E+04  0.18789730871E+04  0.25500000920E-02 0. -1.
    10030    2    1    2    0    0  0.00000000000E+00  0.00000000000E+00 -0.34289285454E+03  0.34150533196E+04  0.33977954126E+04 0.  0.
        2    1    3    3  502    0 -0.53881634664E+03  0.20903326049E+03  0.14342396143E+04  0.15463056718E+04  0.25500000920E-02 0.  1.
       -2    1    3    3    0  502  0.53881634664E+03 -0.20903326049E+03 -0.17771324688E+04  0.18687476478E+04  0.25500000920E-02 0. -1.
</event>
<event>
 5   0  0.1010855E-06  0.3536061E+04  0.7818609E-02  0.8105297E-01
        1   -1    0    0  501    0  0.00000000000E+00  0.00000000000E+00  0.16775300887E+04  0.16775300887E+04  0.50400001928E-02 0. -1.
       -1   -1    0    0    0  501  0.00000000000E+00  0.00000000000E+00 -0.18634134255E+04  0.18634134255E+04  0.50400001928E-02 0.  1.
    10030    2    1    2    0    0  0.00000000000E+00  0.00000000000E+00 -0.18588333682E+03  0.35409435142E+04  0.35360611358E+04 0.  0.
        1    1    3    3  502    0  0.12481289542E+04 -0.91103994064E+03  0.76737927052E+03  0.17253088433E+04  0.50400001928E-02 0. -1.
       -1    1    3    3    0  502 -0.12481289542E+04  0.91103994064E+03 -0.95326260734E+03  0.18156346709E+04  0.50400001928E-02 0.  1.
</event>
<event>
 5   0  0.9714317E-07  0.2838964E+04  0.7818609E-02  0.8291273E-01
        1   -1    0    0  501    0  0.00000000000E+00  0.00000000000E+00  0.23506611112E+04  0.23506611112E+04  0.50400001928E-02 0.  1.
       -1   -1    0    0    0  501  0.00000000000E+00  0.00000000000E+00 -0.85717527544E+03  0.85717527545E+03  0.50400001928E-02 0. -1.
    10030    2    1    2    0    0  0.00000000000E+00  0.00000000000E+00  0.14934858357E+04  0.32078363866E+04  0.28389636035E+04 0.  0.
        4    1    3    3  502    0 -0.31589217858E+03 -0.66200945146E+03  0.21199162800E+04  0.22432322727E+04  0.12699999809E+01 0.  1.
       -4    1    3    3    0  502  0.31589217858E+03  0.66200945146E+03 -0.62643044422E+03  0.96460411395E+03  0.12699999809E+01 0. -1.
</event>
<event>
 5   0  0.2664083E-06  0.3474847E+04  0.7818609E-02  0.8119777E-01
        2   -1    0    0  501    0  0.00000000000E+00  0.00000000000E+00  0.19776836223E+04  0.19776836224E+04  0.25500000920E-02 0.  1.
       -2   -1    0    0    0  501  0.00000000000E+00  0.00000000000E+00 -0.15263512320E+04  0.15263512320E+04  0.25500000920E-02 0. -1.
    10030    2    1    2    0    0  0.00000000000E+00  0.00000000000E+00  0.45133239039E+03  0.35040348543E+04  0.34748466633E+04 0.  0.
        2    1    3    3  502    0 -0.83104275856E+03 -0.12116510528E+03 -0.13080721146E+04  0.15544663735E+04  0.25500000920E-02 0. -1.
       -2    1    3    3    0  502  0.83104275856E+03  0.12116510528E+03  0.17594045050E+04  0.19495684808E+04  0.25500000920E-02 0.  1.
</event>
<event>
 5   0  0.2906701E-06  0.2435345E+04  0.7818609E-02  0.8426388E-01
        2   -1    0    0  501    0  0.00000000000E+00  0.00000000000E+00  0.85405786625E+03  0.85405786625E+03  0.25500000920E-02 0. -1.
       -2   -1    0    0    0  501  0.00000000000E+00  0.00000000000E+00 -0.17360961431E+04  0.17360961431E+04  0.25500000920E-02 0.  1.
    10030    2    1    2    0    0  0.00000000000E+00  0.00000000000E+00 -0.88203827687E+03  0.25901540094E+04  0.24353452056E+04 0.  0.
        5    1    3    3  502    0  0.17952706011E+03  0.24584323333E+03  0.81292451479E+03  0.86806521497E+03  0.46999998093E+01 0. -1.
       -5    1    3    3    0  502 -0.17952706011E+03 -0.24584323333E+03 -0.16949627917E+04  0.17220887944E+04  0.46999998093E+01 0.  1.
</event>
<event>
 5   0  0.1010855E-06  0.3396664E+04  0.7818609E-02  0.8138725E-01
       -1   -1    0    0    0  501  0.00000000000E+00  0.00000000000E+00  0.17197871293E+04  0.17197871293E+04  0.50400001928E-02 0. -1.
        1   -1    0    0  501    0  0.00000000000E+00  0.00000000000E+00 -0.16771448712E+04  0.16771448713E+04  0.50400001928E-02 0.  1.
    10030    2    1    2    0    0  0.00000000000E+00  0.00000000000E+00  0.42642258066E+02  0.33969320006E+04  0.33966643423E+04 0.  0.
        1    1    3    3  502    0  0.12439081661E+04 -0.80326504969E+03 -0.81048349264E+03  0.16880242171E+04  0.50400001928E-02 0.  1.
       -1    1    3    3    0  502 -0.12439081661E+04  0.80326504969E+03  0.85312575071E+03  0.17089077834E+04  0.50400001928E-02 0. -1.
</event>
<event>
 5   0  0.1010551E-06  0.3329399E+04  0.7818609E-02  0.8155455E-01
       -1   -1    0    0    0  501  0.00000000000E+00  0.00000000000E+00  0.14952189236E+04  0.14952189236E+04  0.50400001928E-02 0. -1.
        1   -1    0    0  501    0  0.00000000000E+00  0.00000000000E+00 -0.18533899437E+04  0.18533899437E+04  0.50400001928E-02 0.  1.
    10030    2    1    2    0    0  0.00000000000E+00  0.00000000000E+00 -0.35817102006E+03  0.33486088673E+04  0.33293985743E+04 0.  0.
        2    1    3    3  502    0 -0.12334695648E+04  0.67834709725E+03  0.71464830285E+03  0.15787096466E+04  0.25500000920E-02 0. -1.
       -2    1    3    3    0  502  0.12334695648E+04 -0.67834709725E+03 -0.10728193229E+04  0.17698992206E+04  0.25500000920E-02 0.  1.
</event>
<event>
 5   0  0.2856440E-06  0.2711606E+04  0.7818609E-02  0.8331249E-01
        2   -1    0    0  501    0  0.00000000000E+00  0.00000000000E+00  0.14231503920E+04  0.14231503920E+04  0.25500000920E-02 0. -1.
       -2   -1    0    0    0  501  0.00000000000E+00  0.00000000000E+00 -0.12916426013E+04  0.12916426013E+04  0.25500000920E-02 0.  1.
    10030    2    1    2    0    0  0.00000000000E+00  0.00000000000E+00  0.13150779075E+03  0.27147929933E+04  0.27116059259E+04 0.  0.
        4    1    3    3  502    0 -0.34194388924E+03 -0.64072622955E+03 -0.10804691616E+04  0.13018720930E+04  0.12699999809E+01 0.  1.
       -4    1    3    3    0  502  0.34194388924E+03  0.64072622955E+03  0.12119769523E+04  0.14129209003E+04  0.12699999809E+01 0. -1.
</event>
<event>
 5   0  0.9070500E-07  0.3416511E+04  0.7818609E-02  0.8133866E-01
        3   -1    0    0  501    0  0.00000000000E+00  0.00000000000E+00  0.25210135477E+04  0.25210135497E+04  0.10100000352E+00 0.  1.
       -3   -1    0    0    0  501  0.00000000000E+00  0.00000000000E+00 -0.11575255341E+04  0.11575255385E+04  0.10100000352E+00 0. -1.
    10030    2    1    2    0    0  0.00000000000E+00  0.00000000000E+00  0.13634880136E+04  0.36785390882E+04  0.34165114167E+04 0.  0.
        3    1    3    3  502    0 -0.16209204011E+04  0.49111521909E+03  0.92143963792E+03  0.19281151733E+04  0.10100000352E+00 0.  1.
       -3    1    3    3    0  502  0.16209204011E+04 -0.49111521909E+03  0.44204837573E+03  0.17504239149E+04  0.10100000352E+00 0. -1.
</event>
<event>
 5   0  0.2856440E-06  0.3407464E+04  0.7818609E-02  0.8136077E-01
       -2   -1    0    0    0  501  0.00000000000E+00  0.00000000000E+00  0.10878703052E+04  0.10878703052E+04  0.25500000920E-02 0. -1.
        2   -1    0    0  501    0  0.00000000000E+00  0.00000000000E+00 -0.26682440137E+04  0.26682440137E+04  0.25500000920E-02 0.  1.
    10030    2    1    2    0    0  0.00000000000E+00  0.00000000000E+00 -0.15803737085E+04  0.37561143188E+04  0.34074644118E+04 0.  0.
        4    1    3    3  502    0  0.99208346559E+02  0.16956598614E+04 -0.93641423593E+03  0.19395818868E+04  0.12699999809E+01 0. -1.
       -4    1    3    3    0  502 -0.99208346559E+02 -0.16956598614E+04 -0.64395947258E+03  0.18165324320E+04  0.12699999809E+01 0.  1.
</event>
<event>
 5   0  0.2856440E-06  0.3377325E+04  0.7818609E-02  0.8143494E-01
        2   -1    0    0  501    0  0.00000000000E+00  0.00000000000E+00  0.24625148449E+04  0.24625148449E+04  0.25500000920E-02 0.  1.
       -2   -1    0    0    0  501  0.00000000000E+00  0.00000000000E+00 -0.11579957325E+04  0.11579957325E+04  0.25500000920E-02 0. -1.
    10030    2    1    2    0    0  0.00000000000E+00  0.00000000000E+00  0.13045191125E+04  0.36205105774E+04  0.33773253806E+04 0.  0.
        4    1    3    3  502    0 -0.15955647807E+04 -0.32065783547E+03  0.16934331451E+03  0.16362540108E+04  0.12699999809E+01 0.  1.
       -4    1    3    3    0  502  0.15955647807E+04  0.32065783547E+03  0.11351757979E+04  0.19842565666E+04  0.12699999809E+01 0. -1.
</event>
<event>
 5   0  0.2848685E-06  0.3401832E+04  0.7818609E-02  0.8137457E-01
       -2   -1    0    0    0  501  0.00000000000E+00  0.00000000000E+00  0.20661892792E+04  0.20661892792E+04  0.25500000920E-02 0.  1.
        2   -1    0    0  501    0  0.00000000000E+00  0.00000000000E+00 -0.14002175791E+04  0.14002175791E+04  0.25500000920E-02 0. -1.
    10030    2    1    2    0    0  0.00000000000E+00  0.00000000000E+00  0.66597170009E+03  0.34664068584E+04  0.34018315952E+04 0.  0.
        3    1    3    3  502    0  0.15664117772E+04 -0.50482363870E+03  0.77081854587E+03  0.18173205559E+04  0.10100000352E+00 0.  1.
       -3    1    3    3    0  502 -0.15664117772E+04  0.50482363870E+03 -0.10484684578E+03  0.16490863025E+04  0.10100000352E+00 0. -1.
</event>
<event>
 5   0  0.1010551E-06  0.3361257E+04  0.7818609E-02  0.8147481E-01
       -1   -1    0    0    0  501  0.00000000000E+00  0.00000000000E+00  0.28749272508E+04  0.28749272508E+04  0.50400001928E-02 0. -1.
        1   -1    0    0  501    0  0.00000000000E+00  0.00000000000E+00 -0.98246408142E+03  0.98246408143E+03  0.50400001928E-02 0.  1.
    10030    2    1    2    0    0  0.00000000000E+00  0.00000000000E+00  0.18924631694E+04  0.38573913323E+04  0.33612573604E+04 0.  0.
        2    1    3    3  502    0  0.56198604312E+03  0.39431143613E+03 -0.81421002560E+03  0.10650106981E+04  0.25500000920E-02 0.  1.
       -2    1    3    3    0  502 -0.56198604312E+03 -0.39431143613E+03  0.27066731950E+04  0.27923806341E+04  0.25500000920E-02 0. -1.
</event>
<event>
 5   0  0.1010855E-06  0.3537457E+04  0.7818609E-02  0.8104970E-01
        1   -1    0    0  501    0  0.00000000000E+00  0.00000000000E+00  0.16025042554E+04  0.16025042554E+04  0.50400001928E-02 0. -1.
       -1   -1    0    0    0  501  0.00000000000E+00  0.00000000000E+00 -0.19521952015E+04  0.19521952015E+04  0.50400001928E-02 0.  1.
    10030    2    1    2    0    0  0.00000000000E+00  0.00000000000E+00 -0.34969094613E+03  0.35546994570E+04  0.35374573455E+04 0.  0.
        1    1    3    3  502    0  0.11957307611E+04  0.53758112036E+03  0.10182222764E+04  0.16599825656E+04  0.50400001928E-02 0. -1.
       -1    1    3    3    0  502 -0.11957307611E+04 -0.53758112036E+03 -0.13679132225E+04  0.18947168913E+04  0.50400001928E-02 0.  1.
</event>
<event>
 5   0  0.9070500E-07  0.3337097E+04  0.7818609E-02  0.8153520E-01
       -3   -1    0    0    0  501  0.00000000000E+00  0.00000000000E+00  0.20323775638E+04  0.20323775663E+04  0.10100000352E+00 0. -1.
        3   -1    0    0  501    0  0.00000000000E+00  0.00000000000E+00 -0.13698509528E+04  0.13698509566E+04  0.10100000352E+00 0.  1.
    10030    2    1    2    0    0  0.00000000000E+00  0.00000000000E+00  0.66252661098E+03  0.34022285229E+04  0.33370971535E+04 0.  0.
        2    1    3    3  502    0  0.12115665088E+04  0.11405157758E+04  0.20480733842E+03  0.16764890951E+04  0.25500000920E-02 0. -1.
       -2    1    3    3    0  502 -0.12115665088E+04 -0.11405157758E+04  0.45771927256E+03  0.17257394278E+04  0.25500000920E-02 0.  1.
</event>
<event>
 5   0  0.2767014E-06  0.3017986E+04  0.7818609E-02  0.8238614E-01
       -2   -1    0    0    0  501  0.00000000000E+00  0.00000000000E+00  0.12755913180E+04  0.12755913180E+04  0.25500000920E-02 0. -1.
        2   -1    0    0  501    0  0.00000000000E+00  0.00000000000E+00 -0.17851008898E+04  0.17851008898E+04  0.25500000920E-02 0.  1.
    10030    2    1    2    0    0  0.00000000000E+00  0.00000000000E+00 -0.50950957175E+03  0.30606922078E+04  0.30179855511E+04 0.  0.
        1    1    3    3  502    0 -0.12973574128E+04  0.13159286306E+03 -0.10248460160E+04  0.16585422197E+04  0.50400001928E-02 0.  1.
       -1    1    3    3    0  502  0.12973574128E+04 -0.13159286306E+03  0.51533644428E+03  0.14021499880E+04  0.50400001928E-02 0. -1.
</event>
<event>
 5   0  0.2906701E-06  0.3395642E+04  0.7818609E-02  0.8138977E-01
       -2   -1    0    0    0  501  0.00000000000E+00  0.00000000000E+00  0.12563558384E+04  0.12563558384E+04  0.25500000920E-02 0. -1.
        2   -1    0    0  501    0  0.00000000000E+00  0.00000000000E+00 -0.22944107883E+04  0.22944107883E+04  0.25500000920E-02 0.  1.
    10030    2    1    2    0    0  0.00000000000E+00  0.00000000000E+00 -0.10380549500E+04  0.35507666267E+04  0.33956421422E+04 0.  0.
        5    1    3    3  502    0  0.12367486678E+04 -0.67811241968E+03  0.46923494536E+03  0.14864680437E+04  0.46999998093E+01 0. -1.
       -5    1    3    3    0  502 -0.12367486678E+04  0.67811241968E+03 -0.15072898953E+04  0.20642985830E+04  0.46999998093E+01 0.  1.
</event>
<event>
 5   0  0.2856440E-06  0.3306469E+04  0.7818609E-02  0.8161251E-01
       -2   -1    0    0    0  501  0.00000000000E+00  0.00000000000E+00  0.15090075665E+04  0.15090075665E+04  0.25500000920E-02 0.  1.
        2   -1    0    0  501    0  0.00000000000E+00  0.00000000000E+00 -0.18112461882E+04  0.18112461882E+04  0.25500000920E-02 0. -1.
    10030    2    1    2    0    0  0.00000000000E+00  0.00000000000E+00 -0.30223862170E+03  0.33202537548E+04  0.33064689340E+04 0.  0.
        4    1    3    3  502    0  0.49480024649E+03  0.14824991318E+04 -0.69239495823E+03  0.17093985348E+04  0.12699999809E+01 0. -1.
       -4    1    3    3    0  502 -0.49480024649E+03 -0.14824991318E+04  0.39015633653E+03  0.16108552199E+04  0.12699999809E+01 0.  1.
</event>
<event>
 5   0  0.1003191E-06  0.3433805E+04  0.7818609E-02  0.8129659E-01
        1   -1    0    0  501    0  0.00000000000E+00  0.00000000000E+00  0.16791678801E+04  0.16791678801E+04  0.50400001928E-02 0.  1.
       -1   -1    0    0    0  501  0.00000000000E+00  0.00000000000E+00 -0.17554851047E+04  0.17554851047E+04  0.50400001928E-02 0. -1.
    10030    2    1    2    0    0  0.00000000000E+00  0.00000000000E+00 -0.76317224577E+02  0.34346529848E+04  0.34338050043E+04 0.  0.
        5    1    3    3  502    0  0.21566901705E+02 -0.10005004717E+04 -0.14335894306E+04  0.17483326545E+04  0.46999998093E+01 0. -1.
       -5    1    3    3    0  502 -0.21566901705E+02  0.10005004717E+04  0.13572722060E+04  0.16863203303E+04  0.46999998093E+01 0.  1.
</event>
<event>
 5   0  0.9232963E-07  0.3406060E+04  0.7818609E-02  0.8136421E-01
       -1   -1    0    0    0  501  0.00000000000E+00  0.00000000000E+00  0.12654371585E+04  0.12654371585E+04  0.50400001928E-02 0. -1.
        1   -1    0    0  501    0  0.00000000000E+00  0.00000000000E+00 -0.22919434196E+04  0.22919434196E+04  0.50400001928E-02 0.  1.
    10030    2    1    2    0    0  0.00000000000E+00  0.00000000000E+00 -0.10265062611E+04  0.35573805781E+04  0.34060595229E+04 0.  0.
        3    1    3    3  502    0 -0.10241804801E+04  0.12762426364E+04 -0.10059852330E+04  0.19208714746E+04  0.10100000352E+00 0.  1.
       -3    1    3    3    0  502  0.10241804801E+04 -0.12762426364E+04 -0.20521028036E+02  0.16365091034E+04  0.10100000352E+00 0. -1.
</event>
<event>
 5   0  0.1010551E-06  0.3437143E+04  0.7818609E-02  0.8128850E-01
        1   -1    0    0  501    0  0.00000000000E+00  0.00000000000E+00  0.99773723896E+03  0.99773723897E+03  0.50400001928E-02 0.  1.
       -1   -1    0    0    0  501  0.00000000000E+00  0.00000000000E+00 -0.29601864087E+04  0.29601864087E+04  0.50400001928E-02 0. -1.
    10030    2    1    2    0    0  0.00000000000E+00  0.00000000000E+00 -0.19624491697E+04  0.39579236477E+04  0.34371431243E+04 0.  0.
        2    1    3    3  502    0  0.44436496462E+03  0.13980926739E+04 -0.20120495894E+04  0.24900736730E+04  0.25500000920E-02 0. -1.
       -2    1    3    3    0  502 -0.44436496462E+03 -0.13980926739E+04  0.49600419688E+02  0.14678499747E+04  0.25500000920E-02 0.  1.
</event>
<event>
 5   0  0.1010551E-06  0.3482198E+04  0.7818609E-02  0.8118022E-01
       -1   -1    0    0    0  501  0.00000000000E+00  0.00000000000E+00  0.12924400257E+04  0.12924400257E+04  0.50400001928E-02 0. -1.
        1   -1    0    0  501    0  0.00000000000E+00  0.00000000000E+00 -0.23455055692E+04  0.23455055692E+04  0.50400001928E-02 0.  1.
    10030    2    1    2    0    0  0.00000000000E+00  0.00000000000E+00 -0.10530655435E+04  0.36379455949E+04  0.34821977417E+04 0.  0.
        2    1    3    3  502    0  0.15484059664E+03 -0.16993381330E+04 -0.88798347909E+03  0.19236008837E+04  0.25500000920E-02 0.  1.
       -2    1    3    3    0  502 -0.15484059664E+03  0.16993381330E+04 -0.16508206437E+03  0.17143447112E+04  0.25500000920E-02 0. -1.
</event>
<event>
 5   0  0.1003191E-06  0.3313040E+04  0.7818609E-02  0.8159585E-01
        1   -1    0    0  501    0  0.00000000000E+00  0.00000000000E+00  0.25894058809E+04  0.25894058809E+04  0.50400001928E-02 0. -1.
       -1   -1    0    0    0  501  0.00000000000E+00  0.00000000000E+00 -0.10597252449E+04  0.10597252449E+04  0.50400001928E-02 0.  1.
    10030    2    1    2    0    0  0.00000000000E+00  0.00000000000E+00  0.15296806359E+04  0.36491311258E+04  0.33130401636E+04 0.  0.
        5    1    3    3  502    0  0.45897355743E+03  0.14981352017E+04  0.17274747619E+03  0.15763659440E+04  0.46999998093E+01 0.  1.
       -5    1    3    3    0  502 -0.45897355743E+03 -0.14981352017E+04  0.13569331597E+04  0.20727651818E+04  0.46999998093E+01 0. -1.
</event>
<event>
 5   0  0.2767014E-06  0.3409957E+04  0.7818609E-02  0.8135467E-01
       -2   -1    0    0    0  501  0.00000000000E+00  0.00000000000E+00  0.25570058403E+04  0.25570058403E+04  0.25500000920E-02 0. -1.
        2   -1    0    0  501    0  0.00000000000E+00  0.00000000000E+00 -0.11368577818E+04  0.11368577818E+04  0.25500000920E-02 0.  1.
    10030    2    1    2    0    0  0.00000000000E+00  0.00000000000E+00  0.14201480585E+04  0.36938636222E+04  0.34099571773E+04 0.  0.
        1    1    3    3  502    0 -0.31549419642E+03 -0.33095214027E+03 -0.10692036713E+04  0.11628681773E+04  0.50400001928E-02 0.  1.
       -1    1    3    3    0  502  0.31549419642E+03  0.33095214027E+03  0.24893517298E+04  0.25309954448E+04  0.50400001928E-02 0. -1.
</event>
<event>
 5   0  0.9714317E-07  0.3318899E+04  0.7818609E-02  0.8158103E-01
       -1   -1    0    0    0  501  0.00000000000E+00  0.00000000000E+00  0.13194831277E+04  0.13194831277E+04  0.50400001928E-02 0.  1.
        1   -1    0    0  501    0  0.00000000000E+00  0.00000000000E+00 -0.20870083196E+04  0.20870083196E+04  0.50400001928E-02 0. -1.
    10030    2    1    2    0    0  0.00000000000E+00  0.00000000000E+00 -0.76752519187E+03  0.34064914473E+04  0.33188987722E+04 0.  0.
        4    1    3    3  502    0  0.70809210826E+03 -0.25333278347E+03  0.11345342023E+04  0.13611544372E+04  0.12699999809E+01 0.  1.
       -4    1    3    3    0  502 -0.70809210826E+03  0.25333278347E+03 -0.19020593941E+04  0.20453370101E+04  0.12699999809E+01 0. -1.
</event>
<event>
 5   0  0.1010855E-06  0.3392998E+04  0.7818609E-02  0.8139627E-01
       -1   -1    0    0    0  501  0.00000000000E+00  0.00000000000E+00  0.14265009195E+04  0.14265009196E+04  0.50400001928E-02 0. -1.
        1   -1    0    0  501    0  0.00000000000E+00  0.00000000000E+00 -0.20176000451E+04  0.20176000451E+04  0.50400001928E-02 0.  1.
    10030    2    1    2    0    0  0.00000000000E+00  0.00000000000E+00 -0.59109912555E+03  0.34441009647E+04  0.33929976832E+04 0.  0.
        1    1    3    3  502    0  0.14286555602E+04  0.86889496174E+02 -0.12200369369E+04  0.18807170499E+04  0.50400001928E-02 0.  1.
       -1    1    3    3    0  502 -0.14286555602E+04 -0.86889496174E+02  0.62893781136E+03  0.15633839148E+04  0.50400001928E-02 0. -1.
</event>
<event>
 5   0  0.2856440E-06  0.3382162E+04  0.7818609E-02  0.8142298E-01
       -2   -1    0    0    0  501  0.00000000000E+00  0.00000000000E+00  0.14922979924E+04  0.14922979924E+04  0.25500000920E-02 0. -1.
        2   -1    0    0  501    0  0.00000000000E+00  0.00000000000E+00 -0.19163428091E+04  0.19163428091E+04  0.25500000920E-02 0.  1.
    10030    2    1    2    0    0  0.00000000000E+00  0.00000000000E+00 -0.42404481669E+03  0.34086408015E+04  0.33821617506E+04 0.  0.
        4    1    3    3  502    0 -0.23935909666E+03 -0.79841929211E+03 -0.16949313638E+04  0.18887985822E+04  0.12699999809E+01 0.  1.
       -4    1    3    3    0  502  0.23935909666E+03  0.79841929211E+03  0.12708865471E+04  0.15198422193E+04  0.12699999809E+01 0. -1.
</event>
<event>
 5   0  0.1003191E-06  0.2167431E+04  0.7818609E-02  0.8532108E-01
       -1   -1    0    0    0  501  0.00000000000E+00  0.00000000000E+00  0.68645406285E+03  0.68645406287E+03  0.50400001928E-02 0. -1.
        1   -1    0    0  501    0  0.00000000000E+00  0.00000000000E+00 -0.17108775429E+04  0.17108775429E+04  0.50400001928E-02 0.  1.
    10030    2    1    2    0    0  0.00000000000E+00  0.00000000000E+00 -0.10244234800E+04  0.23973316057E+04  0.21674305898E+04 0.  0.
        5    1    3    3  502    0 -0.88964220189E+03 -0.52606201829E+03 -0.87268265523E+03  0.13527015936E+04  0.46999998093E+01 0.  1.
       -5    1    3    3    0  502  0.88964220189E+03  0.52606201829E+03 -0.15174082479E+03  0.10446300122E+04  0.46999998093E+01 0. -1.
</event>
<event>
 5   0  0.9070500E-07  0.2886363E+04  0.7818609E-02  0.8276947E-01
        3   -1    0    0  501    0  0.00000000000E+00  0.00000000000E+00  0.26615362842E+04  0.26615362861E+04  0.10100000352E+00 0. -1.
       -3   -1    0    0    0  501  0.00000000000E+00  0.00000000000E+00 -0.78254527120E+03  0.78254527772E+03  0.10100000352E+00 0.  1.
    10030    2    1    2    0    0  0.00000000000E+00  0.00000000000E+00  0.18789910130E+04  0.34440815638E+04  0.28863628655E+04 0.  0.
        2    1    3    3  502    0 -0.94972847222E+03 -0.65436955086E+02 -0.35475892784E+03  0.10159330996E+04  0.25500000920E-02 0.  1.
       -2    1    3    3    0  502  0.94972847222E+03  0.65436955086E+02  0.22337499408E+04  0.24281484642E+04  0.25500000920E-02 0. -1.
</event>
<event>
 5   0  0.9714317E-07  0.2290976E+04  0.7818609E-02  0.8481488E-01
       -1   -1    0    0    0  501  0.00000000000E+00  0.00000000000E+00  0.93570682682E+03  0.93570682683E+03  0.50400001928E-02 0. -1.
        1   -1    0    0  501    0  0.00000000000E+00  0.00000000000E+00 -0.14023006285E+04  0.14023006286E+04  0.50400001928E-02 0.  1.
    10030    2    1    2    0    0  0.00000000000E+00  0.00000000000E+00 -0.46659380173E+03  0.23380074554E+04  0.22909755751E+04 0.  0.
        4    1    3    3  502    0  0.42162520220E+03  0.38156317635E+03 -0.12480860018E+04  0.13715241703E+04  0.12699999809E+01 0.  1.
       -4    1    3    3    0  502 -0.42162520220E+03 -0.38156317635E+03  0.78149220012E+03  0.96648328513E+03  0.12699999809E+01 0. -1.
</event>
<event>
 5   0  0.2767014E-06  0.3508310E+04  0.7818609E-02  0.8111823E-01
       -2   -1    0    0    0  501  0.00000000000E+00  0.00000000000E+00  0.12330400504E+04  0.12330400504E+04  0.25500000920E-02 0. -1.
        2   -1    0    0  501    0  0.00000000000E+00  0.00000000000E+00 -0.24955064285E+04  0.24955064285E+04  0.25500000920E-02 0.  1.
    10030    2    1    2    0    0  0.00000000000E+00  0.00000000000E+00 -0.12624663782E+04  0.37285464789E+04  0.35083097767E+04 0.  0.
        1    1    3    3  502    0 -0.86126268813E+03  0.12928836596E+03 -0.22495061507E+04  0.24122120183E+04  0.50400001928E-02 0.  1.
       -1    1    3    3    0  502  0.86126268813E+03 -0.12928836596E+03  0.98703977249E+03  0.13163344606E+04  0.50400001928E-02 0. -1.
</event>
<event>
 5   0  0.9714317E-07  0.3361694E+04  0.7818609E-02  0.8147372E-01
       -1   -1    0    0    0  501  0.00000000000E+00  0.00000000000E+00  0.14649810348E+04  0.14649810348E+04  0.50400001928E-02 0. -1.
        1   -1    0    0  501    0  0.00000000000E+00  0.00000000000E+00 -0.19285213717E+04  0.19285213717E+04  0.50400001928E-02 0.  1.
    10030    2    1    2    0    0  0.00000000000E+00  0.00000000000E+00 -0.46354033688E+03  0.33935024065E+04  0.33616943554E+04 0.  0.
        4    1    3    3  502    0 -0.76026868215E+03 -0.49371978244E+03 -0.16606056221E+04  0.18919250349E+04  0.12699999809E+01 0.  1.
       -4    1    3    3    0  502  0.76026868215E+03  0.49371978244E+03  0.11970652853E+04  0.15015773715E+04  0.12699999809E+01 0. -1.
</event>
<event>
 5   0  0.2767014E-06  0.3428540E+04  0.7818609E-02  0.8130937E-01
        2   -1    0    0  501    0  0.00000000000E+00  0.00000000000E+00  0.14824763653E+04  0.14824763653E+04  0.25500000920E-02 0.  1.
       -2   -1    0    0    0  501  0.00000000000E+00  0.00000000000E+00 -0.19823060059E+04  0.19823060059E+04  0.25500000920E-02 0. -1.
    10030    2    1    2    0    0  0.00000000000E+00  0.00000000000E+00 -0.49982964069E+03  0.34647823712E+04  0.34285400990E+04 0.  0.
        1    1    3    3  502    0 -0.99151664078E+01  0.15803889979E+04  0.42117881662E+03  0.16355791912E+04  0.50400001928E-02 0.  1.
       -1    1    3    3    0  502  0.99151664078E+01 -0.15803889979E+04 -0.92100845731E+03  0.18292031800E+04  0.50400001928E-02 0. -1.
</event>
<event>
 5   0  0.2848685E-06  0.3427527E+04  0.7818609E-02  0.8131183E-01
       -2   -1    0    0    0  501  0.00000000000E+00  0.00000000000E+00  0.17492368310E+04  0.17492368310E+04  0.25500000920E-02 0. -1.
        2   -1    0    0  501    0  0.00000000000E+00  0.00000000000E+00 -0.16790094011E+04  0.16790094011E+04  0.25500000920E-02 0.  1.
    10030    2    1    2    0    0  0.00000000000E+00  0.00000000000E+00  0.70227429904E+02  0.34282462322E+04  0.34275268542E+04 0.  0.
        3    1    3    3  502    0  0.15561742544E+04  0.25196482019E+03 -0.63720330213E+03  0.17003507401E+04  0.10100000352E+00 0.  1.
       -3    1    3    3    0  502 -0.15561742544E+04 -0.25196482019E+03  0.70743073203E+03  0.17278954921E+04  0.10100000352E+00 0. -1.
</event>
<event>
 5   0  0.2848685E-06  0.3441330E+04  0.7818609E-02  0.8127836E-01
        2   -1    0    0  501    0  0.00000000000E+00  0.00000000000E+00  0.16316182026E+04  0.16316182026E+04  0.25500000920E-02 0. -1.
       -2   -1    0    0    0  501  0.00000000000E+00  0.00000000000E+00 -0.18145720430E+04  0.18145720430E+04  0.25500000920E-02 0.  1.
    10030    2    1    2    0    0  0.00000000000E+00  0.00000000000E+00 -0.18295384038E+03  0.34461902456E+04  0.34413304261E+04 0.  0.
        3    1    3    3  502    0 -0.55034260120E+02 -0.92278812284E+03  0.13618209755E+04  0.16459413930E+04  0.10100000352E+00 0. -1.
       -3    1    3    3    0  502  0.55034260120E+02  0.92278812284E+03 -0.15447748159E+04  0.18002488527E+04  0.10100000352E+00 0.  1.
</event>
<event>
 5   0  0.1010855E-06  0.2663048E+04  0.7818609E-02  0.8347095E-01
       -1   -1    0    0    0  501  0.00000000000E+00  0.00000000000E+00  0.14908966808E+04  0.14908966808E+04  0.50400001928E-02 0.  1.
        1   -1    0    0  501    0  0.00000000000E+00  0.00000000000E+00 -0.11891876129E+04  0.11891876130E+04  0.50400001928E-02 0. -1.
    10030    2    1    2    0    0  0.00000000000E+00  0.00000000000E+00  0.30170906784E+03  0.26800842938E+04  0.26630477765E+04 0.  0.
        1    1    3    3  502    0  0.34314877649E+03 -0.12629633592E+04 -0.95924969624E+02  0.13122610752E+04  0.50400001928E-02 0.  1.
       -1    1    3    3    0  502 -0.34314877649E+03  0.12629633592E+04  0.39763403746E+03  0.13678232186E+04  0.50400001928E-02 0. -1.
</event>
<event>
 5   0  0.1003191E-06  0.3325879E+04  0.7818609E-02  0.8156342E-01
       -1   -1    0    0    0  501  0.00000000000E+00  0.00000000000E+00  0.13617080885E+04  0.13617080885E+04  0.50400001928E-02 0.  1.
        1   -1    0    0  501    0  0.00000000000E+00  0.00000000000E+00 -0.20308081225E+04  0.20308081225E+04  0.50400001928E-02 0. -1.
    10030    2    1    2    0    0  0.00000000000E+00  0.00000000000E+00 -0.66910003402E+03  0.33925162110E+04  0.33258790397E+04 0.  0.
        5    1    3    3  502    0 -0.62291387893E+03 -0.22435737004E+03  0.12214605326E+04  0.13893688685E+04  0.46999998093E+01 0.  1.
       -5    1    3    3    0  502  0.62291387893E+03  0.22435737004E+03 -0.18905605666E+04  0.20031473426E+04  0.46999998093E+01 0. -1.
</event>
<event>
 5   0  0.2848685E-06  0.3475364E+04  0.7818609E-02  0.8119653E-01
       -2   -1    0    0    0  501  0.00000000000E+00  0.00000000000E+00  0.20612456449E+04  0.20612456449E+04  0.25500000920E-02 0. -1.
        2   -1    0    0  501    0  0.00000000000E+00  0.00000000000E+00 -0.14649095855E+04  0.14649095855E+04  0.25500000920E-02 0.  1.
    10030    2    1    2    0    0  0.00000000000E+00  0.00000000000E+00  0.59633605940E+03  0.35261552305E+04  0.34753638678E+04 0.  0.
        3    1    3    3  502    0  0.41350165501E+03 -0.15171202126E+04 -0.45216758009E+03  0.16361824131E+04  0.10100000352E+00 0.  1.
       -3    1    3    3    0  502 -0.41350165501E+03  0.15171202126E+04  0.10485036395E+04  0.18899728174E+04  0.10100000352E+00 0. -1.
</event>
<event>
 5   0  0.1003191E-06  0.2461495E+04  0.7818609E-02  0.8416833E-01
       -1   -1    0    0    0  501  0.00000000000E+00  0.00000000000E+00  0.15607024230E+04  0.15607024231E+04  0.50400001928E-02 0. -1.
        1   -1    0    0  501    0  0.00000000000E+00  0.00000000000E+00 -0.97054941722E+03  0.97054941724E+03  0.50400001928E-02 0.  1.
    10030    2    1    2    0    0  0.00000000000E+00  0.00000000000E+00  0.59015300582E+03  0.25312518403E+04  0.24614945275E+04 0.  0.
        5    1    3    3  502    0  0.14171149355E+03 -0.11962125581E+04  0.55463822368E+03  0.13261418780E+04  0.46999998093E+01 0. -1.
       -5    1    3    3    0  502 -0.14171149355E+03  0.11962125581E+04  0.35514782139E+02  0.12051099623E+04  0.46999998093E+01 0.  1.
</event>
<event>
 5   0  0.2664083E-06  0.3301978E+04  0.7818609E-02  0.8162392E-01
       -2   -1    0    0    0  501  0.00000000000E+00  0.00000000000E+00  0.27934187774E+04  0.27934187774E+04  0.25500000920E-02 0.  1.
        2   -1    0    0  501    0  0.00000000000E+00  0.00000000000E+00 -0.97578114672E+03  0.97578114673E+03  0.25500000920E-02 0. -1.
    10030    2    1    2    0    0  0.00000000000E+00  0.00000000000E+00  0.18176376306E+04  0.37691999241E+04  0.33019784238E+04 0.  0.
        2    1    3    3  502    0  0.14367095085E+03  0.83661074933E+03 -0.70760221942E+03  0.11051062342E+04  0.25500000920E-02 0. -1.
       -2    1    3    3    0  502 -0.14367095085E+03 -0.83661074933E+03  0.25252398501E+04  0.26640936899E+04  0.25500000920E-02 0.  1.
</event>
<event>
 5   0  0.9232963E-07  0.3396856E+04  0.7818609E-02  0.8138678E-01
       -1   -1    0    0    0  501  0.00000000000E+00  0.00000000000E+00  0.11648853438E+04  0.11648853438E+04  0.50400001928E-02 0.  1.
        1   -1    0    0  501    0  0.00000000000E+00  0.00000000000E+00 -0.24763453324E+04  0.24763453324E+04  0.50400001928E-02 0. -1.
    10030    2    1    2    0    0  0.00000000000E+00  0.00000000000E+00 -0.13114599886E+04  0.36412306762E+04  0.33968564197E+04 0.  0.
        3    1    3    3  502    0  0.12503696198E+04  0.31406466599E+03 -0.18409876451E+04  0.22475089143E+04  0.10100000352E+00 0. -1.
       -3    1    3    3    0  502 -0.12503696198E+04 -0.31406466599E+03  0.52952765650E+03  0.13937217619E+04  0.10100000352E+00 0.  1.
</event>
<event>
 5   0  0.9232963E-07  0.3555215E+04  0.7818609E-02  0.8100828E-01
        1   -1    0    0  501    0  0.00000000000E+00  0.00000000000E+00  0.18448491543E+04  0.18448491543E+04  0.50400001928E-02 0. -1.
       -1   -1    0    0    0  501  0.00000000000E+00  0.00000000000E+00 -0.17128164892E+04  0.17128164892E+04  0.50400001928E-02 0.  1.
    10030    2    1    2    0    0  0.00000000000E+00  0.00000000000E+00  0.13203266513E+03  0.35576656435E+04  0.35552147904E+04 0.  0.
        3    1    3    3  502    0 -0.70759330190E+03  0.10547118711E+04 -0.11785381945E+04  0.17326447120E+04  0.10100000352E+00 0.  1.
       -3    1    3    3    0  502  0.70759330190E+03 -0.10547118711E+04  0.13105708597E+04  0.18250209315E+04  0.10100000352E+00 0. -1.
</event>
<event>
 5   0  0.9714317E-07  0.3417817E+04  0.7818609E-02  0.8133547E-01
       -1   -1    0    0    0  501  0.00000000000E+00  0.00000000000E+00  0.32647700084E+04  0.32647700084E+04  0.50400001928E-02 0.  1.
        1   -1    0    0  501    0  0.00000000000E+00  0.00000000000E+00 -0.89450987537E+03  0.89450987539E+03  0.50400001928E-02 0. -1.
    10030    2    1    2    0    0  0.00000000000E+00  0.00000000000E+00  0.23702601330E+04  0.41592798838E+04  0.34178174400E+04 0.  0.
        4    1    3    3  502    0  0.80838633386E+03  0.24913082848E+03 -0.62185740532E+03  0.10498870796E+04  0.12699999809E+01 0. -1.
       -4    1    3    3    0  502 -0.80838633386E+03 -0.24913082848E+03  0.29921175383E+04  0.31093928042E+04  0.12699999809E+01 0.  1.
</event>
<event>
 5   0  0.2856440E-06  0.3279514E+04  0.7818609E-02  0.8168128E-01
        2   -1    0    0  501    0  0.00000000000E+00  0.00000000000E+00  0.26867189616E+04  0.26867189616E+04  0.25500000920E-02 0. -1.
       -2   -1    0    0    0  501  0.00000000000E+00  0.00000000000E+00 -0.10007758996E+04  0.10007758996E+04  0.25500000920E-02 0.  1.
    10030    2    1    2    0    0  0.00000000000E+00  0.00000000000E+00  0.16859430619E+04  0.36874948612E+04  0.32795143457E+04 0.  0.
        4    1    3    3  502    0 -0.39440257132E+03 -0.81209872209E+03  0.23821077048E+04  0.25474490088E+04  0.12699999809E+01 0. -1.
       -4    1    3    3    0  502  0.39440257132E+03  0.81209872209E+03 -0.69616464283E+03  0.11400458524E+04  0.12699999809E+01 0.  1.
</event>
<event>
 5   0  0.9232963E-07  0.3275225E+04  0.7818609E-02  0.8169228E-01
        1   -1    0    0  501    0  0.00000000000E+00  0.00000000000E+00  0.16284639627E+04  0.16284639627E+04  0.50400001928E-02 0.  1.
       -1   -1    0    0    0  501  0.00000000000E+00  0.00000000000E+00 -0.16468122699E+04  0.16468122699E+04  0.50400001928E-02 0. -1.
    10030    2    1    2    0    0  0.00000000000E+00  0.00000000000E+00 -0.18348307253E+02  0.32752762326E+04  0.32752248380E+04 0.  0.
        3    1    3    3  502    0 -0.57432378379E+03 -0.92126908335E+03 -0.12352398405E+04  0.16445066148E+04  0.10100000352E+00 0. -1.
       -3    1    3    3    0  502  0.57432378379E+03  0.92126908335E+03  0.12168915332E+04  0.16307696178E+04  0.10100000352E+00 0.  1.
</event>
<event>
 5   0  0.1003191E-06  0.3577916E+04  0.7818609E-02  0.8095569E-01
       -1   -1    0    0    0  501  0.00000000000E+00  0.00000000000E+00  0.18407347309E+04  0.18407347309E+04  0.50400001928E-02 0. -1.
        1   -1    0    0  501    0  0.00000000000E+00  0.00000000000E+00 -0.17386380258E+04  0.17386380258E+04  0.50400001928E-02 0.  1.
    10030    2    1    2    0    0  0.00000000000E+00  0.00000000000E+00  0.10209670509E+03  0.35793727567E+04  0.35779163761E+04 0.  0.
        5    1    3    3  502    0 -0.66041003540E+03 -0.97768261672E+03  0.13963427654E+04  0.18280590588E+04  0.46999998093E+01 0. -1.
       -5    1    3    3    0  502  0.66041003540E+03  0.97768261672E+03 -0.12942460603E+04  0.17513136979E+04  0.46999998093E+01 0.  1.
</event>
<event>
 5   0  0.9714317E-07  0.2636795E+04  0.7818609E-02  0.8355809E-01
        1   -1    0    0  501    0  0.00000000000E+00  0.00000000000E+00  0.23206197157E+04  0.23206197157E+04  0.50400001928E-02 0. -1.
       -1   -1    0    0    0  501  0.00000000000E+00  0.00000000000E+00 -0.74901219397E+03  0.74901219399E+03  0.50400001928E-02 0.  1.
    10030    2    1    2    0    0  0.00000000000E+00  0.00000000000E+00  0.15716075218E+04  0.30696319097E+04  0.26367953767E+04 0.  0.
        4    1    3    3  502    0  0.11664058094E+04  0.61089220183E+03  0.70789197040E+03  0.14949262353E+04  0.12699999809E+01 0.  1.
       -4    1    3    3    0  502 -0.11664058094E+04 -0.61089220183E+03  0.86371555136E+03  0.15747056744E+04  0.12699999809E+01 0. -1.
</event>
<event>
 5   0  0.2664083E-06  0.2632983E+04  0.7818609E-02  0.8357083E-01
       -2   -1    0    0    0  501  0.00000000000E+00  0.00000000000E+00  0.14017622890E+04  0.14017622890E+04  0.25500000920E-02 0. -1.
        2   -1    0    0  501    0  0.00000000000E+00  0.00000000000E+00 -0.12364081622E+04  0.12364081622E+04  0.25500000920E-02 0.  1.
    10030    2    1    2    0    0  0.00000000000E+00  0.00000000000E+00  0.16535412674E+03  0.26381704512E+04  0.26329833540E+04 0.  0.
        2    1    3    3  502    0 -0.13556361419E+03  0.46428877521E+03 -0.11441569161E+04  0.12421902466E+04  0.25500000920E-02 0.  1.
       -2    1    3    3    0  502  0.13556361419E+03 -0.46428877521E+03  0.13095110428E+04  0.13959802046E+04  0.25500000920E-02 0. -1.
</event>
<event>
 5   0  0.2856440E-06  0.3383695E+04  0.7818609E-02  0.8141920E-01
       -2   -1    0    0    0  501  0.00000000000E+00  0.00000000000E+00  0.11854051279E+04  0.11854051279E+04  0.25500000920E-02 0.  1.
        2   -1    0    0  501    0  0.00000000000E+00  0.00000000000E+00 -0.24146580289E+04  0.24146580289E+04  0.25500000920E-02 0. -1.
    10030    2    1    2    0    0  0.00000000000E+00  0.00000000000E+00 -0.12292529010E+04  0.36000631568E+04  0.33836950273E+04 0.  0.
        4    1    3    3  502    0  0.38814321440E+03  0.90093931359E+03  0.85191945190E+03  0.12992748620E+04  0.12699999809E+01 0.  1.
       -4    1    3    3    0  502 -0.38814321440E+03 -0.90093931359E+03 -0.20811723529E+04  0.23007882947E+04  0.12699999809E+01 0. -1.
</event>
<event>
 5   0  0.2856440E-06  0.3382523E+04  0.7818609E-02  0.8142209E-01
        2   -1    0    0  501    0  0.00000000000E+00  0.00000000000E+00  0.22773500589E+04  0.22773500589E+04  0.25500000920E-02 0. -1.
       -2   -1    0    0    0  501  0.00000000000E+00  0.00000000000E+00 -0.12560064207E+04  0.12560064207E+04  0.25500000920E-02 0.  1.
    10030    2    1    2    0    0  0.00000000000E+00  0.00000000000E+00  0.10213436381E+04  0.35333564796E+04  0.33825234936E+04 0.  0.
        4    1    3    3  502    0 -0.30701903949E+03  0.11138597394E+04 -0.77948178316E+03  0.13937495015E+04  0.12699999809E+01 0.  1.
       -4    1    3    3    0  502  0.30701903949E+03 -0.11138597394E+04  0.18008254213E+04  0.21396069781E+04  0.12699999809E+01 0. -1.
</event>
<event>
 5   0  0.9714317E-07  0.3275111E+04  0.7818609E-02  0.8169257E-01
       -1   -1    0    0    0  501  0.00000000000E+00  0.00000000000E+00  0.15126796571E+04  0.15126796571E+04  0.50400001928E-02 0.  1.
        1   -1    0    0  501    0  0.00000000000E+00  0.00000000000E+00 -0.17727407170E+04  0.17727407170E+04  0.50400001928E-02 0. -1.
    10030    2    1    2    0    0  0.00000000000E+00  0.00000000000E+00 -0.26006105992E+03  0.32854203741E+04  0.32751114912E+04 0.  0.
        4    1    3    3  502    0 -0.26841589018E+02 -0.43900731482E+03  0.14523182039E+04  0.15174576342E+04  0.12699999809E+01 0.  1.
       -4    1    3    3    0  502  0.26841589018E+02  0.43900731482E+03 -0.17123792639E+04  0.17679627399E+04  0.12699999809E+01 0. -1.
</event>
<event>
 5   0  0.2664083E-06  0.3267337E+04  0.7818609E-02  0.8171257E-01
       -2   -1    0    0    0  501  0.00000000000E+00  0.00000000000E+00  0.14851302341E+04  0.14851302341E+04  0.25500000920E-02 0.  1.
        2   -1    0    0  501    0  0.00000000000E+00  0.00000000000E+00 -0.17970626474E+04  0.17970626474E+04  0.25500000920E-02 0. -1.
    10030    2    1    2    0    0  0.00000000000E+00  0.00000000000E+00 -0.31193241338E+03  0.32821928815E+04  0.32673365729E+04 0.  0.
        2    1    3    3  502    0 -0.13479125437E+04  0.49226329915E+03 -0.94033705583E+03  0.17156413261E+04  0.25500000920E-02 0. -1.
       -2    1    3    3    0  502  0.13479125437E+04 -0.49226329915E+03  0.62840464245E+03  0.15665515554E+04  0.25500000920E-02 0.  1.
</event>
<event>
 5   0  0.2856440E-06  0.3536428E+04  0.7818609E-02  0.8105211E-01
        2   -1    0    0  501    0  0.00000000000E+00  0.00000000000E+00  0.19063449736E+04  0.19063449736E+04  0.25500000920E-02 0. -1.
       -2   -1    0    0    0  501  0.00000000000E+00  0.00000000000E+00 -0.16400917433E+04  0.16400917433E+04  0.25500000920E-02 0.  1.
    10030    2    1    2    0    0  0.00000000000E+00  0.00000000000E+00  0.26625323031E+03  0.35464367168E+04  0.35364279441E+04 0.  0.
        4    1    3    3  502    0  0.48646258331E+03  0.10411097340E+04 -0.12145606525E+04  0.16720390291E+04  0.12699999809E+01 0.  1.
       -4    1    3    3    0  502 -0.48646258331E+03 -0.10411097340E+04  0.14808138828E+04  0.18743976877E+04  0.12699999809E+01 0. -1.
</event>
<event>
 5   0  0.2906701E-06  0.3377498E+04  0.7818609E-02  0.8143451E-01
        2   -1    0    0  501    0  0.00000000000E+00  0.00000000000E+00  0.20181226767E+04  0.20181226767E+04  0.25500000920E-02 0.  1.
       -2   -1    0    0    0  501  0.00000000000E+00  0.00000000000E+00 -0.14131313175E+04  0.14131313175E+04  0.25500000920E-02 0. -1.
    10030    2    1    2    0    0  0.00000000000E+00  0.00000000000E+00  0.60499135922E+03  0.34312539942E+04  0.33774975097E+04 0.  0.
        5    1    3    3  502    0  0.11780826831E+04 -0.82486336971E+03 -0.59678911628E+03  0.15570670269E+04  0.46999998093E+01 0. -1.
       -5    1    3    3    0  502 -0.11780826831E+04  0.82486336971E+03  0.12017804755E+04  0.18741869673E+04  0.46999998093E+01 0.  1.
</event>
<event>
 5   0  0.1010551E-06  0.3359211E+04  0.7818609E-02  0.8147991E-01
       -1   -1    0    0    0  501  0.00000000000E+00  0.00000000000E+00  0.21190737606E+04  0.21190737606E+04  0.50400001928E-02 0.  1.
        1   -1    0    0  501    0  0.00000000000E+00  0.00000000000E+00 -0.13312769900E+04  0.13312769900E+04  0.50400001928E-02 0. -1.
    10030    2    1    2    0    0  0.00000000000E+00  0.00000000000E+00  0.78779677060E+03  0.34503507507E+04  0.33592107036E+04 0.  0.
        2    1    3    3  502    0 -0.85842328647E+03  0.58254436698E+03  0.17506552275E+04  0.20349550864E+04  0.25500000920E-02 0.  1.
       -2    1    3    3    0  502  0.85842328647E+03 -0.58254436698E+03 -0.96285845691E+03  0.14153956642E+04  0.25500000920E-02 0. -1.
</event>
<event>
 5   0  0.2906701E-06  0.3362169E+04  0.7818609E-02  0.8147254E-01
        2   -1    0    0  501    0  0.00000000000E+00  0.00000000000E+00  0.12906492755E+04  0.12906492755E+04  0.25500000920E-02 0. -1.
       -2   -1    0    0    0  501  0.00000000000E+00  0.00000000000E+00 -0.21896308002E+04  0.21896308002E+04  0.25500000920E-02 0.  1.
    10030    2    1    2    0    0  0.00000000000E+00  0.00000000000E+00 -0.89898152473E+03  0.34802800757E+04  0.33621691842E+04 0.  0.
        5    1    3    3  502    0  0.94649580055E+02  0.61851840547E+03 -0.20645910685E+04  0.21573321328E+04  0.46999998093E+01 0.  1.
       -5    1    3    3    0  502 -0.94649580055E+02 -0.61851840547E+03  0.11656095438E+04  0.13229479429E+04  0.46999998093E+01 0. -1.
</event>
<event>
 5   0  0.9070500E-07  0.3549058E+04  0.7818609E-02  0.8102261E-01
        3   -1    0    0  501    0  0.00000000000E+00  0.00000000000E+00  0.17339042706E+04  0.17339042735E+04  0.10100000352E+00 0. -1.
       -3   -1    0    0    0  501  0.00000000000E+00  0.00000000000E+00 -0.18161053631E+04  0.18161053659E+04  0.10100000352E+00 0.  1.
    10030    2    1    2    0    0  0.00000000000E+00  0.00000000000E+00 -0.82201092521E+02  0.35500096394E+04  0.35490578215E+04 0.  0.
        4    1    3    3  502    0  0.24901156921E+03 -0.17179215111E+04 -0.40956079269E+03  0.17835365810E+04  0.12699999809E+01 0.  1.
       -4    1    3    3    0  502 -0.24901156921E+03  0.17179215111E+04  0.32735970017E+03  0.17664730584E+04  0.12699999809E+01 0. -1.
</event>
<event>
 5   0  0.1010551E-06  0.3308047E+04  0.7818609E-02  0.8160851E-01
        1   -1    0    0  501    0  0.00000000000E+00  0.00000000000E+00  0.25704865178E+04  0.25704865178E+04  0.50400001928E-02 0.  1.
       -1   -1    0    0    0  501  0.00000000000E+00  0.00000000000E+00 -0.10643097581E+04  0.10643097581E+04  0.50400001928E-02 0. -1.
    10030    2    1    2    0    0  0.00000000000E+00  0.00000000000E+00  0.15061767597E+04  0.36347962759E+04  0.33080470878E+04 0.  0.
        2    1    3    3  502    0 -0.98476040174E+02 -0.21381463986E+03  0.25519864168E+04  0.25628204974E+04  0.25500000920E-02 0.  1.
       -2    1    3    3    0  502  0.98476040174E+02  0.21381463986E+03 -0.10458096570E+04  0.10719757784E+04  0.25500000920E-02 0. -1.
</event>
<event>
 5   0  0.2767014E-06  0.3418801E+04  0.7818609E-02  0.8133307E-01
        2   -1    0    0  501    0  0.00000000000E+00  0.00000000000E+00  0.19263597482E+04  0.19263597482E+04  0.25500000920E-02 0. -1.
       -2   -1    0    0    0  501  0.00000000000E+00  0.00000000000E+00 -0.15168766656E+04  0.15168766656E+04  0.25500000920E-02 0.  1.
    10030    2    1    2    0    0  0.00000000000E+00  0.00000000000E+00  0.40948308254E+03  0.34432364138E+04  0.34188010481E+04 0.  0.
        1    1    3    3  502    0  0.47620952665E+03  0.97918413799E+03 -0.11224299355E+04  0.15637858068E+04  0.50400001928E-02 0.  1.
       -1    1    3    3    0  502 -0.47620952665E+03 -0.97918413799E+03  0.15319130181E+04  0.18794506070E+04  0.50400001928E-02 0. -1.
</event>
<event>
 5   0  0.9714317E-07  0.3346675E+04  0.7818609E-02  0.8151119E-01
        1   -1    0    0  501    0  0.00000000000E+00  0.00000000000E+00  0.24897157479E+04  0.24897157479E+04  0.50400001928E-02 0. -1.
       -1   -1    0    0    0  501  0.00000000000E+00  0.00000000000E+00 -0.11246498645E+04  0.11246498645E+04  0.50400001928E-02 0.  1.
    10030    2    1    2    0    0  0.00000000000E+00  0.00000000000E+00  0.13650658835E+04  0.36143656124E+04  0.33466750535E+04 0.  0.
        4    1    3    3  502    0  0.18723836462E+03 -0.16526237155E+04  0.48388132804E+03  0.17321564891E+04  0.12699999809E+01 0. -1.
       -4    1    3    3    0  502 -0.18723836462E+03  0.16526237155E+04  0.88118455544E+03  0.18822091233E+04  0.12699999809E+01 0.  1.
</event>
<event>
 5   0  0.2848685E-06  0.3360264E+04  0.7818609E-02  0.8147728E-01
       -2   -1    0    0    0  501  0.00000000000E+00  0.00000000000E+00  0.19713543899E+04  0.19713543899E+04  0.25500000920E-02 0. -1.
        2   -1    0    0  501    0  0.00000000000E+00  0.00000000000E+00 -0.14319313836E+04  0.14319313836E+04  0.25500000920E-02 0.  1.
    10030    2    1    2    0    0  0.00000000000E+00  0.00000000000E+00  0.53942300626E+03  0.34032857735E+04  0.33602644057E+04 0.  0.
        3    1    3    3  502    0 -0.81089596880E+03 -0.10344581976E+04 -0.79019935064E+03  0.15336463278E+04  0.10100000352E+00 0.  1.
       -3    1    3    3    0  502  0.81089596880E+03  0.10344581976E+04  0.13296223569E+04  0.18696394457E+04  0.10100000352E+00 0. -1.
</event>
<event>
 5   0  0.1003191E-06  0.3124676E+04  0.7818609E-02  0.8208998E-01
        1   -1    0    0  501    0  0.00000000000E+00  0.00000000000E+00  0.17075398826E+04  0.17075398826E+04  0.50400001928E-02 0.  1.
       -1   -1    0    0    0  501  0.00000000000E+00  0.00000000000E+00 -0.14294831974E+04  0.14294831974E+04  0.50400001928E-02 0. -1.
    10030    2    1    2    0    0  0.00000000000E+00  0.00000000000E+00  0.27805668524E+03  0.31370230800E+04  0.31246757087E+04 0.  0.
        5    1    3    3  502    0 -0.28593008594E+03 -0.94279860595E+03  0.13563593657E+04  0.16764122537E+04  0.46999998093E+01 0.  1.
       -5    1    3    3    0  502  0.28593008594E+03  0.94279860595E+03 -0.10783026804E+04  0.14606108264E+04  0.46999998093E+01 0. -1.
</event>
<event>
 5   0  0.9232963E-07  0.3375107E+04  0.7818609E-02  0.8144043E-01
        1   -1    0    0  501    0  0.00000000000E+00  0.00000000000E+00  0.22495012208E+04  0.22495012208E+04  0.50400001928E-02 0. -1.
       -1   -1    0    0    0  501  0.00000000000E+00  0.00000000000E+00 -0.12659862319E+04  0.12659862319E+04  0.50400001928E-02 0.  1.
    10030    2    1    2    0    0  0.00000000000E+00  0.00000000000E+00  0.98351498893E+03  0.35154874527E+04  0.33751074496E+04 0.  0.
        3    1    3    3  502    0 -0.10617223515E+04 -0.53808246489E+03  0.17377786742E+04  0.21063384869E+04  0.10100000352E+00 0. -1.
       -3    1    3    3    0  502  0.10617223515E+04  0.53808246489E+03 -0.75426368526E+03  0.14091489658E+04  0.10100000352E+00 0.  1.
</event>
<event>
 5   0  0.2664083E-06  0.2823574E+04  0.7818609E-02  0.8295987E-01
       -2   -1    0    0    0  501  0.00000000000E+00  0.00000000000E+00  0.74618980789E+03  0.74618980790E+03  0.25500000920E-02 0.  1.
        2   -1    0    0  501    0  0.00000000000E+00  0.00000000000E+00 -0.26710940247E+04  0.26710940247E+04  0.25500000920E-02 0. -1.
    10030    2    1    2    0    0  0.00000000000E+00  0.00000000000E+00 -0.19249042168E+04  0.34172838326E+04  0.28235744277E+04 0.  0.
        2    1    3    3  502    0 -0.79821949111E+02 -0.13519851307E+04 -0.47999976587E+03  0.14368838201E+04  0.25500000920E-02 0.  1.
       -2    1    3    3    0  502  0.79821949111E+02  0.13519851307E+04 -0.14449044510E+04  0.19804000125E+04  0.25500000920E-02 0. -1.
</event>
<event>
 5   0  0.2906701E-06  0.3448445E+04  0.7818609E-02  0.8126118E-01
        2   -1    0    0  501    0  0.00000000000E+00  0.00000000000E+00  0.26828319398E+04  0.26828319398E+04  0.25500000920E-02 0.  1.
       -2   -1    0    0    0  501  0.00000000000E+00  0.00000000000E+00 -0.11081363810E+04  0.11081363810E+04  0.25500000920E-02 0. -1.
    10030    2    1    2    0    0  0.00000000000E+00  0.00000000000E+00  0.15746955588E+04  0.37909683208E+04  0.34484452593E+04 0.  0.
        5    1    3    3  502    0 -0.60542902913E+03 -0.94833891196E+03 -0.64895985921E+03  0.12988695047E+04  0.46999998093E+01 0. -1.
       -5    1    3    3    0  502  0.60542902913E+03  0.94833891196E+03  0.22236554180E+04  0.24920988161E+04  0.46999998093E+01 0.  1.
</event>
<event>
 5   0  0.9714317E-07  0.3388153E+04  0.7818609E-02  0.8140820E-01
       -1   -1    0    0    0  501  0.00000000000E+00  0.00000000000E+00  0.15071902545E+04  0.15071902545E+04  0.50400001928E-02 0.  1.
        1   -1    0    0  501    0  0.00000000000E+00  0.00000000000E+00 -0.19041358801E+04  0.19041358801E+04  0.50400001928E-02 0. -1.
    10030    2    1    2    0    0  0.00000000000E+00  0.00000000000E+00 -0.39694562556E+03  0.34113261346E+04  0.33881529137E+04 0.  0.
        4    1    3    3  502    0 -0.32062669477E+03 -0.15565517266E+04 -0.78920423011E+03  0.17744012186E+04  0.12699999809E+01 0.  1.
       -4    1    3    3    0  502  0.32062669477E+03  0.15565517266E+04  0.39225860455E+03  0.16369249160E+04  0.12699999809E+01 0. -1.
</event>
<event>
 5   0  0.2856440E-06  0.3355234E+04  0.7818609E-02  0.8148982E-01
       -2   -1    0    0    0  501  0.00000000000E+00  0.00000000000E+00  0.16352278467E+04  0.16352278467E+04  0.25500000920E-02 0. -1.
        2   -1    0    0  501    0  0.00000000000E+00  0.00000000000E+00 -0.17211047800E+04  0.17211047800E+04  0.25500000920E-02 0.  1.
    10030    2    1    2    0    0  0.00000000000E+00  0.00000000000E+00 -0.85876933367E+02  0.33563326267E+04  0.33552338001E+04 0.  0.
        4    1    3    3  502    0 -0.12660676753E+04  0.72531829508E+03  0.78521119190E+03  0.16569768304E+04  0.12699999809E+01 0. -1.
       -4    1    3    3    0  502  0.12660676753E+04 -0.72531829508E+03 -0.87108812527E+03  0.16993557963E+04  0.12699999809E+01 0.  1.
</event>
<event>
 5   0  0.1003191E-06  0.3159511E+04  0.7818609E-02  0.8199593E-01
        1   -1    0    0  501    0  0.00000000000E+00  0.00000000000E+00  0.25871906827E+04  0.25871906827E+04  0.50400001928E-02 0. -1.
       -1   -1    0    0    0  501  0.00000000000E+00  0.00000000000E+00 -0.96460909466E+03  0.96460909468E+03  0.50400001928E-02 0.  1.
    10030    2    1    2    0    0  0.00000000000E+00  0.00000000000E+00  0.16225815881E+04  0.35517997774E+04  0.31595111408E+04 0.  0.
        5    1    3    3  502    0 -0.19808509125E+03 -0.14882425037E+04  0.25884578094E+03  0.15235244276E+04  0.46999998093E+01 0.  1.
       -5    1    3    3    0  502  0.19808509125E+03  0.14882425037E+04  0.13637358071E+04  0.20282753498E+04  0.46999998093E+01 0. -1.
</event>
<event>
 5   0  0.2664083E-06  0.2152404E+04  0.7818609E-02  0.8538504E-01
       -2   -1    0    0    0  501  0.00000000000E+00  0.00000000000E+00  0.79643584077E+03  0.79643584078E+03  0.25500000920E-02 0.  1.
        2   -1    0    0  501    0  0.00000000000E+00  0.00000000000E+00 -0.14542418867E+04  0.14542418867E+04  0.25500000920E-02 0. -1.
    10030    2    1    2    0    0  0.00000000000E+00  0.00000000000E+00 -0.65780604588E+03  0.22506777274E+04  0.21524036422E+04 0.  0.
        2    1    3    3  502    0  0.60993346990E+03  0.73358985814E+03  0.19186968588E+03  0.97313251617E+03  0.25500000920E-02 0.  1.
       -2    1    3    3    0  502 -0.60993346990E+03 -0.73358985814E+03 -0.84967573176E+03  0.12775452113E+04  0.25500000920E-02 0. -1.
</event>
<event>
 5   0  0.2848685E-06  0.2521956E+04  0.7818609E-02  0.8395205E-01
        2   -1    0    0  501    0  0.00000000000E+00  0.00000000000E+00  0.13085024983E+04  0.13085024983E+04  0.25500000920E-02 0.  1.
       -2   -1    0    0    0  501  0.00000000000E+00  0.00000000000E+00 -0.12151797251E+04  0.12151797251E+04  0.25500000920E-02 0. -1.
    10030    2    1    2    0    0  0.00000000000E+00  0.00000000000E+00  0.93322773175E+02  0.25236822234E+04  0.25219561504E+04 0.  0.
        3    1    3    3  502    0  0.71412915640E+03 -0.10220542579E+04 -0.14185634432E+03  0.12548699498E+04  0.10100000352E+00 0. -1.
       -3    1    3    3    0  502 -0.71412915640E+03  0.10220542579E+04  0.23517911750E+03  0.12688122736E+04  0.10100000352E+00 0.  1.
</event>
<event>
 5   0  0.1010551E-06  0.3338208E+04  0.7818609E-02  0.8153241E-01
        1   -1    0    0  501    0  0.00000000000E+00  0.00000000000E+00  0.27822158145E+04  0.27822158145E+04  0.50400001928E-02 0. -1.
       -1   -1    0    0    0  501  0.00000000000E+00  0.00000000000E+00 -0.10013270876E+04  0.10013270876E+04  0.50400001928E-02 0.  1.
    10030    2    1    2    0    0  0.00000000000E+00  0.00000000000E+00  0.17808887269E+04  0.37835429021E+04  0.33382079375E+04 0.  0.
        2    1    3    3  502    0  0.65777531713E+03  0.13418626287E+04  0.47870166785E+02  0.14951773256E+04  0.25500000920E-02 0. -1.
       -2    1    3    3    0  502 -0.65777531713E+03 -0.13418626287E+04  0.17330185601E+04  0.22883655765E+04  0.25500000920E-02 0.  1.
</event>
<event>
 5   0  0.1003191E-06  0.2077293E+04  0.7818609E-02  0.8571313E-01
        1   -1    0    0  501    0  0.00000000000E+00  0.00000000000E+00  0.25905712169E+04  0.25905712169E+04  0.50400001928E-02 0.  1.
       -1   -1    0    0    0  501  0.00000000000E+00  0.00000000000E+00 -0.41642789729E+03  0.41642789732E+03  0.50400001928E-02 0. -1.
    10030    2    1    2    0    0  0.00000000000E+00  0.00000000000E+00  0.21741433196E+04  0.30069991143E+04  0.20772925886E+04 0.  0.
        5    1    3    3  502    0 -0.36984756081E+03 -0.33187298032E+03 -0.23317410306E+03  0.54892544634E+03  0.46999998093E+01 0. -1.
       -5    1    3    3    0  502  0.36984756081E+03  0.33187298032E+03  0.24073174227E+04  0.24580736679E+04  0.46999998093E+01 0.  1.
</event>
<event>
 5   0  0.2848685E-06  0.3420187E+04  0.7818609E-02  0.8132969E-01
        2   -1    0    0  501    0  0.00000000000E+00  0.00000000000E+00  0.22832381402E+04  0.22832381402E+04  0.25500000920E-02 0. -1.
       -2   -1    0    0    0  501  0.00000000000E+00  0.00000000000E+00 -0.12808211130E+04  0.12808211130E+04  0.25500000920E-02 0.  1.
    10030    2    1    2    0    0  0.00000000000E+00  0.00000000000E+00  0.10024170272E+04  0.35640592533E+04  0.34201869049E+04 0.  0.
        3    1    3    3  502    0 -0.81719941635E+03 -0.14954612825E+04  0.64931486632E+03  0.18236855923E+04  0.10100000352E+00 0.  1.
       -3    1    3    3    0  502  0.81719941635E+03  0.14954612825E+04  0.35310216088E+03  0.17403736610E+04  0.10100000352E+00 0. -1.
</event>
<event>
 5   0  0.2848685E-06  0.3519275E+04  0.7818609E-02  0.8109237E-01
        2   -1    0    0  501    0  0.00000000000E+00  0.00000000000E+00  0.21128482474E+04  0.21128482474E+04  0.25500000920E-02 0.  1.
       -2   -1    0    0    0  501  0.00000000000E+00  0.00000000000E+00 -0.14654736412E+04  0.14654736412E+04  0.25500000920E-02 0. -1.
    10030    2    1    2    0    0  0.00000000000E+00  0.00000000000E+00  0.64737460617E+03  0.35783218885E+04  0.35192745925E+04 0.  0.
        3    1    3    3  502    0 -0.16376311622E+04 -0.41141231104E+03  0.82720046599E+03  0.18802543802E+04  0.10100000352E+00 0. -1.
       -3    1    3    3    0  502  0.16376311622E+04  0.41141231104E+03 -0.17982585982E+03  0.16980675084E+04  0.10100000352E+00 0.  1.
</event>
<event>
 5   0  0.2664083E-06  0.2234398E+04  0.7818609E-02  0.8504246E-01
        2   -1    0    0  501    0  0.00000000000E+00  0.00000000000E+00  0.12135950262E+04  0.12135950262E+04  0.25500000920E-02 0. -1.
       -2   -1    0    0    0  501  0.00000000000E+00  0.00000000000E+00 -0.10284595360E+04  0.10284595360E+04  0.25500000920E-02 0.  1.
    10030    2    1    2    0    0  0.00000000000E+00  0.00000000000E+00  0.18513549027E+03  0.22420545622E+04  0.22343977958E+04 0.  0.
        2    1    3    3  502    0  0.50854004143E+03  0.91085249059E+03  0.49377303426E+03  0.11541564204E+04  0.25500000920E-02 0. -1.
       -2    1    3    3    0  502 -0.50854004143E+03 -0.91085249059E+03 -0.30863754398E+03  0.10878981418E+04  0.25500000920E-02 0.  1.
</event>
<event>
 5   0  0.1010855E-06  0.2351930E+04  0.7818609E-02  0.8457723E-01
       -1   -1    0    0    0  501  0.00000000000E+00  0.00000000000E+00  0.14313878633E+04  0.14313878634E+04  0.50400001928E-02 0.  1.
        1   -1    0    0  501    0  0.00000000000E+00  0.00000000000E+00 -0.96612084233E+03  0.96612084234E+03  0.50400001928E-02 0. -1.
    10030    2    1    2    0    0  0.00000000000E+00  0.00000000000E+00  0.46526702102E+03  0.23975087057E+04  0.23519299720E+04 0.  0.
        1    1    3    3  502    0  0.72104271707E+03  0.45215553707E+03  0.10598687037E+04  0.13592898508E+04  0.50400001928E-02 0.  1.
       -1    1    3    3    0  502 -0.72104271707E+03 -0.45215553707E+03 -0.59460168266E+03  0.10382188549E+04  0.50400001928E-02 0. -1.
</event>
<event>
 5   0  0.2856440E-06  0.2228536E+04  0.7818609E-02  0.8506644E-01
       -2   -1    0    0    0  501  0.00000000000E+00  0.00000000000E+00  0.13229282783E+04  0.13229282783E+04  0.25500000920E-02 0. -1.
        2   -1    0    0  501    0  0.00000000000E+00  0.00000000000E+00 -0.93851906499E+03  0.93851906499E+03  0.25500000920E-02 0.  1.
    10030    2    1    2    0    0  0.00000000000E+00  0.00000000000E+00  0.38440921329E+03  0.22614473433E+04  0.22285362109E+04 0.  0.
        4    1    3    3  502    0 -0.89663010714E+03 -0.64641240502E+03  0.49423996077E+02  0.11064532935E+04  0.12699999809E+01 0. -1.
       -4    1    3    3    0  502  0.89663010714E+03  0.64641240502E+03  0.33498521721E+03  0.11549940498E+04  0.12699999809E+01 0.  1.
</event>
<event>
 5   0  0.2848685E-06  0.3388779E+04  0.7818609E-02  0.8140666E-01
        2   -1    0    0  501    0  0.00000000000E+00  0.00000000000E+00  0.25907174896E+04  0.25907174896E+04  0.25500000920E-02 0.  1.
       -2   -1    0    0    0  501  0.00000000000E+00  0.00000000000E+00 -0.11081702265E+04  0.11081702265E+04  0.25500000920E-02 0. -1.
    10030    2    1    2    0    0  0.00000000000E+00  0.00000000000E+00  0.14825472631E+04  0.36988877161E+04  0.33887791236E+04 0.  0.
        3    1    3    3  502    0 -0.74048561252E+03  0.65260501765E+03  0.22445270948E+04  0.24519612846E+04  0.10100000352E+00 0.  1.
       -3    1    3    3    0  502  0.74048561252E+03 -0.65260501765E+03 -0.76197983173E+03  0.12469264315E+04  0.10100000352E+00 0. -1.
</event>
<event>
 5   0  0.1010551E-06  0.3388602E+04  0.7818609E-02  0.8140710E-01
        1   -1    0    0  501    0  0.00000000000E+00  0.00000000000E+00  0.19940256457E+04  0.19940256457E+04  0.50400001928E-02 0.  1.
       -1   -1    0    0    0  501  0.00000000000E+00  0.00000000000E+00 -0.14396280313E+04  0.14396280313E+04  0.50400001928E-02 0. -1.
    10030    2    1    2    0    0  0.00000000000E+00  0.00000000000E+00  0.55439761440E+03  0.34336536771E+04  0.33886016082E+04 0.  0.
        2    1    3    3  502    0  0.89422348518E+02 -0.56810829809E+03 -0.13376999357E+04  0.14560853384E+04  0.25500000920E-02 0. -1.
       -2    1    3    3    0  502 -0.89422348518E+02  0.56810829809E+03  0.18920975501E+04  0.19775683386E+04  0.25500000920E-02 0.  1.
</event>
<event>
 5   0  0.1010855E-06  0.3687009E+04  0.7818609E-02  0.8070847E-01
       -1   -1    0    0    0  501  0.00000000000E+00  0.00000000000E+00  0.15930063943E+04  0.15930063943E+04  0.50400001928E-02 0.  1.
        1   -1    0    0  501    0  0.00000000000E+00  0.00000000000E+00 -0.21333935863E+04  0.21333935863E+04  0.50400001928E-02 0. -1.
    10030    2    1    2    0    0  0.00000000000E+00  0.00000000000E+00 -0.54038719203E+03  0.37263999806E+04  0.36870094248E+04 0.  0.
        1    1    3    3  502    0  0.13041308108E+04 -0.15700552477E+03 -0.15774970053E+04  0.20527797515E+04  0.50400001928E-02 0. -1.
       -1    1    3    3    0  502 -0.13041308108E+04  0.15700552477E+03  0.10371098133E+04  0.16736202291E+04  0.50400001928E-02 0.  1.
</event>
<event>
 5   0  0.2767014E-06  0.3415594E+04  0.7818609E-02  0.8134090E-01
        2   -1    0    0  501    0  0.00000000000E+00  0.00000000000E+00  0.19986580102E+04  0.19986580102E+04  0.25500000920E-02 0. -1.
       -2   -1    0    0    0  501  0.00000000000E+00  0.00000000000E+00 -0.14592640924E+04  0.14592640924E+04  0.25500000920E-02 0.  1.
    10030    2    1    2    0    0  0.00000000000E+00  0.00000000000E+00  0.53939391778E+03  0.34579221025E+04  0.34155935749E+04 0.  0.
        1    1    3    3  502    0 -0.29027441649E+03  0.42573164334E+03 -0.13786895755E+04  0.14718327400E+04  0.50400001928E-02 0.  1.
       -1    1    3    3    0  502  0.29027441649E+03 -0.42573164334E+03  0.19180834932E+04  0.19860893626E+04  0.50400001928E-02 0. -1.
</event>
<event>
 5   0  0.1003191E-06  0.3224133E+04  0.7818609E-02  0.8182473E-01
        1   -1    0    0  501    0  0.00000000000E+00  0.00000000000E+00  0.16154564550E+04  0.16154564550E+04  0.50400001928E-02 0. -1.
       -1   -1    0    0    0  501  0.00000000000E+00  0.00000000000E+00 -0.16086836270E+04  0.16086836270E+04  0.50400001928E-02 0.  1.
    10030    2    1    2    0    0  0.00000000000E+00  0.00000000000E+00  0.67728280278E+01  0.32241400820E+04  0.32241329683E+04 0.  0.
        5    1    3    3  502    0  0.40522075984E+03 -0.11306794183E+04  0.10786080423E+04  0.16143287181E+04  0.46999998093E+01 0. -1.
       -5    1    3    3    0  502 -0.40522075984E+03  0.11306794183E+04 -0.10718352142E+04  0.16098113640E+04  0.46999998093E+01 0.  1.
</event>
<event>
 5   0  0.1010855E-06  0.3860300E+04  0.7818609E-02  0.8033337E-01
       -1   -1    0    0    0  501  0.00000000000E+00  0.00000000000E+00  0.17468884379E+04  0.17468884379E+04  0.50400001928E-02 0. -1.
        1   -1    0    0  501    0  0.00000000000E+00  0.00000000000E+00 -0.21326369601E+04  0.21326369601E+04  0.50400001928E-02 0.  1.
    10030    2    1    2    0    0  0.00000000000E+00  0.00000000000E+00 -0.38574852222E+03  0.38795253980E+04  0.38602999095E+04 0.  0.
        1    1    3    3  502    0 -0.32242432528E+03 -0.18855006954E+04  0.66107682623E+02  0.19140116362E+04  0.50400001928E-02 0.  1.
       -1    1    3    3    0  502  0.32242432528E+03  0.18855006954E+04 -0.45185620485E+03  0.19655137618E+04  0.50400001928E-02 0. -1.
</event>
<event>
 5   0  0.2848685E-06  0.3320938E+04  0.7818609E-02  0.8157588E-01
        2   -1    0    0  501    0  0.00000000000E+00  0.00000000000E+00  0.19599013538E+04  0.19599013538E+04  0.25500000920E-02 0.  1.
       -2   -1    0    0    0  501  0.00000000000E+00  0.00000000000E+00 -0.14067834669E+04  0.14067834669E+04  0.25500000920E-02 0. -1.
    10030    2    1    2    0    0  0.00000000000E+00  0.00000000000E+00  0.55311788682E+03  0.33666848207E+04  0.33209377117E+04 0.  0.
        3    1    3    3  502    0 -0.11783673809E+04 -0.10055509336E+04 -0.32956889679E+03  0.15837607245E+04  0.10100000352E+00 0. -1.
       -3    1    3    3    0  502  0.11783673809E+04  0.10055509336E+04  0.88268678361E+03  0.17829240962E+04  0.10100000352E+00 0.  1.
</event>
<event>
 5   0  0.1010855E-06  0.3429370E+04  0.7818609E-02  0.8130735E-01
        1   -1    0    0  501    0  0.00000000000E+00  0.00000000000E+00  0.23266299526E+04  0.23266299526E+04  0.50400001928E-02 0. -1.
       -1   -1    0    0    0  501  0.00000000000E+00  0.00000000000E+00 -0.12636921457E+04  0.12636921458E+04  0.50400001928E-02 0.  1.
    10030    2    1    2    0    0  0.00000000000E+00  0.00000000000E+00  0.10629378068E+04  0.35903220983E+04  0.34293696197E+04 0.  0.
        1    1    3    3  502    0 -0.71220119553E+02 -0.14188483625E+04 -0.47377323245E+03  0.14975526893E+04  0.50400001928E-02 0. -1.
       -1    1    3    3    0  502  0.71220119553E+02  0.14188483625E+04  0.15367110393E+04  0.20927694091E+04  0.50400001928E-02 0.  1.
</event>
<event>
 5   0  0.1010855E-06  0.3455433E+04  0.7818609E-02  0.8124434E-01
       -1   -1    0    0    0  501  0.00000000000E+00  0.00000000000E+00  0.10257159661E+04  0.10257159661E+04  0.50400001928E-02 0.  1.
        1   -1    0    0  501    0  0.00000000000E+00  0.00000000000E+00 -0.29101657693E+04  0.29101657693E+04  0.50400001928E-02 0. -1.
    10030    2    1    2    0    0  0.00000000000E+00  0.00000000000E+00 -0.18844498033E+04  0.39358817354E+04  0.34554325307E+04 0.  0.
        1    1    3    3  502    0  0.25608138155E+03  0.14052578782E+04 -0.20493102174E+04  0.24979991483E+04  0.50400001928E-02 0. -1.
       -1    1    3    3    0  502 -0.25608138155E+03 -0.14052578782E+04  0.16486041411E+03  0.14378825871E+04  0.50400001928E-02 0.  1.
</event>
<event>
 5   0  0.1010551E-06  0.3408118E+04  0.7818609E-02  0.8135917E-01
        1   -1    0    0  501    0  0.00000000000E+00  0.00000000000E+00  0.25451095459E+04  0.25451095459E+04  0.50400001928E-02 0.  1.
       -1   -1    0    0    0  501  0.00000000000E+00  0.00000000000E+00 -0.11409396218E+04  0.11409396218E+04  0.50400001928E-02 0. -1.
    10030    2    1    2    0    0  0.00000000000E+00  0.00000000000E+00  0.14041699240E+04  0.36860491677E+04  0.34081175583E+04 0.  0.
        2    1    3    3  502    0 -0.16324643851E+04 -0.47109390178E+03  0.84288136472E+03  0.18966598082E+04  0.25500000920E-02 0.  1.
       -2    1    3    3    0  502  0.16324643851E+04  0.47109390178E+03  0.56128855931E+03  0.17893893595E+04  0.25500000920E-02 0. -1.
</event>
<event>
 5   0  0.2767014E-06  0.2383516E+04  0.7818609E-02  0.8445701E-01
       -2   -1    0    0    0  501  0.00000000000E+00  0.00000000000E+00  0.71578697630E+03  0.71578697631E+03  0.25500000920E-02 0.  1.
        2   -1    0    0  501    0  0.00000000000E+00  0.00000000000E+00 -0.19842310535E+04  0.19842310535E+04  0.25500000920E-02 0. -1.
    10030    2    1    2    0    0  0.00000000000E+00  0.00000000000E+00 -0.12684440772E+04  0.27000180299E+04  0.23835156774E+04 0.  0.
        1    1    3    3  502    0 -0.31116021472E+03  0.10285363762E+04 -0.12179970603E+04  0.16242612460E+04  0.50400001928E-02 0. -1.
       -1    1    3    3    0  502  0.31116021472E+03 -0.10285363762E+04 -0.50447016994E+02  0.10757567839E+04  0.50400001928E-02 0.  1.
</event>
<event>
 5   0  0.2848685E-06  0.3215836E+04  0.7818609E-02  0.8184647E-01
        2   -1    0    0  501    0  0.00000000000E+00  0.00000000000E+00  0.15853581654E+04  0.15853581654E+04  0.25500000920E-02 0. -1.
       -2   -1    0    0    0  501  0.00000000000E+00  0.00000000000E+00 -0.16307990976E+04  0.16307990976E+04  0.25500000920E-02 0.  1.
    10030    2    1    2    0    0  0.00000000000E+00  0.00000000000E+00 -0.45440932213E+02  0.32161572630E+04  0.32158362306E+04 0.  0.
        3    1    3    3  502    0  0.12841463770E+04 -0.42872304801E+03  0.84487134365E+03  0.15958204683E+04  0.10100000352E+00 0. -1.
       -3    1    3    3    0  502 -0.12841463770E+04  0.42872304801E+03 -0.89031227586E+03  0.16203367947E+04  0.10100000352E+00 0.  1.
</event>
<event>
 5   0  0.2664083E-06  0.3420597E+04  0.7818609E-02  0.8132870E-01
       -2   -1    0    0    0  501  0.00000000000E+00  0.00000000000E+00  0.17040781196E+04  0.17040781196E+04  0.25500000920E-02 0. -1.
        2   -1    0    0  501    0  0.00000000000E+00  0.00000000000E+00 -0.17165416339E+04  0.17165416339E+04  0.25500000920E-02 0.  1.
    10030    2    1    2    0    0  0.00000000000E+00  0.00000000000E+00 -0.12463514265E+02  0.34206197535E+04  0.34205970471E+04 0.  0.
        2    1    3    3  502    0  0.45435720605E+03 -0.24331465093E+03 -0.16370333568E+04  0.17162519341E+04  0.25500000920E-02 0.  1.
       -2    1    3    3    0  502 -0.45435720605E+03  0.24331465093E+03  0.16245698426E+04  0.17043678193E+04  0.25500000920E-02 0. -1.
</event>
<event>
 5   0  0.2856440E-06  0.3431732E+04  0.7818609E-02  0.8130162E-01
       -2   -1    0    0    0  501  0.00000000000E+00  0.00000000000E+00  0.19914787834E+04  0.19914787834E+04  0.25500000920E-02 0. -1.
        2   -1    0    0  501    0  0.00000000000E+00  0.00000000000E+00 -0.14783966821E+04  0.14783966821E+04  0.25500000920E-02 0.  1.
    10030    2    1    2    0    0  0.00000000000E+00  0.00000000000E+00  0.51308210131E+03  0.34698754654E+04  0.34317317062E+04 0.  0.
        4    1    3    3  502    0 -0.70815026875E+02 -0.14940455975E+04  0.11067240512E+04  0.18606522388E+04  0.12699999809E+01 0. -1.
       -4    1    3    3    0  502  0.70815026875E+02  0.14940455975E+04 -0.59364194989E+03  0.16092232266E+04  0.12699999809E+01 0.  1.
</event>
<event>
 5   0  0.2848685E-06  0.3374351E+04  0.7818609E-02  0.8144230E-01
       -2   -1    0    0    0  501  0.00000000000E+00  0.00000000000E+00  0.13013352412E+04  0.13013352412E+04  0.25500000920E-02 0.  1.
        2   -1    0    0  501    0  0.00000000000E+00  0.00000000000E+00 -0.21874154244E+04  0.21874154244E+04  0.25500000920E-02 0. -1.
    10030    2    1    2    0    0  0.00000000000E+00  0.00000000000E+00 -0.88608018318E+03  0.34887506655E+04  0.33743507694E+04 0.  0.
        3    1    3    3  502    0  0.12494617119E+04  0.10728971613E+04 -0.64149095173E+02  0.16481438059E+04  0.10100000352E+00 0.  1.
       -3    1    3    3    0  502 -0.12494617119E+04 -0.10728971613E+04 -0.82193108800E+03  0.18406068597E+04  0.10100000352E+00 0. -1.
</event>
<event>
 5   0  0.9232963E-07  0.3193298E+04  0.7818609E-02  0.8190589E-01
        1   -1    0    0  501    0  0.00000000000E+00  0.00000000000E+00  0.22164666111E+04  0.22164666111E+04  0.50400001928E-02 0.  1.
       -1   -1    0    0    0  501  0.00000000000E+00  0.00000000000E+00 -0.11501584843E+04  0.11501584843E+04  0.50400001928E-02 0. -1.
    10030    2    1    2    0    0  0.00000000000E+00  0.00000000000E+00  0.10663081268E+04  0.33666250954E+04  0.31932979052E+04 0.  0.
        3    1    3    3  502    0  0.68691078058E+03  0.12368313819E+04 -0.24707578286E+03  0.14361910529E+04  0.10100000352E+00 0. -1.
       -3    1    3    3    0  502 -0.68691078058E+03 -0.12368313819E+04  0.13133839097E+04  0.19304340424E+04  0.10100000352E+00 0.  1.
</event>
<event>
 5   0  0.9070500E-07  0.3419183E+04  0.7818609E-02  0.8133214E-01
       -3   -1    0    0    0  501  0.00000000000E+00  0.00000000000E+00  0.18912629659E+04  0.18912629686E+04  0.10100000352E+00 0. -1.
        3   -1    0    0  501    0  0.00000000000E+00  0.00000000000E+00 -0.15453711603E+04  0.15453711636E+04  0.10100000352E+00 0.  1.
    10030    2    1    2    0    0  0.00000000000E+00  0.00000000000E+00  0.34589180556E+03  0.34366341322E+04  0.34191830921E+04 0.  0.
        5    1    3    3  502    0 -0.11878183175E+04  0.81259630729E+03  0.11003992220E+04  0.18116637800E+04  0.46999998093E+01 0. -1.
       -5    1    3    3    0  502  0.11878183175E+04 -0.81259630729E+03 -0.75450741643E+03  0.16249703522E+04  0.46999998093E+01 0.  1.
</event>
<event>
 5   0  0.2856440E-06  0.3400142E+04  0.7818609E-02  0.8137872E-01
       -2   -1    0    0    0  501  0.00000000000E+00  0.00000000000E+00  0.12892440183E+04  0.12892440183E+04  0.25500000920E-02 0.  1.
        2   -1    0    0  501    0  0.00000000000E+00  0.00000000000E+00 -0.22418104246E+04  0.22418104246E+04  0.25500000920E-02 0. -1.
    10030    2    1    2    0    0  0.00000000000E+00  0.00000000000E+00 -0.95256640632E+03  0.35310544429E+04  0.34001415736E+04 0.  0.
        4    1    3    3  502    0  0.28430303850E+03  0.12834102311E+04  0.64331126978E+03  0.14634961707E+04  0.12699999809E+01 0.  1.
       -4    1    3    3    0  502 -0.28430303850E+03 -0.12834102311E+04 -0.15958776761E+04  0.20675582722E+04  0.12699999809E+01 0. -1.
</event>
<event>
 5   0  0.2664083E-06  0.2262437E+04  0.7818609E-02  0.8492881E-01
       -2   -1    0    0    0  501  0.00000000000E+00  0.00000000000E+00  0.10644446300E+04  0.10644446300E+04  0.25500000920E-02 0.  1.
        2   -1    0    0  501    0  0.00000000000E+00  0.00000000000E+00 -0.12021810340E+04  0.12021810340E+04  0.25500000920E-02 0. -1.
    10030    2    1    2    0    0  0.00000000000E+00  0.00000000000E+00 -0.13773640408E+03  0.22666256640E+04  0.22624368684E+04 0.  0.
        2    1    3    3  502    0 -0.78100558386E+03  0.46524738938E+03  0.60560204442E+03  0.10923271907E+04  0.25500000920E-02 0.  1.
       -2    1    3    3    0  502  0.78100558386E+03 -0.46524738938E+03 -0.74333844850E+03  0.11742984733E+04  0.25500000920E-02 0. -1.
</event>
<event>
 5   0  0.1010551E-06  0.3370003E+04  0.7818609E-02  0.8145308E-01
       -1   -1    0    0    0  501  0.00000000000E+00  0.00000000000E+00  0.15413438663E+04  0.15413438663E+04  0.50400001928E-02 0.  1.
        1   -1    0    0  501    0  0.00000000000E+00  0.00000000000E+00 -0.18420481636E+04  0.18420481636E+04  0.50400001928E-02 0. -1.
    10030    2    1    2    0    0  0.00000000000E+00  0.00000000000E+00 -0.30070429735E+03  0.33833920299E+04  0.33700027528E+04 0.  0.
        2    1    3    3  502    0 -0.21911896625E+03  0.98250203141E+02  0.15240761264E+04  0.15428785639E+04  0.25500000920E-02 0.  1.
       -2    1    3    3    0  502  0.21911896625E+03 -0.98250203141E+02 -0.18247804238E+04  0.18405134660E+04  0.25500000920E-02 0. -1.
</event>
<event>
 5   0  0.1010551E-06  0.3386271E+04  0.7818609E-02  0.8141284E-01
        1   -1    0    0  501    0  0.00000000000E+00  0.00000000000E+00  0.11415407918E+04  0.11415407918E+04  0.50400001928E-02 0.  1.
       -1   -1    0    0    0  501  0.00000000000E+00  0.00000000000E+00 -0.25112615385E+04  0.25112615385E+04  0.50400001928E-02 0. -1.
    10030    2    1    2    0    0  0.00000000000E+00  0.00000000000E+00 -0.13697207467E+04  0.36528023302E+04  0.33862708013E+04 0.  0.
        2    1    3    3  502    0 -0.21937805045E+03 -0.35426448941E+03  0.10853664016E+04  0.11626049558E+04  0.25500000920E-02 0.  1.
       -2    1    3    3    0  502  0.21937805045E+03  0.35426448941E+03 -0.24550871483E+04  0.24901973744E+04  0.25500000920E-02 0. -1.
</event>
<event>
 5   0  0.2767014E-06  0.3343079E+04  0.7818609E-02  0.8152020E-01
        2   -1    0    0  501    0  0.00000000000E+00  0.00000000000E+00  0.16365740674E+04  0.16365740674E+04  0.25500000920E-02 0.  1.
       -2   -1    0    0    0  501  0.00000000000E+00  0.00000000000E+00 -0.17072515801E+04  0.17072515801E+04  0.25500000920E-02 0. -1.
    10030    2    1    2    0    0  0.00000000000E+00  0.00000000000E+00 -0.70677512657E+02  0.33438256475E+04  0.33430786185E+04 0.  0.
        1    1    3    3  502    0  0.81122701814E+03 -0.13559678108E+04 -0.58071804416E+03  0.16834403540E+04  0.50400001928E-02 0. -1.
       -1    1    3    3    0  502 -0.81122701814E+03  0.13559678108E+04  0.51004053150E+03  0.16603852934E+04  0.50400001928E-02 0.  1.
</event>
<event>
 5   0  0.1010855E-06  0.3399559E+04  0.7818609E-02  0.8138015E-01
        1   -1    0    0  501    0  0.00000000000E+00  0.00000000000E+00  0.16388986377E+04  0.16388986377E+04  0.50400001928E-02 0.  1.
       -1   -1    0    0    0  501  0.00000000000E+00  0.00000000000E+00 -0.17629221792E+04  0.17629221792E+04  0.50400001928E-02 0. -1.
    10030    2    1    2    0    0  0.00000000000E+00  0.00000000000E+00 -0.12402354142E+03  0.34018208169E+04  0.33995592408E+04 0.  0.
        1    1    3    3  502    0 -0.65269588803E+03  0.11774996220E+04 -0.11003597656E+04  0.17387664868E+04  0.50400001928E-02 0. -1.
       -1    1    3    3    0  502  0.65269588803E+03 -0.11774996220E+04  0.97633622413E+03  0.16630543300E+04  0.50400001928E-02 0.  1.
</event>
<event>
 5   0  0.1003191E-06  0.2095702E+04  0.7818609E-02  0.8563139E-01
       -1   -1    0    0    0  501  0.00000000000E+00  0.00000000000E+00  0.30756686559E+03  0.30756686563E+03  0.50400001928E-02 0. -1.
        1   -1    0    0  501    0  0.00000000000E+00  0.00000000000E+00 -0.35699291977E+04  0.35699291977E+04  0.50400001928E-02 0.  1.
    10030    2    1    2    0    0  0.00000000000E+00  0.00000000000E+00 -0.32623623321E+04  0.38774960633E+04  0.20957022057E+04 0.  0.
        5    1    3    3  502    0  0.74380582973E+03 -0.71852351501E+03 -0.19432408496E+04  0.22013019428E+04  0.46999998093E+01 0.  1.
       -5    1    3    3    0  502 -0.74380582973E+03  0.71852351501E+03 -0.13191214825E+04  0.16761941205E+04  0.46999998093E+01 0. -1.
</event>
<event>
 5   0  0.1010855E-06  0.3366482E+04  0.7818609E-02  0.8146182E-01
        1   -1    0    0  501    0  0.00000000000E+00  0.00000000000E+00  0.17217377634E+04  0.17217377634E+04  0.50400001928E-02 0.  1.
       -1   -1    0    0    0  501  0.00000000000E+00  0.00000000000E+00 -0.16456050255E+04  0.16456050255E+04  0.50400001928E-02 0. -1.
    10030    2    1    2    0    0  0.00000000000E+00  0.00000000000E+00  0.76132737862E+02  0.33673427889E+04  0.33664820309E+04 0.  0.
        1    1    3    3  502    0 -0.38368170681E+03  0.16332571702E+04 -0.98202380758E+02  0.16805904747E+04  0.50400001928E-02 0. -1.
       -1    1    3    3    0  502  0.38368170681E+03 -0.16332571702E+04  0.17433511862E+03  0.16867523142E+04  0.50400001928E-02 0.  1.
</event>
<event>
 5   0  0.9232963E-07  0.3432586E+04  0.7818609E-02  0.8129955E-01
       -1   -1    0    0    0  501  0.00000000000E+00  0.00000000000E+00  0.15782368573E+04  0.15782368573E+04  0.50400001928E-02 0. -1.
        1   -1    0    0  501    0  0.00000000000E+00  0.00000000000E+00 -0.18664254077E+04  0.18664254077E+04  0.50400001928E-02 0.  1.
    10030    2    1    2    0    0  0.00000000000E+00  0.00000000000E+00 -0.28818855038E+03  0.34446622650E+04  0.34325858298E+04 0.  0.
        3    1    3    3  502    0 -0.40965071071E+03  0.47551372904E+02 -0.18159647459E+04  0.18622037500E+04  0.10100000352E+00 0.  1.
       -3    1    3    3    0  502  0.40965071071E+03 -0.47551372904E+02  0.15277761955E+04  0.15824585150E+04  0.10100000352E+00 0. -1.
</event>
<event>
 5   0  0.2767014E-06  0.3048756E+04  0.7818609E-02  0.8229944E-01
       -2   -1    0    0    0  501  0.00000000000E+00  0.00000000000E+00  0.11092927582E+04  0.11092927582E+04  0.25500000920E-02 0. -1.
        2   -1    0    0  501    0  0.00000000000E+00  0.00000000000E+00 -0.20947841296E+04  0.20947841296E+04  0.25500000920E-02 0.  1.
    10030    2    1    2    0    0  0.00000000000E+00  0.00000000000E+00 -0.98549137135E+03  0.32040768878E+04  0.30487563793E+04 0.  0.
        1    1    3    3  502    0  0.13108778729E+03 -0.14053864999E+04 -0.10977779050E+04  0.17881307421E+04  0.50400001928E-02 0.  1.
       -1    1    3    3    0  502 -0.13108778729E+03  0.14053864999E+04  0.11228653361E+03  0.14159461458E+04  0.50400001928E-02 0. -1.
</event>
<event>
 5   0  0.2767014E-06  0.3477670E+04  0.7818609E-02  0.8119102E-01
       -2   -1    0    0    0  501  0.00000000000E+00  0.00000000000E+00  0.14994855139E+04  0.14994855139E+04  0.25500000920E-02 0. -1.
        2   -1    0    0  501    0  0.00000000000E+00  0.00000000000E+00 -0.20163896391E+04  0.20163896391E+04  0.25500000920E-02 0.  1.
    10030    2    1    2    0    0  0.00000000000E+00  0.00000000000E+00 -0.51690412526E+03  0.35158751530E+04  0.34776699407E+04 0.  0.
        1    1    3    3  502    0  0.32032024978E+03 -0.13760811965E+04 -0.12831661760E+04  0.19085910922E+04  0.50400001928E-02 0. -1.
       -1    1    3    3    0  502 -0.32032024978E+03  0.13760811965E+04  0.76626205079E+03  0.16072840608E+04  0.50400001928E-02 0.  1.
</event>
<event>
 5   0  0.2856440E-06  0.2498486E+04  0.7818609E-02  0.8403525E-01
        2   -1    0    0  501    0  0.00000000000E+00  0.00000000000E+00  0.14778323634E+04  0.14778323634E+04  0.25500000920E-02 0. -1.
       -2   -1    0    0    0  501  0.00000000000E+00  0.00000000000E+00 -0.10560114294E+04  0.10560114294E+04  0.25500000920E-02 0.  1.
    10030    2    1    2    0    0  0.00000000000E+00  0.00000000000E+00  0.42182093405E+03  0.25338437928E+04  0.24984858346E+04 0.  0.
        4    1    3    3  502    0  0.70295793656E+03 -0.27202677672E+03  0.12212305284E+04  0.14351146450E+04  0.12699999809E+01 0. -1.
       -4    1    3    3    0  502 -0.70295793656E+03  0.27202677672E+03 -0.79940959433E+03  0.10987291478E+04  0.12699999809E+01 0.  1.
</event>
<event>
 5   0  0.1010551E-06  0.3325095E+04  0.7818609E-02  0.8156539E-01
        1   -1    0    0  501    0  0.00000000000E+00  0.00000000000E+00  0.16451198900E+04  0.16451198901E+04  0.50400001928E-02 0.  1.
       -1   -1    0    0    0  501  0.00000000000E+00  0.00000000000E+00 -0.16801602052E+04  0.16801602052E+04  0.50400001928E-02 0. -1.
    10030    2    1    2    0    0  0.00000000000E+00  0.00000000000E+00 -0.35040315144E+02  0.33252800952E+04  0.33250954705E+04 0.  0.
        2    1    3    3  502    0 -0.95807659480E+03 -0.38663081004E+03  0.12851153427E+04  0.16489134570E+04  0.25500000920E-02 0.  1.
       -2    1    3    3    0  502  0.95807659480E+03  0.38663081004E+03 -0.13201556578E+04  0.16763666382E+04  0.25500000920E-02 0. -1.
</event>
<event>
 5   0  0.2906701E-06  0.3434029E+04  0.7818609E-02  0.8129605E-01
       -2   -1    0    0    0  501  0.00000000000E+00  0.00000000000E+00  0.12951633875E+04  0.12951633875E+04  0.25500000920E-02 0.  1.
        2   -1    0    0  501    0  0.00000000000E+00  0.00000000000E+00 -0.22762684895E+04  0.22762684895E+04  0.25500000920E-02 0. -1.
    10030    2    1    2    0    0  0.00000000000E+00  0.00000000000E+00 -0.98110510203E+03  0.35714318770E+04  0.34340294744E+04 0.  0.
        5    1    3    3  502    0 -0.16866792960E+04 -0.11793606524E+03 -0.80137794257E+03  0.18711025252E+04  0.46999998093E+01 0. -1.
       -5    1    3    3    0  502  0.16866792960E+04  0.11793606524E+03 -0.17972715946E+03  0.17003293518E+04  0.46999998093E+01 0.  1.
</event>
<event>
 5   0  0.2906701E-06  0.3352245E+04  0.7818609E-02  0.8149727E-01
        2   -1    0    0  501    0  0.00000000000E+00  0.00000000000E+00  0.20582218474E+04  0.20582218474E+04  0.25500000920E-02 0. -1.
       -2   -1    0    0    0  501  0.00000000000E+00  0.00000000000E+00 -0.13649579699E+04  0.13649579699E+04  0.25500000920E-02 0.  1.
    10030    2    1    2    0    0  0.00000000000E+00  0.00000000000E+00  0.69326387750E+03  0.34231798172E+04  0.33522448087E+04 0.  0.
        5    1    3    3  502    0 -0.32957166782E+02 -0.16676579656E+04  0.51503042850E+03  0.17456940446E+04  0.46999998093E+01 0.  1.
       -5    1    3    3    0  502  0.32957166782E+02  0.16676579656E+04  0.17823344900E+03  0.16774857726E+04  0.46999998093E+01 0. -1.
</event>
<event>
 5   0  0.2848685E-06  0.2425491E+04  0.7818609E-02  0.8430021E-01
       -2   -1    0    0    0  501  0.00000000000E+00  0.00000000000E+00  0.94049985032E+03  0.94049985032E+03  0.25500000920E-02 0. -1.
        2   -1    0    0  501    0  0.00000000000E+00  0.00000000000E+00 -0.15637972935E+04  0.15637972935E+04  0.25500000920E-02 0.  1.
    10030    2    1    2    0    0  0.00000000000E+00  0.00000000000E+00 -0.62329744320E+03  0.25042971438E+04  0.24254905652E+04 0.  0.
        3    1    3    3  502    0 -0.95162042965E+03  0.21259888775E+03  0.43287062761E+03  0.10668442809E+04  0.10100000352E+00 0. -1.
       -3    1    3    3    0  502  0.95162042965E+03 -0.21259888775E+03 -0.10561680708E+04  0.14374528630E+04  0.10100000352E+00 0.  1.
</event>
<event>
 5   0  0.2906701E-06  0.3384027E+04  0.7818609E-02  0.8141838E-01
        2   -1    0    0  501    0  0.00000000000E+00  0.00000000000E+00  0.17190497366E+04  0.17190497366E+04  0.25500000920E-02 0. -1.
       -2   -1    0    0    0  501  0.00000000000E+00  0.00000000000E+00 -0.16654024633E+04  0.16654024633E+04  0.25500000920E-02 0.  1.
    10030    2    1    2    0    0  0.00000000000E+00  0.00000000000E+00  0.53647273264E+02  0.33844521999E+04  0.33840269891E+04 0.  0.
        5    1    3    3  502    0 -0.17014451268E+03  0.11047141814E+04  0.12972371578E+04  0.17123635453E+04  0.46999998093E+01 0. -1.
       -5    1    3    3    0  502  0.17014451268E+03 -0.11047141814E+04 -0.12435898845E+04  0.16720886546E+04  0.46999998093E+01 0.  1.
</event>
<event>
 5   0  0.2664083E-06  0.3337932E+04  0.7818609E-02  0.8153310E-01
        2   -1    0    0  501    0  0.00000000000E+00  0.00000000000E+00  0.24807387989E+04  0.24807387989E+04  0.25500000920E-02 0. -1.
       -2   -1    0    0    0  501  0.00000000000E+00  0.00000000000E+00 -0.11228297138E+04  0.11228297138E+04  0.25500000920E-02 0.  1.
    10030    2    1    2    0    0  0.00000000000E+00  0.00000000000E+00  0.13579090851E+04  0.36035685127E+04  0.33379318361E+04 0.  0.
        2    1    3    3  502    0  0.11614778768E+04 -0.21103495660E+03  0.19526227679E+04  0.22817322991E+04  0.25500000920E-02 0. -1.
       -2    1    3    3    0  502 -0.11614778768E+04  0.21103495660E+03 -0.59471368279E+03  0.13218362136E+04  0.25500000920E-02 0.  1.
</event>
<event>
 5   0  0.2906701E-06  0.2185187E+04  0.7818609E-02  0.8524619E-01
       -2   -1    0    0    0  501  0.00000000000E+00  0.00000000000E+00  0.14334865657E+04  0.14334865657E+04  0.25500000920E-02 0.  1.
        2   -1    0    0  501    0  0.00000000000E+00  0.00000000000E+00 -0.83276720309E+03  0.83276720310E+03  0.25500000920E-02 0. -1.
    10030    2    1    2    0    0  0.00000000000E+00  0.00000000000E+00  0.60071936258E+03  0.22662537688E+04  0.21851870382E+04 0.  0.
        5    1    3    3  502    0 -0.92444702219E+03  0.43554772039E+03 -0.10054876639E+03  0.10268574672E+04  0.46999998093E+01 0. -1.
       -5    1    3    3    0  502  0.92444702219E+03 -0.43554772039E+03  0.70126812897E+03  0.12393963015E+04  0.46999998093E+01 0.  1.
</event>
<event>
 5   0  0.2664083E-06  0.3383279E+04  0.7818609E-02  0.8142022E-01
        2   -1    0    0  501    0  0.00000000000E+00  0.00000000000E+00  0.20084839397E+04  0.20084839397E+04  0.25500000920E-02 0.  1.
       -2   -1    0    0    0  501  0.00000000000E+00  0.00000000000E+00 -0.14247779706E+04  0.14247779706E+04  0.25500000920E-02 0. -1.
    10030    2    1    2    0    0  0.00000000000E+00  0.00000000000E+00  0.58370596909E+03  0.34332619104E+04  0.33832786889E+04 0.  0.
        2    1    3    3  502    0  0.13818548183E+03 -0.14290886931E+03  0.19965897346E+04  0.20064617466E+04  0.25500000920E-02 0.  1.
       -2    1    3    3    0  502 -0.13818548183E+03  0.14290886931E+03 -0.14128837655E+04  0.14268001637E+04  0.25500000920E-02 0. -1.
</event>
<event>
 5   0  0.2856440E-06  0.3367483E+04  0.7818609E-02  0.8145933E-01
       -2   -1    0    0    0  501  0.00000000000E+00  0.00000000000E+00  0.21415916683E+04  0.21415916683E+04  0.25500000920E-02 0.  1.
        2   -1    0    0  501    0  0.00000000000E+00  0.00000000000E+00 -0.13237748878E+04  0.13237748878E+04  0.25500000920E-02 0. -1.
    10030    2    1    2    0    0  0.00000000000E+00  0.00000000000E+00  0.81781678050E+03  0.34653665561E+04  0.33674829000E+04 0.  0.
        4    1    3    3  502    0  0.13289845416E+04 -0.84241332028E+03 -0.20777992489E+03  0.15871465666E+04  0.12699999809E+01 0.  1.
       -4    1    3    3    0  502 -0.13289845416E+04  0.84241332028E+03  0.10255967054E+04  0.18782199895E+04  0.12699999809E+01 0. -1.
</event>
<event>
 5   0  0.2767014E-06  0.3394973E+04  0.7818609E-02  0.8139141E-01
       -2   -1    0    0    0  501  0.00000000000E+00  0.00000000000E+00  0.15017707852E+04  0.15017707852E+04  0.25500000920E-02 0. -1.
        2   -1    0    0  501    0  0.00000000000E+00  0.00000000000E+00 -0.19187088376E+04  0.19187088376E+04  0.25500000920E-02 0.  1.
    10030    2    1    2    0    0  0.00000000000E+00  0.00000000000E+00 -0.41693805236E+03  0.34204796228E+04  0.33949732710E+04 0.  0.
        1    1    3    3  502    0 -0.70271079959E+03 -0.58081472588E+03 -0.16511180799E+04  0.18860909648E+04  0.50400001928E-02 0.  1.
       -1    1    3    3    0  502  0.70271079959E+03  0.58081472588E+03  0.12341800275E+04  0.15343886581E+04  0.50400001928E-02 0. -1.
</event>
<event>
 5   0  0.1010855E-06  0.3462371E+04  0.7818609E-02  0.8122766E-01
        1   -1    0    0  501    0  0.00000000000E+00  0.00000000000E+00  0.31794918829E+04  0.31794918829E+04  0.50400001928E-02 0.  1.
       -1   -1    0    0    0  501  0.00000000000E+00  0.00000000000E+00 -0.94260435967E+03  0.94260435968E+03  0.50400001928E-02 0. -1.
    10030    2    1    2    0    0  0.00000000000E+00  0.00000000000E+00  0.22368875233E+04  0.41220962426E+04  0.34623708123E+04 0.  0.
        1    1    3    3  502    0  0.15609383404E+04 -0.46875571524E+03  0.42348714523E+03  0.16839245189E+04  0.50400001928E-02 0.  1.
       -1    1    3    3    0  502 -0.15609383404E+04  0.46875571524E+03  0.18134003780E+04  0.24381717237E+04  0.50400001928E-02 0. -1.
</event>
<event>
 5   0  0.1003191E-06  0.3389850E+04  0.7818609E-02  0.8140402E-01
        1   -1    0    0  501    0  0.00000000000E+00  0.00000000000E+00  0.24702588671E+04  0.24702588671E+04  0.50400001928E-02 0. -1.
       -1   -1    0    0    0  501  0.00000000000E+00  0.00000000000E+00 -0.11629435080E+04  0.11629435080E+04  0.50400001928E-02 0.  1.
    10030    2    1    2    0    0  0.00000000000E+00  0.00000000000E+00  0.13073153591E+04  0.36332023751E+04  0.33898504466E+04 0.  0.
        5    1    3    3  502    0  0.16715814401E+04  0.24235629929E+03  0.50273580741E+03  0.17622957949E+04  0.46999998093E+01 0. -1.
       -5    1    3    3    0  502 -0.16715814401E+04 -0.24235629929E+03  0.80457955174E+03  0.18709065802E+04  0.46999998093E+01 0.  1.
</event>
<event>
 5   0  0.1010551E-06  0.2329449E+04  0.7818609E-02  0.8466399E-01
        1   -1    0    0  501    0  0.00000000000E+00  0.00000000000E+00  0.12136961112E+04  0.12136961112E+04  0.50400001928E-02 0. -1.
       -1   -1    0    0    0  501  0.00000000000E+00  0.00000000000E+00 -0.11177290679E+04  0.11177290679E+04  0.50400001928E-02 0.  1.
    10030    2    1    2    0    0  0.00000000000E+00  0.00000000000E+00  0.95967043282E+02  0.23314251791E+04  0.23294492251E+04 0.  0.
        2    1    3    3  502    0 -0.92647099263E+03  0.18203834379E+03 -0.63457514651E+03  0.11376168403E+04  0.25500000920E-02 0.  1.
       -2    1    3    3    0  502  0.92647099263E+03 -0.18203834379E+03  0.73054218979E+03  0.11938083388E+04  0.25500000920E-02 0. -1.
</event>
<event>
 5   0  0.9070500E-07  0.3456844E+04  0.7818609E-02  0.8124094E-01
        3   -1    0    0  501    0  0.00000000000E+00  0.00000000000E+00  0.15583496092E+04  0.15583496124E+04  0.10100000352E+00 0.  1.
       -3   -1    0    0    0  501  0.00000000000E+00  0.00000000000E+00 -0.19170558684E+04  0.19170558711E+04  0.10100000352E+00 0. -1.
    10030    2    1    2    0    0  0.00000000000E+00  0.00000000000E+00 -0.35870625927E+03  0.34754054835E+04  0.34568443839E+04 0.  0.
        2    1    3    3  502    0 -0.88767624019E+03 -0.13417222951E+04 -0.81461249822E+03  0.18032696268E+04  0.25500000920E-02 0. -1.
       -2    1    3    3    0  502  0.88767624019E+03  0.13417222951E+04  0.45590623895E+03  0.16721358567E+04  0.25500000920E-02 0.  1.
</event>
<event>
 5   0  0.2767014E-06  0.2344341E+04  0.7818609E-02  0.8460640E-01
       -2   -1    0    0    0  501  0.00000000000E+00  0.00000000000E+00  0.17573888774E+04  0.17573888775E+04  0.25500000920E-02 0. -1.
        2   -1    0    0  501    0  0.00000000000E+00  0.00000000000E+00 -0.78183249399E+03  0.78183249399E+03  0.25500000920E-02 0.  1.
    10030    2    1    2    0    0  0.00000000000E+00  0.00000000000E+00  0.97555638346E+03  0.25392213714E+04  0.23443410409E+04 0.  0.
        1    1    3    3  502    0 -0.34664984303E+03  0.86608000343E+01  0.17005636096E+04  0.17355568885E+04  0.50400001928E-02 0. -1.
       -1    1    3    3    0  502  0.34664984303E+03 -0.86608000343E+01 -0.72500722612E+03  0.80366448290E+03  0.50400001928E-02 0.  1.
</event>
<event>
 5   0  0.2856440E-06  0.2329231E+04  0.7818609E-02  0.8466484E-01
       -2   -1    0    0    0  501  0.00000000000E+00  0.00000000000E+00  0.60143279456E+03  0.60143279457E+03  0.25500000920E-02 0.  1.
        2   -1    0    0  501    0  0.00000000000E+00  0.00000000000E+00 -0.22551625483E+04  0.22551625483E+04  0.25500000920E-02 0. -1.
    10030    2    1    2    0    0  0.00000000000E+00  0.00000000000E+00 -0.16537297538E+04  0.28565953429E+04  0.23292305284E+04 0.  0.
        4    1    3    3  502    0 -0.36361228096E+03  0.10955945810E+04 -0.63772006287E+03  0.13187986458E+04  0.12699999809E+01 0.  1.
       -4    1    3    3    0  502  0.36361228096E+03 -0.10955945810E+04 -0.10160096909E+04  0.15377966971E+04  0.12699999809E+01 0. -1.
</event>
<event>
 5   0  0.9714317E-07  0.3353220E+04  0.7818609E-02  0.8149484E-01
        1   -1    0    0  501    0  0.00000000000E+00  0.00000000000E+00  0.16125487463E+04  0.16125487463E+04  0.50400001928E-02 0. -1.
       -1   -1    0    0    0  501  0.00000000000E+00  0.00000000000E+00 -0.17432166669E+04  0.17432166669E+04  0.50400001928E-02 0.  1.
    10030    2    1    2    0    0  0.00000000000E+00  0.00000000000E+00 -0.13066792056E+03  0.33557654133E+04  0.33532204525E+04 0.  0.
        4    1    3    3  502    0  0.11198814614E+04  0.65101510423E+03  0.99992921830E+03  0.16364031313E+04  0.12699999809E+01 0. -1.
       -4    1    3    3    0  502 -0.11198814614E+04 -0.65101510423E+03 -0.11305971389E+04  0.17193622820E+04  0.12699999809E+01 0.  1.
</event>
<event>
 5   0  0.1010551E-06  0.3329273E+04  0.7818609E-02  0.8155487E-01
       -1   -1    0    0    0  501  0.00000000000E+00  0.00000000000E+00  0.16113440266E+04  0.16113440266E+04  0.50400001928E-02 0.  1.
        1   -1    0    0  501    0  0.00000000000E+00  0.00000000000E+00 -0.17196916452E+04  0.17196916452E+04  0.50400001928E-02 0. -1.
    10030    2    1    2    0    0  0.00000000000E+00  0.00000000000E+00 -0.10834761859E+03  0.33310356717E+04  0.33292731099E+04 0.  0.
        2    1    3    3  502    0  0.57688644789E+03  0.99605580020E+03 -0.12573451575E+04  0.17046530368E+04  0.25500000920E-02 0. -1.
       -2    1    3    3    0  502 -0.57688644789E+03 -0.99605580020E+03  0.11489975389E+04  0.16263826349E+04  0.25500000920E-02 0.  1.
</event>
<event>
 5   0  0.1010551E-06  0.3389134E+04  0.7818609E-02  0.8140578E-01
       -1   -1    0    0    0  501  0.00000000000E+00  0.00000000000E+00  0.17796589465E+04  0.17796589465E+04  0.50400001928E-02 0. -1.
        1   -1    0    0  501    0  0.00000000000E+00  0.00000000000E+00 -0.16135431343E+04  0.16135431343E+04  0.50400001928E-02 0.  1.
    10030    2    1    2    0    0  0.00000000000E+00  0.00000000000E+00  0.16611581220E+03  0.33932020809E+04  0.33891335026E+04 0.  0.
        2    1    3    3  502    0 -0.14879567240E+04  0.26445015155E+03  0.85053366797E+03  0.17341731792E+04  0.25500000920E-02 0. -1.
       -2    1    3    3    0  502  0.14879567240E+04 -0.26445015155E+03 -0.68441785577E+03  0.16590289016E+04  0.25500000920E-02 0.  1.
</event>
<event>
 5   0  0.2664083E-06  0.3378797E+04  0.7818609E-02  0.8143130E-01
       -2   -1    0    0    0  501  0.00000000000E+00  0.00000000000E+00  0.97818568755E+03  0.97818568755E+03  0.25500000920E-02 0.  1.
        2   -1    0    0  501    0  0.00000000000E+00  0.00000000000E+00 -0.29177156466E+04  0.29177156466E+04  0.25500000920E-02 0. -1.
    10030    2    1    2    0    0  0.00000000000E+00  0.00000000000E+00 -0.19395299591E+04  0.38959013342E+04  0.33787972333E+04 0.  0.
        2    1    3    3  502    0  0.64660599791E+03  0.99400333418E+03  0.41769020535E+03  0.12572219583E+04  0.25500000920E-02 0.  1.
       -2    1    3    3    0  502 -0.64660599791E+03 -0.99400333418E+03 -0.23572201644E+04  0.26386793759E+04  0.25500000920E-02 0. -1.
</event>
<event>
 5   0  0.1010855E-06  0.3391161E+04  0.7818609E-02  0.8140079E-01
       -1   -1    0    0    0  501  0.00000000000E+00  0.00000000000E+00  0.15695655008E+04  0.15695655008E+04  0.50400001928E-02 0.  1.
        1   -1    0    0  501    0  0.00000000000E+00  0.00000000000E+00 -0.18317126524E+04  0.18317126524E+04  0.50400001928E-02 0. -1.
    10030    2    1    2    0    0  0.00000000000E+00  0.00000000000E+00 -0.26214715158E+03  0.34012781532E+04  0.33911608552E+04 0.  0.
        1    1    3    3  502    0 -0.99145402521E+03 -0.88761459710E+02  0.12456589485E+04  0.15945299924E+04  0.50400001928E-02 0.  1.
       -1    1    3    3    0  502  0.99145402521E+03  0.88761459710E+02 -0.15078061001E+04  0.18067481607E+04  0.50400001928E-02 0. -1.
</event>
<event>
 5   0  0.9714317E-07  0.3771610E+04  0.7818609E-02  0.8052275E-01
        1   -1    0    0  501    0  0.00000000000E+00  0.00000000000E+00  0.18258472671E+04  0.18258472671E+04  0.50400001928E-02 0.  1.
       -1   -1    0    0    0  501  0.00000000000E+00  0.00000000000E+00 -0.19477315428E+04  0.19477315428E+04  0.50400001928E-02 0. -1.
    10030    2    1    2    0    0  0.00000000000E+00  0.00000000000E+00 -0.12188427564E+03  0.37735788099E+04  0.37716099027E+04 0.  0.
        4    1    3    3  502    0  0.22013458598E+03 -0.95188889172E+03  0.15528806745E+04  0.18346639203E+04  0.12699999809E+01 0.  1.
       -4    1    3    3    0  502 -0.22013458598E+03  0.95188889172E+03 -0.16747649502E+04  0.19389148897E+04  0.12699999809E+01 0. -1.
</event>
<event>
 5   0  0.9232963E-07  0.3364371E+04  0.7818609E-02  0.8146707E-01
       -1   -1    0    0    0  501  0.00000000000E+00  0.00000000000E+00  0.12375409683E+04  0.12375409683E+04  0.50400001928E-02 0.  1.
        1   -1    0    0  501    0  0.00000000000E+00  0.00000000000E+00 -0.22865892945E+04  0.22865892945E+04  0.50400001928E-02 0. -1.
    10030    2    1    2    0    0  0.00000000000E+00  0.00000000000E+00 -0.10490483263E+04  0.35241302628E+04  0.33643709246E+04 0.  0.
        3    1    3    3  502    0 -0.14522097912E+04 -0.84830061235E+03 -0.56112195203E+03  0.17729594078E+04  0.10100000352E+00 0. -1.
       -3    1    3    3    0  502  0.14522097912E+04  0.84830061235E+03 -0.48792637423E+03  0.17511708550E+04  0.10100000352E+00 0.  1.
</event>
<event>
 5   0  0.9714317E-07  0.3476142E+04  0.7818609E-02  0.8119467E-01
        1   -1    0    0  501    0  0.00000000000E+00  0.00000000000E+00  0.23489763839E+04  0.23489763839E+04  0.50400001928E-02 0. -1.
       -1   -1    0    0    0  501  0.00000000000E+00  0.00000000000E+00 -0.12860454362E+04  0.12860454362E+04  0.50400001928E-02 0.  1.
    10030    2    1    2    0    0  0.00000000000E+00  0.00000000000E+00  0.10629309477E+04  0.36350218201E+04  0.34761417452E+04 0.  0.
        4    1    3    3  502    0  0.13959068115E+04 -0.10331617303E+04  0.60473773411E+03  0.18389367382E+04  0.12699999809E+01 0. -1.
       -4    1    3    3    0  502 -0.13959068115E+04  0.10331617303E+04  0.45819321359E+03  0.17960850818E+04  0.12699999809E+01 0.  1.
</event>
<event>
 5   0  0.2856440E-06  0.3424975E+04  0.7818609E-02  0.8131804E-01
       -2   -1    0    0    0  501  0.00000000000E+00  0.00000000000E+00  0.16634320370E+04  0.16634320370E+04  0.25500000920E-02 0. -1.
        2   -1    0    0  501    0  0.00000000000E+00  0.00000000000E+00 -0.17629892237E+04  0.17629892237E+04  0.25500000920E-02 0.  1.
    10030    2    1    2    0    0  0.00000000000E+00  0.00000000000E+00 -0.99557186692E+02  0.34264212607E+04  0.34249746017E+04 0.  0.
        4    1    3    3  502    0 -0.40868594395E+03 -0.94505601800E+03  0.13191765537E+04  0.16734346329E+04  0.12699999809E+01 0. -1.
       -4    1    3    3    0  502  0.40868594395E+03  0.94505601800E+03 -0.14187337404E+04  0.17529866277E+04  0.12699999809E+01 0.  1.
</event>
<event>
 5   0  0.2664083E-06  0.3590206E+04  0.7818609E-02  0.8092739E-01
       -2   -1    0    0    0  501  0.00000000000E+00  0.00000000000E+00  0.14167016012E+04  0.14167016012E+04  0.25500000920E-02 0. -1.
        2   -1    0    0  501    0  0.00000000000E+00  0.00000000000E+00 -0.22745757716E+04  0.22745757716E+04  0.25500000920E-02 0.  1.
    10030    2    1    2    0    0  0.00000000000E+00  0.00000000000E+00 -0.85787417039E+03  0.36912773729E+04  0.35902061990E+04 0.  0.
        2    1    3    3  502    0  0.47513956227E+03  0.16343451976E+04 -0.10155725914E+04  0.19819761646E+04  0.25500000920E-02 0.  1.
       -2    1    3    3    0  502 -0.47513956227E+03 -0.16343451976E+04  0.15769842099E+03  0.17093012083E+04  0.25500000920E-02 0. -1.
</event>
<event>
 5   0  0.2906701E-06  0.3368879E+04  0.7818609E-02  0.8145587E-01
        2   -1    0    0  501    0  0.00000000000E+00  0.00000000000E+00  0.23396163445E+04  0.23396163445E+04  0.25500000920E-02 0.  1.
       -2   -1    0    0    0  501  0.00000000000E+00  0.00000000000E+00 -0.12127359410E+04  0.12127359410E+04  0.25500000920E-02 0. -1.
    10030    2    1    2    0    0  0.00000000000E+00  0.00000000000E+00  0.11268804035E+04  0.35523522855E+04  0.33688792374E+04 0.  0.
        5    1    3    3  502    0 -0.43397907656E+03  0.11537357417E+03  0.22753298216E+04  0.23192233156E+04  0.46999998093E+01 0.  1.
       -5    1    3    3    0  502  0.43397907656E+03 -0.11537357417E+03 -0.11484494181E+04  0.12331289699E+04  0.46999998093E+01 0. -1.
</event>
<event>
 5   0  0.2848685E-06  0.3278059E+04  0.7818609E-02  0.8168501E-01
        2   -1    0    0  501    0  0.00000000000E+00  0.00000000000E+00  0.18324147870E+04  0.18324147870E+04  0.25500000920E-02 0. -1.
       -2   -1    0    0    0  501  0.00000000000E+00  0.00000000000E+00 -0.14660531287E+04  0.14660531287E+04  0.25500000920E-02 0.  1.
    10030    2    1    2    0    0  0.00000000000E+00  0.00000000000E+00  0.36636165833E+03  0.32984679157E+04  0.32780588351E+04 0.  0.
        3    1    3    3  502    0  0.13770997213E+04 -0.81532929238E+03  0.53929374272E+03  0.16887875084E+04  0.10100000352E+00 0. -1.
       -3    1    3    3    0  502 -0.13770997213E+04  0.81532929238E+03 -0.17293208440E+03  0.16096804073E+04  0.10100000352E+00 0.  1.
</event>
<event>
 5   0  0.2767014E-06  0.2789965E+04  0.7818609E-02  0.8306391E-01
       -2   -1    0    0    0  501  0.00000000000E+00  0.00000000000E+00  0.11631337428E+04  0.11631337428E+04  0.25500000920E-02 0. -1.
        2   -1    0    0  501    0  0.00000000000E+00  0.00000000000E+00 -0.16730461528E+04  0.16730461528E+04  0.25500000920E-02 0.  1.
    10030    2    1    2    0    0  0.00000000000E+00  0.00000000000E+00 -0.50991241006E+03  0.28361798956E+04  0.27899651851E+04 0.  0.
        1    1    3    3  502    0 -0.80306537223E+02  0.12490625649E+04  0.37117663700E+03  0.13055184896E+04  0.50400001928E-02 0. -1.
       -1    1    3    3    0  502  0.80306537223E+02 -0.12490625649E+04 -0.88108904705E+03  0.15306614060E+04  0.50400001928E-02 0.  1.
</event>
<event>
 5   0  0.9232963E-07  0.2924158E+04  0.7818609E-02  0.8265726E-01
        1   -1    0    0  501    0  0.00000000000E+00  0.00000000000E+00  0.14104250858E+04  0.14104250858E+04  0.50400001928E-02 0.  1.
       -1   -1    0    0    0  501  0.00000000000E+00  0.00000000000E+00 -0.15156245974E+04  0.15156245974E+04  0.50400001928E-02 0. -1.
    10030    2    1    2    0    0  0.00000000000E+00  0.00000000000E+00 -0.10519951165E+03  0.29260496832E+04  0.29241579662E+04 0.  0.
        3    1    3    3  502    0 -0.97183858018E+03  0.56697787703E+03 -0.98687438031E+03  0.14966145769E+04  0.10100000352E+00 0. -1.
       -3    1    3    3    0  502  0.97183858018E+03 -0.56697787703E+03  0.88167486866E+03  0.14294351063E+04  0.10100000352E+00 0.  1.
</event>
<event>
 5   0  0.9232963E-07  0.3418233E+04  0.7818609E-02  0.8133446E-01
        1   -1    0    0  501    0  0.00000000000E+00  0.00000000000E+00  0.19676903196E+04  0.19676903196E+04  0.50400001928E-02 0. -1.
       -1   -1    0    0    0  501  0.00000000000E+00  0.00000000000E+00 -0.14845221323E+04  0.14845221323E+04  0.50400001928E-02 0.  1.
    10030    2    1    2    0    0  0.00000000000E+00  0.00000000000E+00  0.48316818732E+03  0.34522124519E+04  0.34182333618E+04 0.  0.
        3    1    3    3  502    0 -0.80528025546E+03 -0.44008224875E+03 -0.12145985781E+04  0.15223003618E+04  0.10100000352E+00 0.  1.
       -3    1    3    3    0  502  0.80528025546E+03  0.44008224875E+03  0.16977667654E+04  0.19299120901E+04  0.10100000352E+00 0. -1.
</event>
<event>
 5   0  0.2906701E-06  0.3456609E+04  0.7818609E-02  0.8124151E-01
       -2   -1    0    0    0  501  0.00000000000E+00  0.00000000000E+00  0.15917670973E+04  0.15917670973E+04  0.25500000920E-02 0.  1.
        2   -1    0    0  501    0  0.00000000000E+00  0.00000000000E+00 -0.18765532750E+04  0.18765532750E+04  0.25500000920E-02 0. -1.
    10030    2    1    2    0    0  0.00000000000E+00  0.00000000000E+00 -0.28478617775E+03  0.34683203723E+04  0.34566086035E+04 0.  0.
        5    1    3    3  502    0  0.86960191216E+03 -0.10037546298E+04 -0.12521617072E+04  0.18252840528E+04  0.46999998093E+01 0. -1.
       -5    1    3    3    0  502 -0.86960191216E+03  0.10037546298E+04  0.96737552943E+03  0.16430363195E+04  0.46999998093E+01 0.  1.
</event>
<event>
 5   0  0.9714317E-07  0.3273441E+04  0.7818609E-02  0.8169686E-01
        1   -1    0    0  501    0  0.00000000000E+00  0.00000000000E+00  0.10159436309E+04  0.10159436309E+04  0.50400001928E-02 0. -1.
       -1   -1    0    0    0  501  0.00000000000E+00  0.00000000000E+00 -0.26368133535E+04  0.26368133536E+04  0.50400001928E-02 0.  1.
    10030    2    1    2    0    0  0.00000000000E+00  0.00000000000E+00 -0.16208697226E+04  0.36527569845E+04  0.32734408395E+04 0.  0.
        4    1    3    3  502    0 -0.86562930088E+03  0.12853688540E+04 -0.22275329690E+03  0.15656014248E+04  0.12699999809E+01 0. -1.
       -4    1    3    3    0  502  0.86562930088E+03 -0.12853688540E+04 -0.13981164257E+04  0.20871555596E+04  0.12699999809E+01 0.  1.
</event>
<event>
 5   0  0.2767014E-06  0.3369891E+04  0.7818609E-02  0.8145336E-01
       -2   -1    0    0    0  501  0.00000000000E+00  0.00000000000E+00  0.15375216408E+04  0.15375216408E+04  0.25500000920E-02 0. -1.
        2   -1    0    0  501    0  0.00000000000E+00  0.00000000000E+00 -0.18465046831E+04  0.18465046831E+04  0.25500000920E-02 0.  1.
    10030    2    1    2    0    0  0.00000000000E+00  0.00000000000E+00 -0.30898304232E+03  0.33840263240E+04  0.33698907461E+04 0.  0.
        1    1    3    3  502    0  0.26438544490E+03 -0.12196995198E+04 -0.12912622098E+04  0.17958075277E+04  0.50400001928E-02 0.  1.
       -1    1    3    3    0  502 -0.26438544490E+03  0.12196995198E+04  0.98227916744E+03  0.15882187963E+04  0.50400001928E-02 0. -1.
</event>
<event>
 5   0  0.2848685E-06  0.3380528E+04  0.7818609E-02  0.8142702E-01
        2   -1    0    0  501    0  0.00000000000E+00  0.00000000000E+00  0.19469259198E+04  0.19469259198E+04  0.25500000920E-02 0.  1.
       -2   -1    0    0    0  501  0.00000000000E+00  0.00000000000E+00 -0.14674377557E+04  0.14674377558E+04  0.25500000920E-02 0. -1.
    10030    2    1    2    0    0  0.00000000000E+00  0.00000000000E+00  0.47948816404E+03  0.34143636755E+04  0.33805281258E+04 0.  0.
        3    1    3    3  502    0  0.23386045420E+03  0.55678238194E+03  0.18342457193E+04  0.19311019398E+04  0.10100000352E+00 0.  1.
       -3    1    3    3    0  502 -0.23386045420E+03 -0.55678238194E+03 -0.13547575553E+04  0.14832617357E+04  0.10100000352E+00 0. -1.
</event>
<event>
 5   0  0.9232963E-07  0.3313529E+04  0.7818609E-02  0.8159461E-01
        1   -1    0    0  501    0  0.00000000000E+00  0.00000000000E+00  0.18241805262E+04  0.18241805262E+04  0.50400001928E-02 0. -1.
       -1   -1    0    0    0  501  0.00000000000E+00  0.00000000000E+00 -0.15047131083E+04  0.15047131083E+04  0.50400001928E-02 0.  1.
    10030    2    1    2    0    0  0.00000000000E+00  0.00000000000E+00  0.31946741794E+03  0.33288936345E+04  0.33135288438E+04 0.  0.
        3    1    3    3  502    0  0.16216400182E+03 -0.89758073729E+03 -0.12297631416E+04  0.15310995194E+04  0.10100000352E+00 0.  1.
       -3    1    3    3    0  502 -0.16216400182E+03  0.89758073729E+03  0.15492305596E+04  0.17977941151E+04  0.10100000352E+00 0. -1.
</event>
<event>
 5   0  0.2848685E-06  0.2597026E+04  0.7818609E-02  0.8369212E-01
        2   -1    0    0  501    0  0.00000000000E+00  0.00000000000E+00  0.13486378340E+04  0.13486378340E+04  0.25500000920E-02 0. -1.
       -2   -1    0    0    0  501  0.00000000000E+00  0.00000000000E+00 -0.12502510790E+04  0.12502510790E+04  0.25500000920E-02 0.  1.
    10030    2    1    2    0    0  0.00000000000E+00  0.00000000000E+00  0.98386755001E+02  0.25988889130E+04  0.25970259199E+04 0.  0.
        3    1    3    3  502    0 -0.15394680001E+03  0.68215251616E+03 -0.10457140803E+04  0.12579942847E+04  0.10100000352E+00 0.  1.
       -3    1    3    3    0  502  0.15394680001E+03 -0.68215251616E+03  0.11441008353E+04  0.13408946282E+04  0.10100000352E+00 0. -1.
</event>
<event>
 5   0  0.2767014E-06  0.3447578E+04  0.7818609E-02  0.8126327E-01
       -2   -1    0    0    0  501  0.00000000000E+00  0.00000000000E+00  0.12982411039E+04  0.12982411040E+04  0.25500000920E-02 0. -1.
        2   -1    0    0  501    0  0.00000000000E+00  0.00000000000E+00 -0.22888264327E+04  0.22888264327E+04  0.25500000920E-02 0.  1.
    10030    2    1    2    0    0  0.00000000000E+00  0.00000000000E+00 -0.99058532878E+03  0.35870675367E+04  0.34475780222E+04 0.  0.
        1    1    3    3  502    0  0.14329145746E+03  0.11997011542E+04  0.78393743253E+03  0.14402684470E+04  0.50400001928E-02 0. -1.
       -1    1    3    3    0  502 -0.14329145746E+03 -0.11997011542E+04 -0.17745227613E+04  0.21467990897E+04  0.50400001928E-02 0.  1.
</event>
<event>
 5   0  0.9714317E-07  0.3405132E+04  0.7818609E-02  0.8136648E-01
        1   -1    0    0  501    0  0.00000000000E+00  0.00000000000E+00  0.17209324089E+04  0.17209324089E+04  0.50400001928E-02 0. -1.
       -1   -1    0    0    0  501  0.00000000000E+00  0.00000000000E+00 -0.16843958360E+04  0.16843958360E+04  0.50400001928E-02 0.  1.
    10030    2    1    2    0    0  0.00000000000E+00  0.00000000000E+00  0.36536572887E+02  0.34053282449E+04  0.34051322345E+04 0.  0.
        4    1    3    3  502    0 -0.10686270544E+04 -0.52810418774E+03 -0.11974792627E+04  0.16896200792E+04  0.12699999809E+01 0.  1.
       -4    1    3    3    0  502  0.10686270544E+04  0.52810418774E+03  0.12340158356E+04  0.17157081657E+04  0.12699999809E+01 0. -1.
</event>
<event>
 5   0  0.2856440E-06  0.3508526E+04  0.7818609E-02  0.8111772E-01
        2   -1    0    0  501    0  0.00000000000E+00  0.00000000000E+00  0.25592496974E+04  0.25592496974E+04  0.25500000920E-02 0. -1.
       -2   -1    0    0    0  501  0.00000000000E+00  0.00000000000E+00 -0.12024768303E+04  0.12024768303E+04  0.25500000920E-02 0.  1.
    10030    2    1    2    0    0  0.00000000000E+00  0.00000000000E+00  0.13567728671E+04  0.37617265276E+04  0.35085258807E+04 0.  0.
        4    1    3    3  502    0  0.98332826294E+02  0.76186287315E+03 -0.10125584610E+04  0.12709762516E+04  0.12699999809E+01 0.  1.
       -4    1    3    3    0  502 -0.98332826294E+02 -0.76186287315E+03  0.23693313281E+04  0.24907502760E+04  0.12699999809E+01 0. -1.
</event>
<event>
 5   0  0.2664083E-06  0.2963964E+04  0.7818609E-02  0.8254097E-01
       -2   -1    0    0    0  501  0.00000000000E+00  0.00000000000E+00  0.10040259343E+04  0.10040259343E+04  0.25500000920E-02 0. -1.
        2   -1    0    0  501    0  0.00000000000E+00  0.00000000000E+00 -0.21874640626E+04  0.21874640626E+04  0.25500000920E-02 0.  1.
    10030    2    1    2    0    0  0.00000000000E+00  0.00000000000E+00 -0.11834381284E+04  0.31914899969E+04  0.29639640006E+04 0.  0.
        2    1    3    3  502    0 -0.11564152287E+04 -0.83930449049E+03 -0.16842278985E+03  0.14387822785E+04  0.25500000920E-02 0. -1.
       -2    1    3    3    0  502  0.11564152287E+04  0.83930449049E+03 -0.10150153385E+04  0.17527077184E+04  0.25500000920E-02 0.  1.
</event>
<event>
 5   0  0.9232963E-07  0.3467197E+04  0.7818609E-02  0.8121608E-01
        1   -1    0    0  501    0  0.00000000000E+00  0.00000000000E+00  0.17004908198E+04  0.17004908198E+04  0.50400001928E-02 0.  1.
       -1   -1    0    0    0  501  0.00000000000E+00  0.00000000000E+00 -0.17673504303E+04  0.17673504304E+04  0.50400001928E-02 0. -1.
    10030    2    1    2    0    0  0.00000000000E+00  0.00000000000E+00 -0.66859610591E+02  0.34678412501E+04  0.34671966671E+04 0.  0.
        3    1    3    3  502    0  0.13180526692E+04 -0.10937503823E+04 -0.30145431392E+03  0.17390881091E+04  0.10100000352E+00 0. -1.
       -3    1    3    3    0  502 -0.13180526692E+04  0.10937503823E+04  0.23459470333E+03  0.17287531410E+04  0.10100000352E+00 0.  1.
</event>
<event>
 5   0  0.9714317E-07  0.2265700E+04  0.7818609E-02  0.8491569E-01
        1   -1    0    0  501    0  0.00000000000E+00  0.00000000000E+00  0.84958592474E+03  0.84958592475E+03  0.50400001928E-02 0. -1.
       -1   -1    0    0    0  501  0.00000000000E+00  0.00000000000E+00 -0.15105578885E+04  0.15105578885E+04  0.50400001928E-02 0.  1.
    10030    2    1    2    0    0  0.00000000000E+00  0.00000000000E+00 -0.66097196378E+03  0.23601438133E+04  0.22656996452E+04 0.  0.
        4    1    3    3  502    0  0.25668350689E+02  0.14713277951E+03  0.83928432789E+03  0.85247094670E+03  0.12699999809E+01 0. -1.
       -4    1    3    3    0  502 -0.25668350689E+02 -0.14713277951E+03 -0.15002562917E+04  0.15076728666E+04  0.12699999809E+01 0.  1.
</event>
<event>
 5   0  0.1003191E-06  0.3402429E+04  0.7818609E-02  0.8137310E-01
       -1   -1    0    0    0  501  0.00000000000E+00  0.00000000000E+00  0.17458104719E+04  0.17458104719E+04  0.50400001928E-02 0. -1.
        1   -1    0    0  501    0  0.00000000000E+00  0.00000000000E+00 -0.16577580802E+04  0.16577580802E+04  0.50400001928E-02 0.  1.
    10030    2    1    2    0    0  0.00000000000E+00  0.00000000000E+00  0.88052391752E+02  0.34035685521E+04  0.34024293770E+04 0.  0.
        5    1    3    3  502    0 -0.28821634884E+03  0.12313593657E+04  0.11822976690E+04  0.17312320525E+04  0.46999998093E+01 0. -1.
       -5    1    3    3    0  502  0.28821634884E+03 -0.12313593657E+04 -0.10942452773E+04  0.16723364997E+04  0.46999998093E+01 0.  1.
</event>
<event>
 5   0  0.9714317E-07  0.3496838E+04  0.7818609E-02  0.8114540E-01
       -1   -1    0    0    0  501  0.00000000000E+00  0.00000000000E+00  0.19232195784E+04  0.19232195784E+04  0.50400001928E-02 0.  1.
        1   -1    0    0  501    0  0.00000000000E+00  0.00000000000E+00 -0.15895058421E+04  0.15895058421E+04  0.50400001928E-02 0. -1.
    10030    2    1    2    0    0  0.00000000000E+00  0.00000000000E+00  0.33371373627E+03  0.35127254206E+04  0.34968378605E+04 0.  0.
        4    1    3    3  502    0 -0.12488466687E+04 -0.10445422313E+04  0.80715433956E+03  0.18171918489E+04  0.12699999809E+01 0. -1.
       -4    1    3    3    0  502  0.12488466687E+04  0.10445422313E+04 -0.47344060329E+03  0.16955335717E+04  0.12699999809E+01 0.  1.
</event>
<event>
 5   0  0.1010855E-06  0.3386561E+04  0.7818609E-02  0.8141212E-01
       -1   -1    0    0    0  501  0.00000000000E+00  0.00000000000E+00  0.16052647662E+04  0.16052647662E+04  0.50400001928E-02 0.  1.
        1   -1    0    0  501    0  0.00000000000E+00  0.00000000000E+00 -0.17861225558E+04  0.17861225558E+04  0.50400001928E-02 0. -1.
    10030    2    1    2    0    0  0.00000000000E+00  0.00000000000E+00 -0.18085778962E+03  0.33913873221E+04  0.33865614461E+04 0.  0.
        1    1    3    3  502    0  0.50055257169E+03  0.15604537961E+04 -0.51721771771E+03  0.17184536928E+04  0.50400001928E-02 0. -1.
       -1    1    3    3    0  502 -0.50055257169E+03 -0.15604537961E+04  0.33635992809E+03  0.16729336293E+04  0.50400001928E-02 0.  1.
</event>
<event>
 5   0  0.2906701E-06  0.2379530E+04  0.7818609E-02  0.8447207E-01
        2   -1    0    0  501    0  0.00000000000E+00  0.00000000000E+00  0.13001913542E+04  0.13001913542E+04  0.25500000920E-02 0.  1.
       -2   -1    0    0    0  501  0.00000000000E+00  0.00000000000E+00 -0.10887174449E+04  0.10887174449E+04  0.25500000920E-02 0. -1.
    10030    2    1    2    0    0  0.00000000000E+00  0.00000000000E+00  0.21147390927E+03  0.23889087991E+04  0.23795302133E+04 0.  0.
        5    1    3    3  502    0 -0.80911488941E+03  0.79730725688E+03 -0.24942729518E+03  0.11630141150E+04  0.46999998093E+01 0. -1.
       -5    1    3    3    0  502  0.80911488941E+03 -0.79730725688E+03  0.46090120445E+03  0.12258946841E+04  0.46999998093E+01 0.  1.
</event>
<event>
 5   0  0.9714317E-07  0.3409339E+04  0.7818609E-02  0.8135618E-01
       -1   -1    0    0    0  501  0.00000000000E+00  0.00000000000E+00  0.13901594071E+04  0.13901594071E+04  0.50400001928E-02 0. -1.
        1   -1    0    0  501    0  0.00000000000E+00  0.00000000000E+00 -0.20903346104E+04  0.20903346104E+04  0.50400001928E-02 0.  1.
    10030    2    1    2    0    0  0.00000000000E+00  0.00000000000E+00 -0.70017520327E+03  0.34804940175E+04  0.34093391281E+04 0.  0.
        4    1    3    3  502    0  0.24909967772E+01  0.13517144393E+03 -0.20848525885E+04  0.20892317854E+04  0.12699999809E+01 0.  1.
       -4    1    3    3    0  502 -0.24909967772E+01 -0.13517144393E+03  0.13846773853E+04  0.13912622321E+04  0.12699999809E+01 0. -1.
</event>
<event>
 5   0  0.1010551E-06  0.3364906E+04  0.7818609E-02  0.8146574E-01
        1   -1    0    0  501    0  0.00000000000E+00  0.00000000000E+00  0.28276067974E+04  0.28276067974E+04  0.50400001928E-02 0.  1.
       -1   -1    0    0    0  501  0.00000000000E+00  0.00000000000E+00 -0.10010753267E+04  0.10010753267E+04  0.50400001928E-02 0. -1.
    10030    2    1    2    0    0  0.00000000000E+00  0.00000000000E+00  0.18265314707E+04  0.38286821241E+04  0.33649055847E+04 0.  0.
        2    1    3    3  502    0  0.16739283003E+04  0.94009106252E+00  0.11057253486E+04  0.20061568694E+04  0.25500000920E-02 0.  1.
       -2    1    3    3    0  502 -0.16739283003E+04 -0.94009106252E+00  0.72080612212E+03  0.18225252547E+04  0.25500000920E-02 0. -1.
</event>
<event>
 5   0  0.2848685E-06  0.3293124E+04  0.7818609E-02  0.8164647E-01
        2   -1    0    0  501    0  0.00000000000E+00  0.00000000000E+00  0.25424604413E+04  0.25424604413E+04  0.25500000920E-02 0. -1.
       -2   -1    0    0    0  501  0.00000000000E+00  0.00000000000E+00 -0.10663551323E+04  0.10663551323E+04  0.25500000920E-02 0.  1.
    10030    2    1    2    0    0  0.00000000000E+00  0.00000000000E+00  0.14761053090E+04  0.36088155736E+04  0.32931235872E+04 0.  0.
        3    1    3    3  502    0 -0.17823592419E+03  0.16596000382E+01 -0.10557514952E+04  0.10706923129E+04  0.10100000352E+00 0.  1.
       -3    1    3    3    0  502  0.17823592419E+03 -0.16596000382E+01  0.25318568042E+04  0.25381232607E+04  0.10100000352E+00 0. -1.
</event>
<event>
 5   0  0.2848685E-06  0.3099178E+04  0.7818609E-02  0.8215964E-01
        2   -1    0    0  501    0  0.00000000000E+00  0.00000000000E+00  0.11253437904E+04  0.11253437904E+04  0.25500000920E-02 0.  1.
       -2   -1    0    0    0  501  0.00000000000E+00  0.00000000000E+00 -0.21337706186E+04  0.21337706186E+04  0.25500000920E-02 0. -1.
    10030    2    1    2    0    0  0.00000000000E+00  0.00000000000E+00 -0.10084268282E+04  0.32591144090E+04  0.30991776430E+04 0.  0.
        3    1    3    3  502    0  0.11179572180E+04 -0.41602059545E+01 -0.16326117826E+04  0.19787033359E+04  0.10100000352E+00 0. -1.
       -3    1    3    3    0  502 -0.11179572180E+04  0.41602059545E+01  0.62418495436E+03  0.12804110731E+04  0.10100000352E+00 0.  1.
</event>
<event>
 5   0  0.1003191E-06  0.3423019E+04  0.7818609E-02  0.8132280E-01
       -1   -1    0    0    0  501  0.00000000000E+00  0.00000000000E+00  0.18655612030E+04  0.18655612030E+04  0.50400001928E-02 0.  1.
        1   -1    0    0  501    0  0.00000000000E+00  0.00000000000E+00 -0.15701786300E+04  0.15701786300E+04  0.50400001928E-02 0. -1.
    10030    2    1    2    0    0  0.00000000000E+00  0.00000000000E+00  0.29538257307E+03  0.34357398330E+04  0.34230187460E+04 0.  0.
        5    1    3    3  502    0 -0.71746076017E+03  0.11181063563E+04 -0.93536025620E+03  0.16247561864E+04  0.46999998093E+01 0. -1.
       -5    1    3    3    0  502  0.71746076017E+03 -0.11181063563E+04  0.12307428293E+04  0.18109836466E+04  0.46999998093E+01 0.  1.
</event>
<event>
 5   0  0.2906701E-06  0.3380942E+04  0.7818609E-02  0.8142600E-01
       -2   -1    0    0    0  501  0.00000000000E+00  0.00000000000E+00  0.11662327339E+04  0.11662327339E+04  0.25500000920E-02 0. -1.
        2   -1    0    0  501    0  0.00000000000E+00  0.00000000000E+00 -0.24503612946E+04  0.24503612946E+04  0.25500000920E-02 0.  1.
    10030    2    1    2    0    0  0.00000000000E+00  0.00000000000E+00 -0.12841285607E+04  0.36165940285E+04  0.33809416154E+04 0.  0.
        5    1    3    3  502    0  0.54948751170E+03 -0.72202772115E+03  0.88367811483E+03  0.12665581930E+04  0.46999998093E+01 0. -1.
       -5    1    3    3    0  502 -0.54948751170E+03  0.72202772115E+03 -0.21678066756E+04  0.23500358355E+04  0.46999998093E+01 0.  1.
</event>
<event>
 5   0  0.2848685E-06  0.3417531E+04  0.7818609E-02  0.8133617E-01
        2   -1    0    0  501    0  0.00000000000E+00  0.00000000000E+00  0.15553932728E+04  0.15553932728E+04  0.25500000920E-02 0.  1.
       -2   -1    0    0    0  501  0.00000000000E+00  0.00000000000E+00 -0.18772614592E+04  0.18772614592E+04  0.25500000920E-02 0. -1.
    10030    2    1    2    0    0  0.00000000000E+00  0.00000000000E+00 -0.32186818641E+03  0.34326547320E+04  0.34175311820E+04 0.  0.
        3    1    3    3  502    0  0.14159293460E+03 -0.13807720602E+03  0.15438587966E+04  0.15564748208E+04  0.10100000352E+00 0.  1.
       -3    1    3    3    0  502 -0.14159293460E+03  0.13807720602E+03 -0.18657269830E+04  0.18761799112E+04  0.10100000352E+00 0. -1.
</event>
<event>
 5   0  0.9232963E-07  0.3239754E+04  0.7818609E-02  0.8178397E-01
        1   -1    0    0  501    0  0.00000000000E+00  0.00000000000E+00  0.17712154464E+04  0.17712154464E+04  0.50400001928E-02 0.  1.
       -1   -1    0    0    0  501  0.00000000000E+00  0.00000000000E+00 -0.14814692010E+04  0.14814692010E+04  0.50400001928E-02 0. -1.
    10030    2    1    2    0    0  0.00000000000E+00  0.00000000000E+00  0.28974624540E+03  0.32526846474E+04  0.32397537759E+04 0.  0.
        3    1    3    3  502    0  0.14423798471E+04  0.13602284336E+03 -0.58261491233E+03  0.15615383388E+04  0.10100000352E+00 0. -1.
       -3    1    3    3    0  502 -0.14423798471E+04 -0.13602284336E+03  0.87236115773E+03  0.16911463086E+04  0.10100000352E+00 0.  1.
</event>
<event>
 5   0  0.9232963E-07  0.2248318E+04  0.7818609E-02  0.8498582E-01
        1   -1    0    0  501    0  0.00000000000E+00  0.00000000000E+00  0.11580759338E+04  0.11580759338E+04  0.50400001928E-02 0.  1.
       -1   -1    0    0    0  501  0.00000000000E+00  0.00000000000E+00 -0.10912357822E+04  0.10912357823E+04  0.50400001928E-02 0. -1.
    10030    2    1    2    0    0  0.00000000000E+00  0.00000000000E+00  0.66840151563E+02  0.22493117161E+04  0.22483183916E+04 0.  0.
        3    1    3    3  502    0  0.97652802054E+03  0.80916781052E+02  0.58464389029E+03  0.11410359280E+04  0.10100000352E+00 0.  1.
       -3    1    3    3    0  502 -0.97652802054E+03 -0.80916781052E+02 -0.51780373873E+03  0.11082757881E+04  0.10100000352E+00 0. -1.
</event>
<event>
 5   0  0.9714317E-07  0.3395014E+04  0.7818609E-02  0.8139131E-01
        1   -1    0    0  501    0  0.00000000000E+00  0.00000000000E+00  0.16671772706E+04  0.16671772706E+04  0.50400001928E-02 0.  1.
       -1   -1    0    0    0  501  0.00000000000E+00  0.00000000000E+00 -0.17283884346E+04  0.17283884346E+04  0.50400001928E-02 0. -1.
    10030    2    1    2    0    0  0.00000000000E+00  0.00000000000E+00 -0.61211163992E+02  0.33955657052E+04  0.33950139398E+04 0.  0.
        4    1    3    3  502    0 -0.15537473049E+03 -0.82125846973E+03 -0.15083170299E+04  0.17244212527E+04  0.12699999809E+01 0. -1.
       -4    1    3    3    0  502  0.15537473049E+03  0.82125846973E+03  0.14471058659E+04  0.16711444525E+04  0.12699999809E+01 0.  1.
</event>
<event>
 5   0  0.2767014E-06  0.3435551E+04  0.7818609E-02  0.8129236E-01
       -2   -1    0    0    0  501  0.00000000000E+00  0.00000000000E+00  0.16249472069E+04  0.16249472069E+04  0.25500000920E-02 0.  1.
        2   -1    0    0  501    0  0.00000000000E+00  0.00000000000E+00 -0.18159070283E+04  0.18159070283E+04  0.25500000920E-02 0. -1.
    10030    2    1    2    0    0  0.00000000000E+00  0.00000000000E+00 -0.19095982135E+03  0.34408542352E+04  0.34355512243E+04 0.  0.
        1    1    3    3  502    0  0.96912870667E+03 -0.14174810888E+04 -0.14340736883E+03  0.17230869858E+04  0.50400001928E-02 0. -1.
       -1    1    3    3    0  502 -0.96912870667E+03  0.14174810888E+04 -0.47552452516E+02  0.17177672494E+04  0.50400001928E-02 0.  1.
</event>
<event>
 5   0  0.9070500E-07  0.3312279E+04  0.7818609E-02  0.8159778E-01
        4   -1    0    0  501    0  0.00000000000E+00  0.00000000000E+00  0.19995822868E+04  0.19995826901E+04  0.12699999809E+01 0. -1.
       -4   -1    0    0    0  501  0.00000000000E+00  0.00000000000E+00 -0.13716846459E+04  0.13716852338E+04  0.12699999809E+01 0.  1.
    10030    2    1    2    0    0  0.00000000000E+00  0.00000000000E+00  0.62789764095E+03  0.33712679239E+04  0.33122789688E+04 0.  0.
        4    1    3    3  502    0 -0.15828718470E+04 -0.14309790693E+03 -0.16000075549E+03  0.15973609954E+04  0.12699999809E+01 0.  1.
       -4    1    3    3    0  502  0.15828718470E+04  0.14309790693E+03  0.78789839645E+03  0.17739069285E+04  0.12699999809E+01 0. -1.
</event>
<event>
 5   0  0.2664083E-06  0.2845593E+04  0.7818609E-02  0.8289252E-01
        2   -1    0    0  501    0  0.00000000000E+00  0.00000000000E+00  0.16330312730E+04  0.16330312730E+04  0.25500000920E-02 0.  1.
       -2   -1    0    0    0  501  0.00000000000E+00  0.00000000000E+00 -0.12396272737E+04  0.12396272737E+04  0.25500000920E-02 0. -1.
    10030    2    1    2    0    0  0.00000000000E+00  0.00000000000E+00  0.39340399932E+03  0.28726585467E+04  0.28455931577E+04 0.  0.
        2    1    3    3  502    0 -0.44343367980E+03 -0.38236628336E+03 -0.11123631939E+04  0.12570557975E+04  0.25500000920E-02 0. -1.
       -2    1    3    3    0  502  0.44343367980E+03  0.38236628336E+03  0.15057671932E+04  0.16156027492E+04  0.25500000920E-02 0.  1.
</event>
<event>
 5   0  0.2848685E-06  0.3403108E+04  0.7818609E-02  0.8137144E-01
       -2   -1    0    0    0  501  0.00000000000E+00  0.00000000000E+00  0.21059997302E+04  0.21059997302E+04  0.25500000920E-02 0.  1.
        2   -1    0    0  501    0  0.00000000000E+00  0.00000000000E+00 -0.13747800348E+04  0.13747800348E+04  0.25500000920E-02 0. -1.
    10030    2    1    2    0    0  0.00000000000E+00  0.00000000000E+00  0.73121969536E+03  0.34807797650E+04  0.34031082159E+04 0.  0.
        3    1    3    3  502    0  0.15281253081E+02  0.86776662425E+02  0.21036647344E+04  0.21055092094E+04  0.10100000352E+00 0.  1.
       -3    1    3    3    0  502 -0.15281253081E+02 -0.86776662425E+02 -0.13724450390E+04  0.13752705556E+04  0.10100000352E+00 0. -1.
</event>
<event>
 5   0  0.9714317E-07  0.3452525E+04  0.7818609E-02  0.8125134E-01
        1   -1    0    0  501    0  0.00000000000E+00  0.00000000000E+00  0.97751257948E+03  0.97751257949E+03  0.50400001928E-02 0. -1.
       -1   -1    0    0    0  501  0.00000000000E+00  0.00000000000E+00 -0.30485357555E+04  0.30485357555E+04  0.50400001928E-02 0.  1.
    10030    2    1    2    0    0  0.00000000000E+00  0.00000000000E+00 -0.20710231761E+04  0.40260483350E+04  0.34525249022E+04 0.  0.
        4    1    3    3  502    0  0.34798556749E+02 -0.11361943858E+04 -0.25504910640E+04  0.27923386081E+04  0.12699999809E+01 0.  1.
       -4    1    3    3    0  502 -0.34798556749E+02  0.11361943858E+04  0.47946788796E+03  0.12337097269E+04  0.12699999809E+01 0. -1.
</event>
<event>
 5   0  0.1010855E-06  0.3539083E+04  0.7818609E-02  0.8104590E-01
        1   -1    0    0  501    0  0.00000000000E+00  0.00000000000E+00  0.20076290956E+04  0.20076290956E+04  0.50400001928E-02 0.  1.
       -1   -1    0    0    0  501  0.00000000000E+00  0.00000000000E+00 -0.15596892334E+04  0.15596892334E+04  0.50400001928E-02 0. -1.
    10030    2    1    2    0    0  0.00000000000E+00  0.00000000000E+00  0.44793986226E+03  0.35673183290E+04  0.35390832062E+04 0.  0.
        1    1    3    3  502    0 -0.61080707410E+03  0.16538346272E+04  0.71025309716E+02  0.17644542643E+04  0.50400001928E-02 0. -1.
       -1    1    3    3    0  502  0.61080707410E+03 -0.16538346272E+04  0.37691455255E+03  0.18028640648E+04  0.50400001928E-02 0.  1.
</event>
<event>
 5   0  0.2848685E-06  0.3156299E+04  0.7818609E-02  0.8200455E-01
       -2   -1    0    0    0  501  0.00000000000E+00  0.00000000000E+00  0.13647430770E+04  0.13647430770E+04  0.25500000920E-02 0.  1.
        2   -1    0    0  501    0  0.00000000000E+00  0.00000000000E+00 -0.18249268885E+04  0.18249268885E+04  0.25500000920E-02 0. -1.
    10030    2    1    2    0    0  0.00000000000E+00  0.00000000000E+00 -0.46018381144E+03  0.31896699655E+04  0.31562993122E+04 0.  0.
        3    1    3    3  502    0  0.18411198419E+03  0.10049633569E+04  0.98541651860E+03  0.14194697238E+04  0.10100000352E+00 0.  1.
       -3    1    3    3    0  502 -0.18411198419E+03 -0.10049633569E+04 -0.14456003300E+04  0.17702002417E+04  0.10100000352E+00 0. -1.
</event>
<event>
 5   0  0.2906701E-06  0.3463983E+04  0.7818609E-02  0.8122379E-01
        2   -1    0    0  501    0  0.00000000000E+00  0.00000000000E+00  0.19854623173E+04  0.19854623173E+04  0.25500000920E-02 0.  1.
       -2   -1    0    0    0  501  0.00000000000E+00  0.00000000000E+00 -0.15108792305E+04  0.15108792305E+04  0.25500000920E-02 0. -1.
    10030    2    1    2    0    0  0.00000000000E+00  0.00000000000E+00  0.47458308681E+03  0.34963415478E+04  0.34639825509E+04 0.  0.
        5    1    3    3  502    0  0.72945474376E+03 -0.92347915279E+03 -0.10453483676E+04  0.15740690164E+04  0.46999998093E+01 0. -1.
       -5    1    3    3    0  502 -0.72945474376E+03  0.92347915279E+03  0.15199314544E+04  0.19222725314E+04  0.46999998093E+01 0.  1.
</event>
<event>
 5   0  0.9232963E-07  0.3419655E+04  0.7818609E-02  0.8133099E-01
       -1   -1    0    0    0  501  0.00000000000E+00  0.00000000000E+00  0.12866010401E+04  0.12866010401E+04  0.50400001928E-02 0. -1.
        1   -1    0    0  501    0  0.00000000000E+00  0.00000000000E+00 -0.22722740201E+04  0.22722740201E+04  0.50400001928E-02 0.  1.
    10030    2    1    2    0    0  0.00000000000E+00  0.00000000000E+00 -0.98567298001E+03  0.35588750601E+04  0.34196550221E+04 0.  0.
        3    1    3    3  502    0 -0.30319809040E+03 -0.16802391837E+04 -0.58809038886E+03  0.18058192357E+04  0.10100000352E+00 0.  1.
       -3    1    3    3    0  502  0.30319809040E+03  0.16802391837E+04 -0.39758259115E+03  0.17530558244E+04  0.10100000352E+00 0. -1.
</event>
<event>
 5   0  0.9714317E-07  0.2929404E+04  0.7818609E-02  0.8264182E-01
        1   -1    0    0  501    0  0.00000000000E+00  0.00000000000E+00  0.18553926598E+04  0.18553926598E+04  0.50400001928E-02 0. -1.
       -1   -1    0    0    0  501  0.00000000000E+00  0.00000000000E+00 -0.11562789488E+04  0.11562789488E+04  0.50400001928E-02 0.  1.
    10030    2    1    2    0    0  0.00000000000E+00  0.00000000000E+00  0.69911371094E+03  0.30116716086E+04  0.29294036760E+04 0.  0.
        4    1    3    3  502    0  0.13189018934E+04 -0.23764396722E+03 -0.25812051428E+03  0.13647727549E+04  0.12699999809E+01 0.  1.
       -4    1    3    3    0  502 -0.13189018934E+04  0.23764396722E+03  0.95723422522E+03  0.16468988537E+04  0.12699999809E+01 0. -1.
</event>
<event>
 5   0  0.1010551E-06  0.3346589E+04  0.7818609E-02  0.8151141E-01
       -1   -1    0    0    0  501  0.00000000000E+00  0.00000000000E+00  0.10308693684E+04  0.10308693684E+04  0.50400001928E-02 0.  1.
        1   -1    0    0  501    0  0.00000000000E+00  0.00000000000E+00 -0.27160710741E+04  0.27160710741E+04  0.50400001928E-02 0. -1.
    10030    2    1    2    0    0  0.00000000000E+00  0.00000000000E+00 -0.16852017057E+04  0.37469404425E+04  0.33465889934E+04 0.  0.
        2    1    3    3  502    0  0.13607494617E+04 -0.35895169630E+03  0.17091393827E+03  0.14176378212E+04  0.25500000920E-02 0.  1.
       -2    1    3    3    0  502 -0.13607494617E+04  0.35895169630E+03 -0.18561156439E+04  0.23293026213E+04  0.25500000920E-02 0. -1.
</event>
<event>
 5   0  0.2856440E-06  0.3391840E+04  0.7818609E-02  0.8139912E-01
        2   -1    0    0  501    0  0.00000000000E+00  0.00000000000E+00  0.21063101628E+04  0.21063101628E+04  0.25500000920E-02 0. -1.
       -2   -1    0    0    0  501  0.00000000000E+00  0.00000000000E+00 -0.13654899649E+04  0.13654899649E+04  0.25500000920E-02 0.  1.
    10030    2    1    2    0    0  0.00000000000E+00  0.00000000000E+00  0.74082019788E+03  0.34718001278E+04  0.33918404387E+04 0.  0.
        4    1    3    3  502    0  0.80256649200E+03 -0.48558159658E+03 -0.10757814559E+04  0.14273085913E+04  0.12699999809E+01 0.  1.
       -4    1    3    3    0  502 -0.80256649200E+03  0.48558159658E+03  0.18166016538E+04  0.20444915364E+04  0.12699999809E+01 0. -1.
</event>
<event>
 5   0  0.1003191E-06  0.3391557E+04  0.7818609E-02  0.8139982E-01
       -1   -1    0    0    0  501  0.00000000000E+00  0.00000000000E+00  0.11600218646E+04  0.11600218646E+04  0.50400001928E-02 0.  1.
        1   -1    0    0  501    0  0.00000000000E+00  0.00000000000E+00 -0.24789740318E+04  0.24789740318E+04  0.50400001928E-02 0. -1.
    10030    2    1    2    0    0  0.00000000000E+00  0.00000000000E+00 -0.13189521672E+04  0.36389958964E+04  0.33915566212E+04 0.  0.
        5    1    3    3  502    0  0.16915411089E+04 -0.50125563247E+01 -0.78780798204E+03  0.18660117779E+04  0.46999998093E+01 0. -1.
       -5    1    3    3    0  502 -0.16915411089E+04  0.50125563247E+01 -0.53114418511E+03  0.17729841184E+04  0.46999998093E+01 0.  1.
</event>
<event>
 5   0  0.2906701E-06  0.2314647E+04  0.7818609E-02  0.8472168E-01
        2   -1    0    0  501    0  0.00000000000E+00  0.00000000000E+00  0.10321946216E+04  0.10321946216E+04  0.25500000920E-02 0. -1.
       -2   -1    0    0    0  501  0.00000000000E+00  0.00000000000E+00 -0.12976214861E+04  0.12976214861E+04  0.25500000920E-02 0.  1.
    10030    2    1    2    0    0  0.00000000000E+00  0.00000000000E+00 -0.26542686456E+03  0.23298161077E+04  0.23146472032E+04 0.  0.
        5    1    3    3  502    0  0.56994252434E+03  0.26388468024E+03 -0.11111466593E+04  0.12763771362E+04  0.46999998093E+01 0.  1.
       -5    1    3    3    0  502 -0.56994252434E+03 -0.26388468024E+03  0.84571979470E+03  0.10534389715E+04  0.46999998093E+01 0. -1.
</event>
<event>
 5   0  0.1010551E-06  0.2811524E+04  0.7818609E-02  0.8299700E-01
        1   -1    0    0  501    0  0.00000000000E+00  0.00000000000E+00  0.15448047792E+04  0.15448047792E+04  0.50400001928E-02 0.  1.
       -1   -1    0    0    0  501  0.00000000000E+00  0.00000000000E+00 -0.12792337519E+04  0.12792337519E+04  0.50400001928E-02 0. -1.
    10030    2    1    2    0    0  0.00000000000E+00  0.00000000000E+00  0.26557102728E+03  0.28240385310E+04  0.28115237247E+04 0.  0.
        2    1    3    3  502    0 -0.74048022378E+03  0.11690500190E+04 -0.11565633119E+03  0.13886559313E+04  0.25500000920E-02 0.  1.
       -2    1    3    3    0  502  0.74048022378E+03 -0.11690500190E+04  0.38122735846E+03  0.14353825997E+04  0.25500000920E-02 0. -1.
</event>
<event>
 5   0  0.2767014E-06  0.3340396E+04  0.7818609E-02  0.8152692E-01
        2   -1    0    0  501    0  0.00000000000E+00  0.00000000000E+00  0.22150079125E+04  0.22150079125E+04  0.25500000920E-02 0.  1.
       -2   -1    0    0    0  501  0.00000000000E+00  0.00000000000E+00 -0.12593908465E+04  0.12593908466E+04  0.25500000920E-02 0. -1.
    10030    2    1    2    0    0  0.00000000000E+00  0.00000000000E+00  0.95561706593E+03  0.34743987590E+04  0.33403955993E+04 0.  0.
        1    1    3    3  502    0  0.50195273527E+03 -0.13189390473E+04 -0.45133813478E+03  0.14816419510E+04  0.50400001928E-02 0.  1.
       -1    1    3    3    0  502 -0.50195273527E+03  0.13189390473E+04  0.14069552007E+04  0.19927568080E+04  0.50400001928E-02 0. -1.
</event>
<event>
 5   0  0.1003191E-06  0.3073216E+04  0.7818609E-02  0.8223127E-01
        1   -1    0    0  501    0  0.00000000000E+00  0.00000000000E+00  0.31733048810E+04  0.31733048810E+04  0.50400001928E-02 0. -1.
       -1   -1    0    0    0  501  0.00000000000E+00  0.00000000000E+00 -0.74407113783E+03  0.74407113785E+03  0.50400001928E-02 0.  1.
    10030    2    1    2    0    0  0.00000000000E+00  0.00000000000E+00  0.24292337432E+04  0.39173760188E+04  0.30732162785E+04 0.  0.
        5    1    3    3  502    0 -0.98402216819E+03 -0.68597307565E+03 -0.95325297485E+01  0.11995714431E+04  0.46999998093E+01 0.  1.
       -5    1    3    3    0  502  0.98402216819E+03  0.68597307565E+03  0.24387662729E+04  0.27178045757E+04  0.46999998093E+01 0. -1.
</event>
<event>
 5   0  0.1010551E-06  0.3373722E+04  0.7818609E-02  0.8144386E-01
       -1   -1    0    0    0  501  0.00000000000E+00  0.00000000000E+00  0.10881076916E+04  0.10881076916E+04  0.50400001928E-02 0.  1.
        1   -1    0    0  501    0  0.00000000000E+00  0.00000000000E+00 -0.26150902819E+04  0.26150902819E+04  0.50400001928E-02 0. -1.
    10030    2    1    2    0    0  0.00000000000E+00  0.00000000000E+00 -0.15269825903E+04  0.37031979735E+04  0.33737218913E+04 0.  0.
        2    1    3    3  502    0  0.13315176678E+03  0.35071635192E+03 -0.25687219541E+04  0.25959706913E+04  0.25500000920E-02 0. -1.
       -2    1    3    3    0  502 -0.13315176678E+03 -0.35071635192E+03  0.10417393638E+04  0.11072272822E+04  0.25500000920E-02 0.  1.
</event>
<event>
 5   0  0.2664083E-06  0.3328407E+04  0.7818609E-02  0.8155705E-01
       -2   -1    0    0    0  501  0.00000000000E+00  0.00000000000E+00  0.15162377790E+04  0.15162377790E+04  0.25500000920E-02 0. -1.
        2   -1    0    0  501    0  0.00000000000E+00  0.00000000000E+00 -0.18266092236E+04  0.18266092236E+04  0.25500000920E-02 0.  1.
    10030    2    1    2    0    0  0.00000000000E+00  0.00000000000E+00 -0.31037144462E+03  0.33428470026E+04  0.33284073743E+04 0.  0.
        2    1    3    3  502    0  0.57718144771E+03  0.12092466672E+04  0.83609057593E+03  0.15793870257E+04  0.25500000920E-02 0. -1.
       -2    1    3    3    0  502 -0.57718144771E+03 -0.12092466672E+04 -0.11464620206E+04  0.17634599769E+04  0.25500000920E-02 0.  1.
</event>
<event>
 5   0  0.2664083E-06  0.3396478E+04  0.7818609E-02  0.8138771E-01
        2   -1    0    0  501    0  0.00000000000E+00  0.00000000000E+00  0.18818797904E+04  0.18818797904E+04  0.25500000920E-02 0. -1.
       -2   -1    0    0    0  501  0.00000000000E+00  0.00000000000E+00 -0.15325188474E+04  0.15325188474E+04  0.25500000920E-02 0.  1.
    10030    2    1    2    0    0  0.00000000000E+00  0.00000000000E+00  0.34936094302E+03  0.34143986377E+04  0.33964783216E+04 0.  0.
        2    1    3    3  502    0  0.65765329760E+03  0.87940271081E+03 -0.11275923121E+04  0.15739508918E+04  0.25500000920E-02 0.  1.
       -2    1    3    3    0  502 -0.65765329760E+03 -0.87940271081E+03  0.14769532551E+04  0.18404477459E+04  0.25500000920E-02 0. -1.
</event>
<event>
 5   0  0.2856440E-06  0.3438661E+04  0.7818609E-02  0.8128482E-01
        2   -1    0    0  501    0  0.00000000000E+00  0.00000000000E+00  0.16155542493E+04  0.16155542493E+04  0.25500000920E-02 0. -1.
       -2   -1    0    0    0  501  0.00000000000E+00  0.00000000000E+00 -0.18297731528E+04  0.18297731528E+04  0.25500000920E-02 0.  1.
    10030    2    1    2    0    0  0.00000000000E+00  0.00000000000E+00 -0.21421890354E+03  0.34453274021E+04  0.34386612466E+04 0.  0.
        4    1    3    3  502    0  0.36943482728E+03 -0.29386439278E+03 -0.17635711666E+04  0.18256569353E+04  0.12699999809E+01 0.  1.
       -4    1    3    3    0  502 -0.36943482728E+03  0.29386439278E+03  0.15493522631E+04  0.16196704668E+04  0.12699999809E+01 0. -1.
</event>
<event>
 5   0  0.2664083E-06  0.3576473E+04  0.7818609E-02  0.8095902E-01
       -2   -1    0    0    0  501  0.00000000000E+00  0.00000000000E+00  0.23749528066E+04  0.23749528066E+04  0.25500000920E-02 0.  1.
        2   -1    0    0  501    0  0.00000000000E+00  0.00000000000E+00 -0.13464648739E+04  0.13464648739E+04  0.25500000920E-02 0. -1.
    10030    2    1    2    0    0  0.00000000000E+00  0.00000000000E+00  0.10284879328E+04  0.37214176805E+04  0.35764734201E+04 0.  0.
        2    1    3    3  502    0  0.14544659966E+04 -0.77416451504E+03 -0.20889507613E+03  0.16608549559E+04  0.25500000920E-02 0.  1.
       -2    1    3    3    0  502 -0.14544659966E+04  0.77416451504E+03  0.12373830089E+04  0.20605627247E+04  0.25500000920E-02 0. -1.
</event>
<event>
 5   0  0.2664083E-06  0.3344284E+04  0.7818609E-02  0.8151718E-01
        2   -1    0    0  501    0  0.00000000000E+00  0.00000000000E+00  0.10992319253E+04  0.10992319253E+04  0.25500000920E-02 0. -1.
       -2   -1    0    0    0  501  0.00000000000E+00  0.00000000000E+00 -0.25436483052E+04  0.25436483052E+04  0.25500000920E-02 0.  1.
    10030    2    1    2    0    0  0.00000000000E+00  0.00000000000E+00 -0.14444163799E+04  0.36428802305E+04  0.33442843323E+04 0.  0.
        2    1    3    3  502    0  0.51950790475E+03 -0.77913533290E+03  0.78680370040E+03  0.12231109488E+04  0.25500000920E-02 0. -1.
       -2    1    3    3    0  502 -0.51950790475E+03  0.77913533290E+03 -0.22312200803E+04  0.24197692817E+04  0.25500000920E-02 0.  1.
</event>
<event>
 5   0  0.2848685E-06  0.3285305E+04  0.7818609E-02  0.8166645E-01
       -2   -1    0    0    0  501  0.00000000000E+00  0.00000000000E+00  0.13388948167E+04  0.13388948168E+04  0.25500000920E-02 0.  1.
        2   -1    0    0  501    0  0.00000000000E+00  0.00000000000E+00 -0.20153238962E+04  0.20153238962E+04  0.25500000920E-02 0. -1.
    10030    2    1    2    0    0  0.00000000000E+00  0.00000000000E+00 -0.67642907941E+03  0.33542187129E+04  0.32853046852E+04 0.  0.
        3    1    3    3  502    0 -0.49790069895E+03  0.19033616611E+02  0.12598792064E+04  0.13548295131E+04  0.10100000352E+00 0.  1.
       -3    1    3    3    0  502  0.49790069895E+03 -0.19033616611E+02 -0.19363082858E+04  0.19993891998E+04  0.10100000352E+00 0. -1.
</event>
<event>
 5   0  0.9714317E-07  0.2639721E+04  0.7818609E-02  0.8354833E-01
       -1   -1    0    0    0  501  0.00000000000E+00  0.00000000000E+00  0.84152574804E+03  0.84152574805E+03  0.50400001928E-02 0.  1.
        1   -1    0    0  501    0  0.00000000000E+00  0.00000000000E+00 -0.20700879191E+04  0.20700879191E+04  0.50400001928E-02 0. -1.
    10030    2    1    2    0    0  0.00000000000E+00  0.00000000000E+00 -0.12285621711E+04  0.29116136671E+04  0.26397214131E+04 0.  0.
        4    1    3    3  502    0 -0.28430159828E+03  0.35321620638E+03  0.75292404817E+03  0.87891144175E+03  0.12699999809E+01 0.  1.
       -4    1    3    3    0  502  0.28430159828E+03 -0.35321620638E+03 -0.19814862192E+04  0.20327022254E+04  0.12699999809E+01 0. -1.
</event>
<event>
 5   0  0.1010855E-06  0.3408421E+04  0.7818609E-02  0.8135843E-01
       -1   -1    0    0    0  501  0.00000000000E+00  0.00000000000E+00  0.11853192135E+04  0.11853192135E+04  0.50400001928E-02 0. -1.
        1   -1    0    0  501    0  0.00000000000E+00  0.00000000000E+00 -0.24502542154E+04  0.24502542155E+04  0.50400001928E-02 0.  1.
    10030    2    1    2    0    0  0.00000000000E+00  0.00000000000E+00 -0.12649350020E+04  0.36355734290E+04  0.34084209831E+04 0.  0.
        1    1    3    3  502    0  0.27342359900E+03 -0.15450480144E+03 -0.24191212683E+04  0.24394220440E+04  0.50400001928E-02 0.  1.
       -1    1    3    3    0  502 -0.27342359900E+03  0.15450480144E+03  0.11541862664E+04  0.11961513849E+04  0.50400001928E-02 0. -1.
</event>
<event>
 5   0  0.9232963E-07  0.3506139E+04  0.7818609E-02  0.8112337E-01
        1   -1    0    0  501    0  0.00000000000E+00  0.00000000000E+00  0.91701670052E+03  0.91701670053E+03  0.50400001928E-02 0. -1.
       -1   -1    0    0    0  501  0.00000000000E+00  0.00000000000E+00 -0.33513598533E+04  0.33513598533E+04  0.50400001928E-02 0.  1.
    10030    2    1    2    0    0  0.00000000000E+00  0.00000000000E+00 -0.24343431528E+04  0.42683765538E+04  0.35061391615E+04 0.  0.
        3    1    3    3  502    0 -0.14101225703E+04 -0.97813044323E+03 -0.78150515443E+03  0.18857187340E+04  0.10100000352E+00 0. -1.
       -3    1    3    3    0  502  0.14101225703E+04  0.97813044323E+03 -0.16528379983E+04  0.23826578198E+04  0.10100000352E+00 0.  1.
</event>
<event>
 5   0  0.1010551E-06  0.3365685E+04  0.7818609E-02  0.8146380E-01
       -1   -1    0    0    0  501  0.00000000000E+00  0.00000000000E+00  0.95800392923E+03  0.95800392925E+03  0.50400001928E-02 0.  1.
        1   -1    0    0  501    0  0.00000000000E+00  0.00000000000E+00 -0.29561040531E+04  0.29561040531E+04  0.50400001928E-02 0. -1.
    10030    2    1    2    0    0  0.00000000000E+00  0.00000000000E+00 -0.19981001239E+04  0.39141079824E+04  0.33656852486E+04 0.  0.
        2    1    3    3  502    0 -0.12276376316E+03 -0.22996152777E+03 -0.29324815993E+04  0.29440451043E+04  0.25500000920E-02 0. -1.
       -2    1    3    3    0  502  0.12276376316E+03  0.22996152777E+03  0.93438147543E+03  0.97006287808E+03  0.25500000920E-02 0.  1.
</event>
<event>
 5   0  0.9232963E-07  0.3406116E+04  0.7818609E-02  0.8136407E-01
        1   -1    0    0  501    0  0.00000000000E+00  0.00000000000E+00  0.14684008376E+04  0.14684008376E+04  0.50400001928E-02 0.  1.
       -1   -1    0    0    0  501  0.00000000000E+00  0.00000000000E+00 -0.19752146191E+04  0.19752146191E+04  0.50400001928E-02 0. -1.
    10030    2    1    2    0    0  0.00000000000E+00  0.00000000000E+00 -0.50681378153E+03  0.34436154567E+04  0.34061161467E+04 0.  0.
        3    1    3    3  502    0 -0.14572711145E+03  0.29047431323E+03  0.14367622961E+04  0.14730572370E+04  0.10100000352E+00 0.  1.
       -3    1    3    3    0  502  0.14572711145E+03 -0.29047431323E+03 -0.19435760776E+04  0.19705582198E+04  0.10100000352E+00 0. -1.
</event>
<event>
 5   0  0.2856440E-06  0.3343939E+04  0.7818609E-02  0.8151804E-01
       -2   -1    0    0    0  501  0.00000000000E+00  0.00000000000E+00  0.29584841444E+04  0.29584841444E+04  0.25500000920E-02 0.  1.
        2   -1    0    0  501    0  0.00000000000E+00  0.00000000000E+00 -0.94490371992E+03  0.94490371993E+03  0.25500000920E-02 0. -1.
    10030    2    1    2    0    0  0.00000000000E+00  0.00000000000E+00  0.20135804245E+04  0.39033878643E+04  0.33439393974E+04 0.  0.
        4    1    3    3  502    0 -0.44586095438E+03  0.10552176041E+04 -0.41483095746E+03  0.12183441709E+04  0.12699999809E+01 0. -1.
       -4    1    3    3    0  502  0.44586095438E+03 -0.10552176041E+04  0.24284113819E+04  0.26850436934E+04  0.12699999809E+01 0.  1.
</event>
<event>
 5   0  0.2856440E-06  0.3426019E+04  0.7818609E-02  0.8131550E-01
        2   -1    0    0  501    0  0.00000000000E+00  0.00000000000E+00  0.18100170745E+04  0.18100170745E+04  0.25500000920E-02 0.  1.
       -2   -1    0    0    0  501  0.00000000000E+00  0.00000000000E+00 -0.16212010332E+04  0.16212010332E+04  0.25500000920E-02 0. -1.
    10030    2    1    2    0    0  0.00000000000E+00  0.00000000000E+00  0.18881604125E+03  0.34312181077E+04  0.34260190024E+04 0.  0.
        4    1    3    3  502    0 -0.25338106336E+03 -0.61072094294E+03  0.16770649288E+04  0.18027008687E+04  0.12699999809E+01 0.  1.
       -4    1    3    3    0  502  0.25338106336E+03  0.61072094294E+03 -0.14882488876E+04  0.16285172390E+04  0.12699999809E+01 0. -1.
</event>
<event>
 5   0  0.2664083E-06  0.3379210E+04  0.7818609E-02  0.8143028E-01
       -2   -1    0    0    0  501  0.00000000000E+00  0.00000000000E+00  0.23396772105E+04  0.23396772105E+04  0.25500000920E-02 0.  1.
        2   -1    0    0  501    0  0.00000000000E+00  0.00000000000E+00 -0.12201535655E+04  0.12201535655E+04  0.25500000920E-02 0. -1.
    10030    2    1    2    0    0  0.00000000000E+00  0.00000000000E+00  0.11195236450E+04  0.35598307760E+04  0.33792102572E+04 0.  0.
        2    1    3    3  502    0  0.83019933953E+03 -0.14475213099E+04  0.83890952066E+03  0.18677039567E+04  0.25500000920E-02 0.  1.
       -2    1    3    3    0  502 -0.83019933953E+03  0.14475213099E+04  0.28061412432E+03  0.16921268193E+04  0.25500000920E-02 0. -1.
</event>
<event>
 5   0  0.9070500E-07  0.3434774E+04  0.7818609E-02  0.8129424E-01
       -3   -1    0    0    0  501  0.00000000000E+00  0.00000000000E+00  0.21211478874E+04  0.21211478898E+04  0.10100000352E+00 0.  1.
        3   -1    0    0  501    0  0.00000000000E+00  0.00000000000E+00 -0.13904824559E+04  0.13904824596E+04  0.10100000352E+00 0. -1.
    10030    2    1    2    0    0  0.00000000000E+00  0.00000000000E+00  0.73066543143E+03  0.35116303494E+04  0.34347744814E+04 0.  0.
        5    1    3    3  502    0 -0.16717848608E+04  0.39739134826E+02 -0.34510379959E+02  0.16726197643E+04  0.46999998093E+01 0. -1.
       -5    1    3    3    0  502  0.16717848608E+04 -0.39739134826E+02  0.76517581139E+03  0.18390105851E+04  0.46999998093E+01 0.  1.
</event>
<event>
 5   0  0.9714317E-07  0.3480416E+04  0.7818609E-02  0.8118447E-01
       -1   -1    0    0    0  501  0.00000000000E+00  0.00000000000E+00  0.12578668481E+04  0.12578668481E+04  0.50400001928E-02 0. -1.
        1   -1    0    0  501    0  0.00000000000E+00  0.00000000000E+00 -0.24075077691E+04  0.24075077691E+04  0.50400001928E-02 0.  1.
    10030    2    1    2    0    0  0.00000000000E+00  0.00000000000E+00 -0.11496409210E+04  0.36653746172E+04  0.34804161873E+04 0.  0.
        4    1    3    3  502    0 -0.15290909863E+04  0.17920536547E+03  0.27951697024E+03  0.15647252656E+04  0.12699999809E+01 0. -1.
       -4    1    3    3    0  502  0.15290909863E+04 -0.17920536547E+03 -0.14291578912E+04  0.21006493516E+04  0.12699999809E+01 0.  1.
</event>
<event>
 5   0  0.9232963E-07  0.3372622E+04  0.7818609E-02  0.8144659E-01
        1   -1    0    0  501    0  0.00000000000E+00  0.00000000000E+00  0.26129754079E+04  0.26129754079E+04  0.50400001928E-02 0. -1.
       -1   -1    0    0    0  501  0.00000000000E+00  0.00000000000E+00 -0.10882783404E+04  0.10882783404E+04  0.50400001928E-02 0.  1.
    10030    2    1    2    0    0  0.00000000000E+00  0.00000000000E+00  0.15246970675E+04  0.37012537483E+04  0.33726218527E+04 0.  0.
        3    1    3    3  502    0 -0.13396168303E+04 -0.54898356390E+03 -0.18659748949E+03  0.14597173831E+04  0.10100000352E+00 0.  1.
       -3    1    3    3    0  502  0.13396168303E+04  0.54898356390E+03  0.17112945569E+04  0.22415363651E+04  0.10100000352E+00 0. -1.
</event>
<event>
 5   0  0.9714317E-07  0.3486605E+04  0.7818609E-02  0.8116972E-01
        1   -1    0    0  501    0  0.00000000000E+00  0.00000000000E+00  0.20512472740E+04  0.20512472740E+04  0.50400001928E-02 0. -1.
       -1   -1    0    0    0  501  0.00000000000E+00  0.00000000000E+00 -0.14815879142E+04  0.14815879142E+04  0.50400001928E-02 0.  1.
    10030    2    1    2    0    0  0.00000000000E+00  0.00000000000E+00  0.56965935973E+03  0.35328351882E+04  0.34866047497E+04 0.  0.
        4    1    3    3  502    0 -0.22326187652E+03  0.10438010015E+04  0.16814140922E+04  0.19916127532E+04  0.12699999809E+01 0. -1.
       -4    1    3    3    0  502  0.22326187652E+03 -0.10438010015E+04 -0.11117547325E+04  0.15412224350E+04  0.12699999809E+01 0.  1.
</event>
<event>
 5   0  0.9714317E-07  0.3390875E+04  0.7818609E-02  0.8140150E-01
       -1   -1    0    0    0  501  0.00000000000E+00  0.00000000000E+00  0.16253784522E+04  0.16253784522E+04  0.50400001928E-02 0. -1.
        1   -1    0    0  501    0  0.00000000000E+00  0.00000000000E+00 -0.17685162030E+04  0.17685162030E+04  0.50400001928E-02 0.  1.
    10030    2    1    2    0    0  0.00000000000E+00  0.00000000000E+00 -0.14313775083E+03  0.33938946552E+04  0.33908748893E+04 0.  0.
        4    1    3    3  502    0  0.11688124542E+04 -0.11732727062E+04 -0.43495572421E+03  0.17122731941E+04  0.12699999809E+01 0. -1.
       -4    1    3    3    0  502 -0.11688124542E+04  0.11732727062E+04  0.29181797338E+03  0.16816214612E+04  0.12699999809E+01 0.  1.
</event>
<event>
 5   0  0.2767014E-06  0.3368130E+04  0.7818609E-02  0.8145773E-01
       -2   -1    0    0    0  501  0.00000000000E+00  0.00000000000E+00  0.18476581047E+04  0.18476581047E+04  0.25500000920E-02 0. -1.
        2   -1    0    0  501    0  0.00000000000E+00  0.00000000000E+00 -0.15349566353E+04  0.15349566353E+04  0.25500000920E-02 0.  1.
    10030    2    1    2    0    0  0.00000000000E+00  0.00000000000E+00  0.31270146937E+03  0.33826147400E+04  0.33681300851E+04 0.  0.
        1    1    3    3  502    0  0.52063389139E+03 -0.12300517161E+04  0.11864263667E+04  0.17865313870E+04  0.50400001928E-02 0. -1.
       -1    1    3    3    0  502 -0.52063389139E+03  0.12300517161E+04 -0.87372489732E+03  0.15960833529E+04  0.50400001928E-02 0.  1.
</event>
<event>
 5   0  0.2664083E-06  0.3372449E+04  0.7818609E-02  0.8144702E-01
        2   -1    0    0  501    0  0.00000000000E+00  0.00000000000E+00  0.25407744830E+04  0.25407744830E+04  0.25500000920E-02 0. -1.
       -2   -1    0    0    0  501  0.00000000000E+00  0.00000000000E+00 -0.11190890005E+04  0.11190890005E+04  0.25500000920E-02 0.  1.
    10030    2    1    2    0    0  0.00000000000E+00  0.00000000000E+00  0.14216854825E+04  0.36598634835E+04  0.33724488293E+04 0.  0.
        2    1    3    3  502    0  0.39223527519E+03 -0.45224277102E+03  0.24215710064E+04  0.24944695175E+04  0.25500000920E-02 0. -1.
       -2    1    3    3    0  502 -0.39223527519E+03  0.45224277102E+03 -0.99988552383E+03  0.11653939659E+04  0.25500000920E-02 0.  1.
</event>
<event>
 5   0  0.2848685E-06  0.3631272E+04  0.7818609E-02  0.8083366E-01
       -2   -1    0    0    0  501  0.00000000000E+00  0.00000000000E+00  0.13233893133E+04  0.13233893133E+04  0.25500000920E-02 0. -1.
        2   -1    0    0  501    0  0.00000000000E+00  0.00000000000E+00 -0.24909787304E+04  0.24909787304E+04  0.25500000920E-02 0.  1.
    10030    2    1    2    0    0  0.00000000000E+00  0.00000000000E+00 -0.11675894171E+04  0.38143680437E+04  0.36312723013E+04 0.  0.
        3    1    3    3  502    0 -0.77655394347E+03  0.12705105881E+04  0.50748267965E+03  0.15731407636E+04  0.10100000352E+00 0. -1.
       -3    1    3    3    0  502  0.77655394347E+03 -0.12705105881E+04 -0.16750720967E+04  0.22412272801E+04  0.10100000352E+00 0.  1.
</event>
<event>
 5   0  0.2906701E-06  0.3304239E+04  0.7818609E-02  0.8161818E-01
        2   -1    0    0  501    0  0.00000000000E+00  0.00000000000E+00  0.18982441119E+04  0.18982441119E+04  0.25500000920E-02 0. -1.
       -2   -1    0    0    0  501  0.00000000000E+00  0.00000000000E+00 -0.14379068585E+04  0.14379068585E+04  0.25500000920E-02 0.  1.
    10030    2    1    2    0    0  0.00000000000E+00  0.00000000000E+00  0.46033725341E+03  0.33361509704E+04  0.33042386279E+04 0.  0.
        5    1    3    3  502    0  0.10864111608E+03 -0.74065657361E+02  0.18929461621E+04  0.18975130767E+04  0.46999998093E+01 0. -1.
       -5    1    3    3    0  502 -0.10864111608E+03  0.74065657361E+02 -0.14326089087E+04  0.14386378936E+04  0.46999998093E+01 0.  1.
</event>
<event>
 5   0  0.1003191E-06  0.3354168E+04  0.7818609E-02  0.8149247E-01
       -1   -1    0    0    0  501  0.00000000000E+00  0.00000000000E+00  0.13195451104E+04  0.13195451104E+04  0.50400001928E-02 0.  1.
        1   -1    0    0  501    0  0.00000000000E+00  0.00000000000E+00 -0.21315003240E+04  0.21315003240E+04  0.50400001928E-02 0. -1.
    10030    2    1    2    0    0  0.00000000000E+00  0.00000000000E+00 -0.81195521362E+03  0.34510454344E+04  0.33541680520E+04 0.  0.
        5    1    3    3  502    0  0.14431450349E+04  0.71049614397E+03  0.82190502998E+02  0.16106674800E+04  0.46999998093E+01 0.  1.
       -5    1    3    3    0  502 -0.14431450349E+04 -0.71049614397E+03 -0.89414571662E+03  0.18403779544E+04  0.46999998093E+01 0. -1.
</event>
<event>
 5   0  0.1010551E-06  0.2982127E+04  0.7818609E-02  0.8248853E-01
        1   -1    0    0  501    0  0.00000000000E+00  0.00000000000E+00  0.10642949675E+04  0.10642949675E+04  0.50400001928E-02 0.  1.
       -1   -1    0    0    0  501  0.00000000000E+00  0.00000000000E+00 -0.20889606961E+04  0.20889606961E+04  0.50400001928E-02 0. -1.
    10030    2    1    2    0    0  0.00000000000E+00  0.00000000000E+00 -0.10246657287E+04  0.31532556636E+04  0.29821269967E+04 0.  0.
        2    1    3    3  502    0  0.90826299646E+03  0.10254004984E+04 -0.11350979369E+04  0.17789983640E+04  0.25500000920E-02 0. -1.
       -2    1    3    3    0  502 -0.90826299646E+03 -0.10254004984E+04  0.11043220821E+03  0.13742572996E+04  0.25500000920E-02 0.  1.
</event>
<event>
 5   0  0.1003191E-06  0.3452388E+04  0.7818609E-02  0.8125167E-01
       -1   -1    0    0    0  501  0.00000000000E+00  0.00000000000E+00  0.13851612152E+04  0.13851612152E+04  0.50400001928E-02 0. -1.
        1   -1    0    0  501    0  0.00000000000E+00  0.00000000000E+00 -0.21511903975E+04  0.21511903975E+04  0.50400001928E-02 0.  1.
    10030    2    1    2    0    0  0.00000000000E+00  0.00000000000E+00 -0.76602918228E+03  0.35363516127E+04  0.34523878723E+04 0.  0.
        5    1    3    3  502    0 -0.13667387804E+04 -0.10236233737E+04 -0.12399371173E+03  0.17120678244E+04  0.46999998093E+01 0. -1.
       -5    1    3    3    0  502  0.13667387804E+04  0.10236233737E+04 -0.64203547056E+03  0.18242837883E+04  0.46999998093E+01 0.  1.
</event>
<event>
 5   0  0.2664083E-06  0.3403815E+04  0.7818609E-02  0.8136971E-01
       -2   -1    0    0    0  501  0.00000000000E+00  0.00000000000E+00  0.15918720037E+04  0.15918720037E+04  0.25500000920E-02 0.  1.
        2   -1    0    0  501    0  0.00000000000E+00  0.00000000000E+00 -0.18195491116E+04  0.18195491116E+04  0.25500000920E-02 0. -1.
    10030    2    1    2    0    0  0.00000000000E+00  0.00000000000E+00 -0.22767710789E+03  0.34114211154E+04  0.34038150891E+04 0.  0.
        2    1    3    3  502    0 -0.14149922898E+04  0.93920424669E+03 -0.22445498252E+03  0.17130930612E+04  0.25500000920E-02 0. -1.
       -2    1    3    3    0  502  0.14149922898E+04 -0.93920424669E+03 -0.32221253697E+01  0.16983280541E+04  0.25500000920E-02 0.  1.
</event>
<event>
 5   0  0.2767014E-06  0.3455229E+04  0.7818609E-02  0.8124483E-01
        2   -1    0    0  501    0  0.00000000000E+00  0.00000000000E+00  0.20232136539E+04  0.20232136539E+04  0.25500000920E-02 0.  1.
       -2   -1    0    0    0  501  0.00000000000E+00  0.00000000000E+00 -0.14752035885E+04  0.14752035885E+04  0.25500000920E-02 0. -1.
    10030    2    1    2    0    0  0.00000000000E+00  0.00000000000E+00  0.54801006539E+03  0.34984172425E+04  0.34552291054E+04 0.  0.
        1    1    3    3  502    0  0.11626470583E+04  0.10874900441E+04 -0.40540335920E+03  0.16427825973E+04  0.50400001928E-02 0. -1.
       -1    1    3    3    0  502 -0.11626470583E+04 -0.10874900441E+04  0.95341342459E+03  0.18556346452E+04  0.50400001928E-02 0.  1.
</event>
<event>
 5   0  0.2767014E-06  0.3394893E+04  0.7818609E-02  0.8139161E-01
       -2   -1    0    0    0  501  0.00000000000E+00  0.00000000000E+00  0.11913534566E+04  0.11913534566E+04  0.25500000920E-02 0. -1.
        2   -1    0    0  501    0  0.00000000000E+00  0.00000000000E+00 -0.24185304107E+04  0.24185304107E+04  0.25500000920E-02 0.  1.
    10030    2    1    2    0    0  0.00000000000E+00  0.00000000000E+00 -0.12271769542E+04  0.36098838673E+04  0.33948929672E+04 0.  0.
        1    1    3    3  502    0  0.62402660048E+03  0.77281675648E+03 -0.20772271988E+04  0.23025046738E+04  0.50400001928E-02 0.  1.
       -1    1    3    3    0  502 -0.62402660048E+03 -0.77281675648E+03  0.85005024464E+03  0.13073791935E+04  0.50400001928E-02 0. -1.
</event>
<event>
 5   0  0.2848685E-06  0.3434411E+04  0.7818609E-02  0.8129512E-01
        2   -1    0    0  501    0  0.00000000000E+00  0.00000000000E+00  0.19433557864E+04  0.19433557864E+04  0.25500000920E-02 0. -1.
       -2   -1    0    0    0  501  0.00000000000E+00  0.00000000000E+00 -0.15173722633E+04  0.15173722633E+04  0.25500000920E-02 0.  1.
    10030    2    1    2    0    0  0.00000000000E+00  0.00000000000E+00  0.42598352308E+03  0.34607280497E+04  0.34344106732E+04 0.  0.
        3    1    3    3  502    0 -0.16584477416E+04  0.43736875837E+03  0.29762233707E+03  0.17407812637E+04  0.10100000352E+00 0. -1.
       -3    1    3    3    0  502  0.16584477416E+04 -0.43736875837E+03  0.12836118601E+03  0.17199467860E+04  0.10100000352E+00 0.  1.
</event>
<event>
 5   0  0.9714317E-07  0.3467271E+04  0.7818609E-02  0.8121590E-01
        1   -1    0    0  501    0  0.00000000000E+00  0.00000000000E+00  0.20695230982E+04  0.20695230982E+04  0.50400001928E-02 0. -1.
       -1   -1    0    0    0  501  0.00000000000E+00  0.00000000000E+00 -0.14522633572E+04  0.14522633572E+04  0.50400001928E-02 0.  1.
    10030    2    1    2    0    0  0.00000000000E+00  0.00000000000E+00  0.61725974104E+03  0.35217864554E+04  0.34672712973E+04 0.  0.
        4    1    3    3  502    0 -0.17195353727E+04  0.20900270195E+03  0.23675772448E+03  0.17482962736E+04  0.12699999809E+01 0. -1.
       -4    1    3    3    0  502  0.17195353727E+04 -0.20900270195E+03  0.38050201655E+03  0.17734901818E+04  0.12699999809E+01 0.  1.
</event>
<event>
 5   0  0.2848685E-06  0.3309461E+04  0.7818609E-02  0.8160492E-01
       -2   -1    0    0    0  501  0.00000000000E+00  0.00000000000E+00  0.17160610065E+04  0.17160610065E+04  0.25500000920E-02 0. -1.
        2   -1    0    0  501    0  0.00000000000E+00  0.00000000000E+00 -0.15955918516E+04  0.15955918516E+04  0.25500000920E-02 0.  1.
    10030    2    1    2    0    0  0.00000000000E+00  0.00000000000E+00  0.12046915491E+03  0.33116528581E+04  0.33094609584E+04 0.  0.
        3    1    3    3  502    0 -0.50933581958E+03 -0.95132228554E+03 -0.11950666334E+04  0.16101618976E+04  0.10100000352E+00 0.  1.
       -3    1    3    3    0  502  0.50933581958E+03  0.95132228554E+03  0.13155357883E+04  0.17014909605E+04  0.10100000352E+00 0. -1.
</event>
<event>
 5   0  0.1010551E-06  0.3452972E+04  0.7818609E-02  0.8125026E-01
        1   -1    0    0  501    0  0.00000000000E+00  0.00000000000E+00  0.19934646012E+04  0.19934646012E+04  0.50400001928E-02 0. -1.
       -1   -1    0    0    0  501  0.00000000000E+00  0.00000000000E+00 -0.14952627411E+04  0.14952627411E+04  0.50400001928E-02 0.  1.
    10030    2    1    2    0    0  0.00000000000E+00  0.00000000000E+00  0.49820186011E+03  0.34887273423E+04  0.34529716731E+04 0.  0.
        2    1    3    3  502    0  0.11594990157E+04 -0.37994248689E+03 -0.98500508701E+03  0.15681292300E+04  0.25500000920E-02 0. -1.
       -2    1    3    3    0  502 -0.11594990157E+04  0.37994248689E+03  0.14832069471E+04  0.19205981122E+04  0.25500000920E-02 0.  1.
</event>
<event>
 5   0  0.2906701E-06  0.3388057E+04  0.7818609E-02  0.8140844E-01
       -2   -1    0    0    0  501  0.00000000000E+00  0.00000000000E+00  0.19724381154E+04  0.19724381154E+04  0.25500000920E-02 0.  1.
        2   -1    0    0  501    0  0.00000000000E+00  0.00000000000E+00 -0.14549162652E+04  0.14549162652E+04  0.25500000920E-02 0. -1.
    10030    2    1    2    0    0  0.00000000000E+00  0.00000000000E+00  0.51752185019E+03  0.34273543806E+04  0.33880568450E+04 0.  0.
        5    1    3    3  502    0  0.90243492734E+03 -0.38274525892E+03  0.16563891487E+04  0.19247155201E+04  0.46999998093E+01 0.  1.
       -5    1    3    3    0  502 -0.90243492734E+03  0.38274525892E+03 -0.11388672986E+04  0.15026388605E+04  0.46999998093E+01 0. -1.
</event>
<event>
 5   0  0.2848685E-06  0.2901712E+04  0.7818609E-02  0.8272368E-01
       -2   -1    0    0    0  501  0.00000000000E+00  0.00000000000E+00  0.10824694883E+04  0.10824694883E+04  0.25500000920E-02 0.  1.
        2   -1    0    0  501    0  0.00000000000E+00  0.00000000000E+00 -0.19446114712E+04  0.19446114712E+04  0.25500000920E-02 0. -1.
    10030    2    1    2    0    0  0.00000000000E+00  0.00000000000E+00 -0.86214198290E+03  0.30270809595E+04  0.29017116219E+04 0.  0.
        3    1    3    3  502    0  0.11496702946E+04 -0.22486023663E+03  0.46187781039E+03  0.12592200103E+04  0.10100000352E+00 0.  1.
       -3    1    3    3    0  502 -0.11496702946E+04  0.22486023663E+03 -0.13240197933E+04  0.17678609492E+04  0.10100000352E+00 0. -1.
</event>
<event>
 5   0  0.1010551E-06  0.3579768E+04  0.7818609E-02  0.8095142E-01
        1   -1    0    0  501    0  0.00000000000E+00  0.00000000000E+00  0.16957883684E+04  0.16957883684E+04  0.50400001928E-02 0. -1.
       -1   -1    0    0    0  501  0.00000000000E+00  0.00000000000E+00 -0.18892010948E+04  0.18892010948E+04  0.50400001928E-02 0.  1.
    10030    2    1    2    0    0  0.00000000000E+00  0.00000000000E+00 -0.19341272634E+03  0.35849894632E+04  0.35797682842E+04 0.  0.
        2    1    3    3  502    0 -0.29999151973E+03 -0.14129812106E+04 -0.11552126963E+04  0.18496018996E+04  0.25500000920E-02 0.  1.
       -2    1    3    3    0  502  0.29999151973E+03  0.14129812106E+04  0.96179996999E+03  0.17353875635E+04  0.25500000920E-02 0. -1.
</event>
<event>
 5   0  0.1010551E-06  0.3421392E+04  0.7818609E-02  0.8132676E-01
        1   -1    0    0  501    0  0.00000000000E+00  0.00000000000E+00  0.18952547899E+04  0.18952547899E+04  0.50400001928E-02 0.  1.
       -1   -1    0    0    0  501  0.00000000000E+00  0.00000000000E+00 -0.15441097222E+04  0.15441097222E+04  0.50400001928E-02 0. -1.
    10030    2    1    2    0    0  0.00000000000E+00  0.00000000000E+00  0.35114506776E+03  0.34393645121E+04  0.34213923172E+04 0.  0.
        2    1    3    3  502    0 -0.56178282770E+03 -0.19021553963E+03  0.17885882546E+04  0.18843645724E+04  0.25500000920E-02 0.  1.
       -2    1    3    3    0  502  0.56178282770E+03  0.19021553963E+03 -0.14374431869E+04  0.15549999397E+04  0.25500000920E-02 0. -1.
</event>
<event>
 5   0  0.9070500E-07  0.3323350E+04  0.7818609E-02  0.8156979E-01
        3   -1    0    0  501    0  0.00000000000E+00  0.00000000000E+00  0.21378354775E+04  0.21378354799E+04  0.10100000352E+00 0.  1.
       -3   -1    0    0    0  501  0.00000000000E+00  0.00000000000E+00 -0.12915698294E+04  0.12915698333E+04  0.10100000352E+00 0. -1.
    10030    2    1    2    0    0  0.00000000000E+00  0.00000000000E+00  0.84626564811E+03  0.34294053132E+04  0.33233500049E+04 0.  0.
        4    1    3    3  502    0  0.10190345576E+04  0.10914410646E+04  0.11754294747E+04  0.19003449924E+04  0.12699999809E+01 0.  1.
       -4    1    3    3    0  502 -0.10190345576E+04 -0.10914410646E+04 -0.32916382660E+03  0.15290603208E+04  0.12699999809E+01 0. -1.
</event>
<event>
 5   0  0.2664083E-06  0.3481785E+04  0.7818609E-02  0.8118120E-01
        2   -1    0    0  501    0  0.00000000000E+00  0.00000000000E+00  0.17035497073E+04  0.17035497073E+04  0.25500000920E-02 0. -1.
       -2   -1    0    0    0  501  0.00000000000E+00  0.00000000000E+00 -0.17790537958E+04  0.17790537958E+04  0.25500000920E-02 0.  1.
    10030    2    1    2    0    0  0.00000000000E+00  0.00000000000E+00 -0.75504088482E+02  0.34826035030E+04  0.34817849290E+04 0.  0.
        2    1    3    3  502    0 -0.14365105926E+03 -0.17349254318E+04 -0.27517709460E+02  0.17410798675E+04  0.25500000920E-02 0.  1.
       -2    1    3    3    0  502  0.14365105926E+03  0.17349254318E+04 -0.47986379022E+02  0.17415236356E+04  0.25500000920E-02 0. -1.
</event>
<event>
 5   0  0.2664083E-06  0.2871781E+04  0.7818609E-02  0.8281323E-01
       -2   -1    0    0    0  501  0.00000000000E+00  0.00000000000E+00  0.14198045386E+04  0.14198045386E+04  0.25500000920E-02 0.  1.
        2   -1    0    0  501    0  0.00000000000E+00  0.00000000000E+00 -0.14521583668E+04  0.14521583668E+04  0.25500000920E-02 0. -1.
    10030    2    1    2    0    0  0.00000000000E+00  0.00000000000E+00 -0.32353828225E+02  0.28719629054E+04  0.28717806601E+04 0.  0.
        2    1    3    3  502    0 -0.47636805764E+03  0.24897120745E+03  0.13153984212E+04  0.14209807159E+04  0.25500000920E-02 0.  1.
       -2    1    3    3    0  502  0.47636805764E+03 -0.24897120745E+03 -0.13477522494E+04  0.14509821895E+04  0.25500000920E-02 0. -1.
</event>
<event>
 5   0  0.9232963E-07  0.2441563E+04  0.7818609E-02  0.8424105E-01
        1   -1    0    0  501    0  0.00000000000E+00  0.00000000000E+00  0.13397080819E+04  0.13397080819E+04  0.50400001928E-02 0. -1.
       -1   -1    0    0    0  501  0.00000000000E+00  0.00000000000E+00 -0.11124117906E+04  0.11124117906E+04  0.50400001928E-02 0.  1.
    10030    2    1    2    0    0  0.00000000000E+00  0.00000000000E+00  0.22729629129E+03  0.24521198725E+04  0.24415626687E+04 0.  0.
        3    1    3    3  502    0 -0.69740821694E+03 -0.25407558341E+03 -0.85975599399E+03  0.11358314147E+04  0.10100000352E+00 0.  1.
       -3    1    3    3    0  502  0.69740821694E+03  0.25407558341E+03  0.10870522853E+04  0.13162884578E+04  0.10100000352E+00 0. -1.
</event>
<event>
 5   0  0.2856440E-06  0.3411211E+04  0.7818609E-02  0.8135160E-01
       -2   -1    0    0    0  501  0.00000000000E+00  0.00000000000E+00  0.10381495335E+04  0.10381495335E+04  0.25500000920E-02 0.  1.
        2   -1    0    0  501    0  0.00000000000E+00  0.00000000000E+00 -0.28021875720E+04  0.28021875720E+04  0.25500000920E-02 0. -1.
    10030    2    1    2    0    0  0.00000000000E+00  0.00000000000E+00 -0.17640380385E+04  0.38403371055E+04  0.34112107649E+04 0.  0.
        4    1    3    3  502    0 -0.47372588810E+03 -0.66633119491E+03  0.80317610275E+03  0.11460833056E+04  0.12699999809E+01 0.  1.
       -4    1    3    3    0  502  0.47372588810E+03  0.66633119491E+03 -0.25672141413E+04  0.26942537999E+04  0.12699999809E+01 0. -1.
</event>
<event>
 5   0  0.1010855E-06  0.3485989E+04  0.7818609E-02  0.8117118E-01
       -1   -1    0    0    0  501  0.00000000000E+00  0.00000000000E+00  0.12998048556E+04  0.12998048556E+04  0.50400001928E-02 0.  1.
        1   -1    0    0  501    0  0.00000000000E+00  0.00000000000E+00 -0.23372971155E+04  0.23372971155E+04  0.50400001928E-02 0. -1.
    10030    2    1    2    0    0  0.00000000000E+00  0.00000000000E+00 -0.10374922599E+04  0.36371019711E+04  0.34859891794E+04 0.  0.
        1    1    3    3  502    0 -0.16664186213E+04 -0.31932637221E+03 -0.10256930864E+03  0.16998355263E+04  0.50400001928E-02 0.  1.
       -1    1    3    3    0  502  0.16664186213E+04  0.31932637221E+03 -0.93492295121E+03  0.19372664448E+04  0.50400001928E-02 0. -1.
</event>
<event>
 5   0  0.2664083E-06  0.3433874E+04  0.7818609E-02  0.8129642E-01
        2   -1    0    0  501    0  0.00000000000E+00  0.00000000000E+00  0.91774489339E+03  0.91774489340E+03  0.25500000920E-02 0. -1.
       -2   -1    0    0    0  501  0.00000000000E+00  0.00000000000E+00 -0.32120832604E+04  0.32120832604E+04  0.25500000920E-02 0.  1.
    10030    2    1    2    0    0  0.00000000000E+00  0.00000000000E+00 -0.22943383670E+04  0.41298281538E+04  0.34338742024E+04 0.  0.
        2    1    3    3  502    0  0.15985268366E+04 -0.44928756407E+03 -0.62193601047E+03  0.17731192187E+04  0.25500000920E-02 0. -1.
       -2    1    3    3    0  502 -0.15985268366E+04  0.44928756407E+03 -0.16724023565E+04  0.23567089351E+04  0.25500000920E-02 0.  1.
</event>
<event>
 5   0  0.1003191E-06  0.3367877E+04  0.7818609E-02  0.8145836E-01
       -1   -1    0    0    0  501  0.00000000000E+00  0.00000000000E+00  0.17273541536E+04  0.17273541536E+04  0.50400001928E-02 0.  1.
        1   -1    0    0  501    0  0.00000000000E+00  0.00000000000E+00 -0.16416139373E+04  0.16416139373E+04  0.50400001928E-02 0. -1.
    10030    2    1    2    0    0  0.00000000000E+00  0.00000000000E+00  0.85740216312E+02  0.33689680909E+04  0.33678768702E+04 0.  0.
        5    1    3    3  502    0  0.13274793242E+04 -0.46270695181E+03  0.97016964599E+03  0.17080838128E+04  0.46999998093E+01 0.  1.
       -5    1    3    3    0  502 -0.13274793242E+04  0.46270695181E+03 -0.88442942967E+03  0.16608842782E+04  0.46999998093E+01 0. -1.
</event>
<event>
 5   0  0.2767014E-06  0.3149445E+04  0.7818609E-02  0.8202298E-01
        2   -1    0    0  501    0  0.00000000000E+00  0.00000000000E+00  0.20141708540E+04  0.20141708540E+04  0.25500000920E-02 0. -1.
       -2   -1    0    0    0  501  0.00000000000E+00  0.00000000000E+00 -0.12311519485E+04  0.12311519485E+04  0.25500000920E-02 0.  1.
    10030    2    1    2    0    0  0.00000000000E+00  0.00000000000E+00  0.78301890548E+03  0.32453228025E+04  0.31494446313E+04 0.  0.
        1    1    3    3  502    0  0.43397594533E+03 -0.10585059428E+04 -0.72355183941E+03  0.13536237351E+04  0.50400001928E-02 0.  1.
       -1    1    3    3    0  502 -0.43397594533E+03  0.10585059428E+04  0.15065707449E+04  0.18916990673E+04  0.50400001928E-02 0. -1.
</event>
<event>
 5   0  0.2906701E-06  0.3419472E+04  0.7818609E-02  0.8133144E-01
       -2   -1    0    0    0  501  0.00000000000E+00  0.00000000000E+00  0.16314521214E+04  0.16314521214E+04  0.25500000920E-02 0.  1.
        2   -1    0    0  501    0  0.00000000000E+00  0.00000000000E+00 -0.17917763048E+04  0.17917763048E+04  0.25500000920E-02 0. -1.
    10030    2    1    2    0    0  0.00000000000E+00  0.00000000000E+00 -0.16032418342E+03  0.34232284262E+04  0.34194720374E+04 0.  0.
        5    1    3    3  502    0  0.26260305432E+03  0.11931233907E+03 -0.17672371912E+04  0.17906270349E+04  0.46999998093E+01 0. -1.
       -5    1    3    3    0  502 -0.26260305432E+03 -0.11931233907E+03  0.16069130077E+04  0.16326013913E+04  0.46999998093E+01 0.  1.
</event>
<event>
 5   0  0.9232963E-07  0.3362147E+04  0.7818609E-02  0.8147260E-01
       -1   -1    0    0    0  501  0.00000000000E+00  0.00000000000E+00  0.14002208170E+04  0.14002208170E+04  0.50400001928E-02 0. -1.
        1   -1    0    0  501    0  0.00000000000E+00  0.00000000000E+00 -0.20182591142E+04  0.20182591143E+04  0.50400001928E-02 0.  1.
    10030    2    1    2    0    0  0.00000000000E+00  0.00000000000E+00 -0.61803829728E+03  0.34184799312E+04  0.33621471864E+04 0.  0.
        3    1    3    3  502    0  0.59756722642E+03  0.74599071903E+02 -0.19048247076E+04  0.19977509326E+04  0.10100000352E+00 0.  1.
       -3    1    3    3    0  502 -0.59756722642E+03 -0.74599071903E+02  0.12867864103E+04  0.14207289987E+04  0.10100000352E+00 0. -1.
</event>
<event>
 5   0  0.9714317E-07  0.3371476E+04  0.7818609E-02  0.8144943E-01
        1   -1    0    0  501    0  0.00000000000E+00  0.00000000000E+00  0.15216505456E+04  0.15216505456E+04  0.50400001928E-02 0.  1.
       -1   -1    0    0    0  501  0.00000000000E+00  0.00000000000E+00 -0.18675195060E+04  0.18675195060E+04  0.50400001928E-02 0. -1.
    10030    2    1    2    0    0  0.00000000000E+00  0.00000000000E+00 -0.34586896045E+03  0.33891700516E+04  0.33714756859E+04 0.  0.
        4    1    3    3  502    0  0.14844393275E+04 -0.79625836931E+03 -0.23748170870E+03  0.17011721496E+04  0.12699999809E+01 0. -1.
       -4    1    3    3    0  502 -0.14844393275E+04  0.79625836931E+03 -0.10838725174E+03  0.16879979020E+04  0.12699999809E+01 0.  1.
</event>
<event>
 5   0  0.9714317E-07  0.3221720E+04  0.7818609E-02  0.8183104E-01
       -1   -1    0    0    0  501  0.00000000000E+00  0.00000000000E+00  0.15542233997E+04  0.15542233997E+04  0.50400001928E-02 0. -1.
        1   -1    0    0  501    0  0.00000000000E+00  0.00000000000E+00 -0.16695605867E+04  0.16695605867E+04  0.50400001928E-02 0.  1.
    10030    2    1    2    0    0  0.00000000000E+00  0.00000000000E+00 -0.11533718699E+03  0.32237839865E+04  0.32217201189E+04 0.  0.
        4    1    3    3  502    0 -0.25393798946E+03  0.79550967932E+03  0.13207291442E+04  0.15625771141E+04  0.12699999809E+01 0. -1.
       -4    1    3    3    0  502  0.25393798946E+03 -0.79550967932E+03 -0.14360663312E+04  0.16612068724E+04  0.12699999809E+01 0.  1.
</event>
<event>
 5   0  0.2664083E-06  0.3552186E+04  0.7818609E-02  0.8101533E-01
       -2   -1    0    0    0  501  0.00000000000E+00  0.00000000000E+00  0.23420043971E+04  0.23420043971E+04  0.25500000920E-02 0.  1.
        2   -1    0    0  501    0  0.00000000000E+00  0.00000000000E+00 -0.13469258813E+04  0.13469258813E+04  0.25500000920E-02 0. -1.
    10030    2    1    2    0    0  0.00000000000E+00  0.00000000000E+00  0.99507851577E+03  0.36889302784E+04  0.35521859955E+04 0.  0.
        2    1    3    3  502    0 -0.11664132093E+04 -0.13130853630E+04  0.22318487650E+03  0.17704588203E+04  0.25500000920E-02 0.  1.
       -2    1    3    3    0  502  0.11664132093E+04  0.13130853630E+04  0.77189363927E+03  0.19184714581E+04  0.25500000920E-02 0. -1.
</event>
<event>
 5   0  0.2664083E-06  0.3347295E+04  0.7818609E-02  0.8150964E-01
        2   -1    0    0  501    0  0.00000000000E+00  0.00000000000E+00  0.20885279242E+04  0.20885279242E+04  0.25500000920E-02 0.  1.
       -2   -1    0    0    0  501  0.00000000000E+00  0.00000000000E+00 -0.13411823287E+04  0.13411823287E+04  0.25500000920E-02 0. -1.
    10030    2    1    2    0    0  0.00000000000E+00  0.00000000000E+00  0.74734559548E+03  0.34297102530E+04  0.33472954725E+04 0.  0.
        2    1    3    3  502    0  0.70868757007E+03  0.10647569975E+04 -0.73232567378E+03  0.14738542765E+04  0.25500000920E-02 0. -1.
       -2    1    3    3    0  502 -0.70868757007E+03 -0.10647569975E+04  0.14796712693E+04  0.19558559765E+04  0.25500000920E-02 0.  1.
</event>
<event>
 5   0  0.2856440E-06  0.3351337E+04  0.7818609E-02  0.8149954E-01
        2   -1    0    0  501    0  0.00000000000E+00  0.00000000000E+00  0.25178544889E+04  0.25178544889E+04  0.25500000920E-02 0. -1.
       -2   -1    0    0    0  501  0.00000000000E+00  0.00000000000E+00 -0.11151813398E+04  0.11151813398E+04  0.25500000920E-02 0.  1.
    10030    2    1    2    0    0  0.00000000000E+00  0.00000000000E+00  0.14026731492E+04  0.36330358287E+04  0.33513366541E+04 0.  0.
        4    1    3    3  502    0 -0.75437017981E+03  0.14079780007E+04  0.12502439180E+04  0.20284446963E+04  0.12699999809E+01 0. -1.
       -4    1    3    3    0  502  0.75437017981E+03 -0.14079780007E+04  0.15242923118E+03  0.16045911324E+04  0.12699999809E+01 0.  1.
</event>
<event>
 5   0  0.2906701E-06  0.3313654E+04  0.7818609E-02  0.8159430E-01
       -2   -1    0    0    0  501  0.00000000000E+00  0.00000000000E+00  0.11358696684E+04  0.11358696684E+04  0.25500000920E-02 0. -1.
        2   -1    0    0  501    0  0.00000000000E+00  0.00000000000E+00 -0.24167178602E+04  0.24167178602E+04  0.25500000920E-02 0.  1.
    10030    2    1    2    0    0  0.00000000000E+00  0.00000000000E+00 -0.12808481918E+04  0.35525875286E+04  0.33136544868E+04 0.  0.
        5    1    3    3  502    0  0.17274927434E+03 -0.14473662525E+04  0.20398620471E+03  0.14718504824E+04  0.46999998093E+01 0.  1.
       -5    1    3    3    0  502 -0.17274927434E+03  0.14473662525E+04 -0.14848343965E+04  0.20807370463E+04  0.46999998093E+01 0. -1.
</event>
<event>
 5   0  0.2664083E-06  0.3140227E+04  0.7818609E-02  0.8204784E-01
        2   -1    0    0  501    0  0.00000000000E+00  0.00000000000E+00  0.17416656149E+04  0.17416656149E+04  0.25500000920E-02 0. -1.
       -2   -1    0    0    0  501  0.00000000000E+00  0.00000000000E+00 -0.14154588574E+04  0.14154588574E+04  0.25500000920E-02 0.  1.
    10030    2    1    2    0    0  0.00000000000E+00  0.00000000000E+00  0.32620675748E+03  0.31571244723E+04  0.31402267569E+04 0.  0.
        2    1    3    3  502    0 -0.20423271576E+03  0.61521376107E+03  0.16008534854E+04  0.17271163411E+04  0.25500000920E-02 0. -1.
       -2    1    3    3    0  502  0.20423271576E+03 -0.61521376107E+03 -0.12746467280E+04  0.14300081311E+04  0.25500000920E-02 0.  1.
</event>
<event>
 5   0  0.2767014E-06  0.3428129E+04  0.7818609E-02  0.8131037E-01
        2   -1    0    0  501    0  0.00000000000E+00  0.00000000000E+00  0.19039010025E+04  0.19039010025E+04  0.25500000920E-02 0. -1.
       -2   -1    0    0    0  501  0.00000000000E+00  0.00000000000E+00 -0.15431561166E+04  0.15431561166E+04  0.25500000920E-02 0.  1.
    10030    2    1    2    0    0  0.00000000000E+00  0.00000000000E+00  0.36074488591E+03  0.34470571191E+04  0.34281286308E+04 0.  0.
        1    1    3    3  502    0  0.10211395167E+04 -0.10752866707E+04  0.10447988566E+04  0.18139933813E+04  0.50400001928E-02 0. -1.
       -1    1    3    3    0  502 -0.10211395167E+04  0.10752866707E+04 -0.68405397070E+03  0.16330637377E+04  0.50400001928E-02 0.  1.
</event>
<event>
 5   0  0.2856440E-06  0.3440191E+04  0.7818609E-02  0.8128112E-01
       -2   -1    0    0    0  501  0.00000000000E+00  0.00000000000E+00  0.20955841474E+04  0.20955841474E+04  0.25500000920E-02 0.  1.
        2   -1    0    0  501    0  0.00000000000E+00  0.00000000000E+00 -0.14118873015E+04  0.14118873015E+04  0.25500000920E-02 0. -1.
    10030    2    1    2    0    0  0.00000000000E+00  0.00000000000E+00  0.68369684587E+03  0.35074714489E+04  0.34401910686E+04 0.  0.
        4    1    3    3  502    0 -0.10177166693E+04 -0.68896078792E+03  0.15688433641E+04  0.19929087537E+04  0.12699999809E+01 0.  1.
       -4    1    3    3    0  502  0.10177166693E+04  0.68896078792E+03 -0.88514651827E+03  0.15145626953E+04  0.12699999809E+01 0. -1.
</event>
<event>
 5   0  0.2856440E-06  0.3418880E+04  0.7818609E-02  0.8133288E-01
        2   -1    0    0  501    0  0.00000000000E+00  0.00000000000E+00  0.22146702860E+04  0.22146702860E+04  0.25500000920E-02 0. -1.
       -2   -1    0    0    0  501  0.00000000000E+00  0.00000000000E+00 -0.13194675819E+04  0.13194675819E+04  0.25500000920E-02 0.  1.
    10030    2    1    2    0    0  0.00000000000E+00  0.00000000000E+00  0.89520270410E+03  0.35341378679E+04  0.34188803120E+04 0.  0.
        4    1    3    3  502    0 -0.13672366277E+04 -0.73930781948E+03 -0.28791365558E+03  0.15807618208E+04  0.12699999809E+01 0.  1.
       -4    1    3    3    0  502  0.13672366277E+04  0.73930781948E+03  0.11831163597E+04  0.19533760471E+04  0.12699999809E+01 0. -1.
</event>
<event>
 5   0  0.2906701E-06  0.3555016E+04  0.7818609E-02  0.8100874E-01
       -2   -1    0    0    0  501  0.00000000000E+00  0.00000000000E+00  0.20340195099E+04  0.20340195099E+04  0.25500000920E-02 0.  1.
        2   -1    0    0  501    0  0.00000000000E+00  0.00000000000E+00 -0.15533453399E+04  0.15533453399E+04  0.25500000920E-02 0. -1.
    10030    2    1    2    0    0  0.00000000000E+00  0.00000000000E+00  0.48067416994E+03  0.35873648498E+04  0.35550160208E+04 0.  0.
        5    1    3    3  502    0 -0.97935015758E+03 -0.11977916667E+04 -0.64265727517E+03  0.16753692343E+04  0.46999998093E+01 0. -1.
       -5    1    3    3    0  502  0.97935015758E+03  0.11977916667E+04  0.11233314451E+04  0.19119956155E+04  0.46999998093E+01 0.  1.
</event>
<event>
 5   0  0.9714317E-07  0.3401972E+04  0.7818609E-02  0.8137422E-01
       -1   -1    0    0    0  501  0.00000000000E+00  0.00000000000E+00  0.28090627838E+04  0.28090627838E+04  0.50400001928E-02 0. -1.
        1   -1    0    0  501    0  0.00000000000E+00  0.00000000000E+00 -0.10300067188E+04  0.10300067188E+04  0.50400001928E-02 0.  1.
    10030    2    1    2    0    0  0.00000000000E+00  0.00000000000E+00  0.17790560650E+04  0.38390695026E+04  0.34019720991E+04 0.  0.
        4    1    3    3  502    0  0.15570491988E+04 -0.57222376385E+03  0.46501765762E+03  0.17228131872E+04  0.12699999809E+01 0.  1.
       -4    1    3    3    0  502 -0.15570491988E+04  0.57222376385E+03  0.13140384074E+04  0.21162563153E+04  0.12699999809E+01 0. -1.
</event>
<event>
 5   0  0.2906701E-06  0.3416691E+04  0.7818609E-02  0.8133822E-01
        2   -1    0    0  501    0  0.00000000000E+00  0.00000000000E+00  0.24852353932E+04  0.24852353932E+04  0.25500000920E-02 0. -1.
       -2   -1    0    0    0  501  0.00000000000E+00  0.00000000000E+00 -0.11743128774E+04  0.11743128774E+04  0.25500000920E-02 0.  1.
    10030    2    1    2    0    0  0.00000000000E+00  0.00000000000E+00  0.13109225158E+04  0.36595482706E+04  0.34166907531E+04 0.  0.
        5    1    3    3  502    0 -0.10489246080E+04  0.11032431319E+04  0.14858303611E+04  0.21272287590E+04  0.46999998093E+01 0. -1.
       -5    1    3    3    0  502  0.10489246080E+04 -0.11032431319E+04 -0.17490784521E+03  0.15323195116E+04  0.46999998093E+01 0.  1.
</event>
<event>
 5   0  0.2848685E-06  0.3412088E+04  0.7818609E-02  0.8134946E-01
       -2   -1    0    0    0  501  0.00000000000E+00  0.00000000000E+00  0.11438117278E+04  0.11438117278E+04  0.25500000920E-02 0.  1.
        2   -1    0    0  501    0  0.00000000000E+00  0.00000000000E+00 -0.25446368013E+04  0.25446368013E+04  0.25500000920E-02 0. -1.
    10030    2    1    2    0    0  0.00000000000E+00  0.00000000000E+00 -0.14008250734E+04  0.36884485291E+04  0.34120875817E+04 0.  0.
        3    1    3    3  502    0  0.19975341934E+03  0.61280339025E+03  0.10071334451E+04  0.11957203729E+04  0.10100000352E+00 0.  1.
       -3    1    3    3    0  502 -0.19975341934E+03 -0.61280339025E+03 -0.24079585185E+04  0.24927281562E+04  0.10100000352E+00 0. -1.
</event>
<event>
 5   0  0.1010551E-06  0.3325752E+04  0.7818609E-02  0.8156374E-01
        1   -1    0    0  501    0  0.00000000000E+00  0.00000000000E+00  0.22516623670E+04  0.22516623670E+04  0.50400001928E-02 0.  1.
       -1   -1    0    0    0  501  0.00000000000E+00  0.00000000000E+00 -0.12280510869E+04  0.12280510869E+04  0.50400001928E-02 0. -1.
    10030    2    1    2    0    0  0.00000000000E+00  0.00000000000E+00  0.10236112801E+04  0.34797134539E+04  0.33257518952E+04 0.  0.
        2    1    3    3  502    0 -0.47546888999E+03 -0.15440545389E+04  0.92370709938E+03  0.18610238821E+04  0.25500000920E-02 0. -1.
       -2    1    3    3    0  502  0.47546888999E+03  0.15440545389E+04  0.99904180734E+02  0.16186895718E+04  0.25500000920E-02 0.  1.
</event>
<event>
 5   0  0.1010855E-06  0.3390249E+04  0.7818609E-02  0.8140304E-01
       -1   -1    0    0    0  501  0.00000000000E+00  0.00000000000E+00  0.16519197827E+04  0.16519197827E+04  0.50400001928E-02 0. -1.
        1   -1    0    0  501    0  0.00000000000E+00  0.00000000000E+00 -0.17394596895E+04  0.17394596895E+04  0.50400001928E-02 0.  1.
    10030    2    1    2    0    0  0.00000000000E+00  0.00000000000E+00 -0.87539906819E+02  0.33913794721E+04  0.33902494729E+04 0.  0.
        1    1    3    3  502    0  0.35647456207E+03 -0.59749996730E+03 -0.15900430880E+04  0.17356028768E+04  0.50400001928E-02 0.  1.
       -1    1    3    3    0  502 -0.35647456207E+03  0.59749996730E+03  0.15025031811E+04  0.16557765954E+04  0.50400001928E-02 0. -1.
</event>
<event>
 5   0  0.1003191E-06  0.2567669E+04  0.7818609E-02  0.8379267E-01
       -1   -1    0    0    0  501  0.00000000000E+00  0.00000000000E+00  0.11860371926E+04  0.11860371927E+04  0.50400001928E-02 0.  1.
        1   -1    0    0  501    0  0.00000000000E+00  0.00000000000E+00 -0.13896956634E+04  0.13896956634E+04  0.50400001928E-02 0. -1.
    10030    2    1    2    0    0  0.00000000000E+00  0.00000000000E+00 -0.20365847075E+03  0.25757328561E+04  0.25676687818E+04 0.  0.
        5    1    3    3  502    0 -0.13003617536E+03 -0.34227303130E+03  0.11325427043E+04  0.11902669037E+04  0.46999998093E+01 0.  1.
       -5    1    3    3    0  502  0.13003617536E+03  0.34227303130E+03 -0.13362011751E+04  0.13854659524E+04  0.46999998093E+01 0. -1.
</event>
<event>
 5   0  0.1003191E-06  0.3424268E+04  0.7818609E-02  0.8131976E-01
        1   -1    0    0  501    0  0.00000000000E+00  0.00000000000E+00  0.11074591660E+04  0.11074591660E+04  0.50400001928E-02 0. -1.
       -1   -1    0    0    0  501  0.00000000000E+00  0.00000000000E+00 -0.26469628685E+04  0.26469628685E+04  0.50400001928E-02 0.  1.
    10030    2    1    2    0    0  0.00000000000E+00  0.00000000000E+00 -0.15395037025E+04  0.37544220345E+04  0.34242682669E+04 0.  0.
        5    1    3    3  502    0 -0.11629386362E+04 -0.11662888924E+04 -0.12825242842E+04  0.20874737559E+04  0.46999998093E+01 0.  1.
       -5    1    3    3    0  502  0.11629386362E+04  0.11662888924E+04 -0.25697941830E+03  0.16669482786E+04  0.46999998093E+01 0. -1.
</event>
<event>
 5   0  0.2767014E-06  0.3400131E+04  0.7818609E-02  0.8137874E-01
        2   -1    0    0  501    0  0.00000000000E+00  0.00000000000E+00  0.17948140682E+04  0.17948140682E+04  0.25500000920E-02 0.  1.
       -2   -1    0    0    0  501  0.00000000000E+00  0.00000000000E+00 -0.16103185285E+04  0.16103185285E+04  0.25500000920E-02 0. -1.
    10030    2    1    2    0    0  0.00000000000E+00  0.00000000000E+00  0.18449553967E+03  0.34051325968E+04  0.34001307912E+04 0.  0.
        1    1    3    3  502    0  0.49287516327E+03  0.93007978077E+03 -0.12447247348E+04  0.16301269860E+04  0.50400001928E-02 0. -1.
       -1    1    3    3    0  502 -0.49287516327E+03 -0.93007978077E+03  0.14292202745E+04  0.17750056107E+04  0.50400001928E-02 0.  1.
</event>
<event>
 5   0  0.2767014E-06  0.3399398E+04  0.7818609E-02  0.8138054E-01
        2   -1    0    0  501    0  0.00000000000E+00  0.00000000000E+00  0.23544820688E+04  0.23544820688E+04  0.25500000920E-02 0. -1.
       -2   -1    0    0    0  501  0.00000000000E+00  0.00000000000E+00 -0.12270112890E+04  0.12270112890E+04  0.25500000920E-02 0.  1.
    10030    2    1    2    0    0  0.00000000000E+00  0.00000000000E+00  0.11274707798E+04  0.35814933579E+04  0.33993976397E+04 0.  0.
        1    1    3    3  502    0  0.93209025542E+03  0.13836781949E+03 -0.92662009120E+03  0.13215758363E+04  0.50400001928E-02 0.  1.
       -1    1    3    3    0  502 -0.93209025542E+03 -0.13836781949E+03  0.20540908710E+04  0.22599175215E+04  0.50400001928E-02 0. -1.
</event>
<event>
 5   0  0.1010855E-06  0.3251493E+04  0.7818609E-02  0.8175349E-01
        1   -1    0    0  501    0  0.00000000000E+00  0.00000000000E+00  0.20997905788E+04  0.20997905788E+04  0.50400001928E-02 0.  1.
       -1   -1    0    0    0  501  0.00000000000E+00  0.00000000000E+00 -0.12587218463E+04  0.12587218463E+04  0.50400001928E-02 0. -1.
    10030    2    1    2    0    0  0.00000000000E+00  0.00000000000E+00  0.84106873252E+03  0.33585124251E+04  0.32514933641E+04 0.  0.
        1    1    3    3  502    0 -0.85695641927E+03 -0.11889718917E+04 -0.30620239952E+03  0.14972602891E+04  0.50400001928E-02 0. -1.
       -1    1    3    3    0  502  0.85695641927E+03  0.11889718917E+04  0.11472711320E+04  0.18612521361E+04  0.50400001928E-02 0.  1.
</event>
<event>
 5   0  0.2664083E-06  0.3425671E+04  0.7818609E-02  0.8131634E-01
       -2   -1    0    0    0  501  0.00000000000E+00  0.00000000000E+00  0.19785443414E+04  0.19785443414E+04  0.25500000920E-02 0.  1.
        2   -1    0    0  501    0  0.00000000000E+00  0.00000000000E+00 -0.14828099840E+04  0.14828099840E+04  0.25500000920E-02 0. -1.
    10030    2    1    2    0    0  0.00000000000E+00  0.00000000000E+00  0.49573435740E+03  0.34613543255E+04  0.34256709143E+04 0.  0.
        2    1    3    3  502    0  0.44696546229E+03  0.17026130135E+03 -0.14139648504E+04  0.14926699680E+04  0.25500000920E-02 0. -1.
       -2    1    3    3    0  502 -0.44696546229E+03 -0.17026130135E+03  0.19096992078E+04  0.19686843575E+04  0.25500000920E-02 0.  1.
</event>
<event>
 5   0  0.2906701E-06  0.2349830E+04  0.7818609E-02  0.8458529E-01
        2   -1    0    0  501    0  0.00000000000E+00  0.00000000000E+00  0.46045552416E+03  0.46045552417E+03  0.25500000920E-02 0. -1.
       -2   -1    0    0    0  501  0.00000000000E+00  0.00000000000E+00 -0.29979558487E+04  0.29979558487E+04  0.25500000920E-02 0.  1.
    10030    2    1    2    0    0  0.00000000000E+00  0.00000000000E+00 -0.25375003245E+04  0.34584113728E+04  0.23498300634E+04 0.  0.
        5    1    3    3  502    0 -0.19188724735E+03  0.83096685189E+03 -0.24581346283E+04  0.26018790452E+04  0.46999998093E+01 0.  1.
       -5    1    3    3    0  502  0.19188724735E+03 -0.83096685189E+03 -0.79365696190E+02  0.85653232769E+03  0.46999998093E+01 0. -1.
</event>
<event>
 5   0  0.2906701E-06  0.3214337E+04  0.7818609E-02  0.8185041E-01
       -2   -1    0    0    0  501  0.00000000000E+00  0.00000000000E+00  0.14740540705E+04  0.14740540705E+04  0.25500000920E-02 0.  1.
        2   -1    0    0  501    0  0.00000000000E+00  0.00000000000E+00 -0.17523041711E+04  0.17523041711E+04  0.25500000920E-02 0. -1.
    10030    2    1    2    0    0  0.00000000000E+00  0.00000000000E+00 -0.27825010063E+03  0.32263582416E+04  0.32143373165E+04 0.  0.
        5    1    3    3  502    0 -0.12086574401E+04 -0.10376276645E+04  0.74850586192E+02  0.15947252673E+04  0.46999998093E+01 0.  1.
       -5    1    3    3    0  502  0.12086574401E+04  0.10376276645E+04 -0.35310068682E+03  0.16316329743E+04  0.46999998093E+01 0. -1.
</event>
<event>
 5   0  0.1010855E-06  0.3252433E+04  0.7818609E-02  0.8175105E-01
        1   -1    0    0  501    0  0.00000000000E+00  0.00000000000E+00  0.18761825230E+04  0.18761825230E+04  0.50400001928E-02 0.  1.
       -1   -1    0    0    0  501  0.00000000000E+00  0.00000000000E+00 -0.14095540413E+04  0.14095540414E+04  0.50400001928E-02 0. -1.
    10030    2    1    2    0    0  0.00000000000E+00  0.00000000000E+00  0.46662848170E+03  0.32857365644E+04  0.32524333399E+04 0.  0.
        1    1    3    3  502    0 -0.16182215047E+03  0.91779690840E+03  0.15796428821E+04  0.18340690305E+04  0.50400001928E-02 0.  1.
       -1    1    3    3    0  502  0.16182215047E+03 -0.91779690840E+03 -0.11130144004E+04  0.14516675339E+04  0.50400001928E-02 0. -1.
</event>
<event>
 5   0  0.9714317E-07  0.3295442E+04  0.7818609E-02  0.8164056E-01
        1   -1    0    0  501    0  0.00000000000E+00  0.00000000000E+00  0.13872150018E+04  0.13872150018E+04  0.50400001928E-02 0.  1.
       -1   -1    0    0    0  501  0.00000000000E+00  0.00000000000E+00 -0.19571472090E+04  0.19571472090E+04  0.50400001928E-02 0. -1.
    10030    2    1    2    0    0  0.00000000000E+00  0.00000000000E+00 -0.56993220723E+03  0.33443622108E+04  0.32954416815E+04 0.  0.
        4    1    3    3  502    0 -0.28604898460E+03 -0.15722576061E+04  0.12244623156E+03  0.16027516008E+04  0.12699999809E+01 0.  1.
       -4    1    3    3    0  502  0.28604898460E+03  0.15722576061E+04 -0.69237843879E+03  0.17416106100E+04  0.12699999809E+01 0. -1.
</event>
<event>
 5   0  0.2848685E-06  0.3356832E+04  0.7818609E-02  0.8148583E-01
       -2   -1    0    0    0  501  0.00000000000E+00  0.00000000000E+00  0.18958751622E+04  0.18958751622E+04  0.25500000920E-02 0.  1.
        2   -1    0    0  501    0  0.00000000000E+00  0.00000000000E+00 -0.14859000244E+04  0.14859000244E+04  0.25500000920E-02 0. -1.
    10030    2    1    2    0    0  0.00000000000E+00  0.00000000000E+00  0.40997513781E+03  0.33817751865E+04  0.33568324055E+04 0.  0.
        3    1    3    3  502    0 -0.57979801406E+03  0.14705606185E+04  0.77342003070E+03  0.17597990862E+04  0.10100000352E+00 0.  1.
       -3    1    3    3    0  502  0.57979801406E+03 -0.14705606185E+04 -0.36344489289E+03  0.16219761003E+04  0.10100000352E+00 0. -1.
</event>
<event>
 5   0  0.2767014E-06  0.2582920E+04  0.7818609E-02  0.8374026E-01
        2   -1    0    0  501    0  0.00000000000E+00  0.00000000000E+00  0.17140949561E+04  0.17140949561E+04  0.25500000920E-02 0. -1.
       -2   -1    0    0    0  501  0.00000000000E+00  0.00000000000E+00 -0.97303182412E+03  0.97303182413E+03  0.25500000920E-02 0.  1.
    10030    2    1    2    0    0  0.00000000000E+00  0.00000000000E+00  0.74106313194E+03  0.26871267802E+04  0.25829200079E+04 0.  0.
        1    1    3    3  502    0  0.10940416756E+04  0.32509637794E+02  0.10836685085E+04  0.15402342357E+04  0.50400001928E-02 0. -1.
       -1    1    3    3    0  502 -0.10940416756E+04 -0.32509637794E+02 -0.34260537652E+03  0.11468925445E+04  0.50400001928E-02 0.  1.
</event>
<event>
 5   0  0.2906701E-06  0.3294905E+04  0.7818609E-02  0.8164193E-01
       -2   -1    0    0    0  501  0.00000000000E+00  0.00000000000E+00  0.24206170846E+04  0.24206170846E+04  0.25500000920E-02 0.  1.
        2   -1    0    0  501    0  0.00000000000E+00  0.00000000000E+00 -0.11212427650E+04  0.11212427650E+04  0.25500000920E-02 0. -1.
    10030    2    1    2    0    0  0.00000000000E+00  0.00000000000E+00  0.12993743196E+04  0.35418598496E+04  0.32949047894E+04 0.  0.
        5    1    3    3  502    0 -0.48308801997E+03 -0.13649425597E+04 -0.19511395615E+03  0.14610043710E+04  0.46999998093E+01 0. -1.
       -5    1    3    3    0  502  0.48308801997E+03  0.13649425597E+04  0.14944882758E+04  0.20808554786E+04  0.46999998093E+01 0.  1.
</event>
<event>
 5   0  0.1010551E-06  0.3242714E+04  0.7818609E-02  0.8177627E-01
        1   -1    0    0  501    0  0.00000000000E+00  0.00000000000E+00  0.12870459067E+04  0.12870459067E+04  0.50400001928E-02 0. -1.
       -1   -1    0    0    0  501  0.00000000000E+00  0.00000000000E+00 -0.20425057835E+04  0.20425057836E+04  0.50400001928E-02 0.  1.
    10030    2    1    2    0    0  0.00000000000E+00  0.00000000000E+00 -0.75545987686E+03  0.33295516903E+04  0.32427141151E+04 0.  0.
        2    1    3    3  502    0 -0.93122501345E+03  0.13625865290E+03  0.97787238322E+03  0.13571959490E+04  0.25500000920E-02 0. -1.
       -2    1    3    3    0  502  0.93122501345E+03 -0.13625865290E+03 -0.17333322601E+04  0.19723557412E+04  0.25500000920E-02 0.  1.
</event>
<event>
 5   0  0.2848685E-06  0.3102375E+04  0.7818609E-02  0.8215086E-01
        2   -1    0    0  501    0  0.00000000000E+00  0.00000000000E+00  0.23758299964E+04  0.23758299964E+04  0.25500000920E-02 0.  1.
       -2   -1    0    0    0  501  0.00000000000E+00  0.00000000000E+00 -0.10127754774E+04  0.10127754774E+04  0.25500000920E-02 0. -1.
    10030    2    1    2    0    0  0.00000000000E+00  0.00000000000E+00  0.13630545189E+04  0.33886054738E+04  0.31023748058E+04 0.  0.
        3    1    3    3  502    0  0.98039902839E+02 -0.15408905194E+04  0.51868522641E+03  0.16288001074E+04  0.10100000352E+00 0.  1.
       -3    1    3    3    0  502 -0.98039902839E+02  0.15408905194E+04  0.84436929252E+03  0.17598053665E+04  0.10100000352E+00 0. -1.
</event>
<event>
 5   0  0.2856440E-06  0.3411910E+04  0.7818609E-02  0.8134989E-01
        2   -1    0    0  501    0  0.00000000000E+00  0.00000000000E+00  0.21134288138E+04  0.21134288138E+04  0.25500000920E-02 0. -1.
       -2   -1    0    0    0  501  0.00000000000E+00  0.00000000000E+00 -0.13770432385E+04  0.13770432385E+04  0.25500000920E-02 0.  1.
    10030    2    1    2    0    0  0.00000000000E+00  0.00000000000E+00  0.73638557528E+03  0.34904720523E+04  0.34119102322E+04 0.  0.
        4    1    3    3  502    0  0.64436035078E+03 -0.37387528065E+03  0.19382284750E+04  0.20764667639E+04  0.12699999809E+01 0. -1.
       -4    1    3    3    0  502 -0.64436035078E+03  0.37387528065E+03 -0.12018428998E+04  0.14140052884E+04  0.12699999809E+01 0.  1.
</event>
<event>
 5   0  0.9070500E-07  0.3088778E+04  0.7818609E-02  0.8218825E-01
       -3   -1    0    0    0  501  0.00000000000E+00  0.00000000000E+00  0.20048832413E+04  0.20048832438E+04  0.10100000352E+00 0. -1.
        3   -1    0    0  501    0  0.00000000000E+00  0.00000000000E+00 -0.11896637424E+04  0.11896637466E+04  0.10100000352E+00 0.  1.
    10030    2    1    2    0    0  0.00000000000E+00  0.00000000000E+00  0.81521949894E+03  0.31945469905E+04  0.30887776940E+04 0.  0.
        5    1    3    3  502    0 -0.28944818486E+03  0.10278781426E+04 -0.74630203586E+03  0.13028056442E+04  0.46999998093E+01 0.  1.
       -5    1    3    3    0  502  0.28944818486E+03 -0.10278781426E+04  0.15615215348E+04  0.18917413463E+04  0.46999998093E+01 0. -1.
</event>
<event>
 5   0  0.2848685E-06  0.3418943E+04  0.7818609E-02  0.8133273E-01
        2   -1    0    0  501    0  0.00000000000E+00  0.00000000000E+00  0.16779067310E+04  0.16779067310E+04  0.25500000920E-02 0.  1.
       -2   -1    0    0    0  501  0.00000000000E+00  0.00000000000E+00 -0.17416298781E+04  0.17416298781E+04  0.25500000920E-02 0. -1.
    10030    2    1    2    0    0  0.00000000000E+00  0.00000000000E+00 -0.63723147183E+02  0.34195366091E+04  0.34189428164E+04 0.  0.
        3    1    3    3  502    0  0.12555834732E+04  0.30312226227E+03  0.10881183876E+04  0.16888974510E+04  0.10100000352E+00 0.  1.
       -3    1    3    3    0  502 -0.12555834732E+04 -0.30312226227E+03 -0.11518415348E+04  0.17306391581E+04  0.10100000352E+00 0. -1.
</event>
<event>
 5   0  0.2856440E-06  0.3288530E+04  0.7818609E-02  0.8165820E-01
       -2   -1    0    0    0  501  0.00000000000E+00  0.00000000000E+00  0.25956831633E+04  0.25956831633E+04  0.25500000920E-02 0.  1.
        2   -1    0    0  501    0  0.00000000000E+00  0.00000000000E+00 -0.10415782814E+04  0.10415782814E+04  0.25500000920E-02 0. -1.
    10030    2    1    2    0    0  0.00000000000E+00  0.00000000000E+00  0.15541048820E+04  0.36372614447E+04  0.32885298893E+04 0.  0.
        4    1    3    3  502    0  0.95717047549E+03  0.35618563573E+03  0.22023327405E+04  0.24276150105E+04  0.12699999809E+01 0.  1.
       -4    1    3    3    0  502 -0.95717047549E+03 -0.35618563573E+03 -0.64822785856E+03  0.12096464342E+04  0.12699999809E+01 0. -1.
</event>
<event>
 5   0  0.2767014E-06  0.2579172E+04  0.7818609E-02  0.8375311E-01
        2   -1    0    0  501    0  0.00000000000E+00  0.00000000000E+00  0.15225897415E+04  0.15225897415E+04  0.25500000920E-02 0. -1.
       -2   -1    0    0    0  501  0.00000000000E+00  0.00000000000E+00 -0.10922392919E+04  0.10922392919E+04  0.25500000920E-02 0.  1.
    10030    2    1    2    0    0  0.00000000000E+00  0.00000000000E+00  0.43035044954E+03  0.26148290334E+04  0.25791722247E+04 0.  0.
        1    1    3    3  502    0 -0.48116286863E+03  0.54944481703E+03 -0.86235660603E+03  0.11300735503E+04  0.50400001928E-02 0.  1.
       -1    1    3    3    0  502  0.48116286863E+03 -0.54944481703E+03  0.12927070556E+04  0.14847554831E+04  0.50400001928E-02 0. -1.
</event>
<event>
 5   0  0.9714317E-07  0.3416115E+04  0.7818609E-02  0.8133962E-01
       -1   -1    0    0    0  501  0.00000000000E+00  0.00000000000E+00  0.13890948131E+04  0.13890948131E+04  0.50400001928E-02 0. -1.
        1   -1    0    0  501    0  0.00000000000E+00  0.00000000000E+00 -0.21002602486E+04  0.21002602486E+04  0.50400001928E-02 0.  1.
    10030    2    1    2    0    0  0.00000000000E+00  0.00000000000E+00 -0.71116543544E+03  0.34893550617E+04  0.34161151137E+04 0.  0.
        4    1    3    3  502    0 -0.10817259924E+04 -0.35953681629E+03 -0.16548847968E+04  0.20094882802E+04  0.12699999809E+01 0.  1.
       -4    1    3    3    0  502  0.10817259924E+04  0.35953681629E+03  0.94371936131E+03  0.14798667814E+04  0.12699999809E+01 0. -1.
</event>
<event>
 5   0  0.2848685E-06  0.3377837E+04  0.7818609E-02  0.8143367E-01
        2   -1    0    0  501    0  0.00000000000E+00  0.00000000000E+00  0.13194090649E+04  0.13194090649E+04  0.25500000920E-02 0. -1.
       -2   -1    0    0    0  501  0.00000000000E+00  0.00000000000E+00 -0.21619110018E+04  0.21619110018E+04  0.25500000920E-02 0.  1.
    10030    2    1    2    0    0  0.00000000000E+00  0.00000000000E+00 -0.84250193693E+03  0.34813200667E+04  0.33778365699E+04 0.  0.
        3    1    3    3  502    0 -0.58032258743E+03  0.15500021306E+04 -0.74546398613E+02  0.16567552886E+04  0.10100000352E+00 0. -1.
       -3    1    3    3    0  502  0.58032258743E+03 -0.15500021306E+04 -0.76795553832E+03  0.18245647781E+04  0.10100000352E+00 0.  1.
</event>
<event>
 5   0  0.2906701E-06  0.3142458E+04  0.7818609E-02  0.8204181E-01
        2   -1    0    0  501    0  0.00000000000E+00  0.00000000000E+00  0.19078829833E+04  0.19078829833E+04  0.25500000920E-02 0. -1.
       -2   -1    0    0    0  501  0.00000000000E+00  0.00000000000E+00 -0.12939786946E+04  0.12939786946E+04  0.25500000920E-02 0.  1.
    10030    2    1    2    0    0  0.00000000000E+00  0.00000000000E+00  0.61390428876E+03  0.32018616779E+04  0.31424575937E+04 0.  0.
        5    1    3    3  502    0  0.49484922585E+03  0.12062766738E+04 -0.58641125239E+03  0.14296431083E+04  0.46999998093E+01 0.  1.
       -5    1    3    3    0  502 -0.49484922585E+03 -0.12062766738E+04  0.12003155412E+04  0.17722185696E+04  0.46999998093E+01 0. -1.
</event>
<event>
 5   0  0.9232963E-07  0.3472328E+04  0.7818609E-02  0.8120379E-01
       -1   -1    0    0    0  501  0.00000000000E+00  0.00000000000E+00  0.14940447996E+04  0.14940447996E+04  0.50400001928E-02 0.  1.
        1   -1    0    0  501    0  0.00000000000E+00  0.00000000000E+00 -0.20175204355E+04  0.20175204355E+04  0.50400001928E-02 0. -1.
    10030    2    1    2    0    0  0.00000000000E+00  0.00000000000E+00 -0.52347563595E+03  0.35115652351E+04  0.34723282763E+04 0.  0.
        3    1    3    3  502    0  0.85206909643E+03  0.13918160265E+04  0.33748814369E+03  0.16664548761E+04  0.10100000352E+00 0.  1.
       -3    1    3    3    0  502 -0.85206909643E+03 -0.13918160265E+04 -0.86096377964E+03  0.18451103590E+04  0.10100000352E+00 0. -1.
</event>
<event>
 5   0  0.9714317E-07  0.3502223E+04  0.7818609E-02  0.8113263E-01
       -1   -1    0    0    0  501  0.00000000000E+00  0.00000000000E+00  0.15176979169E+04  0.15176979170E+04  0.50400001928E-02 0.  1.
        1   -1    0    0  501    0  0.00000000000E+00  0.00000000000E+00 -0.20204225079E+04  0.20204225079E+04  0.50400001928E-02 0. -1.
    10030    2    1    2    0    0  0.00000000000E+00  0.00000000000E+00 -0.50272459091E+03  0.35381204248E+04  0.35022227408E+04 0.  0.
        4    1    3    3  502    0 -0.11276903703E+04  0.12767801997E+04  0.15842598843E+03  0.17108341990E+04  0.12699999809E+01 0. -1.
       -4    1    3    3    0  502  0.11276903703E+04 -0.12767801997E+04 -0.66115057935E+03  0.18272862258E+04  0.12699999809E+01 0.  1.
</event>
<event>
 5   0  0.2856440E-06  0.3661136E+04  0.7818609E-02  0.8076630E-01
       -2   -1    0    0    0  501  0.00000000000E+00  0.00000000000E+00  0.13871244397E+04  0.13871244397E+04  0.25500000920E-02 0. -1.
        2   -1    0    0  501    0  0.00000000000E+00  0.00000000000E+00 -0.24157735379E+04  0.24157735379E+04  0.25500000920E-02 0.  1.
    10030    2    1    2    0    0  0.00000000000E+00  0.00000000000E+00 -0.10286490982E+04  0.38028979776E+04  0.36611356245E+04 0.  0.
        4    1    3    3  502    0 -0.68823456095E+03  0.11282066307E+04 -0.18300439829E+04  0.22573390540E+04  0.12699999809E+01 0.  1.
       -4    1    3    3    0  502  0.68823456095E+03 -0.11282066307E+04  0.80139488466E+03  0.15455589236E+04  0.12699999809E+01 0. -1.
</event>
<event>
 5   0  0.9232963E-07  0.3354427E+04  0.7818609E-02  0.8149183E-01
        1   -1    0    0  501    0  0.00000000000E+00  0.00000000000E+00  0.12331387645E+04  0.12331387645E+04  0.50400001928E-02 0. -1.
       -1   -1    0    0    0  501  0.00000000000E+00  0.00000000000E+00 -0.22812066165E+04  0.22812066165E+04  0.50400001928E-02 0.  1.
    10030    2    1    2    0    0  0.00000000000E+00  0.00000000000E+00 -0.10480678520E+04  0.35143453810E+04  0.33544265135E+04 0.  0.
        3    1    3    3  502    0 -0.24356048367E+03 -0.10898673992E+04  0.78698748647E+03  0.13661925088E+04  0.10100000352E+00 0. -1.
       -3    1    3    3    0  502  0.24356048367E+03  0.10898673992E+04 -0.18350553385E+04  0.21481528722E+04  0.10100000352E+00 0.  1.
</event>
<event>
 5   0  0.2906701E-06  0.2946182E+04  0.7818609E-02  0.8259268E-01
        2   -1    0    0  501    0  0.00000000000E+00  0.00000000000E+00  0.27845799573E+04  0.27845799573E+04  0.25500000920E-02 0. -1.
       -2   -1    0    0    0  501  0.00000000000E+00  0.00000000000E+00 -0.77929085424E+03  0.77929085425E+03  0.25500000920E-02 0.  1.
    10030    2    1    2    0    0  0.00000000000E+00  0.00000000000E+00  0.20052891030E+04  0.35638708115E+04  0.29461824069E+04 0.  0.
        5    1    3    3  502    0  0.53930595070E+03 -0.13085133572E+04  0.50843260126E+03  0.15038563477E+04  0.46999998093E+01 0. -1.
       -5    1    3    3    0  502 -0.53930595070E+03  0.13085133572E+04  0.14968565018E+04  0.20600144638E+04  0.46999998093E+01 0.  1.
</event>
<event>
 5   0  0.2664083E-06  0.3272403E+04  0.7818609E-02  0.8169953E-01
        2   -1    0    0  501    0  0.00000000000E+00  0.00000000000E+00  0.21205053027E+04  0.21205053027E+04  0.25500000920E-02 0.  1.
       -2   -1    0    0    0  501  0.00000000000E+00  0.00000000000E+00 -0.12625080956E+04  0.12625080956E+04  0.25500000920E-02 0. -1.
    10030    2    1    2    0    0  0.00000000000E+00  0.00000000000E+00  0.85799720704E+03  0.33830133983E+04  0.32724028551E+04 0.  0.
        2    1    3    3  502    0  0.35609066764E+03 -0.36298047629E+03 -0.11787530103E+04  0.12837499948E+04  0.25500000920E-02 0. -1.
       -2    1    3    3    0  502 -0.35609066764E+03  0.36298047629E+03  0.20367502173E+04  0.20992634036E+04  0.25500000920E-02 0.  1.
</event>
<event>
 5   0  0.2906701E-06  0.3388463E+04  0.7818609E-02  0.8140744E-01
        2   -1    0    0  501    0  0.00000000000E+00  0.00000000000E+00  0.20441748329E+04  0.20441748329E+04  0.25500000920E-02 0.  1.
       -2   -1    0    0    0  501  0.00000000000E+00  0.00000000000E+00 -0.14041954401E+04  0.14041954401E+04  0.25500000920E-02 0. -1.
    10030    2    1    2    0    0  0.00000000000E+00  0.00000000000E+00  0.63997939278E+03  0.34483702730E+04  0.33884633562E+04 0.  0.
        5    1    3    3  502    0 -0.12558713862E+04  0.27475879271E+03  0.14429905932E+04  0.19326016855E+04  0.46999998093E+01 0.  1.
       -5    1    3    3    0  502  0.12558713862E+04 -0.27475879271E+03 -0.80301120040E+03  0.15157685875E+04  0.46999998093E+01 0. -1.
</event>
<event>
 5   0  0.1003191E-06  0.3223012E+04  0.7818609E-02  0.8182766E-01
       -1   -1    0    0    0  501  0.00000000000E+00  0.00000000000E+00  0.16374828328E+04  0.16374828328E+04  0.50400001928E-02 0. -1.
        1   -1    0    0  501    0  0.00000000000E+00  0.00000000000E+00 -0.15859414025E+04  0.15859414025E+04  0.50400001928E-02 0.  1.
    10030    2    1    2    0    0  0.00000000000E+00  0.00000000000E+00  0.51541430312E+02  0.32234242353E+04  0.32230121442E+04 0.  0.
        5    1    3    3  502    0  0.77080536454E+03  0.54097164961E+03 -0.12821191257E+04  0.15907994148E+04  0.46999998093E+01 0.  1.
       -5    1    3    3    0  502 -0.77080536454E+03 -0.54097164961E+03  0.13336605560E+04  0.16326248205E+04  0.46999998093E+01 0. -1.
</event>
<event>
 5   0  0.9714317E-07  0.3109291E+04  0.7818609E-02  0.8213193E-01
        1   -1    0    0  501    0  0.00000000000E+00  0.00000000000E+00  0.17166932172E+04  0.17166932172E+04  0.50400001928E-02 0.  1.
       -1   -1    0    0    0  501  0.00000000000E+00  0.00000000000E+00 -0.14078945955E+04  0.14078945955E+04  0.50400001928E-02 0. -1.
    10030    2    1    2    0    0  0.00000000000E+00  0.00000000000E+00  0.30879862173E+03  0.31245878127E+04  0.31092913036E+04 0.  0.
        4    1    3    3  502    0 -0.14003599541E+04  0.38853730256E+03  0.70934086440E+03  0.16171380001E+04  0.12699999809E+01 0.  1.
       -4    1    3    3    0  502  0.14003599541E+04 -0.38853730256E+03 -0.40054224267E+03  0.15074498126E+04  0.12699999809E+01 0. -1.
</event>
<event>
 5   0  0.2848685E-06  0.3229644E+04  0.7818609E-02  0.8181032E-01
        2   -1    0    0  501    0  0.00000000000E+00  0.00000000000E+00  0.25749830871E+04  0.25749830871E+04  0.25500000920E-02 0.  1.
       -2   -1    0    0    0  501  0.00000000000E+00  0.00000000000E+00 -0.10126861044E+04  0.10126861044E+04  0.25500000920E-02 0. -1.
    10030    2    1    2    0    0  0.00000000000E+00  0.00000000000E+00  0.15622969827E+04  0.35876691915E+04  0.32296436902E+04 0.  0.
        3    1    3    3  502    0 -0.26037715981E+02 -0.72560455939E+03 -0.82113172779E+03  0.10961009369E+04  0.10100000352E+00 0. -1.
       -3    1    3    3    0  502  0.26037715981E+02  0.72560455939E+03  0.23834287105E+04  0.24915682546E+04  0.10100000352E+00 0.  1.
</event>
<event>
 5   0  0.1010551E-06  0.2756594E+04  0.7818609E-02  0.8316872E-01
        1   -1    0    0  501    0  0.00000000000E+00  0.00000000000E+00  0.14337902764E+04  0.14337902764E+04  0.50400001928E-02 0.  1.
       -1   -1    0    0    0  501  0.00000000000E+00  0.00000000000E+00 -0.13249517388E+04  0.13249517388E+04  0.50400001928E-02 0. -1.
    10030    2    1    2    0    0  0.00000000000E+00  0.00000000000E+00  0.10883853766E+03  0.27587420152E+04  0.27565942174E+04 0.  0.
        2    1    3    3  502    0  0.16815793122E+03  0.55692734118E+02 -0.13135122681E+04  0.13254030515E+04  0.25500000920E-02 0. -1.
       -2    1    3    3    0  502 -0.16815793122E+03 -0.55692734118E+02  0.14223508057E+04  0.14333389638E+04  0.25500000920E-02 0.  1.
</event>
<event>
 5   0  0.2856440E-06  0.3397322E+04  0.7818609E-02  0.8138564E-01
        2   -1    0    0  501    0  0.00000000000E+00  0.00000000000E+00  0.19249756828E+04  0.19249756828E+04  0.25500000920E-02 0. -1.
       -2   -1    0    0    0  501  0.00000000000E+00  0.00000000000E+00 -0.14989534381E+04  0.14989534381E+04  0.25500000920E-02 0.  1.
    10030    2    1    2    0    0  0.00000000000E+00  0.00000000000E+00  0.42602224468E+03  0.34239291209E+04  0.33973218382E+04 0.  0.
        4    1    3    3  502    0  0.86908189741E+03 -0.59307161418E+03 -0.11310035919E+04  0.15447355831E+04  0.12699999809E+01 0.  1.
       -4    1    3    3    0  502 -0.86908189741E+03  0.59307161418E+03  0.15570258366E+04  0.18791935378E+04  0.12699999809E+01 0. -1.
</event>
<event>
 5   0  0.9714317E-07  0.3368243E+04  0.7818609E-02  0.8145745E-01
        1   -1    0    0  501    0  0.00000000000E+00  0.00000000000E+00  0.19667007818E+04  0.19667007818E+04  0.50400001928E-02 0.  1.
       -1   -1    0    0    0  501  0.00000000000E+00  0.00000000000E+00 -0.14421436696E+04  0.14421436696E+04  0.50400001928E-02 0. -1.
    10030    2    1    2    0    0  0.00000000000E+00  0.00000000000E+00  0.52455711223E+03  0.34088444514E+04  0.33682429143E+04 0.  0.
        4    1    3    3  502    0  0.59844539056E+03  0.11365158258E+04  0.13646552688E+04  0.18740572892E+04  0.12699999809E+01 0.  1.
       -4    1    3    3    0  502 -0.59844539056E+03 -0.11365158258E+04 -0.84009815658E+03  0.15347871622E+04  0.12699999809E+01 0. -1.
</event>
<event>
 5   0  0.1010855E-06  0.3149126E+04  0.7818609E-02  0.8202383E-01
        1   -1    0    0  501    0  0.00000000000E+00  0.00000000000E+00  0.22633229251E+04  0.22633229251E+04  0.50400001928E-02 0. -1.
       -1   -1    0    0    0  501  0.00000000000E+00  0.00000000000E+00 -0.10954023390E+04  0.10954023390E+04  0.50400001928E-02 0.  1.
    10030    2    1    2    0    0  0.00000000000E+00  0.00000000000E+00  0.11679205861E+04  0.33587252641E+04  0.31491263716E+04 0.  0.
        1    1    3    3  502    0 -0.29954166679E+02  0.15095944107E+04  0.10760557859E+03  0.15137210765E+04  0.50400001928E-02 0. -1.
       -1    1    3    3    0  502  0.29954166679E+02 -0.15095944107E+04  0.10603150075E+04  0.18450041876E+04  0.50400001928E-02 0.  1.
</event>
<event>
 5   0  0.1003191E-06  0.2532322E+04  0.7818609E-02  0.8391560E-01
        1   -1    0    0  501    0  0.00000000000E+00  0.00000000000E+00  0.18555480701E+04  0.18555480701E+04  0.50400001928E-02 0.  1.
       -1   -1    0    0    0  501  0.00000000000E+00  0.00000000000E+00 -0.86398363064E+03  0.86398363065E+03  0.50400001928E-02 0. -1.
    10030    2    1    2    0    0  0.00000000000E+00  0.00000000000E+00  0.99156443948E+03  0.27195317008E+04  0.25323215897E+04 0.  0.
        5    1    3    3  502    0  0.97945159333E+03 -0.15817812728E+03 -0.34900781044E+03  0.10517482044E+04  0.46999998093E+01 0. -1.
       -5    1    3    3    0  502 -0.97945159333E+03  0.15817812728E+03  0.13405722499E+04  0.16677834964E+04  0.46999998093E+01 0.  1.
</event>
<event>
 5   0  0.9232963E-07  0.3396155E+04  0.7818609E-02  0.8138851E-01
        1   -1    0    0  501    0  0.00000000000E+00  0.00000000000E+00  0.16174623965E+04  0.16174623965E+04  0.50400001928E-02 0.  1.
       -1   -1    0    0    0  501  0.00000000000E+00  0.00000000000E+00 -0.17827102392E+04  0.17827102392E+04  0.50400001928E-02 0. -1.
    10030    2    1    2    0    0  0.00000000000E+00  0.00000000000E+00 -0.16524784270E+03  0.34001726357E+04  0.33961547525E+04 0.  0.
        3    1    3    3  502    0 -0.14678638200E+04  0.39646782917E+03  0.67434982184E+03  0.16632975158E+04  0.10100000352E+00 0.  1.
       -3    1    3    3    0  502  0.14678638200E+04 -0.39646782917E+03 -0.83959766454E+03  0.17368751199E+04  0.10100000352E+00 0. -1.
</event>
<event>
 5   0  0.2664083E-06  0.3412232E+04  0.7818609E-02  0.8134911E-01
        2   -1    0    0  501    0  0.00000000000E+00  0.00000000000E+00  0.19810061532E+04  0.19810061532E+04  0.25500000920E-02 0.  1.
       -2   -1    0    0    0  501  0.00000000000E+00  0.00000000000E+00 -0.14693706847E+04  0.14693706847E+04  0.25500000920E-02 0. -1.
    10030    2    1    2    0    0  0.00000000000E+00  0.00000000000E+00  0.51163546854E+03  0.34503768379E+04  0.34122323295E+04 0.  0.
        2    1    3    3  502    0  0.85877046625E+03  0.24565336106E+03  0.17256835614E+04  0.19431459136E+04  0.25500000920E-02 0.  1.
       -2    1    3    3    0  502 -0.85877046625E+03 -0.24565336106E+03 -0.12140480928E+04  0.15072309243E+04  0.25500000920E-02 0. -1.
</event>
<event>
 5   0  0.9714317E-07  0.3317529E+04  0.7818609E-02  0.8158449E-01
        1   -1    0    0  501    0  0.00000000000E+00  0.00000000000E+00  0.20581458418E+04  0.20581458419E+04  0.50400001928E-02 0.  1.
       -1   -1    0    0    0  501  0.00000000000E+00  0.00000000000E+00 -0.13368829758E+04  0.13368829758E+04  0.50400001928E-02 0. -1.
    10030    2    1    2    0    0  0.00000000000E+00  0.00000000000E+00  0.72126286605E+03  0.33950288177E+04  0.33175292841E+04 0.  0.
        4    1    3    3  502    0 -0.17855325793E+03  0.15645423196E+04 -0.17291604328E+03  0.15841639772E+04  0.12699999809E+01 0. -1.
       -4    1    3    3    0  502  0.17855325793E+03 -0.15645423196E+04  0.89417890933E+03  0.18108648405E+04  0.12699999809E+01 0.  1.
</event>
<event>
 5   0  0.2848685E-06  0.3380553E+04  0.7818609E-02  0.8142696E-01
       -2   -1    0    0    0  501  0.00000000000E+00  0.00000000000E+00  0.18352007868E+04  0.18352007868E+04  0.25500000920E-02 0. -1.
        2   -1    0    0  501    0  0.00000000000E+00  0.00000000000E+00 -0.15567965723E+04  0.15567965723E+04  0.25500000920E-02 0.  1.
    10030    2    1    2    0    0  0.00000000000E+00  0.00000000000E+00  0.27840421453E+03  0.33919973591E+04  0.33805527917E+04 0.  0.
        3    1    3    3  502    0  0.11063931547E+04  0.70915202249E+03  0.12058304779E+04  0.17835440996E+04  0.10100000352E+00 0. -1.
       -3    1    3    3    0  502 -0.11063931547E+04 -0.70915202249E+03 -0.92742626334E+03  0.16084532595E+04  0.10100000352E+00 0.  1.
</event>
<event>
 5   0  0.2664083E-06  0.3175690E+04  0.7818609E-02  0.8195267E-01
       -2   -1    0    0    0  501  0.00000000000E+00  0.00000000000E+00  0.17176596185E+04  0.17176596185E+04  0.25500000920E-02 0.  1.
        2   -1    0    0  501    0  0.00000000000E+00  0.00000000000E+00 -0.14678410603E+04  0.14678410603E+04  0.25500000920E-02 0. -1.
    10030    2    1    2    0    0  0.00000000000E+00  0.00000000000E+00  0.24981855823E+03  0.31855006788E+04  0.31756897302E+04 0.  0.
        2    1    3    3  502    0 -0.17022933245E+03  0.10846853282E+04  0.12755061689E+04  0.16829843356E+04  0.25500000920E-02 0.  1.
       -2    1    3    3    0  502  0.17022933245E+03 -0.10846853282E+04 -0.10256876106E+04  0.15025163432E+04  0.25500000920E-02 0. -1.
</event>
<event>
 5   0  0.9232963E-07  0.2937471E+04  0.7818609E-02  0.8261815E-01
        1   -1    0    0  501    0  0.00000000000E+00  0.00000000000E+00  0.16720310222E+04  0.16720310222E+04  0.50400001928E-02 0.  1.
       -1   -1    0    0    0  501  0.00000000000E+00  0.00000000000E+00 -0.12901578814E+04  0.12901578814E+04  0.50400001928E-02 0. -1.
    10030    2    1    2    0    0  0.00000000000E+00  0.00000000000E+00  0.38187314079E+03  0.29621889035E+04  0.29374710219E+04 0.  0.
        3    1    3    3  502    0  0.96596511647E+03  0.11058351664E+04  0.22621623427E+03  0.14856425601E+04  0.10100000352E+00 0.  1.
       -3    1    3    3    0  502 -0.96596511647E+03 -0.11058351664E+04  0.15565690653E+03  0.14765463434E+04  0.10100000352E+00 0. -1.
</event>
<event>
 5   0  0.2906701E-06  0.3445055E+04  0.7818609E-02  0.8126936E-01
       -2   -1    0    0    0  501  0.00000000000E+00  0.00000000000E+00  0.14908288241E+04  0.14908288241E+04  0.25500000920E-02 0.  1.
        2   -1    0    0  501    0  0.00000000000E+00  0.00000000000E+00 -0.19902358036E+04  0.19902358036E+04  0.25500000920E-02 0. -1.
    10030    2    1    2    0    0  0.00000000000E+00  0.00000000000E+00 -0.49940697954E+03  0.34810646278E+04  0.34450549504E+04 0.  0.
        5    1    3    3  502    0  0.59633380797E+02 -0.70153324135E+02  0.14883340243E+04  0.14911867377E+04  0.46999998093E+01 0.  1.
       -5    1    3    3    0  502 -0.59633380797E+02  0.70153324135E+02 -0.19877410038E+04  0.19898778900E+04  0.46999998093E+01 0. -1.
</event>
<event>
 5   0  0.2767014E-06  0.3329720E+04  0.7818609E-02  0.8155374E-01
        2   -1    0    0  501    0  0.00000000000E+00  0.00000000000E+00  0.15185141661E+04  0.15185141661E+04  0.25500000920E-02 0. -1.
       -2   -1    0    0    0  501  0.00000000000E+00  0.00000000000E+00 -0.18253098022E+04  0.18253098022E+04  0.25500000920E-02 0.  1.
    10030    2    1    2    0    0  0.00000000000E+00  0.00000000000E+00 -0.30679563611E+03  0.33438239683E+04  0.33297199835E+04 0.  0.
        1    1    3    3  502    0  0.43410776579E+03 -0.47994106735E+03 -0.16938332606E+04  0.18132468379E+04  0.50400001928E-02 0.  1.
       -1    1    3    3    0  502 -0.43410776579E+03  0.47994106735E+03  0.13870376245E+04  0.15305771304E+04  0.50400001928E-02 0. -1.
</event>
<event>
 5   0  0.2848685E-06  0.3546354E+04  0.7818609E-02  0.8102892E-01
        2   -1    0    0  501    0  0.00000000000E+00  0.00000000000E+00  0.22391055362E+04  0.22391055362E+04  0.25500000920E-02 0. -1.
       -2   -1    0    0    0  501  0.00000000000E+00  0.00000000000E+00 -0.14042020244E+04  0.14042020244E+04  0.25500000920E-02 0.  1.
    10030    2    1    2    0    0  0.00000000000E+00  0.00000000000E+00  0.83490351180E+03  0.36433075606E+04  0.35463539174E+04 0.  0.
        3    1    3    3  502    0 -0.73906324130E+03 -0.10534844404E+04 -0.83578075745E+03  0.15344619336E+04  0.10100000352E+00 0.  1.
       -3    1    3    3    0  502  0.73906324130E+03  0.10534844404E+04  0.16706842693E+04  0.21088456270E+04  0.10100000352E+00 0. -1.
</event>
<event>
 5   0  0.1010855E-06  0.3419881E+04  0.7818609E-02  0.8133044E-01
       -1   -1    0    0    0  501  0.00000000000E+00  0.00000000000E+00  0.15266487862E+04  0.15266487863E+04  0.50400001928E-02 0. -1.
        1   -1    0    0  501    0  0.00000000000E+00  0.00000000000E+00 -0.19152384265E+04  0.19152384265E+04  0.50400001928E-02 0.  1.
    10030    2    1    2    0    0  0.00000000000E+00  0.00000000000E+00 -0.38858964028E+03  0.34418872128E+04  0.34198809449E+04 0.  0.
        1    1    3    3  502    0  0.16266282697E+04  0.46731387118E+03  0.51396173983E+02  0.16932050522E+04  0.50400001928E-02 0.  1.
       -1    1    3    3    0  502 -0.16266282697E+04 -0.46731387118E+03 -0.43998581427E+03  0.17486821606E+04  0.50400001928E-02 0. -1.
</event>
<event>
 5   0  0.1010551E-06  0.3287419E+04  0.7818609E-02  0.8166104E-01
       -1   -1    0    0    0  501  0.00000000000E+00  0.00000000000E+00  0.10939144008E+04  0.10939144009E+04  0.50400001928E-02 0. -1.
        1   -1    0    0  501    0  0.00000000000E+00  0.00000000000E+00 -0.24698278369E+04  0.24698278369E+04  0.50400001928E-02 0.  1.
    10030    2    1    2    0    0  0.00000000000E+00  0.00000000000E+00 -0.13759134360E+04  0.35637422377E+04  0.32874185851E+04 0.  0.
        2    1    3    3  502    0  0.10887680701E+04 -0.11754637441E+04 -0.29016718503E+03  0.16282898757E+04  0.25500000920E-02 0.  1.
       -2    1    3    3    0  502 -0.10887680701E+04  0.11754637441E+04 -0.10857462510E+04  0.19354523620E+04  0.25500000920E-02 0. -1.
</event>
<event>
 5   0  0.2767014E-06  0.2818427E+04  0.7818609E-02  0.8297570E-01
       -2   -1    0    0    0  501  0.00000000000E+00  0.00000000000E+00  0.86808720511E+03  0.86808720511E+03  0.25500000920E-02 0.  1.
        2   -1    0    0  501    0  0.00000000000E+00  0.00000000000E+00 -0.22876538587E+04  0.22876538587E+04  0.25500000920E-02 0. -1.
    10030    2    1    2    0    0  0.00000000000E+00  0.00000000000E+00 -0.14195666536E+04  0.31557410638E+04  0.28184272525E+04 0.  0.
        1    1    3    3  502    0 -0.10693512853E+04  0.85353168035E+03 -0.33197657498E+03  0.14079193681E+04  0.50400001928E-02 0.  1.
       -1    1    3    3    0  502  0.10693512853E+04 -0.85353168035E+03 -0.10875900786E+04  0.17478216957E+04  0.50400001928E-02 0. -1.
</event>
<event>
 5   0  0.2848685E-06  0.3340084E+04  0.7818609E-02  0.8152770E-01
       -2   -1    0    0    0  501  0.00000000000E+00  0.00000000000E+00  0.13178290465E+04  0.13178290465E+04  0.25500000920E-02 0.  1.
        2   -1    0    0  501    0  0.00000000000E+00  0.00000000000E+00 -0.21163901053E+04  0.21163901053E+04  0.25500000920E-02 0. -1.
    10030    2    1    2    0    0  0.00000000000E+00  0.00000000000E+00 -0.79856105888E+03  0.34342191518E+04  0.33400840435E+04 0.  0.
        3    1    3    3  502    0 -0.12845258270E+04 -0.10527652408E+04 -0.57948883219E+03  0.17590135217E+04  0.10100000352E+00 0.  1.
       -3    1    3    3    0  502  0.12845258270E+04  0.10527652408E+04 -0.21907222669E+03  0.16752056301E+04  0.10100000352E+00 0. -1.
</event>
<event>
 5   0  0.1003191E-06  0.3499183E+04  0.7818609E-02  0.8113984E-01
       -1   -1    0    0    0  501  0.00000000000E+00  0.00000000000E+00  0.24840675177E+04  0.24840675177E+04  0.50400001928E-02 0. -1.
        1   -1    0    0  501    0  0.00000000000E+00  0.00000000000E+00 -0.12322814055E+04  0.12322814055E+04  0.50400001928E-02 0.  1.
    10030    2    1    2    0    0  0.00000000000E+00  0.00000000000E+00  0.12517861122E+04  0.37163489232E+04  0.34991828830E+04 0.  0.
        5    1    3    3  502    0  0.75432350039E+02 -0.29758241391E+03  0.24552320030E+04  0.24743547869E+04  0.46999998093E+01 0. -1.
       -5    1    3    3    0  502 -0.75432350039E+02  0.29758241391E+03 -0.12034458909E+04  0.12419941364E+04  0.46999998093E+01 0.  1.
</event>
<event>
 5   0  0.2848685E-06  0.3710525E+04  0.7818609E-02  0.8065633E-01
        2   -1    0    0  501    0  0.00000000000E+00  0.00000000000E+00  0.15476919320E+04  0.15476919320E+04  0.25500000920E-02 0.  1.
       -2   -1    0    0    0  501  0.00000000000E+00  0.00000000000E+00 -0.22239561491E+04  0.22239561491E+04  0.25500000920E-02 0. -1.
    10030    2    1    2    0    0  0.00000000000E+00  0.00000000000E+00 -0.67626421711E+03  0.37716480811E+04  0.37105250244E+04 0.  0.
        3    1    3    3  502    0  0.60534223864E+03  0.14729507516E+04  0.62937486931E+03  0.17123480601E+04  0.10100000352E+00 0.  1.
       -3    1    3    3    0  502 -0.60534223864E+03 -0.14729507516E+04 -0.13056390864E+04  0.20593000211E+04  0.10100000352E+00 0. -1.
</event>
<event>
 5   0  0.9714317E-07  0.3371203E+04  0.7818609E-02  0.8145010E-01
       -1   -1    0    0    0  501  0.00000000000E+00  0.00000000000E+00  0.12149982434E+04  0.12149982434E+04  0.50400001928E-02 0. -1.
        1   -1    0    0  501    0  0.00000000000E+00  0.00000000000E+00 -0.23384823678E+04  0.23384823678E+04  0.50400001928E-02 0.  1.
    10030    2    1    2    0    0  0.00000000000E+00  0.00000000000E+00 -0.11234841244E+04  0.35534806112E+04  0.33712027344E+04 0.  0.
        4    1    3    3  502    0 -0.10799570706E+04  0.93106592088E+03  0.38578299776E+03  0.14771665978E+04  0.12699999809E+01 0. -1.
       -4    1    3    3    0  502  0.10799570706E+04 -0.93106592088E+03 -0.15092671221E+04  0.20763140134E+04  0.12699999809E+01 0.  1.
</event>
<event>
 5   0  0.9714317E-07  0.3646560E+04  0.7818609E-02  0.8079909E-01
        1   -1    0    0  501    0  0.00000000000E+00  0.00000000000E+00  0.22471858787E+04  0.22471858787E+04  0.50400001928E-02 0.  1.
       -1   -1    0    0    0  501  0.00000000000E+00  0.00000000000E+00 -0.14793391661E+04  0.14793391661E+04  0.50400001928E-02 0. -1.
    10030    2    1    2    0    0  0.00000000000E+00  0.00000000000E+00  0.76784671259E+03  0.37265250448E+04  0.36465600688E+04 0.  0.
        4    1    3    3  502    0 -0.11769130549E+04 -0.13914540329E+04  0.44063632712E+03  0.18749481726E+04  0.12699999809E+01 0. -1.
       -4    1    3    3    0  502  0.11769130549E+04  0.13914540329E+04  0.32721038547E+03  0.18515768722E+04  0.12699999809E+01 0.  1.
</event>
<event>
 5   0  0.2848685E-06  0.3093916E+04  0.7818609E-02  0.8217409E-01
       -2   -1    0    0    0  501  0.00000000000E+00  0.00000000000E+00  0.15195036425E+04  0.15195036425E+04  0.25500000920E-02 0. -1.
        2   -1    0    0  501    0  0.00000000000E+00  0.00000000000E+00 -0.15749088114E+04  0.15749088114E+04  0.25500000920E-02 0.  1.
    10030    2    1    2    0    0  0.00000000000E+00  0.00000000000E+00 -0.55405168818E+02  0.30944124539E+04  0.30939164019E+04 0.  0.
        3    1    3    3  502    0  0.60154829310E+03  0.40436040707E+03  0.13391591245E+04  0.15227326945E+04  0.10100000352E+00 0. -1.
       -3    1    3    3    0  502 -0.60154829310E+03 -0.40436040707E+03 -0.13945642934E+04  0.15716797594E+04  0.10100000352E+00 0.  1.
</event>
<event>
 5   0  0.1003191E-06  0.2961272E+04  0.7818609E-02  0.8254877E-01
        1   -1    0    0  501    0  0.00000000000E+00  0.00000000000E+00  0.16635647793E+04  0.16635647793E+04  0.50400001928E-02 0.  1.
       -1   -1    0    0    0  501  0.00000000000E+00  0.00000000000E+00 -0.13178225556E+04  0.13178225556E+04  0.50400001928E-02 0. -1.
    10030    2    1    2    0    0  0.00000000000E+00  0.00000000000E+00  0.34574222372E+03  0.29813873349E+04  0.29612721516E+04 0.  0.
        5    1    3    3  502    0  0.53622049836E+03 -0.38854057173E+03  0.15061646267E+04  0.16453115728E+04  0.46999998093E+01 0.  1.
       -5    1    3    3    0  502 -0.53622049836E+03  0.38854057173E+03 -0.11604224030E+04  0.13360757621E+04  0.46999998093E+01 0. -1.
</event>
<event>
 5   0  0.1010855E-06  0.3380313E+04  0.7818609E-02  0.8142755E-01
       -1   -1    0    0    0  501  0.00000000000E+00  0.00000000000E+00  0.12679785924E+04  0.12679785924E+04  0.50400001928E-02 0. -1.
        1   -1    0    0  501    0  0.00000000000E+00  0.00000000000E+00 -0.22529004725E+04  0.22529004725E+04  0.50400001928E-02 0.  1.
    10030    2    1    2    0    0  0.00000000000E+00  0.00000000000E+00 -0.98492188011E+03  0.35208790649E+04  0.33803133404E+04 0.  0.
        1    1    3    3  502    0 -0.96337723813E+03  0.27126662242E+03  0.92613937543E+03  0.13636038377E+04  0.50400001928E-02 0. -1.
       -1    1    3    3    0  502  0.96337723813E+03 -0.27126662242E+03 -0.19110612555E+04  0.21572752272E+04  0.50400001928E-02 0.  1.
</event>
<event>
 5   0  0.9714317E-07  0.3392101E+04  0.7818609E-02  0.8139848E-01
       -1   -1    0    0    0  501  0.00000000000E+00  0.00000000000E+00  0.14410502318E+04  0.14410502318E+04  0.50400001928E-02 0. -1.
        1   -1    0    0  501    0  0.00000000000E+00  0.00000000000E+00 -0.19961738698E+04  0.19961738698E+04  0.50400001928E-02 0.  1.
    10030    2    1    2    0    0  0.00000000000E+00  0.00000000000E+00 -0.55512363805E+03  0.34372241016E+04  0.33921007165E+04 0.  0.
        4    1    3    3  502    0  0.10474374373E+04 -0.11745915741E+04  0.36314242526E+03  0.16151360887E+04  0.12699999809E+01 0. -1.
       -4    1    3    3    0  502 -0.10474374373E+04  0.11745915741E+04 -0.91826606331E+03  0.18220880129E+04  0.12699999809E+01 0.  1.
</event>
<event>
 5   0  0.2664083E-06  0.3441080E+04  0.7818609E-02  0.8127897E-01
       -2   -1    0    0    0  501  0.00000000000E+00  0.00000000000E+00  0.25673615248E+04  0.25673615248E+04  0.25500000920E-02 0.  1.
        2   -1    0    0  501    0  0.00000000000E+00  0.00000000000E+00 -0.11530352485E+04  0.11530352485E+04  0.25500000920E-02 0. -1.
    10030    2    1    2    0    0  0.00000000000E+00  0.00000000000E+00  0.14143262763E+04  0.37203967734E+04  0.34410802571E+04 0.  0.
        2    1    3    3  502    0  0.12562912216E+04  0.10095070991E+03  0.19734724537E+04  0.23415918100E+04  0.25500000920E-02 0.  1.
       -2    1    3    3    0  502 -0.12562912216E+04 -0.10095070991E+03 -0.55914617738E+03  0.13788049634E+04  0.25500000920E-02 0. -1.
</event>
<event>
 5   0  0.2664083E-06  0.3376689E+04  0.7818609E-02  0.8143651E-01
       -2   -1    0    0    0  501  0.00000000000E+00  0.00000000000E+00  0.23182239644E+04  0.23182239644E+04  0.25500000920E-02 0.  1.
        2   -1    0    0  501    0  0.00000000000E+00  0.00000000000E+00 -0.12296081500E+04  0.12296081500E+04  0.25500000920E-02 0. -1.
    10030    2    1    2    0    0  0.00000000000E+00  0.00000000000E+00  0.10886158144E+04  0.35478321144E+04  0.33766889582E+04 0.  0.
        2    1    3    3  502    0 -0.70043474794E+03 -0.84133997784E+03 -0.80615598518E+03  0.13595400939E+04  0.25500000920E-02 0. -1.
       -2    1    3    3    0  502  0.70043474794E+03  0.84133997784E+03  0.18947717996E+04  0.21882920205E+04  0.25500000920E-02 0.  1.
</event>
<event>
 5   0  0.2664083E-06  0.3035747E+04  0.7818609E-02  0.8233596E-01
        2   -1    0    0  501    0  0.00000000000E+00  0.00000000000E+00  0.13451351319E+04  0.13451351319E+04  0.25500000920E-02 0.  1.
       -2   -1    0    0    0  501  0.00000000000E+00  0.00000000000E+00 -0.17127943588E+04  0.17127943588E+04  0.25500000920E-02 0. -1.
    10030    2    1    2    0    0  0.00000000000E+00  0.00000000000E+00 -0.36765922690E+03  0.30579294908E+04  0.30357469366E+04 0.  0.
        2    1    3    3  502    0  0.35734242306E+03  0.21417552471E+03 -0.16540753912E+04  0.17057344935E+04  0.25500000920E-02 0. -1.
       -2    1    3    3    0  502 -0.35734242306E+03 -0.21417552471E+03  0.12864161643E+04  0.13521949972E+04  0.25500000920E-02 0.  1.
</event>
<event>
 5   0  0.1010551E-06  0.3248840E+04  0.7818609E-02  0.8176036E-01
        1   -1    0    0  501    0  0.00000000000E+00  0.00000000000E+00  0.15658619168E+04  0.15658619168E+04  0.50400001928E-02 0. -1.
       -1   -1    0    0    0  501  0.00000000000E+00  0.00000000000E+00 -0.16851679773E+04  0.16851679773E+04  0.50400001928E-02 0.  1.
    10030    2    1    2    0    0  0.00000000000E+00  0.00000000000E+00 -0.11930606049E+03  0.32510298941E+04  0.32488400139E+04 0.  0.
        2    1    3    3  502    0 -0.21391753662E+02  0.10786463281E+04 -0.12748870426E+04  0.16701115171E+04  0.25500000920E-02 0.  1.
       -2    1    3    3    0  502  0.21391753662E+02 -0.10786463281E+04  0.11555809821E+04  0.15809183769E+04  0.25500000920E-02 0. -1.
</event>
<event>
 5   0  0.9714317E-07  0.3322391E+04  0.7818609E-02  0.8157221E-01
        1   -1    0    0  501    0  0.00000000000E+00  0.00000000000E+00  0.22045304917E+04  0.22045304917E+04  0.50400001928E-02 0.  1.
       -1   -1    0    0    0  501  0.00000000000E+00  0.00000000000E+00 -0.12517725348E+04  0.12517725348E+04  0.50400001928E-02 0. -1.
    10030    2    1    2    0    0  0.00000000000E+00  0.00000000000E+00  0.95275795689E+03  0.34563030266E+04  0.33223911400E+04 0.  0.
        4    1    3    3  502    0  0.68823745526E+03  0.99030493942E+03 -0.71211958027E+03  0.14005322479E+04  0.12699999809E+01 0. -1.
       -4    1    3    3    0  502 -0.68823745526E+03 -0.99030493942E+03  0.16648775372E+04  0.20557707787E+04  0.12699999809E+01 0.  1.
</event>
<event>
 5   0  0.9232963E-07  0.3472831E+04  0.7818609E-02  0.8120259E-01
       -1   -1    0    0    0  501  0.00000000000E+00  0.00000000000E+00  0.17745330664E+04  0.17745330664E+04  0.50400001928E-02 0.  1.
        1   -1    0    0  501    0  0.00000000000E+00  0.00000000000E+00 -0.16991171082E+04  0.16991171082E+04  0.50400001928E-02 0. -1.
    10030    2    1    2    0    0  0.00000000000E+00  0.00000000000E+00  0.75415958247E+02  0.34736501746E+04  0.34728314052E+04 0.  0.
        3    1    3    3  502    0  0.18801703334E+03 -0.87331915708E+03 -0.14516369364E+04  0.17044901174E+04  0.10100000352E+00 0. -1.
       -3    1    3    3    0  502 -0.18801703334E+03  0.87331915708E+03  0.15270528946E+04  0.17691600573E+04  0.10100000352E+00 0.  1.
</event>
<event>
 5   0  0.2906701E-06  0.3372301E+04  0.7818609E-02  0.8144738E-01
        2   -1    0    0  501    0  0.00000000000E+00  0.00000000000E+00  0.12536359135E+04  0.12536359135E+04  0.25500000920E-02 0. -1.
       -2   -1    0    0    0  501  0.00000000000E+00  0.00000000000E+00 -0.22678861552E+04  0.22678861552E+04  0.25500000920E-02 0.  1.
    10030    2    1    2    0    0  0.00000000000E+00  0.00000000000E+00 -0.10142502417E+04  0.35215220688E+04  0.33723010139E+04 0.  0.
        5    1    3    3  502    0 -0.12788220152E+04  0.10903307640E+04 -0.65058882703E+03  0.18020806956E+04  0.46999998093E+01 0. -1.
       -5    1    3    3    0  502  0.12788220152E+04 -0.10903307640E+04 -0.36366141469E+03  0.17194413732E+04  0.46999998093E+01 0.  1.
</event>
<event>
 5   0  0.9714317E-07  0.3366366E+04  0.7818609E-02  0.8146211E-01
        1   -1    0    0  501    0  0.00000000000E+00  0.00000000000E+00  0.19968496606E+04  0.19968496606E+04  0.50400001928E-02 0.  1.
       -1   -1    0    0    0  501  0.00000000000E+00  0.00000000000E+00 -0.14187874691E+04  0.14187874691E+04  0.50400001928E-02 0. -1.
    10030    2    1    2    0    0  0.00000000000E+00  0.00000000000E+00  0.57806219149E+03  0.34156371297E+04  0.33663661573E+04 0.  0.
        4    1    3    3  502    0  0.37589754413E+03  0.16387427664E+04  0.36973675179E+03  0.17214771845E+04  0.12699999809E+01 0.  1.
       -4    1    3    3    0  502 -0.37589754413E+03 -0.16387427664E+04  0.20832543970E+03  0.16941599452E+04  0.12699999809E+01 0. -1.
</event>
<event>
 5   0  0.2906701E-06  0.3375231E+04  0.7818609E-02  0.8144012E-01
       -2   -1    0    0    0  501  0.00000000000E+00  0.00000000000E+00  0.21087984312E+04  0.21087984312E+04  0.25500000920E-02 0.  1.
        2   -1    0    0  501    0  0.00000000000E+00  0.00000000000E+00 -0.13505542561E+04  0.13505542561E+04  0.25500000920E-02 0. -1.
    10030    2    1    2    0    0  0.00000000000E+00  0.00000000000E+00  0.75824417501E+03  0.34593526873E+04  0.33752313678E+04 0.  0.
        5    1    3    3  502    0  0.90521194737E+03  0.13560143824E+04  0.82568867022E+03  0.18275578090E+04  0.46999998093E+01 0.  1.
       -5    1    3    3    0  502 -0.90521194737E+03 -0.13560143824E+04 -0.67444495207E+02  0.16317948783E+04  0.46999998093E+01 0. -1.
</event>
<event>
 5   0  0.9714317E-07  0.3374622E+04  0.7818609E-02  0.8144163E-01
       -1   -1    0    0    0  501  0.00000000000E+00  0.00000000000E+00  0.12610095859E+04  0.12610095859E+04  0.50400001928E-02 0. -1.
        1   -1    0    0  501    0  0.00000000000E+00  0.00000000000E+00 -0.22577291127E+04  0.22577291127E+04  0.50400001928E-02 0.  1.
    10030    2    1    2    0    0  0.00000000000E+00  0.00000000000E+00 -0.99671952678E+03  0.35187386986E+04  0.33746217883E+04 0.  0.
        4    1    3    3  502    0 -0.31497429069E+02 -0.15744442167E+04 -0.11301654581E+04  0.19383349182E+04  0.12699999809E+01 0.  1.
       -4    1    3    3    0  502  0.31497429069E+02  0.15744442167E+04  0.13344593132E+03  0.15804037804E+04  0.12699999809E+01 0. -1.
</event>
<event>
 5   0  0.9070500E-07  0.3399805E+04  0.7818609E-02  0.8137954E-01
       -3   -1    0    0    0  501  0.00000000000E+00  0.00000000000E+00  0.19484220315E+04  0.19484220341E+04  0.10100000352E+00 0. -1.
        3   -1    0    0  501    0  0.00000000000E+00  0.00000000000E+00 -0.14830816160E+04  0.14830816194E+04  0.10100000352E+00 0.  1.
    10030    2    1    2    0    0  0.00000000000E+00  0.00000000000E+00  0.46534041548E+03  0.34315036535E+04  0.33998052329E+04 0.  0.
        4    1    3    3  502    0  0.13606341714E+04 -0.40405870155E+03 -0.71150792278E+03  0.15877134250E+04  0.12699999809E+01 0.  1.
       -4    1    3    3    0  502 -0.13606341714E+04  0.40405870155E+03  0.11768483383E+04  0.18437902285E+04  0.12699999809E+01 0. -1.
</event>
<event>
 5   0  0.9232963E-07  0.3096587E+04  0.7818609E-02  0.8216675E-01
        1   -1    0    0  501    0  0.00000000000E+00  0.00000000000E+00  0.16782661155E+04  0.16782661155E+04  0.50400001928E-02 0.  1.
       -1   -1    0    0    0  501  0.00000000000E+00  0.00000000000E+00 -0.14283864605E+04  0.14283864605E+04  0.50400001928E-02 0. -1.
    10030    2    1    2    0    0  0.00000000000E+00  0.00000000000E+00  0.24987965502E+03  0.31066525760E+04  0.30965868931E+04 0.  0.
        3    1    3    3  502    0 -0.12574389760E+04  0.83915712971E+03  0.46050445370E+03  0.15803170026E+04  0.10100000352E+00 0. -1.
       -3    1    3    3    0  502  0.12574389760E+04 -0.83915712971E+03 -0.21062479868E+03  0.15263355734E+04  0.10100000352E+00 0.  1.
</event>
<event>
 5   0  0.9232963E-07  0.2113757E+04  0.7818609E-02  0.8555207E-01
       -1   -1    0    0    0  501  0.00000000000E+00  0.00000000000E+00  0.12160615898E+04  0.12160615898E+04  0.50400001928E-02 0. -1.
        1   -1    0    0  501    0  0.00000000000E+00  0.00000000000E+00 -0.91853287831E+03  0.91853287833E+03  0.50400001928E-02 0.  1.
    10030    2    1    2    0    0  0.00000000000E+00  0.00000000000E+00  0.29752871148E+03  0.21345944681E+04  0.21137573676E+04 0.  0.
        3    1    3    3  502    0  0.55219781285E+02 -0.35916907009E+03 -0.85346087223E+03  0.92760288690E+03  0.10100000352E+00 0.  1.
       -3    1    3    3    0  502 -0.55219781285E+02  0.35916907009E+03  0.11509895837E+04  0.12069915812E+04  0.10100000352E+00 0. -1.
</event>
<event>
 5   0  0.2856440E-06  0.3436407E+04  0.7818609E-02  0.8129028E-01
       -2   -1    0    0    0  501  0.00000000000E+00  0.00000000000E+00  0.18601131245E+04  0.18601131245E+04  0.25500000920E-02 0.  1.
        2   -1    0    0  501    0  0.00000000000E+00  0.00000000000E+00 -0.15871204861E+04  0.15871204861E+04  0.25500000920E-02 0. -1.
    10030    2    1    2    0    0  0.00000000000E+00  0.00000000000E+00  0.27299263837E+03  0.34472336106E+04  0.34364072205E+04 0.  0.
        4    1    3    3  502    0  0.13531115279E+04  0.74287611280E+03 -0.62049776074E+03  0.16636690807E+04  0.12699999809E+01 0. -1.
       -4    1    3    3    0  502 -0.13531115279E+04 -0.74287611280E+03  0.89349039911E+03  0.17835645299E+04  0.12699999809E+01 0.  1.
</event>
<event>
 5   0  0.2664083E-06  0.3383882E+04  0.7818609E-02  0.8141874E-01
        2   -1    0    0  501    0  0.00000000000E+00  0.00000000000E+00  0.10224812480E+04  0.10224812480E+04  0.25500000920E-02 0. -1.
       -2   -1    0    0    0  501  0.00000000000E+00  0.00000000000E+00 -0.27997230001E+04  0.27997230001E+04  0.25500000920E-02 0.  1.
    10030    2    1    2    0    0  0.00000000000E+00  0.00000000000E+00 -0.17772417521E+04  0.38222042481E+04  0.33838819526E+04 0.  0.
        2    1    3    3  502    0 -0.14524779354E+04  0.64240535513E+03 -0.22971759802E+03  0.16047264465E+04  0.25500000920E-02 0. -1.
       -2    1    3    3    0  502  0.14524779354E+04 -0.64240535513E+03 -0.15475241541E+04  0.22174778016E+04  0.25500000920E-02 0.  1.
</event>
<event>
 5   0  0.9232963E-07  0.3385051E+04  0.7818609E-02  0.8141585E-01
        1   -1    0    0  501    0  0.00000000000E+00  0.00000000000E+00  0.24979447038E+04  0.24979447038E+04  0.50400001928E-02 0.  1.
       -1   -1    0    0    0  501  0.00000000000E+00  0.00000000000E+00 -0.11468000174E+04  0.11468000174E+04  0.50400001928E-02 0. -1.
    10030    2    1    2    0    0  0.00000000000E+00  0.00000000000E+00  0.13511446864E+04  0.36447447212E+04  0.33850512727E+04 0.  0.
        3    1    3    3  502    0 -0.89928143035E+03  0.11872508447E+04  0.15412235066E+04  0.21432782289E+04  0.10100000352E+00 0.  1.
       -3    1    3    3    0  502  0.89928143035E+03 -0.11872508447E+04 -0.19007882013E+03  0.15014664922E+04  0.10100000352E+00 0. -1.
</event>
<event>
 5   0  0.2848685E-06  0.3448497E+04  0.7818609E-02  0.8126105E-01
        2   -1    0    0  501    0  0.00000000000E+00  0.00000000000E+00  0.18250591325E+04  0.18250591325E+04  0.25500000920E-02 0.  1.
       -2   -1    0    0    0  501  0.00000000000E+00  0.00000000000E+00 -0.16290064692E+04  0.16290064692E+04  0.25500000920E-02 0. -1.
    10030    2    1    2    0    0  0.00000000000E+00  0.00000000000E+00  0.19605266328E+03  0.34540656017E+04  0.34484971414E+04 0.  0.
        3    1    3    3  502    0  0.15179821733E+04  0.72855081523E+03  0.47007862734E+03  0.17481504784E+04  0.10100000352E+00 0.  1.
       -3    1    3    3    0  502 -0.15179821733E+04 -0.72855081523E+03 -0.27402596406E+03  0.17059151233E+04  0.10100000352E+00 0. -1.
</event>
<event>
 5   0  0.1010855E-06  0.3387707E+04  0.7818609E-02  0.8140930E-01
       -1   -1    0    0    0  501  0.00000000000E+00  0.00000000000E+00  0.12907623653E+04  0.12907623654E+04  0.50400001928E-02 0. -1.
        1   -1    0    0  501    0  0.00000000000E+00  0.00000000000E+00 -0.22228259919E+04  0.22228259919E+04  0.50400001928E-02 0.  1.
    10030    2    1    2    0    0  0.00000000000E+00  0.00000000000E+00 -0.93206362655E+03  0.35135883572E+04  0.33877072690E+04 0.  0.
        1    1    3    3  502    0  0.35728725265E+03  0.13350088536E+04  0.54976778258E+03  0.14873289599E+04  0.50400001928E-02 0. -1.
       -1    1    3    3    0  502 -0.35728725265E+03 -0.13350088536E+04 -0.14818314091E+04  0.20262593973E+04  0.50400001928E-02 0.  1.
</event>
<event>
 5   0  0.9714317E-07  0.3386307E+04  0.7818609E-02  0.8141275E-01
        1   -1    0    0  501    0  0.00000000000E+00  0.00000000000E+00  0.35439169997E+04  0.35439169997E+04  0.50400001928E-02 0. -1.
       -1   -1    0    0    0  501  0.00000000000E+00  0.00000000000E+00 -0.80892668600E+03  0.80892668601E+03  0.50400001928E-02 0.  1.
    10030    2    1    2    0    0  0.00000000000E+00  0.00000000000E+00  0.27349903137E+04  0.43528436857E+04  0.33863071533E+04 0.  0.
        4    1    3    3  502    0 -0.15670178551E+03 -0.16849980162E+04  0.12971640053E+04  0.21322311868E+04  0.12699999809E+01 0. -1.
       -4    1    3    3    0  502  0.15670178551E+03  0.16849980162E+04  0.14378263084E+04  0.22206124989E+04  0.12699999809E+01 0.  1.
</event>
<event>
 5   0  0.1003191E-06  0.3349026E+04  0.7818609E-02  0.8150532E-01
        1   -1    0    0  501    0  0.00000000000E+00  0.00000000000E+00  0.21517282203E+04  0.21517282204E+04  0.50400001928E-02 0.  1.
       -1   -1    0    0    0  501  0.00000000000E+00  0.00000000000E+00 -0.13031357970E+04  0.13031357970E+04  0.50400001928E-02 0. -1.
    10030    2    1    2    0    0  0.00000000000E+00  0.00000000000E+00  0.84859242338E+03  0.34548640173E+04  0.33490261685E+04 0.  0.
        5    1    3    3  502    0 -0.23848460610E+03 -0.80589386335E+03  0.19183873262E+04  0.20944144408E+04  0.46999998093E+01 0.  1.
       -5    1    3    3    0  502  0.23848460610E+03  0.80589386335E+03 -0.10697949028E+04  0.13604495766E+04  0.46999998093E+01 0. -1.
</event>
<event>
 5   0  0.2848685E-06  0.3270423E+04  0.7818609E-02  0.8170462E-01
       -2   -1    0    0    0  501  0.00000000000E+00  0.00000000000E+00  0.12704900424E+04  0.12704900424E+04  0.25500000920E-02 0.  1.
        2   -1    0    0  501    0  0.00000000000E+00  0.00000000000E+00 -0.21046335454E+04  0.21046335454E+04  0.25500000920E-02 0. -1.
    10030    2    1    2    0    0  0.00000000000E+00  0.00000000000E+00 -0.83414350296E+03  0.33751235878E+04  0.32704225796E+04 0.  0.
        3    1    3    3  502    0 -0.90015542957E+03  0.13600338115E+04 -0.29520579676E+03  0.16574432837E+04  0.10100000352E+00 0.  1.
       -3    1    3    3    0  502  0.90015542957E+03 -0.13600338115E+04 -0.53893770620E+03  0.17176803041E+04  0.10100000352E+00 0. -1.
</event>
<event>
 5   0  0.1010855E-06  0.3565226E+04  0.7818609E-02  0.8098504E-01
        1   -1    0    0  501    0  0.00000000000E+00  0.00000000000E+00  0.28712441871E+04  0.28712441871E+04  0.50400001928E-02 0.  1.
       -1   -1    0    0    0  501  0.00000000000E+00  0.00000000000E+00 -0.11067362014E+04  0.11067362014E+04  0.50400001928E-02 0. -1.
    10030    2    1    2    0    0  0.00000000000E+00  0.00000000000E+00  0.17645079856E+04  0.39779803885E+04  0.35652264360E+04 0.  0.
        1    1    3    3  502    0  0.87468089847E+02 -0.11301979006E+04  0.24172872130E+04  0.26698830370E+04  0.50400001928E-02 0.  1.
       -1    1    3    3    0  502 -0.87468089847E+02  0.11301979006E+04 -0.65277922736E+03  0.13080973515E+04  0.50400001928E-02 0. -1.
</event>
<event>
 5   0  0.2767014E-06  0.3430811E+04  0.7818609E-02  0.8130385E-01
       -2   -1    0    0    0  501  0.00000000000E+00  0.00000000000E+00  0.10537610330E+04  0.10537610330E+04  0.25500000920E-02 0.  1.
        2   -1    0    0  501    0  0.00000000000E+00  0.00000000000E+00 -0.27924895616E+04  0.27924895616E+04  0.25500000920E-02 0. -1.
    10030    2    1    2    0    0  0.00000000000E+00  0.00000000000E+00 -0.17387285286E+04  0.38462505947E+04  0.34308113823E+04 0.  0.
        1    1    3    3  502    0  0.14395176386E+04 -0.85390664429E+03 -0.44802340854E+03  0.17326547734E+04  0.50400001928E-02 0. -1.
       -1    1    3    3    0  502 -0.14395176386E+04  0.85390664429E+03 -0.12907051201E+04  0.21135958213E+04  0.50400001928E-02 0.  1.
</event>
<event>
 5   0  0.9714317E-07  0.3312065E+04  0.7818609E-02  0.8159832E-01
       -1   -1    0    0    0  501  0.00000000000E+00  0.00000000000E+00  0.11580279111E+04  0.11580279111E+04  0.50400001928E-02 0.  1.
        1   -1    0    0  501    0  0.00000000000E+00  0.00000000000E+00 -0.23682013268E+04  0.23682013268E+04  0.50400001928E-02 0. -1.
    10030    2    1    2    0    0  0.00000000000E+00  0.00000000000E+00 -0.12101734157E+04  0.35262292379E+04  0.33120647551E+04 0.  0.
        4    1    3    3  502    0 -0.10669158206E+04  0.76079854778E+03 -0.16831418526E+04  0.21330944441E+04  0.12699999809E+01 0. -1.
       -4    1    3    3    0  502  0.10669158206E+04 -0.76079854778E+03  0.47296843686E+03  0.13931347938E+04  0.12699999809E+01 0.  1.
</event>
<event>
 5   0  0.1003191E-06  0.3391416E+04  0.7818609E-02  0.8140016E-01
       -1   -1    0    0    0  501  0.00000000000E+00  0.00000000000E+00  0.16232484250E+04  0.16232484250E+04  0.50400001928E-02 0. -1.
        1   -1    0    0  501    0  0.00000000000E+00  0.00000000000E+00 -0.17714025597E+04  0.17714025597E+04  0.50400001928E-02 0.  1.
    10030    2    1    2    0    0  0.00000000000E+00  0.00000000000E+00 -0.14815413474E+03  0.33946509847E+04  0.33914164681E+04 0.  0.
        5    1    3    3  502    0  0.68116060787E+03  0.32378034146E+03  0.14461178866E+04  0.16309790052E+04  0.46999998093E+01 0. -1.
       -5    1    3    3    0  502 -0.68116060787E+03 -0.32378034146E+03 -0.15942720214E+04  0.17636719795E+04  0.46999998093E+01 0.  1.
</event>
<event>
 5   0  0.1010551E-06  0.3157676E+04  0.7818609E-02  0.8200085E-01
        1   -1    0    0  501    0  0.00000000000E+00  0.00000000000E+00  0.14577378637E+04  0.14577378637E+04  0.50400001928E-02 0.  1.
       -1   -1    0    0    0  501  0.00000000000E+00  0.00000000000E+00 -0.17099981370E+04  0.17099981370E+04  0.50400001928E-02 0. -1.
    10030    2    1    2    0    0  0.00000000000E+00  0.00000000000E+00 -0.25226027333E+03  0.31677360007E+04  0.31576757472E+04 0.  0.
        2    1    3    3  502    0  0.10050969018E+04 -0.71624591970E+03  0.86163930544E+03  0.15052077239E+04  0.25500000920E-02 0.  1.
       -2    1    3    3    0  502 -0.10050969018E+04  0.71624591970E+03 -0.11138995788E+04  0.16625282768E+04  0.25500000920E-02 0. -1.
</event>
<event>
 5   0  0.1002034E-06  0.2173207E+04  0.7818609E-02  0.8529664E-01
        1   -1    0    0  501    0  0.00000000000E+00  0.00000000000E+00  0.12869746518E+04  0.12869746519E+04  0.50400001928E-02 0.  1.
       -1   -1    0    0    0  501  0.00000000000E+00  0.00000000000E+00 -0.91742814860E+03  0.91742814862E+03  0.50400001928E-02 0. -1.
    10030    2    1    2    0    0  0.00000000000E+00  0.00000000000E+00  0.36954650324E+03  0.22044028005E+04  0.21732066374E+04 0.  0.
        4    1    3    3  502    0  0.55871530023E+02  0.35189073036E+03 -0.85648882952E+03  0.92764402762E+03  0.12699999809E+01 0. -1.
       -4    1    3    3    0  502 -0.55871530023E+02 -0.35189073036E+03  0.12260353328E+04  0.12767587729E+04  0.12699999809E+01 0.  1.
</event>
<event>
 5   0  0.1003191E-06  0.3396137E+04  0.7818609E-02  0.8138855E-01
       -1   -1    0    0    0  501  0.00000000000E+00  0.00000000000E+00  0.10612984133E+04  0.10612984133E+04  0.50400001928E-02 0.  1.
        1   -1    0    0  501    0  0.00000000000E+00  0.00000000000E+00 -0.27168953294E+04  0.27168953294E+04  0.50400001928E-02 0. -1.
    10030    2    1    2    0    0  0.00000000000E+00  0.00000000000E+00 -0.16555969161E+04  0.37781937426E+04  0.33961370421E+04 0.  0.
        5    1    3    3  502    0  0.68490923281E+03 -0.38398766159E+03 -0.25027879201E+04  0.26230738923E+04  0.46999998093E+01 0. -1.
       -5    1    3    3    0  502 -0.68490923281E+03  0.38398766159E+03  0.84719100400E+03  0.11551198504E+04  0.46999998093E+01 0.  1.
</event>
<event>
 5   0  0.2664083E-06  0.3333778E+04  0.7818609E-02  0.8154353E-01
        2   -1    0    0  501    0  0.00000000000E+00  0.00000000000E+00  0.31328096870E+04  0.31328096870E+04  0.25500000920E-02 0. -1.
       -2   -1    0    0    0  501  0.00000000000E+00  0.00000000000E+00 -0.88690939159E+03  0.88690939159E+03  0.25500000920E-02 0.  1.
    10030    2    1    2    0    0  0.00000000000E+00  0.00000000000E+00  0.22459002954E+04  0.40197190785E+04  0.33337776371E+04 0.  0.
        2    1    3    3  502    0  0.13600500075E+04  0.43463631276E+03  0.21600912255E+04  0.25893317380E+04  0.25500000920E-02 0. -1.
       -2    1    3    3    0  502 -0.13600500075E+04 -0.43463631276E+03  0.85809069913E+02  0.14303873405E+04  0.25500000920E-02 0.  1.
</event>
<event>
 5   0  0.1010855E-06  0.3415953E+04  0.7818609E-02  0.8134002E-01
       -1   -1    0    0    0  501  0.00000000000E+00  0.00000000000E+00  0.22680342752E+04  0.22680342752E+04  0.50400001928E-02 0.  1.
        1   -1    0    0  501    0  0.00000000000E+00  0.00000000000E+00 -0.12862171331E+04  0.12862171331E+04  0.50400001928E-02 0. -1.
    10030    2    1    2    0    0  0.00000000000E+00  0.00000000000E+00  0.98181714214E+03  0.35542514084E+04  0.34159534794E+04 0.  0.
        1    1    3    3  502    0  0.72100371280E+03 -0.15419370882E+04  0.34461682585E+03  0.17367144539E+04  0.50400001928E-02 0.  1.
       -1    1    3    3    0  502 -0.72100371280E+03  0.15419370882E+04  0.63720031629E+03  0.18175369545E+04  0.50400001928E-02 0. -1.
</event>
<event>
 5   0  0.1010855E-06  0.2785873E+04  0.7818609E-02  0.8307668E-01
       -1   -1    0    0    0  501  0.00000000000E+00  0.00000000000E+00  0.11453774288E+04  0.11453774288E+04  0.50400001928E-02 0.  1.
        1   -1    0    0  501    0  0.00000000000E+00  0.00000000000E+00 -0.16940025825E+04  0.16940025825E+04  0.50400001928E-02 0. -1.
    10030    2    1    2    0    0  0.00000000000E+00  0.00000000000E+00 -0.54862515369E+03  0.28393800113E+04  0.27858731647E+04 0.  0.
        1    1    3    3  502    0 -0.32669391899E+03 -0.12659970506E+04  0.21532558580E+03  0.13250820944E+04  0.50400001928E-02 0.  1.
       -1    1    3    3    0  502  0.32669391899E+03  0.12659970506E+04 -0.76395073948E+03  0.15142979170E+04  0.50400001928E-02 0. -1.
</event>
<event>
 5   0  0.1010855E-06  0.3297510E+04  0.7818609E-02  0.8163529E-01
       -1   -1    0    0    0  501  0.00000000000E+00  0.00000000000E+00  0.21077592338E+04  0.21077592338E+04  0.50400001928E-02 0. -1.
        1   -1    0    0  501    0  0.00000000000E+00  0.00000000000E+00 -0.12897075496E+04  0.12897075496E+04  0.50400001928E-02 0.  1.
    10030    2    1    2    0    0  0.00000000000E+00  0.00000000000E+00  0.81805168424E+03  0.33974667835E+04  0.32975099676E+04 0.  0.
        1    1    3    3  502    0  0.56093571589E+03 -0.14342398632E+04  0.10156868848E+04  0.18448069575E+04  0.50400001928E-02 0.  1.
       -1    1    3    3    0  502 -0.56093571589E+03  0.14342398632E+04 -0.19763520055E+03  0.15526598259E+04  0.50400001928E-02 0. -1.
</event>
<event>
 5   0  0.2856440E-06  0.3370713E+04  0.7818609E-02  0.8145132E-01
        2   -1    0    0  501    0  0.00000000000E+00  0.00000000000E+00  0.22114182944E+04  0.22114182944E+04  0.25500000920E-02 0. -1.
       -2   -1    0    0    0  501  0.00000000000E+00  0.00000000000E+00 -0.12844368628E+04  0.12844368628E+04  0.25500000920E-02 0.  1.
    10030    2    1    2    0    0  0.00000000000E+00  0.00000000000E+00  0.92698143154E+03  0.34958551572E+04  0.33707133823E+04 0.  0.
        4    1    3    3  502    0  0.82000008465E+03 -0.14422159944E+04  0.15576215917E+03  0.16663284719E+04  0.12699999809E+01 0. -1.
       -4    1    3    3    0  502 -0.82000008465E+03  0.14422159944E+04  0.77121927237E+03  0.18295266853E+04  0.12699999809E+01 0.  1.
</event>
<event>
 5   0  0.9232963E-07  0.3488696E+04  0.7818609E-02  0.8116474E-01
       -1   -1    0    0    0  501  0.00000000000E+00  0.00000000000E+00  0.11915080491E+04  0.11915080491E+04  0.50400001928E-02 0. -1.
        1   -1    0    0  501    0  0.00000000000E+00  0.00000000000E+00 -0.25536960268E+04  0.25536960268E+04  0.50400001928E-02 0.  1.
    10030    2    1    2    0    0  0.00000000000E+00  0.00000000000E+00 -0.13621879776E+04  0.37452040759E+04  0.34886956708E+04 0.  0.
        3    1    3    3  502    0 -0.14283580571E+04 -0.91629087176E+03 -0.11144496359E+04  0.20302201118E+04  0.10100000352E+00 0.  1.
       -3    1    3    3    0  502  0.14283580571E+04  0.91629087176E+03 -0.24773834175E+03  0.17149839641E+04  0.10100000352E+00 0. -1.
</event>
<event>
 5   0  0.2856440E-06  0.3287338E+04  0.7818609E-02  0.8166125E-01
       -2   -1    0    0    0  501  0.00000000000E+00  0.00000000000E+00  0.13926833973E+04  0.13926833973E+04  0.25500000920E-02 0. -1.
        2   -1    0    0  501    0  0.00000000000E+00  0.00000000000E+00 -0.19398869762E+04  0.19398869762E+04  0.25500000920E-02 0.  1.
    10030    2    1    2    0    0  0.00000000000E+00  0.00000000000E+00 -0.54720357885E+03  0.33325703735E+04  0.32873383668E+04 0.  0.
        4    1    3    3  502    0  0.79256050162E+02  0.13977821341E+04 -0.11465954720E+04  0.18096295768E+04  0.12699999809E+01 0.  1.
       -4    1    3    3    0  502 -0.79256050162E+02 -0.13977821341E+04  0.59939189313E+03  0.15229407967E+04  0.12699999809E+01 0. -1.
</event>
<event>
 5   0  0.2848685E-06  0.2457517E+04  0.7818609E-02  0.8418278E-01
        2   -1    0    0  501    0  0.00000000000E+00  0.00000000000E+00  0.21061790586E+04  0.21061790586E+04  0.25500000920E-02 0. -1.
       -2   -1    0    0    0  501  0.00000000000E+00  0.00000000000E+00 -0.71686592816E+03  0.71686592816E+03  0.25500000920E-02 0.  1.
    10030    2    1    2    0    0  0.00000000000E+00  0.00000000000E+00  0.13893131304E+04  0.28230449867E+04  0.24575174512E+04 0.  0.
        3    1    3    3  502    0 -0.82733176792E+03 -0.14414692862E+03 -0.33575088621E+03  0.90442515391E+03  0.10100000352E+00 0.  1.
       -3    1    3    3    0  502  0.82733176792E+03  0.14414692862E+03  0.17250640166E+04  0.19186198328E+04  0.10100000352E+00 0. -1.
</event>
<event>
 5   0  0.2767014E-06  0.3461693E+04  0.7818609E-02  0.8122929E-01
       -2   -1    0    0    0  501  0.00000000000E+00  0.00000000000E+00  0.15743414683E+04  0.15743414683E+04  0.25500000920E-02 0.  1.
        2   -1    0    0  501    0  0.00000000000E+00  0.00000000000E+00 -0.19029100165E+04  0.19029100165E+04  0.25500000920E-02 0. -1.
    10030    2    1    2    0    0  0.00000000000E+00  0.00000000000E+00 -0.32856854824E+03  0.34772514848E+04  0.34616933137E+04 0.  0.
        1    1    3    3  502    0 -0.76369994095E+03 -0.52965967187E+03 -0.16310019599E+04  0.18772171853E+04  0.50400001928E-02 0. -1.
       -1    1    3    3    0  502  0.76369994095E+03  0.52965967187E+03  0.13024334116E+04  0.16000342995E+04  0.50400001928E-02 0.  1.
</event>
<event>
 5   0  0.2856440E-06  0.3345345E+04  0.7818609E-02  0.8151452E-01
       -2   -1    0    0    0  501  0.00000000000E+00  0.00000000000E+00  0.11429084134E+04  0.11429084134E+04  0.25500000920E-02 0. -1.
        2   -1    0    0  501    0  0.00000000000E+00  0.00000000000E+00 -0.24479945819E+04  0.24479945819E+04  0.25500000920E-02 0.  1.
    10030    2    1    2    0    0  0.00000000000E+00  0.00000000000E+00 -0.13050861685E+04  0.35909029953E+04  0.33453451861E+04 0.  0.
        4    1    3    3  502    0  0.10974995728E+04 -0.81270587400E+03  0.38418615796E+03  0.14186602013E+04  0.12699999809E+01 0. -1.
       -4    1    3    3    0  502 -0.10974995728E+04  0.81270587400E+03 -0.16892723265E+04  0.21722427940E+04  0.12699999809E+01 0.  1.
</event>
<event>
 5   0  0.9232963E-07  0.3407792E+04  0.7818609E-02  0.8135996E-01
       -1   -1    0    0    0  501  0.00000000000E+00  0.00000000000E+00  0.12334662716E+04  0.12334662717E+04  0.50400001928E-02 0.  1.
        1   -1    0    0  501    0  0.00000000000E+00  0.00000000000E+00 -0.23537425012E+04  0.23537425012E+04  0.50400001928E-02 0. -1.
    10030    2    1    2    0    0  0.00000000000E+00  0.00000000000E+00 -0.11202762295E+04  0.35872087729E+04  0.34077922398E+04 0.  0.
        3    1    3    3  502    0  0.16330670800E+04  0.13052708928E+03 -0.10531067227E+04  0.19475572362E+04  0.10100000352E+00 0. -1.
       -3    1    3    3    0  502 -0.16330670800E+04 -0.13052708928E+03 -0.67169506811E+02  0.16396515366E+04  0.10100000352E+00 0.  1.
</event>
<event>
 5   0  0.2848685E-06  0.2498073E+04  0.7818609E-02  0.8403672E-01
        2   -1    0    0  501    0  0.00000000000E+00  0.00000000000E+00  0.18611686623E+04  0.18611686623E+04  0.25500000920E-02 0.  1.
       -2   -1    0    0    0  501  0.00000000000E+00  0.00000000000E+00 -0.83823280307E+03  0.83823280308E+03  0.25500000920E-02 0. -1.
    10030    2    1    2    0    0  0.00000000000E+00  0.00000000000E+00  0.10229358592E+04  0.26994014654E+04  0.24980733575E+04 0.  0.
        3    1    3    3  502    0 -0.24802020343E+03  0.10616278145E+04 -0.14718450214E+03  0.11001049612E+04  0.10100000352E+00 0. -1.
       -3    1    3    3    0  502  0.24802020343E+03 -0.10616278145E+04  0.11701203614E+04  0.15992965041E+04  0.10100000352E+00 0.  1.
</event>
<event>
 5   0  0.9232963E-07  0.3366596E+04  0.7818609E-02  0.8146154E-01
       -1   -1    0    0    0  501  0.00000000000E+00  0.00000000000E+00  0.21564958046E+04  0.21564958047E+04  0.50400001928E-02 0. -1.
        1   -1    0    0  501    0  0.00000000000E+00  0.00000000000E+00 -0.13139336970E+04  0.13139336970E+04  0.50400001928E-02 0.  1.
    10030    2    1    2    0    0  0.00000000000E+00  0.00000000000E+00  0.84256210763E+03  0.34704295017E+04  0.33665962070E+04 0.  0.
        3    1    3    3  502    0 -0.10751933001E+03 -0.82792797479E+03  0.19280280267E+04  0.21010276580E+04  0.10100000352E+00 0. -1.
       -3    1    3    3    0  502  0.10751933001E+03  0.82792797479E+03 -0.10854659191E+04  0.13694018437E+04  0.10100000352E+00 0.  1.
</event>
<event>
 5   0  0.2856440E-06  0.3389824E+04  0.7818609E-02  0.8140408E-01
       -2   -1    0    0    0  501  0.00000000000E+00  0.00000000000E+00  0.12087444600E+04  0.12087444600E+04  0.25500000920E-02 0. -1.
        2   -1    0    0  501    0  0.00000000000E+00  0.00000000000E+00 -0.23766197629E+04  0.23766197629E+04  0.25500000920E-02 0.  1.
    10030    2    1    2    0    0  0.00000000000E+00  0.00000000000E+00 -0.11678753029E+04  0.35853642230E+04  0.33898235778E+04 0.  0.
        4    1    3    3  502    0 -0.89809041085E+03  0.88815990997E+03 -0.17793224582E+04  0.21820596772E+04  0.12699999809E+01 0.  1.
       -4    1    3    3    0  502  0.89809041085E+03 -0.88815990997E+03  0.61144715527E+03  0.14033045458E+04  0.12699999809E+01 0. -1.
</event>
<event>
 5   0  0.2664083E-06  0.3410479E+04  0.7818609E-02  0.8135339E-01
       -2   -1    0    0    0  501  0.00000000000E+00  0.00000000000E+00  0.12863196508E+04  0.12863196508E+04  0.25500000920E-02 0.  1.
        2   -1    0    0  501    0  0.00000000000E+00  0.00000000000E+00 -0.22605896906E+04  0.22605896906E+04  0.25500000920E-02 0. -1.
    10030    2    1    2    0    0  0.00000000000E+00  0.00000000000E+00 -0.97427003980E+03  0.35469093414E+04  0.34104785244E+04 0.  0.
        2    1    3    3  502    0  0.43536359758E+03  0.77432514325E+03  0.10266756339E+04  0.13576390340E+04  0.25500000920E-02 0.  1.
       -2    1    3    3    0  502 -0.43536359758E+03 -0.77432514325E+03 -0.20009456737E+04  0.21892703073E+04  0.25500000920E-02 0. -1.
</event>
<event>
 5   0  0.2767014E-06  0.3218234E+04  0.7818609E-02  0.8184018E-01
       -2   -1    0    0    0  501  0.00000000000E+00  0.00000000000E+00  0.18546547131E+04  0.18546547131E+04  0.25500000920E-02 0.  1.
        2   -1    0    0  501    0  0.00000000000E+00  0.00000000000E+00 -0.13960858989E+04  0.13960858989E+04  0.25500000920E-02 0. -1.
    10030    2    1    2    0    0  0.00000000000E+00  0.00000000000E+00  0.45856881415E+03  0.32507406120E+04  0.32182338587E+04 0.  0.
        1    1    3    3  502    0 -0.30478736691E+03  0.16496922814E+03  0.18165083272E+04  0.18492735569E+04  0.50400001928E-02 0.  1.
       -1    1    3    3    0  502  0.30478736691E+03 -0.16496922814E+03 -0.13579395131E+04  0.14014670551E+04  0.50400001928E-02 0. -1.
</event>
<event>
 5   0  0.2848685E-06  0.3455351E+04  0.7818609E-02  0.8124453E-01
       -2   -1    0    0    0  501  0.00000000000E+00  0.00000000000E+00  0.15086926983E+04  0.15086926983E+04  0.25500000920E-02 0. -1.
        2   -1    0    0  501    0  0.00000000000E+00  0.00000000000E+00 -0.19784428296E+04  0.19784428296E+04  0.25500000920E-02 0.  1.
    10030    2    1    2    0    0  0.00000000000E+00  0.00000000000E+00 -0.46975013129E+03  0.34871355279E+04  0.34553507787E+04 0.  0.
        3    1    3    3  502    0  0.61904973537E+03 -0.34101051220E+03 -0.18258765814E+04  0.19578907132E+04  0.10100000352E+00 0.  1.
       -3    1    3    3    0  502 -0.61904973537E+03  0.34101051220E+03  0.13561264501E+04  0.15292448147E+04  0.10100000352E+00 0. -1.
</event>
<event>
 5   0  0.2664083E-06  0.3397923E+04  0.7818609E-02  0.8138416E-01
       -2   -1    0    0    0  501  0.00000000000E+00  0.00000000000E+00  0.11523264925E+04  0.11523264925E+04  0.25500000920E-02 0. -1.
        2   -1    0    0  501    0  0.00000000000E+00  0.00000000000E+00 -0.25049070993E+04  0.25049070993E+04  0.25500000920E-02 0.  1.
    10030    2    1    2    0    0  0.00000000000E+00  0.00000000000E+00 -0.13525806068E+04  0.36572335919E+04  0.33979233728E+04 0.  0.
        2    1    3    3  502    0  0.10387950657E+04 -0.95042877374E+03  0.34709206730E+03  0.14501320442E+04  0.25500000920E-02 0. -1.
       -2    1    3    3    0  502 -0.10387950657E+04  0.95042877374E+03 -0.16996726741E+04  0.22071015476E+04  0.25500000920E-02 0.  1.
</event>
<event>
 5   0  0.1010551E-06  0.3419254E+04  0.7818609E-02  0.8133197E-01
       -1   -1    0    0    0  501  0.00000000000E+00  0.00000000000E+00  0.16748065774E+04  0.16748065774E+04  0.50400001928E-02 0. -1.
        1   -1    0    0  501    0  0.00000000000E+00  0.00000000000E+00 -0.17451717041E+04  0.17451717041E+04  0.50400001928E-02 0.  1.
    10030    2    1    2    0    0  0.00000000000E+00  0.00000000000E+00 -0.70365126676E+02  0.34199782816E+04  0.34192543332E+04 0.  0.
        2    1    3    3  502    0 -0.16577168222E+04 -0.38858176456E+03 -0.18950132243E+03  0.17131642075E+04  0.25500000920E-02 0. -1.
       -2    1    3    3    0  502  0.16577168222E+04  0.38858176456E+03  0.11913619575E+03  0.17068140741E+04  0.25500000920E-02 0.  1.
</event>
<event>
 5   0  0.1010551E-06  0.3336169E+04  0.7818609E-02  0.8153753E-01
       -1   -1    0    0    0  501  0.00000000000E+00  0.00000000000E+00  0.15764981323E+04  0.15764981323E+04  0.50400001928E-02 0. -1.
        1   -1    0    0  501    0  0.00000000000E+00  0.00000000000E+00 -0.17649911610E+04  0.17649911610E+04  0.50400001928E-02 0.  1.
    10030    2    1    2    0    0  0.00000000000E+00  0.00000000000E+00 -0.18849302871E+03  0.33414892933E+04  0.33361686221E+04 0.  0.
        2    1    3    3  502    0  0.21948866219E+03  0.95661594398E+03 -0.14451807441E+04  0.17469506920E+04  0.25500000920E-02 0.  1.
       -2    1    3    3    0  502 -0.21948866219E+03 -0.95661594398E+03  0.12566877154E+04  0.15945386013E+04  0.25500000920E-02 0. -1.
</event>
<event>
 5   0  0.9714317E-07  0.2793839E+04  0.7818609E-02  0.8305184E-01
       -1   -1    0    0    0  501  0.00000000000E+00  0.00000000000E+00  0.18081367592E+04  0.18081367592E+04  0.50400001928E-02 0. -1.
        1   -1    0    0  501    0  0.00000000000E+00  0.00000000000E+00 -0.10792235917E+04  0.10792235918E+04  0.50400001928E-02 0.  1.
    10030    2    1    2    0    0  0.00000000000E+00  0.00000000000E+00  0.72891316744E+03  0.28873603509E+04  0.27938388269E+04 0.  0.
        4    1    3    3  502    0  0.71106318640E+03  0.11150342146E+04  0.82948561574E+03  0.15610766011E+04  0.12699999809E+01 0. -1.
       -4    1    3    3    0  502 -0.71106318640E+03 -0.11150342146E+04 -0.10057244830E+03  0.13262837498E+04  0.12699999809E+01 0.  1.
</event>
<event>
 5   0  0.1003191E-06  0.3298396E+04  0.7818609E-02  0.8163304E-01
       -1   -1    0    0    0  501  0.00000000000E+00  0.00000000000E+00  0.17689683989E+04  0.17689683989E+04  0.50400001928E-02 0.  1.
        1   -1    0    0  501    0  0.00000000000E+00  0.00000000000E+00 -0.15375367908E+04  0.15375367908E+04  0.50400001928E-02 0. -1.
    10030    2    1    2    0    0  0.00000000000E+00  0.00000000000E+00  0.23143160808E+03  0.33065051897E+04  0.32983959709E+04 0.  0.
        5    1    3    3  502    0  0.88315120063E+03  0.11341562791E+04  0.92613728237E+03  0.17099762760E+04  0.46999998093E+01 0.  1.
       -5    1    3    3    0  502 -0.88315120063E+03 -0.11341562791E+04 -0.69470567429E+03  0.15965289138E+04  0.46999998093E+01 0. -1.
</event>
<event>
 5   0  0.1003191E-06  0.3446932E+04  0.7818609E-02  0.8126483E-01
       -1   -1    0    0    0  501  0.00000000000E+00  0.00000000000E+00  0.20631458752E+04  0.20631458752E+04  0.50400001928E-02 0.  1.
        1   -1    0    0  501    0  0.00000000000E+00  0.00000000000E+00 -0.14397119151E+04  0.14397119151E+04  0.50400001928E-02 0. -1.
    10030    2    1    2    0    0  0.00000000000E+00  0.00000000000E+00  0.62343396005E+03  0.35028577903E+04  0.34469323748E+04 0.  0.
        5    1    3    3  502    0  0.99660565252E+03 -0.72769742712E+03 -0.91094417742E+03  0.15338212922E+04  0.46999998093E+01 0.  1.
       -5    1    3    3    0  502 -0.99660565252E+03  0.72769742712E+03  0.15343781375E+04  0.19690364981E+04  0.46999998093E+01 0. -1.
</event>
<event>
 5   0  0.2848685E-06  0.3355603E+04  0.7818609E-02  0.8148890E-01
        2   -1    0    0  501    0  0.00000000000E+00  0.00000000000E+00  0.14219595752E+04  0.14219595752E+04  0.25500000920E-02 0. -1.
       -2   -1    0    0    0  501  0.00000000000E+00  0.00000000000E+00 -0.19796749748E+04  0.19796749748E+04  0.25500000920E-02 0.  1.
    10030    2    1    2    0    0  0.00000000000E+00  0.00000000000E+00 -0.55771539965E+03  0.34016345500E+04  0.33556029481E+04 0.  0.
        3    1    3    3  502    0  0.22646030271E+03 -0.14059792625E+04  0.62041676704E+03  0.15533766222E+04  0.10100000352E+00 0. -1.
       -3    1    3    3    0  502 -0.22646030271E+03  0.14059792625E+04 -0.11781321667E+04  0.18482579278E+04  0.10100000352E+00 0.  1.
</event>
<event>
 5   0  0.2848685E-06  0.3364669E+04  0.7818609E-02  0.8146633E-01
       -2   -1    0    0    0  501  0.00000000000E+00  0.00000000000E+00  0.13615128670E+04  0.13615128670E+04  0.25500000920E-02 0. -1.
        2   -1    0    0  501    0  0.00000000000E+00  0.00000000000E+00 -0.20787532897E+04  0.20787532897E+04  0.25500000920E-02 0.  1.
    10030    2    1    2    0    0  0.00000000000E+00  0.00000000000E+00 -0.71724042267E+03  0.34402661567E+04  0.33646689889E+04 0.  0.
        3    1    3    3  502    0 -0.27870514345E+03 -0.11104139048E+04  0.90177786071E+03  0.14573602565E+04  0.10100000352E+00 0. -1.
       -3    1    3    3    0  502  0.27870514345E+03  0.11104139048E+04 -0.16190182834E+04  0.19829059002E+04  0.10100000352E+00 0.  1.
</event>
<event>
 5   0  0.9070500E-07  0.3425836E+04  0.7818609E-02  0.8131594E-01
        3   -1    0    0  501    0  0.00000000000E+00  0.00000000000E+00  0.32117014625E+04  0.32117014641E+04  0.10100000352E+00 0.  1.
       -3   -1    0    0    0  501  0.00000000000E+00  0.00000000000E+00 -0.91356185761E+03  0.91356186319E+03  0.10100000352E+00 0. -1.
    10030    2    1    2    0    0  0.00000000000E+00  0.00000000000E+00  0.22981396049E+04  0.41252633273E+04  0.34258359383E+04 0.  0.
        4    1    3    3  502    0  0.70994262019E+03  0.77346691976E+02 -0.72574798796E+03  0.10181909397E+04  0.12699999809E+01 0. -1.
       -4    1    3    3    0  502 -0.70994262019E+03 -0.77346691976E+02  0.30238875929E+04  0.31070723876E+04  0.12699999809E+01 0.  1.
</event>
<event>
 5   0  0.2767014E-06  0.3406040E+04  0.7818609E-02  0.8136425E-01
       -2   -1    0    0    0  501  0.00000000000E+00  0.00000000000E+00  0.90774458058E+03  0.90774458058E+03  0.25500000920E-02 0. -1.
        2   -1    0    0  501    0  0.00000000000E+00  0.00000000000E+00 -0.31950368638E+04  0.31950368638E+04  0.25500000920E-02 0.  1.
    10030    2    1    2    0    0  0.00000000000E+00  0.00000000000E+00 -0.22872922832E+04  0.41027814444E+04  0.34060401629E+04 0.  0.
        1    1    3    3  502    0  0.45321620139E+03 -0.77512323408E+03  0.59945589309E+03  0.10796148948E+04  0.50400001928E-02 0. -1.
       -1    1    3    3    0  502 -0.45321620139E+03  0.77512323408E+03 -0.28867481763E+04  0.30231665496E+04  0.50400001928E-02 0.  1.
</event>
<event>
 5   0  0.1010551E-06  0.3356736E+04  0.7818609E-02  0.8148607E-01
       -1   -1    0    0    0  501  0.00000000000E+00  0.00000000000E+00  0.10637856810E+04  0.10637856810E+04  0.50400001928E-02 0. -1.
        1   -1    0    0  501    0  0.00000000000E+00  0.00000000000E+00 -0.26480133142E+04  0.26480133142E+04  0.50400001928E-02 0.  1.
    10030    2    1    2    0    0  0.00000000000E+00  0.00000000000E+00 -0.15842276333E+04  0.37117989952E+04  0.33567357041E+04 0.  0.
        2    1    3    3  502    0 -0.91298180551E+03 -0.12201487845E+04 -0.15697976242E+04  0.21878216139E+04  0.25500000920E-02 0.  1.
       -2    1    3    3    0  502  0.91298180551E+03  0.12201487845E+04 -0.14430009065E+02  0.15239773813E+04  0.25500000920E-02 0. -1.
</event>
<event>
 5   0  0.2848685E-06  0.3320046E+04  0.7818609E-02  0.8157813E-01
       -2   -1    0    0    0  501  0.00000000000E+00  0.00000000000E+00  0.12318930961E+04  0.12318930961E+04  0.25500000920E-02 0. -1.
        2   -1    0    0  501    0  0.00000000000E+00  0.00000000000E+00 -0.22369443772E+04  0.22369443772E+04  0.25500000920E-02 0.  1.
    10030    2    1    2    0    0  0.00000000000E+00  0.00000000000E+00 -0.10050512811E+04  0.34688374734E+04  0.33200459845E+04 0.  0.
        3    1    3    3  502    0  0.13075557642E+04 -0.26290402125E+03  0.53012891662E+03  0.14352202895E+04  0.10100000352E+00 0. -1.
       -3    1    3    3    0  502 -0.13075557642E+04  0.26290402125E+03 -0.15351801977E+04  0.20336171839E+04  0.10100000352E+00 0.  1.
</event>
<event>
 5   0  0.2856440E-06  0.3392590E+04  0.7818609E-02  0.8139727E-01
        2   -1    0    0  501    0  0.00000000000E+00  0.00000000000E+00  0.25845262427E+04  0.25845262427E+04  0.25500000920E-02 0. -1.
       -2   -1    0    0    0  501  0.00000000000E+00  0.00000000000E+00 -0.11133243608E+04  0.11133243608E+04  0.25500000920E-02 0.  1.
    10030    2    1    2    0    0  0.00000000000E+00  0.00000000000E+00  0.14712018819E+04  0.36978506035E+04  0.33925895874E+04 0.  0.
        4    1    3    3  502    0  0.95291680589E+03 -0.13520352743E+04  0.32578546091E+03  0.16858788810E+04  0.12699999809E+01 0.  1.
       -4    1    3    3    0  502 -0.95291680589E+03  0.13520352743E+04  0.11454164210E+04  0.20119717225E+04  0.12699999809E+01 0. -1.
</event>
<event>
 5   0  0.2906701E-06  0.3470252E+04  0.7818609E-02  0.8120876E-01
        2   -1    0    0  501    0  0.00000000000E+00  0.00000000000E+00  0.18600133803E+04  0.18600133803E+04  0.25500000920E-02 0.  1.
       -2   -1    0    0    0  501  0.00000000000E+00  0.00000000000E+00 -0.16186235905E+04  0.16186235905E+04  0.25500000920E-02 0. -1.
    10030    2    1    2    0    0  0.00000000000E+00  0.00000000000E+00  0.24138978982E+03  0.34786369708E+04  0.34702515966E+04 0.  0.
        5    1    3    3  502    0  0.12122110788E+04 -0.17236908749E+03 -0.11116954615E+04  0.16538003783E+04  0.46999998093E+01 0. -1.
       -5    1    3    3    0  502 -0.12122110788E+04  0.17236908749E+03  0.13530852514E+04  0.18248365925E+04  0.46999998093E+01 0.  1.
</event>
<event>
 5   0  0.1010855E-06  0.3478048E+04  0.7818609E-02  0.8119012E-01
       -1   -1    0    0    0  501  0.00000000000E+00  0.00000000000E+00  0.13377263568E+04  0.13377263568E+04  0.50400001928E-02 0.  1.
        1   -1    0    0  501    0  0.00000000000E+00  0.00000000000E+00 -0.22607047303E+04  0.22607047303E+04  0.50400001928E-02 0. -1.
    10030    2    1    2    0    0  0.00000000000E+00  0.00000000000E+00 -0.92297837358E+03  0.35984310871E+04  0.34780479023E+04 0.  0.
        1    1    3    3  502    0 -0.12592362022E+04 -0.12538350871E+03  0.77261179690E+03  0.14826752261E+04  0.50400001928E-02 0.  1.
       -1    1    3    3    0  502  0.12592362022E+04  0.12538350871E+03 -0.16955901705E+04  0.21157558610E+04  0.50400001928E-02 0. -1.
</event>
<event>
 5   0  0.9232963E-07  0.2610490E+04  0.7818609E-02  0.8364647E-01
       -1   -1    0    0    0  501  0.00000000000E+00  0.00000000000E+00  0.14718129711E+04  0.14718129711E+04  0.50400001928E-02 0.  1.
        1   -1    0    0  501    0  0.00000000000E+00  0.00000000000E+00 -0.11575275467E+04  0.11575275467E+04  0.50400001928E-02 0. -1.
    10030    2    1    2    0    0  0.00000000000E+00  0.00000000000E+00  0.31428542439E+03  0.26293405178E+04  0.26104896534E+04 0.  0.
        3    1    3    3  502    0  0.12050359239E+04  0.93840318279E+02 -0.33910819550E+03  0.12553533214E+04  0.10100000352E+00 0. -1.
       -3    1    3    3    0  502 -0.12050359239E+04 -0.93840318279E+02  0.65339361989E+03  0.13739871964E+04  0.10100000352E+00 0.  1.
</event>
<event>
 5   0  0.9714317E-07  0.3398952E+04  0.7818609E-02  0.8138164E-01
       -1   -1    0    0    0  501  0.00000000000E+00  0.00000000000E+00  0.89691029156E+03  0.89691029158E+03  0.50400001928E-02 0.  1.
        1   -1    0    0  501    0  0.00000000000E+00  0.00000000000E+00 -0.32201860006E+04  0.32201860006E+04  0.50400001928E-02 0. -1.
    10030    2    1    2    0    0  0.00000000000E+00  0.00000000000E+00 -0.23232757090E+04  0.41170962921E+04  0.33989515823E+04 0.  0.
        4    1    3    3  502    0  0.63690533350E+02 -0.16955386800E+04 -0.10447727669E+04  0.19926012262E+04  0.12699999809E+01 0.  1.
       -4    1    3    3    0  502 -0.63690533350E+02  0.16955386800E+04 -0.12785029421E+04  0.21244950659E+04  0.12699999809E+01 0. -1.
</event>
<event>
 5   0  0.1003191E-06  0.3306799E+04  0.7818609E-02  0.8161168E-01
        1   -1    0    0  501    0  0.00000000000E+00  0.00000000000E+00  0.31889553413E+04  0.31889553413E+04  0.50400001928E-02 0.  1.
       -1   -1    0    0    0  501  0.00000000000E+00  0.00000000000E+00 -0.85724912138E+03  0.85724912140E+03  0.50400001928E-02 0. -1.
    10030    2    1    2    0    0  0.00000000000E+00  0.00000000000E+00  0.23317062199E+04  0.40462044627E+04  0.33067985511E+04 0.  0.
        5    1    3    3  502    0 -0.46253491685E+03 -0.66798894829E+03  0.29278223201E+04  0.30384722168E+04  0.46999998093E+01 0.  1.
       -5    1    3    3    0  502  0.46253491685E+03  0.66798894829E+03 -0.59611610023E+03  0.10077322458E+04  0.46999998093E+01 0. -1.
</event>
<event>
 5   0  0.2848685E-06  0.3416324E+04  0.7818609E-02  0.8133912E-01
        2   -1    0    0  501    0  0.00000000000E+00  0.00000000000E+00  0.24521014777E+04  0.24521014777E+04  0.25500000920E-02 0.  1.
       -2   -1    0    0    0  501  0.00000000000E+00  0.00000000000E+00 -0.11899249742E+04  0.11899249742E+04  0.25500000920E-02 0. -1.
    10030    2    1    2    0    0  0.00000000000E+00  0.00000000000E+00  0.12621765035E+04  0.36420264519E+04  0.34163236308E+04 0.  0.
        3    1    3    3  502    0  0.10045289717E+04 -0.71660330791E+03  0.18903184476E+04  0.22574105961E+04  0.10100000352E+00 0.  1.
       -3    1    3    3    0  502 -0.10045289717E+04  0.71660330791E+03 -0.62814194419E+03  0.13846158558E+04  0.10100000352E+00 0. -1.
</event>
<event>
 5   0  0.1010551E-06  0.3398739E+04  0.7818609E-02  0.8138216E-01
       -1   -1    0    0    0  501  0.00000000000E+00  0.00000000000E+00  0.13418635471E+04  0.13418635471E+04  0.50400001928E-02 0. -1.
        1   -1    0    0  501    0  0.00000000000E+00  0.00000000000E+00 -0.21521239495E+04  0.21521239495E+04  0.50400001928E-02 0.  1.
    10030    2    1    2    0    0  0.00000000000E+00  0.00000000000E+00 -0.81026040245E+03  0.34939874966E+04  0.33987389877E+04 0.  0.
        2    1    3    3  502    0  0.69668146267E+03  0.51987821228E+02  0.11874087069E+04  0.13776818324E+04  0.25500000920E-02 0. -1.
       -2    1    3    3    0  502 -0.69668146267E+03 -0.51987821228E+02 -0.19976691093E+04  0.21163056642E+04  0.25500000920E-02 0.  1.
</event>
<event>
 5   0  0.9714317E-07  0.2543463E+04  0.7818609E-02  0.8387663E-01
        1   -1    0    0  501    0  0.00000000000E+00  0.00000000000E+00  0.30011253537E+04  0.30011253537E+04  0.50400001928E-02 0. -1.
       -1   -1    0    0    0  501  0.00000000000E+00  0.00000000000E+00 -0.53889800724E+03  0.53889800726E+03  0.50400001928E-02 0.  1.
    10030    2    1    2    0    0  0.00000000000E+00  0.00000000000E+00  0.24622273464E+04  0.35400233609E+04  0.25434625789E+04 0.  0.
        4    1    3    3  502    0 -0.48551168052E+03  0.98296157268E+03  0.21281191715E+04  0.23939147576E+04  0.12699999809E+01 0. -1.
       -4    1    3    3    0  502  0.48551168052E+03 -0.98296157268E+03  0.33410817488E+03  0.11461086034E+04  0.12699999809E+01 0.  1.
</event>
<event>
 5   0  0.9232963E-07  0.3335859E+04  0.7818609E-02  0.8153831E-01
        1   -1    0    0  501    0  0.00000000000E+00  0.00000000000E+00  0.17660636582E+04  0.17660636583E+04  0.50400001928E-02 0.  1.
       -1   -1    0    0    0  501  0.00000000000E+00  0.00000000000E+00 -0.15752484683E+04  0.15752484683E+04  0.50400001928E-02 0. -1.
    10030    2    1    2    0    0  0.00000000000E+00  0.00000000000E+00  0.19081518993E+03  0.33413121266E+04  0.33358591533E+04 0.  0.
        3    1    3    3  502    0  0.45274935978E+03  0.77765308097E+03  0.15020759877E+04  0.17509878869E+04  0.10100000352E+00 0.  1.
       -3    1    3    3    0  502 -0.45274935978E+03 -0.77765308097E+03 -0.13112607978E+04  0.15903242396E+04  0.10100000352E+00 0. -1.
</event>
<event>
 5   0  0.9714317E-07  0.3437108E+04  0.7818609E-02  0.8128858E-01
        1   -1    0    0  501    0  0.00000000000E+00  0.00000000000E+00  0.27473743135E+04  0.27473743135E+04  0.50400001928E-02 0.  1.
       -1   -1    0    0    0  501  0.00000000000E+00  0.00000000000E+00 -0.10750001194E+04  0.10750001194E+04  0.50400001928E-02 0. -1.
    10030    2    1    2    0    0  0.00000000000E+00  0.00000000000E+00  0.16723741941E+04  0.38223744329E+04  0.34371079209E+04 0.  0.
        4    1    3    3  502    0  0.38865510515E+03 -0.11145448730E+04 -0.55288584322E+03  0.13034367776E+04  0.12699999809E+01 0.  1.
       -4    1    3    3    0  502 -0.38865510515E+03  0.11145448730E+04  0.22252600373E+04  0.25189376553E+04  0.12699999809E+01 0. -1.
</event>
<event>
 5   0  0.2664083E-06  0.3354222E+04  0.7818609E-02  0.8149234E-01
        2   -1    0    0  501    0  0.00000000000E+00  0.00000000000E+00  0.13908560332E+04  0.13908560332E+04  0.25500000920E-02 0. -1.
       -2   -1    0    0    0  501  0.00000000000E+00  0.00000000000E+00 -0.20222811984E+04  0.20222811984E+04  0.25500000920E-02 0.  1.
    10030    2    1    2    0    0  0.00000000000E+00  0.00000000000E+00 -0.63142516521E+03  0.34131372315E+04  0.33542224169E+04 0.  0.
        2    1    3    3  502    0  0.92215294745E+03 -0.78038042166E+03 -0.14994782185E+04  0.19255634471E+04  0.25500000920E-02 0.  1.
       -2    1    3    3    0  502 -0.92215294745E+03  0.78038042166E+03  0.86805305325E+03  0.14875737845E+04  0.25500000920E-02 0. -1.
</event>
<event>
 5   0  0.2906701E-06  0.3401717E+04  0.7818609E-02  0.8137485E-01
       -2   -1    0    0    0  501  0.00000000000E+00  0.00000000000E+00  0.16530818805E+04  0.16530818805E+04  0.25500000920E-02 0.  1.
        2   -1    0    0  501    0  0.00000000000E+00  0.00000000000E+00 -0.17500156652E+04  0.17500156652E+04  0.25500000920E-02 0. -1.
    10030    2    1    2    0    0  0.00000000000E+00  0.00000000000E+00 -0.96933784716E+02  0.34030975457E+04  0.34017167353E+04 0.  0.
        5    1    3    3  502    0  0.42091985564E+02 -0.84333048949E+03 -0.15255211003E+04  0.17436211651E+04  0.46999998093E+01 0. -1.
       -5    1    3    3    0  502 -0.42091985564E+02  0.84333048949E+03  0.14285873156E+04  0.16594763807E+04  0.46999998093E+01 0.  1.
</event>
<event>
 5   0  0.2848685E-06  0.3416316E+04  0.7818609E-02  0.8133913E-01
        2   -1    0    0  501    0  0.00000000000E+00  0.00000000000E+00  0.24972202115E+04  0.24972202115E+04  0.25500000920E-02 0. -1.
       -2   -1    0    0    0  501  0.00000000000E+00  0.00000000000E+00 -0.11684208862E+04  0.11684208862E+04  0.25500000920E-02 0.  1.
    10030    2    1    2    0    0  0.00000000000E+00  0.00000000000E+00  0.13287993253E+04  0.36656410978E+04  0.34163162926E+04 0.  0.
        3    1    3    3  502    0  0.13696056573E+04  0.16409941187E+03 -0.41662814001E+03  0.14409466648E+04  0.10100000352E+00 0.  1.
       -3    1    3    3    0  502 -0.13696056573E+04 -0.16409941187E+03  0.17454274653E+04  0.22246944330E+04  0.10100000352E+00 0. -1.
</event>
<event>
 5   0  0.2906701E-06  0.3410299E+04  0.7818609E-02  0.8135383E-01
       -2   -1    0    0    0  501  0.00000000000E+00  0.00000000000E+00  0.18311309804E+04  0.18311309804E+04  0.25500000920E-02 0. -1.
        2   -1    0    0  501    0  0.00000000000E+00  0.00000000000E+00 -0.15878354772E+04  0.15878354772E+04  0.25500000920E-02 0.  1.
    10030    2    1    2    0    0  0.00000000000E+00  0.00000000000E+00  0.24329550314E+03  0.34189664576E+04  0.34102989512E+04 0.  0.
        5    1    3    3  502    0  0.10596882606E+04 -0.53985773495E+03  0.13466891684E+04  0.17966578389E+04  0.46999998093E+01 0. -1.
       -5    1    3    3    0  502 -0.10596882606E+04  0.53985773495E+03 -0.11033936653E+04  0.16223086187E+04  0.46999998093E+01 0.  1.
</event>
<event>
 5   0  0.9714317E-07  0.3392000E+04  0.7818609E-02  0.8139873E-01
       -1   -1    0    0    0  501  0.00000000000E+00  0.00000000000E+00  0.93679021186E+03  0.93679021188E+03  0.50400001928E-02 0. -1.
        1   -1    0    0  501    0  0.00000000000E+00  0.00000000000E+00 -0.30705009250E+04  0.30705009250E+04  0.50400001928E-02 0.  1.
    10030    2    1    2    0    0  0.00000000000E+00  0.00000000000E+00 -0.21337107131E+04  0.40072911368E+04  0.33919995354E+04 0.  0.
        4    1    3    3  502    0 -0.42200524243E+03 -0.19222569483E+03  0.86043924046E+03  0.97744383051E+03  0.12699999809E+01 0. -1.
       -4    1    3    3    0  502  0.42200524243E+03  0.19222569483E+03 -0.29941499535E+04  0.30298473063E+04  0.12699999809E+01 0.  1.
</event>
<event>
 5   0  0.1003191E-06  0.3322456E+04  0.7818609E-02  0.8157205E-01
       -1   -1    0    0    0  501  0.00000000000E+00  0.00000000000E+00  0.10840246404E+04  0.10840246405E+04  0.50400001928E-02 0.  1.
        1   -1    0    0  501    0  0.00000000000E+00  0.00000000000E+00 -0.25457712313E+04  0.25457712313E+04  0.50400001928E-02 0. -1.
    10030    2    1    2    0    0  0.00000000000E+00  0.00000000000E+00 -0.14617465908E+04  0.36297958718E+04  0.33224561660E+04 0.  0.
        5    1    3    3  502    0 -0.28129911241E+03 -0.33769514029E+03 -0.24810934660E+04  0.25197250000E+04  0.46999998093E+01 0. -1.
       -5    1    3    3    0  502  0.28129911241E+03  0.33769514029E+03  0.10193468752E+04  0.11100708718E+04  0.46999998093E+01 0.  1.
</event>
<event>
 5   0  0.9232963E-07  0.2669615E+04  0.7818609E-02  0.8344932E-01
       -1   -1    0    0    0  501  0.00000000000E+00  0.00000000000E+00  0.91830216127E+03  0.91830216129E+03  0.50400001928E-02 0.  1.
        1   -1    0    0  501    0  0.00000000000E+00  0.00000000000E+00 -0.19402234041E+04  0.19402234041E+04  0.50400001928E-02 0. -1.
    10030    2    1    2    0    0  0.00000000000E+00  0.00000000000E+00 -0.10219212428E+04  0.28585255654E+04  0.26696152122E+04 0.  0.
        3    1    3    3  502    0  0.10388297506E+04  0.59174211405E+03  0.12466637992E+03  0.12020264959E+04  0.10100000352E+00 0.  1.
       -3    1    3    3    0  502 -0.10388297506E+04 -0.59174211405E+03 -0.11465876227E+04  0.16564990695E+04  0.10100000352E+00 0. -1.
</event>
<event>
 5   0  0.1226457E-06  0.2084494E+04  0.7818609E-02  0.8568105E-01
        1   -1    0    0  501    0  0.00000000000E+00  0.00000000000E+00  0.97404332131E+03  0.97404332133E+03  0.50400001928E-02 0. -1.
       -1   -1    0    0    0  501  0.00000000000E+00  0.00000000000E+00 -0.11152263343E+04  0.11152263343E+04  0.50400001928E-02 0.  1.
    10030    2    1    2    0    0  0.00000000000E+00  0.00000000000E+00 -0.14118301298E+03  0.20892696556E+04  0.20844939556E+04 0.  0.
        5    1    3    3  502    0 -0.87841756252E+03 -0.40073409111E+03  0.32280160162E+03  0.10180511725E+04  0.46999998093E+01 0. -1.
       -5    1    3    3    0  502  0.87841756252E+03  0.40073409111E+03 -0.46398461461E+03  0.10712184831E+04  0.46999998093E+01 0.  1.
</event>
<event>
 5   0  0.2664083E-06  0.3308958E+04  0.7818609E-02  0.8160620E-01
       -2   -1    0    0    0  501  0.00000000000E+00  0.00000000000E+00  0.14490549545E+04  0.14490549545E+04  0.25500000920E-02 0. -1.
        2   -1    0    0  501    0  0.00000000000E+00  0.00000000000E+00 -0.18890252681E+04  0.18890252681E+04  0.25500000920E-02 0.  1.
    10030    2    1    2    0    0  0.00000000000E+00  0.00000000000E+00 -0.43997031363E+03  0.33380802227E+04  0.33089584005E+04 0.  0.
        2    1    3    3  502    0 -0.35693808998E+03  0.52181713895E+03 -0.17623633861E+04  0.18723308018E+04  0.25500000920E-02 0.  1.
       -2    1    3    3    0  502  0.35693808998E+03 -0.52181713895E+03  0.13223930725E+04  0.14657494209E+04  0.25500000920E-02 0. -1.
</event>
<event>
 5   0  0.2848685E-06  0.3179826E+04  0.7818609E-02  0.8194165E-01
        2   -1    0    0  501    0  0.00000000000E+00  0.00000000000E+00  0.29995220918E+04  0.29995220918E+04  0.25500000920E-02 0.  1.
       -2   -1    0    0    0  501  0.00000000000E+00  0.00000000000E+00 -0.84274205624E+03  0.84274205625E+03  0.25500000920E-02 0. -1.
    10030    2    1    2    0    0  0.00000000000E+00  0.00000000000E+00  0.21567800356E+04  0.38422641481E+04  0.31798260427E+04 0.  0.
        3    1    3    3  502    0  0.12287278323E+04 -0.99379116298E+03  0.12891741912E+04  0.20394516584E+04  0.10100000352E+00 0. -1.
       -3    1    3    3    0  502 -0.12287278323E+04  0.99379116298E+03  0.86760584443E+03  0.18028124897E+04  0.10100000352E+00 0.  1.
</event>
<event>
 5   0  0.2848685E-06  0.2184336E+04  0.7818609E-02  0.8524976E-01
       -2   -1    0    0    0  501  0.00000000000E+00  0.00000000000E+00  0.11184008968E+04  0.11184008968E+04  0.25500000920E-02 0.  1.
        2   -1    0    0  501    0  0.00000000000E+00  0.00000000000E+00 -0.10665503882E+04  0.10665503882E+04  0.25500000920E-02 0. -1.
    10030    2    1    2    0    0  0.00000000000E+00  0.00000000000E+00  0.51850508611E+02  0.21849512851E+04  0.21843359730E+04 0.  0.
        3    1    3    3  502    0  0.45405163375E+03 -0.98681870199E+03 -0.87494797804E+02  0.10897841009E+04  0.10100000352E+00 0.  1.
       -3    1    3    3    0  502 -0.45405163375E+03  0.98681870199E+03  0.13934530642E+03  0.10951671842E+04  0.10100000352E+00 0. -1.
</event>
<event>
 5   0  0.1010551E-06  0.3366119E+04  0.7818609E-02  0.8146272E-01
       -1   -1    0    0    0  501  0.00000000000E+00  0.00000000000E+00  0.11639312622E+04  0.11639312623E+04  0.50400001928E-02 0.  1.
        1   -1    0    0  501    0  0.00000000000E+00  0.00000000000E+00 -0.24337255196E+04  0.24337255196E+04  0.50400001928E-02 0. -1.
    10030    2    1    2    0    0  0.00000000000E+00  0.00000000000E+00 -0.12697942574E+04  0.35976567819E+04  0.33661189617E+04 0.  0.
        2    1    3    3  502    0 -0.40509604194E+03  0.14989476879E+04  0.59189726893E+02  0.15538501852E+04  0.25500000920E-02 0.  1.
       -2    1    3    3    0  502  0.40509604194E+03 -0.14989476879E+04 -0.13289839843E+04  0.20438065967E+04  0.25500000920E-02 0. -1.
</event>
<event>
 5   0  0.2856440E-06  0.3119102E+04  0.7818609E-02  0.8210515E-01
       -2   -1    0    0    0  501  0.00000000000E+00  0.00000000000E+00  0.18320128654E+04  0.18320128654E+04  0.25500000920E-02 0. -1.
        2   -1    0    0  501    0  0.00000000000E+00  0.00000000000E+00 -0.13276102280E+04  0.13276102280E+04  0.25500000920E-02 0.  1.
    10030    2    1    2    0    0  0.00000000000E+00  0.00000000000E+00  0.50440263746E+03  0.31596230934E+04  0.31191018053E+04 0.  0.
        4    1    3    3  502    0 -0.13653263573E+03 -0.43312950265E+03 -0.12591447725E+04  0.13385400621E+04  0.12699999809E+01 0.  1.
       -4    1    3    3    0  502  0.13653263573E+03  0.43312950265E+03  0.17635474100E+04  0.18210830313E+04  0.12699999809E+01 0. -1.
</event>
<event>
 5   0  0.2848685E-06  0.3388577E+04  0.7818609E-02  0.8140716E-01
       -2   -1    0    0    0  501  0.00000000000E+00  0.00000000000E+00  0.12614595673E+04  0.12614595673E+04  0.25500000920E-02 0. -1.
        2   -1    0    0  501    0  0.00000000000E+00  0.00000000000E+00 -0.22756286162E+04  0.22756286162E+04  0.25500000920E-02 0.  1.
    10030    2    1    2    0    0  0.00000000000E+00  0.00000000000E+00 -0.10141690490E+04  0.35370881835E+04  0.33885769812E+04 0.  0.
        3    1    3    3  502    0  0.20760524455E+03  0.58114322374E+03 -0.21541450155E+04  0.22407963188E+04  0.10100000352E+00 0.  1.
       -3    1    3    3    0  502 -0.20760524455E+03 -0.58114322374E+03  0.11399759665E+04  0.12962918647E+04  0.10100000352E+00 0. -1.
</event>
<event>
 5   0  0.2848685E-06  0.3408379E+04  0.7818609E-02  0.8135853E-01
       -2   -1    0    0    0  501  0.00000000000E+00  0.00000000000E+00  0.14805182590E+04  0.14805182590E+04  0.25500000920E-02 0. -1.
        2   -1    0    0  501    0  0.00000000000E+00  0.00000000000E+00 -0.19616525749E+04  0.19616525749E+04  0.25500000920E-02 0.  1.
    10030    2    1    2    0    0  0.00000000000E+00  0.00000000000E+00 -0.48113431592E+03  0.34421708340E+04  0.34083793539E+04 0.  0.
        3    1    3    3  502    0 -0.12446631035E+04  0.43147711569E+02  0.93424332314E+03  0.15568746139E+04  0.10100000352E+00 0. -1.
       -3    1    3    3    0  502  0.12446631035E+04 -0.43147711569E+02 -0.14153776391E+04  0.18852962201E+04  0.10100000352E+00 0.  1.
</event>
<event>
 5   0  0.2848685E-06  0.3300280E+04  0.7818609E-02  0.8162824E-01
        2   -1    0    0  501    0  0.00000000000E+00  0.00000000000E+00  0.18718930081E+04  0.18718930081E+04  0.25500000920E-02 0.  1.
       -2   -1    0    0    0  501  0.00000000000E+00  0.00000000000E+00 -0.14546571275E+04  0.14546571275E+04  0.25500000920E-02 0. -1.
    10030    2    1    2    0    0  0.00000000000E+00  0.00000000000E+00  0.41723588056E+03  0.33265501356E+04  0.33002802949E+04 0.  0.
        3    1    3    3  502    0 -0.11091503852E+04 -0.72717830803E+02  0.14379406372E+04  0.18174640976E+04  0.10100000352E+00 0.  1.
       -3    1    3    3    0  502  0.11091503852E+04  0.72717830803E+02 -0.10207047566E+04  0.15090860380E+04  0.10100000352E+00 0. -1.
</event>
<event>
 5   0  0.2906701E-06  0.3322464E+04  0.7818609E-02  0.8157203E-01
        2   -1    0    0  501    0  0.00000000000E+00  0.00000000000E+00  0.18890035730E+04  0.18890035730E+04  0.25500000920E-02 0. -1.
       -2   -1    0    0    0  501  0.00000000000E+00  0.00000000000E+00 -0.14609245025E+04  0.14609245025E+04  0.25500000920E-02 0.  1.
    10030    2    1    2    0    0  0.00000000000E+00  0.00000000000E+00  0.42807907050E+03  0.33499280754E+04  0.33224639080E+04 0.  0.
        5    1    3    3  502    0 -0.84747871230E+03  0.72791165563E+03  0.14536715561E+04  0.18333735651E+04  0.46999998093E+01 0. -1.
       -5    1    3    3    0  502  0.84747871230E+03 -0.72791165563E+03 -0.10255924856E+04  0.15165545103E+04  0.46999998093E+01 0.  1.
</event>
<event>
 5   0  0.9232963E-07  0.3430418E+04  0.7818609E-02  0.8130481E-01
        1   -1    0    0  501    0  0.00000000000E+00  0.00000000000E+00  0.14393707249E+04  0.14393707249E+04  0.50400001928E-02 0. -1.
       -1   -1    0    0    0  501  0.00000000000E+00  0.00000000000E+00 -0.20439087578E+04  0.20439087578E+04  0.50400001928E-02 0.  1.
    10030    2    1    2    0    0  0.00000000000E+00  0.00000000000E+00 -0.60453803288E+03  0.34832794828E+04  0.34304183013E+04 0.  0.
        3    1    3    3  502    0  0.17820729929E+03  0.39122634047E+03  0.13837776451E+04  0.14490191414E+04  0.10100000352E+00 0. -1.
       -3    1    3    3    0  502 -0.17820729929E+03 -0.39122634047E+03 -0.19883156780E+04  0.20342603413E+04  0.10100000352E+00 0.  1.
</event>
<event>
 5   0  0.1010551E-06  0.3409055E+04  0.7818609E-02  0.8135688E-01
        1   -1    0    0  501    0  0.00000000000E+00  0.00000000000E+00  0.12458656066E+04  0.12458656066E+04  0.50400001928E-02 0. -1.
       -1   -1    0    0    0  501  0.00000000000E+00  0.00000000000E+00 -0.23320441346E+04  0.23320441346E+04  0.50400001928E-02 0.  1.
    10030    2    1    2    0    0  0.00000000000E+00  0.00000000000E+00 -0.10861785280E+04  0.35779097412E+04  0.34090547548E+04 0.  0.
        2    1    3    3  502    0 -0.83950984823E+03 -0.13473771339E+04 -0.11944853020E+04  0.19867050770E+04  0.25500000920E-02 0.  1.
       -2    1    3    3    0  502  0.83950984823E+03  0.13473771339E+04  0.10830677394E+03  0.15912046642E+04  0.25500000920E-02 0. -1.
</event>
<event>
 5   0  0.9714317E-07  0.3312521E+04  0.7818609E-02  0.8159717E-01
        1   -1    0    0  501    0  0.00000000000E+00  0.00000000000E+00  0.12501086860E+04  0.12501086861E+04  0.50400001928E-02 0.  1.
       -1   -1    0    0    0  501  0.00000000000E+00  0.00000000000E+00 -0.21943678851E+04  0.21943678851E+04  0.50400001928E-02 0. -1.
    10030    2    1    2    0    0  0.00000000000E+00  0.00000000000E+00 -0.94425919902E+03  0.34444765711E+04  0.33125207040E+04 0.  0.
        4    1    3    3  502    0 -0.55250585983E+01 -0.77557741525E+03  0.10496034241E+04  0.13050746393E+04  0.12699999809E+01 0.  1.
       -4    1    3    3    0  502  0.55250585983E+01  0.77557741525E+03 -0.19938626231E+04  0.21394019319E+04  0.12699999809E+01 0. -1.
</event>
<event>
 5   0  0.2848685E-06  0.2352544E+04  0.7818609E-02  0.8457487E-01
       -2   -1    0    0    0  501  0.00000000000E+00  0.00000000000E+00  0.10674287726E+04  0.10674287726E+04  0.25500000920E-02 0. -1.
        2   -1    0    0  501    0  0.00000000000E+00  0.00000000000E+00 -0.12962133076E+04  0.12962133076E+04  0.25500000920E-02 0.  1.
    10030    2    1    2    0    0  0.00000000000E+00  0.00000000000E+00 -0.22878453501E+03  0.23636420801E+04  0.23525436275E+04 0.  0.
        3    1    3    3  502    0  0.10808793789E+04 -0.37073320853E+03 -0.39476434774E+03  0.12089591574E+04  0.10100000352E+00 0. -1.
       -3    1    3    3    0  502 -0.10808793789E+04  0.37073320853E+03  0.16597981273E+03  0.11546829228E+04  0.10100000352E+00 0.  1.
</event>
<event>
 5   0  0.2848685E-06  0.3426082E+04  0.7818609E-02  0.8131534E-01
        2   -1    0    0  501    0  0.00000000000E+00  0.00000000000E+00  0.17145244029E+04  0.17145244029E+04  0.25500000920E-02 0. -1.
       -2   -1    0    0    0  501  0.00000000000E+00  0.00000000000E+00 -0.17115592494E+04  0.17115592494E+04  0.25500000920E-02 0.  1.
    10030    2    1    2    0    0  0.00000000000E+00  0.00000000000E+00  0.29651535313E+01  0.34260836522E+04  0.34260823691E+04 0.  0.
        3    1    3    3  502    0  0.64834630148E+03 -0.12503815577E+04 -0.97355785088E+03  0.17121979633E+04  0.10100000352E+00 0.  1.
       -3    1    3    3    0  502 -0.64834630148E+03  0.12503815577E+04  0.97652300441E+03  0.17138856889E+04  0.10100000352E+00 0. -1.
</event>
<event>
 5   0  0.2767014E-06  0.3390950E+04  0.7818609E-02  0.8140131E-01
       -2   -1    0    0    0  501  0.00000000000E+00  0.00000000000E+00  0.15646351091E+04  0.15646351091E+04  0.25500000920E-02 0.  1.
        2   -1    0    0  501    0  0.00000000000E+00  0.00000000000E+00 -0.18372565252E+04  0.18372565252E+04  0.25500000920E-02 0. -1.
    10030    2    1    2    0    0  0.00000000000E+00  0.00000000000E+00 -0.27262141610E+03  0.34018916343E+04  0.33909503469E+04 0.  0.
        1    1    3    3  502    0  0.60095415510E+03 -0.54114227816E+03  0.13586838455E+04  0.15811396693E+04  0.50400001928E-02 0.  1.
       -1    1    3    3    0  502 -0.60095415510E+03  0.54114227816E+03 -0.16313052616E+04  0.18207519651E+04  0.50400001928E-02 0. -1.
</event>
<event>
 5   0  0.1010855E-06  0.3150249E+04  0.7818609E-02  0.8202081E-01
       -1   -1    0    0    0  501  0.00000000000E+00  0.00000000000E+00  0.14765259370E+04  0.14765259370E+04  0.50400001928E-02 0.  1.
        1   -1    0    0  501    0  0.00000000000E+00  0.00000000000E+00 -0.16803067256E+04  0.16803067256E+04  0.50400001928E-02 0. -1.
    10030    2    1    2    0    0  0.00000000000E+00  0.00000000000E+00 -0.20378078864E+03  0.31568326626E+04  0.31502485378E+04 0.  0.
        1    1    3    3  502    0 -0.13934701298E+04  0.18436408742E+03 -0.81419763255E+03  0.16243973972E+04  0.50400001928E-02 0. -1.
       -1    1    3    3    0  502  0.13934701298E+04 -0.18436408742E+03  0.61041684392E+03  0.15324352654E+04  0.50400001928E-02 0.  1.
</event>
<event>
 5   0  0.2664083E-06  0.2085529E+04  0.7818609E-02  0.8567645E-01
        2   -1    0    0  501    0  0.00000000000E+00  0.00000000000E+00  0.11359034748E+04  0.11359034748E+04  0.25500000920E-02 0. -1.
       -2   -1    0    0    0  501  0.00000000000E+00  0.00000000000E+00 -0.95726261070E+03  0.95726261070E+03  0.25500000920E-02 0.  1.
    10030    2    1    2    0    0  0.00000000000E+00  0.00000000000E+00  0.17864086406E+03  0.20931660855E+04  0.20855291182E+04 0.  0.
        2    1    3    3  502    0 -0.39116186212E+03 -0.14393012629E+03  0.10486628847E+04  0.11284579431E+04  0.25500000920E-02 0. -1.
       -2    1    3    3    0  502  0.39116186212E+03  0.14393012629E+03 -0.87002202061E+03  0.96470814238E+03  0.25500000920E-02 0.  1.
</event>
<event>
 5   0  0.2848685E-06  0.3379222E+04  0.7818609E-02  0.8143025E-01
        2   -1    0    0  501    0  0.00000000000E+00  0.00000000000E+00  0.23462392820E+04  0.23462392820E+04  0.25500000920E-02 0. -1.
       -2   -1    0    0    0  501  0.00000000000E+00  0.00000000000E+00 -0.12167496744E+04  0.12167496744E+04  0.25500000920E-02 0.  1.
    10030    2    1    2    0    0  0.00000000000E+00  0.00000000000E+00  0.11294896075E+04  0.35629889564E+04  0.33792223262E+04 0.  0.
        3    1    3    3  502    0  0.15108266909E+04  0.71435719973E+03  0.82703447678E+03  0.18646419320E+04  0.10100000352E+00 0. -1.
       -3    1    3    3    0  502 -0.15108266909E+04 -0.71435719973E+03  0.30245513076E+03  0.16983470243E+04  0.10100000352E+00 0.  1.
</event>
<event>
 5   0  0.1010855E-06  0.3357408E+04  0.7818609E-02  0.8148440E-01
        1   -1    0    0  501    0  0.00000000000E+00  0.00000000000E+00  0.15597687401E+04  0.15597687401E+04  0.50400001928E-02 0. -1.
       -1   -1    0    0    0  501  0.00000000000E+00  0.00000000000E+00 -0.18067080032E+04  0.18067080032E+04  0.50400001928E-02 0.  1.
    10030    2    1    2    0    0  0.00000000000E+00  0.00000000000E+00 -0.24693926311E+03  0.33664767434E+04  0.33574077298E+04 0.  0.
        1    1    3    3  502    0 -0.33123580631E+03 -0.16427895436E+04 -0.25368644494E+02  0.16760424255E+04  0.50400001928E-02 0.  1.
       -1    1    3    3    0  502  0.33123580631E+03  0.16427895436E+04 -0.22157061862E+03  0.16904343179E+04  0.50400001928E-02 0. -1.
</event>
<event>
 5   0  0.2856440E-06  0.3409169E+04  0.7818609E-02  0.8135660E-01
       -2   -1    0    0    0  501  0.00000000000E+00  0.00000000000E+00  0.12958279600E+04  0.12958279600E+04  0.25500000920E-02 0.  1.
        2   -1    0    0  501    0  0.00000000000E+00  0.00000000000E+00 -0.22422788433E+04  0.22422788433E+04  0.25500000920E-02 0. -1.
    10030    2    1    2    0    0  0.00000000000E+00  0.00000000000E+00 -0.94645088334E+03  0.35381068033E+04  0.34091685903E+04 0.  0.
        4    1    3    3  502    0  0.67190928785E+03 -0.13961249451E+04  0.26426966302E+03  0.15717719367E+04  0.12699999809E+01 0.  1.
       -4    1    3    3    0  502 -0.67190928785E+03  0.13961249451E+04 -0.12107205464E+04  0.19663348666E+04  0.12699999809E+01 0. -1.
</event>
<event>
 5   0  0.9070500E-07  0.3388667E+04  0.7818609E-02  0.8140694E-01
       -3   -1    0    0    0  501  0.00000000000E+00  0.00000000000E+00  0.25304576495E+04  0.25304576515E+04  0.10100000352E+00 0. -1.
        3   -1    0    0  501    0  0.00000000000E+00  0.00000000000E+00 -0.11344845840E+04  0.11344845885E+04  0.10100000352E+00 0.  1.
    10030    2    1    2    0    0  0.00000000000E+00  0.00000000000E+00  0.13959730655E+04  0.36649422400E+04  0.33886665258E+04 0.  0.
        3    1    3    3  502    0  0.94552552188E+03 -0.13980443453E+04  0.85919859846E+03  0.18938766448E+04  0.10100000352E+00 0.  1.
       -3    1    3    3    0  502 -0.94552552188E+03  0.13980443453E+04  0.53677446703E+03  0.17710655952E+04  0.10100000352E+00 0. -1.
</event>
<event>
 5   0  0.2906701E-06  0.3405380E+04  0.7818609E-02  0.8136587E-01
        2   -1    0    0  501    0  0.00000000000E+00  0.00000000000E+00  0.13818757343E+04  0.13818757343E+04  0.25500000920E-02 0. -1.
       -2   -1    0    0    0  501  0.00000000000E+00  0.00000000000E+00 -0.20979840173E+04  0.20979840173E+04  0.25500000920E-02 0.  1.
    10030    2    1    2    0    0  0.00000000000E+00  0.00000000000E+00 -0.71610828304E+03  0.34798597516E+04  0.34053799814E+04 0.  0.
        5    1    3    3  502    0 -0.35776587231E+03 -0.31469840936E+03  0.13123535605E+04  0.13961824616E+04  0.46999998093E+01 0. -1.
       -5    1    3    3    0  502  0.35776587231E+03  0.31469840936E+03 -0.20284618435E+04  0.20836772900E+04  0.46999998093E+01 0.  1.
</event>
<event>
 5   0  0.2664083E-06  0.3333690E+04  0.7818609E-02  0.8154376E-01
       -2   -1    0    0    0  501  0.00000000000E+00  0.00000000000E+00  0.15909968048E+04  0.15909968048E+04  0.25500000920E-02 0.  1.
        2   -1    0    0  501    0  0.00000000000E+00  0.00000000000E+00 -0.17463087019E+04  0.17463087019E+04  0.25500000920E-02 0. -1.
    10030    2    1    2    0    0  0.00000000000E+00  0.00000000000E+00 -0.15531189709E+03  0.33373055066E+04  0.33336895865E+04 0.  0.
        2    1    3    3  502    0 -0.13623033233E+04 -0.82886166890E+03 -0.56345496390E+03  0.16912609223E+04  0.25500000920E-02 0. -1.
       -2    1    3    3    0  502  0.13623033233E+04  0.82886166890E+03  0.40814306681E+03  0.16460445844E+04  0.25500000920E-02 0.  1.
</event>
<event>
 5   0  0.2848685E-06  0.3387592E+04  0.7818609E-02  0.8140958E-01
       -2   -1    0    0    0  501  0.00000000000E+00  0.00000000000E+00  0.16088583370E+04  0.16088583370E+04  0.25500000920E-02 0. -1.
        2   -1    0    0  501    0  0.00000000000E+00  0.00000000000E+00 -0.17832182392E+04  0.17832182392E+04  0.25500000920E-02 0.  1.
    10030    2    1    2    0    0  0.00000000000E+00  0.00000000000E+00 -0.17435990215E+03  0.33920765762E+04  0.33875923786E+04 0.  0.
        3    1    3    3  502    0 -0.49260502117E+03 -0.24845877949E+03  0.15163623794E+04  0.16136128247E+04  0.10100000352E+00 0. -1.
       -3    1    3    3    0  502  0.49260502117E+03  0.24845877949E+03 -0.16907222816E+04  0.17784637516E+04  0.10100000352E+00 0.  1.
</event>
<event>
 5   0  0.2848685E-06  0.2397669E+04  0.7818609E-02  0.8440377E-01
        2   -1    0    0  501    0  0.00000000000E+00  0.00000000000E+00  0.22766346547E+04  0.22766346547E+04  0.25500000920E-02 0. -1.
       -2   -1    0    0    0  501  0.00000000000E+00  0.00000000000E+00 -0.63128475554E+03  0.63128475554E+03  0.25500000920E-02 0.  1.
    10030    2    1    2    0    0  0.00000000000E+00  0.00000000000E+00  0.16453498991E+04  0.29079194102E+04  0.23976694947E+04 0.  0.
        3    1    3    3  502    0 -0.78674551079E+03  0.57411515378E+03 -0.25103237119E+02  0.97427249333E+03  0.10100000352E+00 0.  1.
       -3    1    3    3    0  502  0.78674551079E+03 -0.57411515378E+03  0.16704531362E+04  0.19336469169E+04  0.10100000352E+00 0. -1.
</event>
<event>
 5   0  0.2664083E-06  0.3430280E+04  0.7818609E-02  0.8130514E-01
        2   -1    0    0  501    0  0.00000000000E+00  0.00000000000E+00  0.19132447982E+04  0.19132447982E+04  0.25500000920E-02 0.  1.
       -2   -1    0    0    0  501  0.00000000000E+00  0.00000000000E+00 -0.15375479012E+04  0.15375479012E+04  0.25500000920E-02 0. -1.
    10030    2    1    2    0    0  0.00000000000E+00  0.00000000000E+00  0.37569689707E+03  0.34507926994E+04  0.34302801774E+04 0.  0.
        2    1    3    3  502    0 -0.43808749047E+03  0.11841960546E+04  0.13555932852E+04  0.18525318081E+04  0.25500000920E-02 0.  1.
       -2    1    3    3    0  502  0.43808749047E+03 -0.11841960546E+04 -0.97989638814E+03  0.15982608913E+04  0.25500000920E-02 0. -1.
</event>
<event>
 5   0  0.2848685E-06  0.3110913E+04  0.7818609E-02  0.8212749E-01
        2   -1    0    0  501    0  0.00000000000E+00  0.00000000000E+00  0.15198419647E+04  0.15198419647E+04  0.25500000920E-02 0. -1.
       -2   -1    0    0    0  501  0.00000000000E+00  0.00000000000E+00 -0.15919056805E+04  0.15919056805E+04  0.25500000920E-02 0.  1.
    10030    2    1    2    0    0  0.00000000000E+00  0.00000000000E+00 -0.72063715753E+02  0.31117476452E+04  0.31109130859E+04 0.  0.
        3    1    3    3  502    0  0.23373052539E+03 -0.73669963567E+03 -0.13862416502E+04  0.15871427897E+04  0.10100000352E+00 0.  1.
       -3    1    3    3    0  502 -0.23373052539E+03  0.73669963567E+03  0.13141779345E+04  0.15246048555E+04  0.10100000352E+00 0. -1.
</event>
<event>
 5   0  0.1003191E-06  0.2551976E+04  0.7818609E-02  0.8384699E-01
        1   -1    0    0  501    0  0.00000000000E+00  0.00000000000E+00  0.15826470152E+04  0.15826470152E+04  0.50400001928E-02 0.  1.
       -1   -1    0    0    0  501  0.00000000000E+00  0.00000000000E+00 -0.10287483782E+04  0.10287483782E+04  0.50400001928E-02 0. -1.
    10030    2    1    2    0    0  0.00000000000E+00  0.00000000000E+00  0.55389863698E+03  0.26113953935E+04  0.25519761364E+04 0.  0.
        5    1    3    3  502    0 -0.85398044743E+03 -0.21551912134E+03 -0.66779828722E+03  0.11053088884E+04  0.46999998093E+01 0. -1.
       -5    1    3    3    0  502  0.85398044743E+03  0.21551912134E+03  0.12216969242E+04  0.15060865051E+04  0.46999998093E+01 0.  1.
</event>
<event>
 5   0  0.2767014E-06  0.2957116E+04  0.7818609E-02  0.8256084E-01
        2   -1    0    0  501    0  0.00000000000E+00  0.00000000000E+00  0.14489283043E+04  0.14489283043E+04  0.25500000920E-02 0. -1.
       -2   -1    0    0    0  501  0.00000000000E+00  0.00000000000E+00 -0.15087938482E+04  0.15087938482E+04  0.25500000920E-02 0.  1.
    10030    2    1    2    0    0  0.00000000000E+00  0.00000000000E+00 -0.59865543826E+02  0.29577221525E+04  0.29571162385E+04 0.  0.
        1    1    3    3  502    0 -0.18087173871E+03 -0.40903509751E+02  0.14372510292E+04  0.14491646573E+04  0.50400001928E-02 0. -1.
       -1    1    3    3    0  502  0.18087173871E+03  0.40903509751E+02 -0.14971165731E+04  0.15085574952E+04  0.50400001928E-02 0.  1.
</event>
<event>
 5   0  0.9232963E-07  0.3326357E+04  0.7818609E-02  0.8156221E-01
       -1   -1    0    0    0  501  0.00000000000E+00  0.00000000000E+00  0.13361572193E+04  0.13361572194E+04  0.50400001928E-02 0.  1.
        1   -1    0    0  501    0  0.00000000000E+00  0.00000000000E+00 -0.20702379754E+04  0.20702379755E+04  0.50400001928E-02 0. -1.
    10030    2    1    2    0    0  0.00000000000E+00  0.00000000000E+00 -0.73408075611E+03  0.34063951948E+04  0.33263574172E+04 0.  0.
        3    1    3    3  502    0  0.82343709730E+03  0.10504927895E+01 -0.18468409310E+04  0.20220957424E+04  0.10100000352E+00 0. -1.
       -3    1    3    3    0  502 -0.82343709730E+03 -0.10504927895E+01  0.11127601749E+04  0.13842994524E+04  0.10100000352E+00 0.  1.
</event>
<event>
 5   0  0.2856440E-06  0.3360662E+04  0.7818609E-02  0.8147629E-01
       -2   -1    0    0    0  501  0.00000000000E+00  0.00000000000E+00  0.12517447511E+04  0.12517447511E+04  0.25500000920E-02 0.  1.
        2   -1    0    0  501    0  0.00000000000E+00  0.00000000000E+00 -0.22556607293E+04  0.22556607293E+04  0.25500000920E-02 0. -1.
    10030    2    1    2    0    0  0.00000000000E+00  0.00000000000E+00 -0.10039159782E+04  0.35074054804E+04  0.33606615291E+04 0.  0.
        4    1    3    3  502    0  0.68182820469E+03 -0.15323125738E+04 -0.60960405233E+03  0.17845140061E+04  0.12699999809E+01 0. -1.
       -4    1    3    3    0  502 -0.68182820469E+03  0.15323125738E+04 -0.39431192588E+03  0.17228914743E+04  0.12699999809E+01 0.  1.
</event>
<event>
 5   0  0.2856440E-06  0.3381932E+04  0.7818609E-02  0.8142355E-01
       -2   -1    0    0    0  501  0.00000000000E+00  0.00000000000E+00  0.13632757256E+04  0.13632757256E+04  0.25500000920E-02 0. -1.
        2   -1    0    0  501    0  0.00000000000E+00  0.00000000000E+00 -0.20974235969E+04  0.20974235969E+04  0.25500000920E-02 0.  1.
    10030    2    1    2    0    0  0.00000000000E+00  0.00000000000E+00 -0.73414787126E+03  0.34606993225E+04  0.33819323920E+04 0.  0.
        4    1    3    3  502    0  0.77125369523E+03 -0.57257461430E+03  0.10569888135E+04  0.14282509990E+04  0.12699999809E+01 0. -1.
       -4    1    3    3    0  502 -0.77125369523E+03  0.57257461430E+03 -0.17911366848E+04  0.20324483235E+04  0.12699999809E+01 0.  1.
</event>
<event>
 5   0  0.2856440E-06  0.3464901E+04  0.7818609E-02  0.8122159E-01
       -2   -1    0    0    0  501  0.00000000000E+00  0.00000000000E+00  0.27130625645E+04  0.27130625645E+04  0.25500000920E-02 0.  1.
        2   -1    0    0  501    0  0.00000000000E+00  0.00000000000E+00 -0.11062715997E+04  0.11062715997E+04  0.25500000920E-02 0. -1.
    10030    2    1    2    0    0  0.00000000000E+00  0.00000000000E+00  0.16067909648E+04  0.38193341643E+04  0.34649006124E+04 0.  0.
        4    1    3    3  502    0 -0.11310590278E+04  0.36180848131E+03  0.21938502945E+04  0.24946303592E+04  0.12699999809E+01 0.  1.
       -4    1    3    3    0  502  0.11310590278E+04 -0.36180848131E+03 -0.58705932968E+03  0.13247038050E+04  0.12699999809E+01 0. -1.
</event>
<event>
 5   0  0.2767014E-06  0.3414193E+04  0.7818609E-02  0.8134432E-01
        2   -1    0    0  501    0  0.00000000000E+00  0.00000000000E+00  0.14710076831E+04  0.14710076831E+04  0.25500000920E-02 0. -1.
       -2   -1    0    0    0  501  0.00000000000E+00  0.00000000000E+00 -0.19810760699E+04  0.19810760699E+04  0.25500000920E-02 0.  1.
    10030    2    1    2    0    0  0.00000000000E+00  0.00000000000E+00 -0.51006838683E+03  0.34520837530E+04  0.34141928004E+04 0.  0.
        1    1    3    3  502    0 -0.94736282401E+03  0.11353482916E+04  0.60746627558E+03  0.15986016826E+04  0.50400001928E-02 0. -1.
       -1    1    3    3    0  502  0.94736282401E+03 -0.11353482916E+04 -0.11175346624E+04  0.18534820704E+04  0.50400001928E-02 0.  1.
</event>
<event>
 5   0  0.9714317E-07  0.3381186E+04  0.7818609E-02  0.8142539E-01
        1   -1    0    0  501    0  0.00000000000E+00  0.00000000000E+00  0.16211013439E+04  0.16211013439E+04  0.50400001928E-02 0. -1.
       -1   -1    0    0    0  501  0.00000000000E+00  0.00000000000E+00 -0.17630632701E+04  0.17630632701E+04  0.50400001928E-02 0.  1.
    10030    2    1    2    0    0  0.00000000000E+00  0.00000000000E+00 -0.14196192616E+03  0.33841646140E+04  0.33811857308E+04 0.  0.
        4    1    3    3  502    0  0.10391464868E+04 -0.64610134843E+03 -0.12385550020E+04  0.17410607340E+04  0.12699999809E+01 0. -1.
       -4    1    3    3    0  502 -0.10391464868E+04  0.64610134843E+03  0.10965930759E+04  0.16431038800E+04  0.12699999809E+01 0.  1.
</event>
<event>
 5   0  0.1003191E-06  0.2478476E+04  0.7818609E-02  0.8410694E-01
        1   -1    0    0  501    0  0.00000000000E+00  0.00000000000E+00  0.13852614825E+04  0.13852614825E+04  0.50400001928E-02 0. -1.
       -1   -1    0    0    0  501  0.00000000000E+00  0.00000000000E+00 -0.11086074373E+04  0.11086074373E+04  0.50400001928E-02 0.  1.
    10030    2    1    2    0    0  0.00000000000E+00  0.00000000000E+00  0.27665404523E+03  0.24938689198E+04  0.24784762917E+04 0.  0.
        5    1    3    3  502    0  0.36439737151E+03 -0.26672453801E+03 -0.10228598280E+04  0.11181197348E+04  0.46999998093E+01 0.  1.
       -5    1    3    3    0  502 -0.36439737151E+03  0.26672453801E+03  0.12995138732E+04  0.13757491851E+04  0.46999998093E+01 0. -1.
</event>
<event>
 5   0  0.2856440E-06  0.3474973E+04  0.7818609E-02  0.8119747E-01
        2   -1    0    0  501    0  0.00000000000E+00  0.00000000000E+00  0.26820657405E+04  0.26820657405E+04  0.25500000920E-02 0.  1.
       -2   -1    0    0    0  501  0.00000000000E+00  0.00000000000E+00 -0.11255722679E+04  0.11255722679E+04  0.25500000920E-02 0. -1.
    10030    2    1    2    0    0  0.00000000000E+00  0.00000000000E+00  0.15564934727E+04  0.38076380084E+04  0.34749727010E+04 0.  0.
        4    1    3    3  502    0  0.86172199133E+03  0.91482801959E+03 -0.53634926341E+03  0.13664359630E+04  0.12699999809E+01 0. -1.
       -4    1    3    3    0  502 -0.86172199133E+03 -0.91482801959E+03  0.20928427361E+04  0.24412020454E+04  0.12699999809E+01 0.  1.
</event>
<event>
 5   0  0.2767014E-06  0.3394170E+04  0.7818609E-02  0.8139339E-01
        2   -1    0    0  501    0  0.00000000000E+00  0.00000000000E+00  0.11126110487E+04  0.11126110487E+04  0.25500000920E-02 0. -1.
       -2   -1    0    0    0  501  0.00000000000E+00  0.00000000000E+00 -0.25885928427E+04  0.25885928427E+04  0.25500000920E-02 0.  1.
    10030    2    1    2    0    0  0.00000000000E+00  0.00000000000E+00 -0.14759817941E+04  0.37012038914E+04  0.33941697054E+04 0.  0.
        1    1    3    3  502    0 -0.62956254010E+03 -0.60616300900E+03 -0.23243428660E+04  0.24832141157E+04  0.50400001928E-02 0.  1.
       -1    1    3    3    0  502  0.62956254010E+03  0.60616300900E+03  0.84836107195E+03  0.12179897757E+04  0.50400001928E-02 0. -1.
</event>
<event>
 5   0  0.2664083E-06  0.3504219E+04  0.7818609E-02  0.8112791E-01
       -2   -1    0    0    0  501  0.00000000000E+00  0.00000000000E+00  0.14091833363E+04  0.14091833363E+04  0.25500000920E-02 0.  1.
        2   -1    0    0  501    0  0.00000000000E+00  0.00000000000E+00 -0.21784865117E+04  0.21784865117E+04  0.25500000920E-02 0. -1.
    10030    2    1    2    0    0  0.00000000000E+00  0.00000000000E+00 -0.76930317542E+03  0.35876698480E+04  0.35042185381E+04 0.  0.
        2    1    3    3  502    0 -0.82062781203E+03 -0.28374980425E+03  0.11734121315E+04  0.14597396986E+04  0.25500000920E-02 0.  1.
       -2    1    3    3    0  502  0.82062781203E+03  0.28374980425E+03 -0.19427153069E+04  0.21279301495E+04  0.25500000920E-02 0. -1.
</event>
<event>
 5   0  0.2906701E-06  0.3433771E+04  0.7818609E-02  0.8129667E-01
       -2   -1    0    0    0  501  0.00000000000E+00  0.00000000000E+00  0.12938946422E+04  0.12938946422E+04  0.25500000920E-02 0.  1.
        2   -1    0    0  501    0  0.00000000000E+00  0.00000000000E+00 -0.22781571924E+04  0.22781571924E+04  0.25500000920E-02 0. -1.
    10030    2    1    2    0    0  0.00000000000E+00  0.00000000000E+00 -0.98426255021E+03  0.35720518346E+04  0.34337707467E+04 0.  0.
        5    1    3    3  502    0 -0.25451912264E+03 -0.15150567428E+04  0.30521882389E+03  0.15663197433E+04  0.46999998093E+01 0.  1.
       -5    1    3    3    0  502  0.25451912264E+03  0.15150567428E+04 -0.12894813741E+04  0.20057320913E+04  0.46999998093E+01 0. -1.
</event>
<event>
 5   0  0.2664083E-06  0.3526761E+04  0.7818609E-02  0.8107477E-01
        2   -1    0    0  501    0  0.00000000000E+00  0.00000000000E+00  0.20476260886E+04  0.20476260886E+04  0.25500000920E-02 0.  1.
       -2   -1    0    0    0  501  0.00000000000E+00  0.00000000000E+00 -0.15185932056E+04  0.15185932056E+04  0.25500000920E-02 0. -1.
    10030    2    1    2    0    0  0.00000000000E+00  0.00000000000E+00  0.52903288300E+03  0.35662192942E+04  0.35267611576E+04 0.  0.
        2    1    3    3  502    0  0.15480019777E+04 -0.53635686458E+03  0.92413541071E+03  0.18809612081E+04  0.25500000920E-02 0.  1.
       -2    1    3    3    0  502 -0.15480019777E+04  0.53635686458E+03 -0.39510252771E+03  0.16852580861E+04  0.25500000920E-02 0. -1.
</event>
<event>
 5   0  0.9232963E-07  0.3559882E+04  0.7818609E-02  0.8099744E-01
        1   -1    0    0  501    0  0.00000000000E+00  0.00000000000E+00  0.21187445152E+04  0.21187445152E+04  0.50400001928E-02 0.  1.
       -1   -1    0    0    0  501  0.00000000000E+00  0.00000000000E+00 -0.14953144775E+04  0.14953144775E+04  0.50400001928E-02 0. -1.
    10030    2    1    2    0    0  0.00000000000E+00  0.00000000000E+00  0.62343003771E+03  0.36140589927E+04  0.35598816541E+04 0.  0.
        3    1    3    3  502    0  0.12298858219E+04  0.12644893859E+04  0.55332174143E+03  0.18487069810E+04  0.10100000352E+00 0. -1.
       -3    1    3    3    0  502 -0.12298858219E+04 -0.12644893859E+04  0.70108296287E+02  0.17653520117E+04  0.10100000352E+00 0.  1.
</event>
<event>
 5   0  0.2767014E-06  0.3416426E+04  0.7818609E-02  0.8133887E-01
       -2   -1    0    0    0  501  0.00000000000E+00  0.00000000000E+00  0.20803628876E+04  0.20803628876E+04  0.25500000920E-02 0. -1.
        2   -1    0    0  501    0  0.00000000000E+00  0.00000000000E+00 -0.14026361331E+04  0.14026361331E+04  0.25500000920E-02 0.  1.
    10030    2    1    2    0    0  0.00000000000E+00  0.00000000000E+00  0.67772675448E+03  0.34829990208E+04  0.34164262944E+04 0.  0.
        1    1    3    3  502    0 -0.53034966117E+03  0.13756454461E+04  0.12184151993E+04  0.19126439173E+04  0.50400001928E-02 0. -1.
       -1    1    3    3    0  502  0.53034966117E+03 -0.13756454461E+04 -0.54068844479E+03  0.15703551034E+04  0.50400001928E-02 0.  1.
</event>
<event>
 5   0  0.9714317E-07  0.2219094E+04  0.7818609E-02  0.8510523E-01
        1   -1    0    0  501    0  0.00000000000E+00  0.00000000000E+00  0.11263718170E+04  0.11263718170E+04  0.50400001928E-02 0. -1.
       -1   -1    0    0    0  501  0.00000000000E+00  0.00000000000E+00 -0.10929731024E+04  0.10929731024E+04  0.50400001928E-02 0.  1.
    10030    2    1    2    0    0  0.00000000000E+00  0.00000000000E+00  0.33398714560E+02  0.22193449194E+04  0.22190935981E+04 0.  0.
        4    1    3    3  502    0 -0.45647357887E+03 -0.88533617415E+03  0.50553300354E+03  0.11170288716E+04  0.12699999809E+01 0. -1.
       -4    1    3    3    0  502  0.45647357887E+03  0.88533617415E+03 -0.47213428898E+03  0.11023160478E+04  0.12699999809E+01 0.  1.
</event>
<event>
 5   0  0.9714317E-07  0.2687416E+04  0.7818609E-02  0.8339100E-01
        1   -1    0    0  501    0  0.00000000000E+00  0.00000000000E+00  0.12512828599E+04  0.12512828599E+04  0.50400001928E-02 0.  1.
       -1   -1    0    0    0  501  0.00000000000E+00  0.00000000000E+00 -0.14429600338E+04  0.14429600338E+04  0.50400001928E-02 0. -1.
    10030    2    1    2    0    0  0.00000000000E+00  0.00000000000E+00 -0.19167717394E+03  0.26942428937E+04  0.26874159766E+04 0.  0.
        4    1    3    3  502    0 -0.10094942999E+04 -0.50789164700E+03  0.63299987324E+03  0.12952695160E+04  0.12699999809E+01 0.  1.
       -4    1    3    3    0  502  0.10094942999E+04  0.50789164700E+03 -0.82467704718E+03  0.13989733777E+04  0.12699999809E+01 0. -1.
</event>
<event>
 5   0  0.2848685E-06  0.3515299E+04  0.7818609E-02  0.8110174E-01
       -2   -1    0    0    0  501  0.00000000000E+00  0.00000000000E+00  0.23481157342E+04  0.23481157342E+04  0.25500000920E-02 0. -1.
        2   -1    0    0  501    0  0.00000000000E+00  0.00000000000E+00 -0.13156639285E+04  0.13156639285E+04  0.25500000920E-02 0.  1.
    10030    2    1    2    0    0  0.00000000000E+00  0.00000000000E+00  0.10324518057E+04  0.36637796627E+04  0.35152986624E+04 0.  0.
        3    1    3    3  502    0 -0.50070471953E+03  0.12323843482E+04 -0.68114910952E+03  0.14944699788E+04  0.10100000352E+00 0.  1.
       -3    1    3    3    0  502  0.50070471953E+03 -0.12323843482E+04  0.17136009152E+04  0.21693096839E+04  0.10100000352E+00 0. -1.
</event>
<event>
 5   0  0.2906701E-06  0.3352926E+04  0.7818609E-02  0.8149558E-01
       -2   -1    0    0    0  501  0.00000000000E+00  0.00000000000E+00  0.14566546574E+04  0.14566546574E+04  0.25500000920E-02 0. -1.
        2   -1    0    0  501    0  0.00000000000E+00  0.00000000000E+00 -0.19294398824E+04  0.19294398824E+04  0.25500000920E-02 0.  1.
    10030    2    1    2    0    0  0.00000000000E+00  0.00000000000E+00 -0.47278522498E+03  0.33860945397E+04  0.33529256423E+04 0.  0.
        5    1    3    3  502    0 -0.13537192806E+04 -0.82670556776E+03  0.31166138182E+03  0.16165249436E+04  0.46999998093E+01 0. -1.
       -5    1    3    3    0  502  0.13537192806E+04  0.82670556776E+03 -0.78444660680E+03  0.17695695961E+04  0.46999998093E+01 0.  1.
</event>
<event>
 5   0  0.2906701E-06  0.3402398E+04  0.7818609E-02  0.8137318E-01
        2   -1    0    0  501    0  0.00000000000E+00  0.00000000000E+00  0.22909748265E+04  0.22909748265E+04  0.25500000920E-02 0. -1.
       -2   -1    0    0    0  501  0.00000000000E+00  0.00000000000E+00 -0.12632519919E+04  0.12632519919E+04  0.25500000920E-02 0.  1.
    10030    2    1    2    0    0  0.00000000000E+00  0.00000000000E+00  0.10277228346E+04  0.35542268184E+04  0.34023982795E+04 0.  0.
        5    1    3    3  502    0 -0.16954692725E+03  0.12059267297E+04 -0.72702303356E+03  0.14183053336E+04  0.46999998093E+01 0.  1.
       -5    1    3    3    0  502  0.16954692725E+03 -0.12059267297E+04  0.17547458681E+04  0.21359214849E+04  0.46999998093E+01 0. -1.
</event>
<event>
 5   0  0.2767014E-06  0.3430566E+04  0.7818609E-02  0.8130445E-01
        2   -1    0    0  501    0  0.00000000000E+00  0.00000000000E+00  0.25321828359E+04  0.25321828359E+04  0.25500000920E-02 0.  1.
       -2   -1    0    0    0  501  0.00000000000E+00  0.00000000000E+00 -0.11619208281E+04  0.11619208281E+04  0.25500000920E-02 0. -1.
    10030    2    1    2    0    0  0.00000000000E+00  0.00000000000E+00  0.13702620078E+04  0.36941036639E+04  0.34305661209E+04 0.  0.
        1    1    3    3  502    0  0.24493513990E+03  0.77968215553E+03 -0.93879791465E+03  0.12446843017E+04  0.50400001928E-02 0. -1.
       -1    1    3    3    0  502 -0.24493513990E+03 -0.77968215553E+03  0.23090599225E+04  0.24494193622E+04  0.50400001928E-02 0.  1.
</event>
<event>
 5   0  0.9714317E-07  0.3182782E+04  0.7818609E-02  0.8193379E-01
       -1   -1    0    0    0  501  0.00000000000E+00  0.00000000000E+00  0.12023835570E+04  0.12023835571E+04  0.50400001928E-02 0.  1.
        1   -1    0    0  501    0  0.00000000000E+00  0.00000000000E+00 -0.21062547206E+04  0.21062547206E+04  0.50400001928E-02 0. -1.
    10030    2    1    2    0    0  0.00000000000E+00  0.00000000000E+00 -0.90387116357E+03  0.33086382777E+04  0.31827824576E+04 0.  0.
        4    1    3    3  502    0  0.57325755284E+03 -0.23849505225E+02 -0.19949935688E+04  0.20758598154E+04  0.12699999809E+01 0. -1.
       -4    1    3    3    0  502 -0.57325755284E+03  0.23849505225E+02  0.10911224053E+04  0.12327784622E+04  0.12699999809E+01 0.  1.
</event>
<event>
 5   0  0.9070500E-07  0.2829976E+04  0.7818609E-02  0.8294022E-01
       -3   -1    0    0    0  501  0.00000000000E+00  0.00000000000E+00  0.16416698612E+04  0.16416698643E+04  0.10100000352E+00 0.  1.
        3   -1    0    0  501    0  0.00000000000E+00  0.00000000000E+00 -0.12196061872E+04  0.12196061914E+04  0.10100000352E+00 0. -1.
    10030    2    1    2    0    0  0.00000000000E+00  0.00000000000E+00  0.42206367401E+03  0.28612760557E+04  0.28299757811E+04 0.  0.
        3    1    3    3  502    0 -0.65088333542E+03  0.12216412292E+04  0.50776434966E+03  0.14744087134E+04  0.10100000352E+00 0.  1.
       -3    1    3    3    0  502  0.65088333542E+03 -0.12216412292E+04 -0.85700675647E+02  0.13868673423E+04  0.10100000352E+00 0. -1.
</event>
<event>
 5   0  0.2906701E-06  0.3456049E+04  0.7818609E-02  0.8124285E-01
        2   -1    0    0  501    0  0.00000000000E+00  0.00000000000E+00  0.20547590414E+04  0.20547590414E+04  0.25500000920E-02 0. -1.
       -2   -1    0    0    0  501  0.00000000000E+00  0.00000000000E+00 -0.14532454986E+04  0.14532454986E+04  0.25500000920E-02 0.  1.
    10030    2    1    2    0    0  0.00000000000E+00  0.00000000000E+00  0.60151354280E+03  0.35080045400E+04  0.34560493790E+04 0.  0.
        5    1    3    3  502    0  0.12789045439E+04 -0.11388946440E+04  0.53524786217E+03  0.17942101902E+04  0.46999998093E+01 0. -1.
       -5    1    3    3    0  502 -0.12789045439E+04  0.11388946440E+04  0.66265680629E+02  0.17137943497E+04  0.46999998093E+01 0.  1.
</event>
<event>
 5   0  0.2664083E-06  0.3441646E+04  0.7818609E-02  0.8127760E-01
        2   -1    0    0  501    0  0.00000000000E+00  0.00000000000E+00  0.18472482736E+04  0.18472482736E+04  0.25500000920E-02 0. -1.
       -2   -1    0    0    0  501  0.00000000000E+00  0.00000000000E+00 -0.16030501420E+04  0.16030501420E+04  0.25500000920E-02 0.  1.
    10030    2    1    2    0    0  0.00000000000E+00  0.00000000000E+00  0.24419813159E+03  0.34502984155E+04  0.34416458895E+04 0.  0.
        2    1    3    3  502    0 -0.15237253996E+04 -0.44816524307E+03 -0.54186534841E+03  0.16781564988E+04  0.25500000920E-02 0. -1.
       -2    1    3    3    0  502  0.15237253996E+04  0.44816524307E+03  0.78606348000E+03  0.17721419168E+04  0.25500000920E-02 0.  1.
</event>
<event>
 5   0  0.2848685E-06  0.3374298E+04  0.7818609E-02  0.8144243E-01
        2   -1    0    0  501    0  0.00000000000E+00  0.00000000000E+00  0.14840338007E+04  0.14840338007E+04  0.25500000920E-02 0. -1.
       -2   -1    0    0    0  501  0.00000000000E+00  0.00000000000E+00 -0.19180645016E+04  0.19180645016E+04  0.25500000920E-02 0.  1.
    10030    2    1    2    0    0  0.00000000000E+00  0.00000000000E+00 -0.43403070096E+03  0.34020983023E+04  0.33742984766E+04 0.  0.
        3    1    3    3  502    0 -0.10024306671E+04 -0.13558731839E+04 -0.15986316518E+03  0.16937578266E+04  0.10100000352E+00 0. -1.
       -3    1    3    3    0  502  0.10024306671E+04  0.13558731839E+04 -0.27416753577E+03  0.17083404758E+04  0.10100000352E+00 0.  1.
</event>
<event>
 5   0  0.1010855E-06  0.3359898E+04  0.7818609E-02  0.8147819E-01
        1   -1    0    0  501    0  0.00000000000E+00  0.00000000000E+00  0.11543710821E+04  0.11543710821E+04  0.50400001928E-02 0. -1.
       -1   -1    0    0    0  501  0.00000000000E+00  0.00000000000E+00 -0.24448191219E+04  0.24448191219E+04  0.50400001928E-02 0.  1.
    10030    2    1    2    0    0  0.00000000000E+00  0.00000000000E+00 -0.12904480398E+04  0.35991902040E+04  0.33598979123E+04 0.  0.
        1    1    3    3  502    0 -0.56160221576E+03 -0.11992509112E+04 -0.17525924366E+04  0.21966292463E+04  0.50400001928E-02 0.  1.
       -1    1    3    3    0  502  0.56160221576E+03  0.11992509112E+04  0.46214439682E+03  0.14025609577E+04  0.50400001928E-02 0. -1.
</event>
<event>
 5   0  0.2848685E-06  0.3321133E+04  0.7818609E-02  0.8157539E-01
       -2   -1    0    0    0  501  0.00000000000E+00  0.00000000000E+00  0.17975222016E+04  0.17975222016E+04  0.25500000920E-02 0.  1.
        2   -1    0    0  501    0  0.00000000000E+00  0.00000000000E+00 -0.15340452923E+04  0.15340452923E+04  0.25500000920E-02 0. -1.
    10030    2    1    2    0    0  0.00000000000E+00  0.00000000000E+00  0.26347690939E+03  0.33315674939E+04  0.33211326207E+04 0.  0.
        3    1    3    3  502    0  0.26118802860E+03 -0.14945600911E+04 -0.54532768420E+03  0.16122379929E+04  0.10100000352E+00 0. -1.
       -3    1    3    3    0  502 -0.26118802860E+03  0.14945600911E+04  0.80880459358E+03  0.17193295010E+04  0.10100000352E+00 0.  1.
</event>
<event>
 5   0  0.2906701E-06  0.3374717E+04  0.7818609E-02  0.8144140E-01
        2   -1    0    0  501    0  0.00000000000E+00  0.00000000000E+00  0.17540077224E+04  0.17540077224E+04  0.25500000920E-02 0.  1.
       -2   -1    0    0    0  501  0.00000000000E+00  0.00000000000E+00 -0.16232413944E+04  0.16232413944E+04  0.25500000920E-02 0. -1.
    10030    2    1    2    0    0  0.00000000000E+00  0.00000000000E+00  0.13076632802E+03  0.33772491169E+04  0.33747165458E+04 0.  0.
        5    1    3    3  502    0 -0.67080276492E+03 -0.10983303897E+04 -0.10266964506E+04  0.16463394808E+04  0.46999998093E+01 0. -1.
       -5    1    3    3    0  502  0.67080276492E+03  0.10983303897E+04  0.11574627786E+04  0.17309096361E+04  0.46999998093E+01 0.  1.
</event>
<event>
 5   0  0.1010855E-06  0.3444678E+04  0.7818609E-02  0.8127027E-01
       -1   -1    0    0    0  501  0.00000000000E+00  0.00000000000E+00  0.23112560463E+04  0.23112560463E+04  0.50400001928E-02 0. -1.
        1   -1    0    0  501    0  0.00000000000E+00  0.00000000000E+00 -0.12834802628E+04  0.12834802628E+04  0.50400001928E-02 0.  1.
    10030    2    1    2    0    0  0.00000000000E+00  0.00000000000E+00  0.10277757835E+04  0.35947363092E+04  0.34446779343E+04 0.  0.
        1    1    3    3  502    0  0.15314545274E+04  0.76534394806E+03  0.31768931183E+03  0.17412727607E+04  0.50400001928E-02 0. -1.
       -1    1    3    3    0  502 -0.15314545274E+04 -0.76534394806E+03  0.71008647166E+03  0.18534635485E+04  0.50400001928E-02 0.  1.
</event>
<event>
 5   0  0.1010551E-06  0.3392529E+04  0.7818609E-02  0.8139742E-01
       -1   -1    0    0    0  501  0.00000000000E+00  0.00000000000E+00  0.10654183340E+04  0.10654183340E+04  0.50400001928E-02 0. -1.
        1   -1    0    0  501    0  0.00000000000E+00  0.00000000000E+00 -0.27006423823E+04  0.27006423823E+04  0.50400001928E-02 0.  1.
    10030    2    1    2    0    0  0.00000000000E+00  0.00000000000E+00 -0.16352240483E+04  0.37660607162E+04  0.33925293853E+04 0.  0.
        2    1    3    3  502    0  0.10701216950E+04 -0.13147916265E+04 -0.88306529178E+03  0.19114501754E+04  0.25500000920E-02 0.  1.
       -2    1    3    3    0  502 -0.10701216950E+04  0.13147916265E+04 -0.75215875654E+03  0.18546105409E+04  0.25500000920E-02 0. -1.
</event>
<event>
 5   0  0.2856440E-06  0.3391023E+04  0.7818609E-02  0.8140113E-01
        2   -1    0    0  501    0  0.00000000000E+00  0.00000000000E+00  0.21908331272E+04  0.21908331272E+04  0.25500000920E-02 0.  1.
       -2   -1    0    0    0  501  0.00000000000E+00  0.00000000000E+00 -0.13121764666E+04  0.13121764666E+04  0.25500000920E-02 0. -1.
    10030    2    1    2    0    0  0.00000000000E+00  0.00000000000E+00  0.87865666061E+03  0.35030095937E+04  0.33910232507E+04 0.  0.
        4    1    3    3  502    0 -0.25623414895E+03 -0.90825718465E+03 -0.10157960215E+04  0.13865172998E+04  0.12699999809E+01 0. -1.
       -4    1    3    3    0  502  0.25623414895E+03  0.90825718465E+03  0.18944526821E+04  0.21164922939E+04  0.12699999809E+01 0.  1.
</event>
<event>
 5   0  0.2856440E-06  0.3081392E+04  0.7818609E-02  0.8220863E-01
       -2   -1    0    0    0  501  0.00000000000E+00  0.00000000000E+00  0.12398487482E+04  0.12398487482E+04  0.25500000920E-02 0.  1.
        2   -1    0    0  501    0  0.00000000000E+00  0.00000000000E+00 -0.19145438519E+04  0.19145438519E+04  0.25500000920E-02 0. -1.
    10030    2    1    2    0    0  0.00000000000E+00  0.00000000000E+00 -0.67469510369E+03  0.31543926002E+04  0.30813924114E+04 0.  0.
        4    1    3    3  502    0  0.21041094042E+03 -0.95773659379E+03 -0.15538655468E+04  0.18373981325E+04  0.12699999809E+01 0. -1.
       -4    1    3    3    0  502 -0.21041094042E+03  0.95773659379E+03  0.87917044309E+03  0.13169944677E+04  0.12699999809E+01 0.  1.
</event>
<event>
 5   0  0.2664083E-06  0.3407465E+04  0.7818609E-02  0.8136077E-01
       -2   -1    0    0    0  501  0.00000000000E+00  0.00000000000E+00  0.17567018812E+04  0.17567018812E+04  0.25500000920E-02 0.  1.
        2   -1    0    0  501    0  0.00000000000E+00  0.00000000000E+00 -0.16523600332E+04  0.16523600332E+04  0.25500000920E-02 0. -1.
    10030    2    1    2    0    0  0.00000000000E+00  0.00000000000E+00  0.10434184803E+03  0.34090619144E+04  0.34074647342E+04 0.  0.
        2    1    3    3  502    0  0.72267363559E+03 -0.79656136554E+03 -0.12697874395E+04  0.16640695100E+04  0.25500000920E-02 0. -1.
       -2    1    3    3    0  502 -0.72267363559E+03  0.79656136554E+03  0.13741292875E+04  0.17449924044E+04  0.25500000920E-02 0.  1.
</event>
<event>
 5   0  0.2767014E-06  0.3005758E+04  0.7818609E-02  0.8242089E-01
        2   -1    0    0  501    0  0.00000000000E+00  0.00000000000E+00  0.10083555975E+04  0.10083555975E+04  0.25500000920E-02 0. -1.
       -2   -1    0    0    0  501  0.00000000000E+00  0.00000000000E+00 -0.22399289255E+04  0.22399289255E+04  0.25500000920E-02 0.  1.
    10030    2    1    2    0    0  0.00000000000E+00  0.00000000000E+00 -0.12315733280E+04  0.32482845230E+04  0.30057577214E+04 0.  0.
        1    1    3    3  502    0 -0.29260423613E+03 -0.18269556637E+03  0.96499342300E+03  0.10247961824E+04  0.50400001928E-02 0. -1.
       -1    1    3    3    0  502  0.29260423613E+03  0.18269556637E+03 -0.21965667510E+04  0.22234883406E+04  0.50400001928E-02 0.  1.
</event>
<event>
 5   0  0.2856440E-06  0.3436140E+04  0.7818609E-02  0.8129093E-01
       -2   -1    0    0    0  501  0.00000000000E+00  0.00000000000E+00  0.16513516727E+04  0.16513516727E+04  0.25500000920E-02 0.  1.
        2   -1    0    0  501    0  0.00000000000E+00  0.00000000000E+00 -0.17874840339E+04  0.17874840339E+04  0.25500000920E-02 0. -1.
    10030    2    1    2    0    0  0.00000000000E+00  0.00000000000E+00 -0.13613236119E+03  0.34388357066E+04  0.34361401306E+04 0.  0.
        4    1    3    3  502    0  0.38787724011E+03  0.13642589757E+02  0.16069039185E+04  0.16531112152E+04  0.12699999809E+01 0.  1.
       -4    1    3    3    0  502 -0.38787724011E+03 -0.13642589757E+02 -0.17430362797E+04  0.17857244913E+04  0.12699999809E+01 0. -1.
</event>
<event>
 5   0  0.2848685E-06  0.3409665E+04  0.7818609E-02  0.8135538E-01
       -2   -1    0    0    0  501  0.00000000000E+00  0.00000000000E+00  0.14671367985E+04  0.14671367985E+04  0.25500000920E-02 0. -1.
        2   -1    0    0  501    0  0.00000000000E+00  0.00000000000E+00 -0.19810380468E+04  0.19810380468E+04  0.25500000920E-02 0.  1.
    10030    2    1    2    0    0  0.00000000000E+00  0.00000000000E+00 -0.51390124826E+03  0.34481748453E+04  0.34096649793E+04 0.  0.
        3    1    3    3  502    0 -0.31806432564E+03 -0.52522033097E+03 -0.18653323024E+04  0.19637937569E+04  0.10100000352E+00 0.  1.
       -3    1    3    3    0  502  0.31806432564E+03  0.52522033097E+03  0.13514310541E+04  0.14843810884E+04  0.10100000352E+00 0. -1.
</event>
<event>
 5   0  0.9232963E-07  0.3186559E+04  0.7818609E-02  0.8192376E-01
        1   -1    0    0  501    0  0.00000000000E+00  0.00000000000E+00  0.23396342007E+04  0.23396342007E+04  0.50400001928E-02 0. -1.
       -1   -1    0    0    0  501  0.00000000000E+00  0.00000000000E+00 -0.10850156624E+04  0.10850156624E+04  0.50400001928E-02 0.  1.
    10030    2    1    2    0    0  0.00000000000E+00  0.00000000000E+00  0.12546185384E+04  0.34246498631E+04  0.31865591173E+04 0.  0.
        3    1    3    3  502    0 -0.86082616164E+03 -0.93058499437E+03  0.16645809769E+04  0.20923288344E+04  0.10100000352E+00 0.  1.
       -3    1    3    3    0  502  0.86082616164E+03  0.93058499437E+03 -0.40996243854E+03  0.13323210287E+04  0.10100000352E+00 0. -1.
</event>
<event>
 5   0  0.9232963E-07  0.3444763E+04  0.7818609E-02  0.8127007E-01
       -1   -1    0    0    0  501  0.00000000000E+00  0.00000000000E+00  0.17107257328E+04  0.17107257328E+04  0.50400001928E-02 0. -1.
        1   -1    0    0  501    0  0.00000000000E+00  0.00000000000E+00 -0.17341163319E+04  0.17341163319E+04  0.50400001928E-02 0.  1.
    10030    2    1    2    0    0  0.00000000000E+00  0.00000000000E+00 -0.23390599078E+02  0.34448420647E+04  0.34447626523E+04 0.  0.
        3    1    3    3  502    0  0.80570485934E+03 -0.75836324247E+03 -0.13316962947E+04  0.17313838857E+04  0.10100000352E+00 0.  1.
       -3    1    3    3    0  502 -0.80570485934E+03  0.75836324247E+03  0.13083056957E+04  0.17134581791E+04  0.10100000352E+00 0. -1.
</event>
<event>
 5   0  0.9714317E-07  0.3328746E+04  0.7818609E-02  0.8155619E-01
        1   -1    0    0  501    0  0.00000000000E+00  0.00000000000E+00  0.13797626989E+04  0.13797626989E+04  0.50400001928E-02 0. -1.
       -1   -1    0    0    0  501  0.00000000000E+00  0.00000000000E+00 -0.20076913095E+04  0.20076913095E+04  0.50400001928E-02 0.  1.
    10030    2    1    2    0    0  0.00000000000E+00  0.00000000000E+00 -0.62792861057E+03  0.33874540084E+04  0.33287460581E+04 0.  0.
        4    1    3    3  502    0 -0.91134241612E+03  0.66386015875E+03 -0.15598444651E+04  0.19246744343E+04  0.12699999809E+01 0.  1.
       -4    1    3    3    0  502  0.91134241612E+03 -0.66386015875E+03  0.93191585451E+03  0.14627795742E+04  0.12699999809E+01 0. -1.
</event>
<event>
 5   0  0.1010855E-06  0.3253489E+04  0.7818609E-02  0.8174832E-01
        1   -1    0    0  501    0  0.00000000000E+00  0.00000000000E+00  0.19643660126E+04  0.19643660126E+04  0.50400001928E-02 0. -1.
       -1   -1    0    0    0  501  0.00000000000E+00  0.00000000000E+00 -0.13471509539E+04  0.13471509539E+04  0.50400001928E-02 0.  1.
    10030    2    1    2    0    0  0.00000000000E+00  0.00000000000E+00  0.61721505865E+03  0.33115169665E+04  0.32534889259E+04 0.  0.
        1    1    3    3  502    0 -0.10353991620E+04  0.78411341335E+02  0.15831790852E+04  0.18933187209E+04  0.50400001928E-02 0. -1.
       -1    1    3    3    0  502  0.10353991620E+04 -0.78411341335E+02 -0.96596402657E+03  0.14181982456E+04  0.50400001928E-02 0.  1.
</event>
<event>
 5   0  0.2767014E-06  0.3294981E+04  0.7818609E-02  0.8164174E-01
        2   -1    0    0  501    0  0.00000000000E+00  0.00000000000E+00  0.18064071920E+04  0.18064071920E+04  0.25500000920E-02 0.  1.
       -2   -1    0    0    0  501  0.00000000000E+00  0.00000000000E+00 -0.15025544187E+04  0.15025544187E+04  0.25500000920E-02 0. -1.
    10030    2    1    2    0    0  0.00000000000E+00  0.00000000000E+00  0.30385277333E+03  0.33089616107E+04  0.32949810975E+04 0.  0.
        1    1    3    3  502    0 -0.22484326477E+03  0.15290870101E+04 -0.42107632297E+03  0.16018635547E+04  0.50400001928E-02 0. -1.
       -1    1    3    3    0  502  0.22484326477E+03 -0.15290870101E+04  0.72492909631E+03  0.17070980560E+04  0.50400001928E-02 0.  1.
</event>
<event>
 5   0  0.2856440E-06  0.3348694E+04  0.7818609E-02  0.8150615E-01
        2   -1    0    0  501    0  0.00000000000E+00  0.00000000000E+00  0.23341610757E+04  0.23341610757E+04  0.25500000920E-02 0. -1.
       -2   -1    0    0    0  501  0.00000000000E+00  0.00000000000E+00 -0.12010471329E+04  0.12010471329E+04  0.25500000920E-02 0.  1.
    10030    2    1    2    0    0  0.00000000000E+00  0.00000000000E+00  0.11331139428E+04  0.35352082085E+04  0.33486937558E+04 0.  0.
        4    1    3    3  502    0 -0.79017974778E+03  0.86610600394E+03  0.18285075247E+04  0.21720877111E+04  0.12699999809E+01 0. -1.
       -4    1    3    3    0  502  0.79017974778E+03 -0.86610600394E+03 -0.69539358191E+03  0.13631204974E+04  0.12699999809E+01 0.  1.
</event>
<event>
 5   0  0.2664083E-06  0.3483117E+04  0.7818609E-02  0.8117803E-01
       -2   -1    0    0    0  501  0.00000000000E+00  0.00000000000E+00  0.14040535957E+04  0.14040535957E+04  0.25500000920E-02 0.  1.
        2   -1    0    0  501    0  0.00000000000E+00  0.00000000000E+00 -0.21601921646E+04  0.21601921646E+04  0.25500000920E-02 0. -1.
    10030    2    1    2    0    0  0.00000000000E+00  0.00000000000E+00 -0.75613856889E+03  0.35642457602E+04  0.34831167514E+04 0.  0.
        2    1    3    3  502    0 -0.97093149925E+03  0.13289598678E+04  0.20456348689E+03  0.16585199808E+04  0.25500000920E-02 0.  1.
       -2    1    3    3    0  502  0.97093149925E+03 -0.13289598678E+04 -0.96070205579E+03  0.19057257795E+04  0.25500000920E-02 0. -1.
</event>
<event>
 5   0  0.9070500E-07  0.3390134E+04  0.7818609E-02  0.8140332E-01
       -3   -1    0    0    0  501  0.00000000000E+00  0.00000000000E+00  0.26506049344E+04  0.26506049364E+04  0.10100000352E+00 0. -1.
        3   -1    0    0  501    0  0.00000000000E+00  0.00000000000E+00 -0.10839986026E+04  0.10839986073E+04  0.10100000352E+00 0.  1.
    10030    2    1    2    0    0  0.00000000000E+00  0.00000000000E+00  0.15666063318E+04  0.37346035437E+04  0.33901339545E+04 0.  0.
        2    1    3    3  502    0 -0.13661316243E+04 -0.38017146023E+03  0.18063218293E+04  0.22964417051E+04  0.25500000920E-02 0. -1.
       -2    1    3    3    0  502  0.13661316243E+04  0.38017146023E+03 -0.23971549749E+03  0.14381618385E+04  0.25500000920E-02 0.  1.
</event>
<event>
 5   0  0.9232963E-07  0.3381694E+04  0.7818609E-02  0.8142414E-01
       -1   -1    0    0    0  501  0.00000000000E+00  0.00000000000E+00  0.17460486273E+04  0.17460486273E+04  0.50400001928E-02 0. -1.
        1   -1    0    0  501    0  0.00000000000E+00  0.00000000000E+00 -0.16373909915E+04  0.16373909915E+04  0.50400001928E-02 0.  1.
    10030    2    1    2    0    0  0.00000000000E+00  0.00000000000E+00  0.10865763574E+03  0.33834396188E+04  0.33816944233E+04 0.  0.
        3    1    3    3  502    0 -0.12818568542E+04  0.29318546295E+02 -0.10484866853E+04  0.16563033874E+04  0.10100000352E+00 0.  1.
       -3    1    3    3    0  502  0.12818568542E+04 -0.29318546295E+02  0.11571443210E+04  0.17271362314E+04  0.10100000352E+00 0. -1.
</event>
<event>
 5   0  0.2767014E-06  0.3342776E+04  0.7818609E-02  0.8152096E-01
       -2   -1    0    0    0  501  0.00000000000E+00  0.00000000000E+00  0.16581743614E+04  0.16581743614E+04  0.25500000920E-02 0. -1.
        2   -1    0    0  501    0  0.00000000000E+00  0.00000000000E+00 -0.16847066276E+04  0.16847066276E+04  0.25500000920E-02 0.  1.
    10030    2    1    2    0    0  0.00000000000E+00  0.00000000000E+00 -0.26532266262E+02  0.33428809890E+04  0.33427756948E+04 0.  0.
        1    1    3    3  502    0 -0.11337839491E+04 -0.33000519971E+03  0.11696353875E+04  0.16620518689E+04  0.50400001928E-02 0. -1.
       -1    1    3    3    0  502  0.11337839491E+04  0.33000519971E+03 -0.11961676538E+04  0.16808291201E+04  0.50400001928E-02 0.  1.
</event>
<event>
 5   0  0.9714317E-07  0.3600325E+04  0.7818609E-02  0.8090417E-01
        1   -1    0    0  501    0  0.00000000000E+00  0.00000000000E+00  0.17597596883E+04  0.17597596883E+04  0.50400001928E-02 0. -1.
       -1   -1    0    0    0  501  0.00000000000E+00  0.00000000000E+00 -0.18414932628E+04  0.18414932629E+04  0.50400001928E-02 0.  1.
    10030    2    1    2    0    0  0.00000000000E+00  0.00000000000E+00 -0.81733574584E+02  0.36012529511E+04  0.36003253243E+04 0.  0.
        4    1    3    3  502    0 -0.16470894438E+04  0.18999329517E+03  0.66044359704E+03  0.17847096251E+04  0.12699999809E+01 0. -1.
       -4    1    3    3    0  502  0.16470894438E+04 -0.18999329517E+03 -0.74217717162E+03  0.18165433260E+04  0.12699999809E+01 0.  1.
</event>
<event>
 5   0  0.9232963E-07  0.3199652E+04  0.7818609E-02  0.8188909E-01
       -1   -1    0    0    0  501  0.00000000000E+00  0.00000000000E+00  0.12343938166E+04  0.12343938166E+04  0.50400001928E-02 0.  1.
        1   -1    0    0  501    0  0.00000000000E+00  0.00000000000E+00 -0.20734419015E+04  0.20734419015E+04  0.50400001928E-02 0. -1.
    10030    2    1    2    0    0  0.00000000000E+00  0.00000000000E+00 -0.83904808495E+03  0.33078357181E+04  0.31996523951E+04 0.  0.
        3    1    3    3  502    0 -0.50023646351E+03 -0.11790196159E+04 -0.14106463687E+04  0.19053206978E+04  0.10100000352E+00 0. -1.
       -3    1    3    3    0  502  0.50023646351E+03  0.11790196159E+04  0.57159828370E+03  0.14025150203E+04  0.10100000352E+00 0.  1.
</event>
<event>
 5   0  0.1010855E-06  0.2248488E+04  0.7818609E-02  0.8498513E-01
       -1   -1    0    0    0  501  0.00000000000E+00  0.00000000000E+00  0.13593195460E+04  0.13593195460E+04  0.50400001928E-02 0. -1.
        1   -1    0    0  501    0  0.00000000000E+00  0.00000000000E+00 -0.92982171924E+03  0.92982171925E+03  0.50400001928E-02 0.  1.
    10030    2    1    2    0    0  0.00000000000E+00  0.00000000000E+00  0.42949782672E+03  0.22891412652E+04  0.22484882363E+04 0.  0.
        1    1    3    3  502    0 -0.62407820156E+03  0.65053780618E+03 -0.46914926557E+03  0.10162549249E+04  0.50400001928E-02 0.  1.
       -1    1    3    3    0  502  0.62407820156E+03 -0.65053780618E+03  0.89864709228E+03  0.12728863403E+04  0.50400001928E-02 0. -1.
</event>
<event>
 5   0  0.9070500E-07  0.2362150E+04  0.7818609E-02  0.8453812E-01
       -3   -1    0    0    0  501  0.00000000000E+00  0.00000000000E+00  0.96278141774E+03  0.96278142304E+03  0.10100000352E+00 0.  1.
        3   -1    0    0  501    0  0.00000000000E+00  0.00000000000E+00 -0.14488624355E+04  0.14488624390E+04  0.10100000352E+00 0. -1.
    10030    2    1    2    0    0  0.00000000000E+00  0.00000000000E+00 -0.48608101779E+03  0.24116438621E+04  0.23621497331E+04 0.  0.
        2    1    3    3  502    0  0.69523196665E+03  0.63667930686E+03  0.48336580396E+03  0.10594104623E+04  0.25500000920E-02 0.  1.
       -2    1    3    3    0  502 -0.69523196665E+03 -0.63667930686E+03 -0.96944682175E+03  0.13522333998E+04  0.25500000920E-02 0. -1.
</event>
<event>
 5   0  0.9232963E-07  0.3379177E+04  0.7818609E-02  0.8143036E-01
       -1   -1    0    0    0  501  0.00000000000E+00  0.00000000000E+00  0.12159043240E+04  0.12159043240E+04  0.50400001928E-02 0.  1.
        1   -1    0    0  501    0  0.00000000000E+00  0.00000000000E+00 -0.23478069680E+04  0.23478069680E+04  0.50400001928E-02 0. -1.
    10030    2    1    2    0    0  0.00000000000E+00  0.00000000000E+00 -0.11319026440E+04  0.35637112921E+04  0.33791766124E+04 0.  0.
        3    1    3    3  502    0  0.33540757266E+03 -0.12426094763E+04 -0.17203185037E+04  0.21485046695E+04  0.10100000352E+00 0. -1.
       -3    1    3    3    0  502 -0.33540757266E+03  0.12426094763E+04  0.58841585971E+03  0.14152066226E+04  0.10100000352E+00 0.  1.
</event>
<event>
 5   0  0.2856440E-06  0.3376240E+04  0.7818609E-02  0.8143763E-01
       -2   -1    0    0    0  501  0.00000000000E+00  0.00000000000E+00  0.14283002050E+04  0.14283002050E+04  0.25500000920E-02 0.  1.
        2   -1    0    0  501    0  0.00000000000E+00  0.00000000000E+00 -0.19952028438E+04  0.19952028438E+04  0.25500000920E-02 0. -1.
    10030    2    1    2    0    0  0.00000000000E+00  0.00000000000E+00 -0.56690263880E+03  0.34235030488E+04  0.33762397016E+04 0.  0.
        4    1    3    3  502    0 -0.16799764080E+03 -0.16052561531E+04 -0.78502364985E+03  0.17948075853E+04  0.12699999809E+01 0.  1.
       -4    1    3    3    0  502  0.16799764080E+03  0.16052561531E+04  0.21812101105E+03  0.16286954635E+04  0.12699999809E+01 0. -1.
</event>
<event>
 5   0  0.2767014E-06  0.3429605E+04  0.7818609E-02  0.8130678E-01
       -2   -1    0    0    0  501  0.00000000000E+00  0.00000000000E+00  0.13804274412E+04  0.13804274412E+04  0.25500000920E-02 0. -1.
        2   -1    0    0  501    0  0.00000000000E+00  0.00000000000E+00 -0.21301717030E+04  0.21301717030E+04  0.25500000920E-02 0.  1.
    10030    2    1    2    0    0  0.00000000000E+00  0.00000000000E+00 -0.74974426182E+03  0.35105991443E+04  0.34296049180E+04 0.  0.
        1    1    3    3  502    0 -0.74602366738E+03  0.75126525400E+03 -0.17556528599E+04  0.20501872497E+04  0.50400001928E-02 0.  1.
       -1    1    3    3    0  502  0.74602366738E+03 -0.75126525400E+03  0.10059085981E+04  0.14604118946E+04  0.50400001928E-02 0. -1.
</event>
<event>
 5   0  0.9714317E-07  0.3468781E+04  0.7818609E-02  0.8121229E-01
        1   -1    0    0  501    0  0.00000000000E+00  0.00000000000E+00  0.12019820440E+04  0.12019820440E+04  0.50400001928E-02 0. -1.
       -1   -1    0    0    0  501  0.00000000000E+00  0.00000000000E+00 -0.25026245245E+04  0.25026245245E+04  0.50400001928E-02 0.  1.
    10030    2    1    2    0    0  0.00000000000E+00  0.00000000000E+00 -0.13006424805E+04  0.37046065684E+04  0.34687806164E+04 0.  0.
        4    1    3    3  502    0 -0.10948157226E+04 -0.75291167678E+03  0.54018807456E+03  0.14343298882E+04  0.12699999809E+01 0. -1.
       -4    1    3    3    0  502  0.10948157226E+04  0.75291167678E+03 -0.18408305550E+04  0.22702766802E+04  0.12699999809E+01 0.  1.
</event>
<event>
 5   0  0.2906701E-06  0.3097672E+04  0.7818609E-02  0.8216377E-01
        2   -1    0    0  501    0  0.00000000000E+00  0.00000000000E+00  0.24835420438E+04  0.24835420438E+04  0.25500000920E-02 0.  1.
       -2   -1    0    0    0  501  0.00000000000E+00  0.00000000000E+00 -0.96591582222E+03  0.96591582223E+03  0.25500000920E-02 0. -1.
    10030    2    1    2    0    0  0.00000000000E+00  0.00000000000E+00  0.15176262216E+04  0.34494578661E+04  0.30976717420E+04 0.  0.
        5    1    3    3  502    0 -0.41470528359E+03 -0.87886268311E+03  0.21017972287E+04  0.23155892919E+04  0.46999998093E+01 0.  1.
       -5    1    3    3    0  502  0.41470528359E+03  0.87886268311E+03 -0.58417100710E+03  0.11338685742E+04  0.46999998093E+01 0. -1.
</event>
<event>
 5   0  0.9714317E-07  0.2085348E+04  0.7818609E-02  0.8567725E-01
       -1   -1    0    0    0  501  0.00000000000E+00  0.00000000000E+00  0.17619987448E+04  0.17619987448E+04  0.50400001928E-02 0. -1.
        1   -1    0    0  501    0  0.00000000000E+00  0.00000000000E+00 -0.61700873904E+03  0.61700873906E+03  0.50400001928E-02 0.  1.
    10030    2    1    2    0    0  0.00000000000E+00  0.00000000000E+00  0.11449900057E+04  0.23790074838E+04  0.20853475717E+04 0.  0.
        4    1    3    3  502    0 -0.23773231123E+02 -0.76262992043E+03 -0.23820831358E+03  0.79932119678E+03  0.12699999809E+01 0.  1.
       -4    1    3    3    0  502  0.23773231123E+02  0.76262992043E+03  0.13831983193E+04  0.15796862870E+04  0.12699999809E+01 0. -1.
</event>
<event>
 5   0  0.1010855E-06  0.3187408E+04  0.7818609E-02  0.8192151E-01
       -1   -1    0    0    0  501  0.00000000000E+00  0.00000000000E+00  0.16857405809E+04  0.16857405809E+04  0.50400001928E-02 0. -1.
        1   -1    0    0  501    0  0.00000000000E+00  0.00000000000E+00 -0.15066921015E+04  0.15066921015E+04  0.50400001928E-02 0.  1.
    10030    2    1    2    0    0  0.00000000000E+00  0.00000000000E+00  0.17904847943E+03  0.31924326825E+04  0.31874077358E+04 0.  0.
        1    1    3    3  502    0  0.48581384296E+03  0.11885647875E+04  0.10350414594E+04  0.16492459388E+04  0.50400001928E-02 0. -1.
       -1    1    3    3    0  502 -0.48581384296E+03 -0.11885647875E+04 -0.85599297997E+03  0.15431867436E+04  0.50400001928E-02 0.  1.
</event>
<event>
 5   0  0.9232963E-07  0.3333329E+04  0.7818609E-02  0.8154466E-01
        1   -1    0    0  501    0  0.00000000000E+00  0.00000000000E+00  0.21350762109E+04  0.21350762109E+04  0.50400001928E-02 0.  1.
       -1   -1    0    0    0  501  0.00000000000E+00  0.00000000000E+00 -0.13010174382E+04  0.13010174382E+04  0.50400001928E-02 0. -1.
    10030    2    1    2    0    0  0.00000000000E+00  0.00000000000E+00  0.83405877269E+03  0.34360936490E+04  0.33333294960E+04 0.  0.
        3    1    3    3  502    0 -0.67688787075E+03 -0.21748375423E+03 -0.11368564311E+04  0.13408649924E+04  0.10100000352E+00 0. -1.
       -3    1    3    3    0  502  0.67688787075E+03  0.21748375423E+03  0.19709152037E+04  0.20952286566E+04  0.10100000352E+00 0.  1.
</event>
<event>
 5   0  0.9232963E-07  0.3512377E+04  0.7818609E-02  0.8110863E-01
       -1   -1    0    0    0  501  0.00000000000E+00  0.00000000000E+00  0.11169691726E+04  0.11169691726E+04  0.50400001928E-02 0.  1.
        1   -1    0    0  501    0  0.00000000000E+00  0.00000000000E+00 -0.27612199710E+04  0.27612199711E+04  0.50400001928E-02 0. -1.
    10030    2    1    2    0    0  0.00000000000E+00  0.00000000000E+00 -0.16442507984E+04  0.38781891437E+04  0.35123767375E+04 0.  0.
        3    1    3    3  502    0  0.64578830813E+03 -0.16057434040E+04 -0.49320157296E+03  0.17996394695E+04  0.10100000352E+00 0. -1.
       -3    1    3    3    0  502 -0.64578830813E+03  0.16057434040E+04 -0.11510492255E+04  0.20785496742E+04  0.10100000352E+00 0.  1.
</event>
<event>
 5   0  0.2906701E-06  0.3427221E+04  0.7818609E-02  0.8131258E-01
       -2   -1    0    0    0  501  0.00000000000E+00  0.00000000000E+00  0.29272547721E+04  0.29272547721E+04  0.25500000920E-02 0. -1.
        2   -1    0    0  501    0  0.00000000000E+00  0.00000000000E+00 -0.10031448622E+04  0.10031448622E+04  0.25500000920E-02 0.  1.
    10030    2    1    2    0    0  0.00000000000E+00  0.00000000000E+00  0.19241099099E+04  0.39303996343E+04  0.34272207895E+04 0.  0.
        5    1    3    3  502    0 -0.15468935591E+04  0.15149416729E+03  0.17895210030E+04  0.23702821933E+04  0.46999998093E+01 0. -1.
       -5    1    3    3    0  502  0.15468935591E+04 -0.15149416729E+03  0.13458890688E+03  0.15601174410E+04  0.46999998093E+01 0.  1.
</event>
<event>
 5   0  0.2767014E-06  0.3418841E+04  0.7818609E-02  0.8133298E-01
       -2   -1    0    0    0  501  0.00000000000E+00  0.00000000000E+00  0.11362831888E+04  0.11362831888E+04  0.25500000920E-02 0. -1.
        2   -1    0    0  501    0  0.00000000000E+00  0.00000000000E+00 -0.25716461348E+04  0.25716461348E+04  0.25500000920E-02 0.  1.
    10030    2    1    2    0    0  0.00000000000E+00  0.00000000000E+00 -0.14353629461E+04  0.37079293236E+04  0.34188408974E+04 0.  0.
        1    1    3    3  502    0  0.11059557422E+03  0.15113652882E+04 -0.15755532810E+04  0.21860522768E+04  0.50400001928E-02 0.  1.
       -1    1    3    3    0  502 -0.11059557422E+03 -0.15113652882E+04  0.14019033497E+03  0.15218770468E+04  0.50400001928E-02 0. -1.
</event>
<event>
 5   0  0.9714317E-07  0.3385907E+04  0.7818609E-02  0.8141374E-01
        1   -1    0    0  501    0  0.00000000000E+00  0.00000000000E+00  0.25433387450E+04  0.25433387450E+04  0.50400001928E-02 0. -1.
       -1   -1    0    0    0  501  0.00000000000E+00  0.00000000000E+00 -0.11269015516E+04  0.11269015517E+04  0.50400001928E-02 0.  1.
    10030    2    1    2    0    0  0.00000000000E+00  0.00000000000E+00  0.14164371933E+04  0.36702402967E+04  0.33859074873E+04 0.  0.
        4    1    3    3  502    0  0.54221681914E+03 -0.57882213011E+03 -0.91306093662E+03  0.12094279739E+04  0.12699999809E+01 0.  1.
       -4    1    3    3    0  502 -0.54221681914E+03  0.57882213011E+03  0.23294981300E+04  0.24608123227E+04  0.12699999809E+01 0. -1.
</event>
<event>
 5   0  0.9232963E-07  0.3432823E+04  0.7818609E-02  0.8129897E-01
        1   -1    0    0  501    0  0.00000000000E+00  0.00000000000E+00  0.11664188922E+04  0.11664188922E+04  0.50400001928E-02 0. -1.
       -1   -1    0    0    0  501  0.00000000000E+00  0.00000000000E+00 -0.25257372736E+04  0.25257372736E+04  0.50400001928E-02 0.  1.
    10030    2    1    2    0    0  0.00000000000E+00  0.00000000000E+00 -0.13593183814E+04  0.36921561658E+04  0.34328225545E+04 0.  0.
        3    1    3    3  502    0 -0.17075208916E+04  0.17200022338E+03 -0.71112675603E+03  0.18576633025E+04  0.10100000352E+00 0. -1.
       -3    1    3    3    0  502  0.17075208916E+04 -0.17200022338E+03 -0.64819162536E+03  0.18344928633E+04  0.10100000352E+00 0.  1.
</event>
<event>
 5   0  0.2906701E-06  0.3443464E+04  0.7818609E-02  0.8127320E-01
       -2   -1    0    0    0  501  0.00000000000E+00  0.00000000000E+00  0.13930038487E+04  0.13930038487E+04  0.25500000920E-02 0. -1.
        2   -1    0    0  501    0  0.00000000000E+00  0.00000000000E+00 -0.21280351557E+04  0.21280351557E+04  0.25500000920E-02 0.  1.
    10030    2    1    2    0    0  0.00000000000E+00  0.00000000000E+00 -0.73503130694E+03  0.35210390044E+04  0.34434640478E+04 0.  0.
        5    1    3    3  502    0 -0.28041402180E+02  0.48207965348E+02  0.13920734390E+04  0.13931980756E+04  0.46999998093E+01 0. -1.
       -5    1    3    3    0  502  0.28041402180E+02 -0.48207965348E+02 -0.21271047459E+04  0.21278409288E+04  0.46999998093E+01 0.  1.
</event>
<event>
 5   0  0.1003191E-06  0.3436420E+04  0.7818609E-02  0.8129025E-01
       -1   -1    0    0    0  501  0.00000000000E+00  0.00000000000E+00  0.11337773285E+04  0.11337773285E+04  0.50400001928E-02 0.  1.
        1   -1    0    0  501    0  0.00000000000E+00  0.00000000000E+00 -0.26039028202E+04  0.26039028202E+04  0.50400001928E-02 0. -1.
    10030    2    1    2    0    0  0.00000000000E+00  0.00000000000E+00 -0.14701254917E+04  0.37376801488E+04  0.34364202207E+04 0.  0.
        5    1    3    3  502    0 -0.50347574987E+03  0.69239189149E+03  0.88527953356E+03  0.12315178865E+04  0.46999998093E+01 0.  1.
       -5    1    3    3    0  502  0.50347574987E+03 -0.69239189149E+03 -0.23554050253E+04  0.25061622623E+04  0.46999998093E+01 0. -1.
</event>
<event>
 5   0  0.9232963E-07  0.3464360E+04  0.7818609E-02  0.8122289E-01
        1   -1    0    0  501    0  0.00000000000E+00  0.00000000000E+00  0.22516338854E+04  0.22516338854E+04  0.50400001928E-02 0. -1.
       -1   -1    0    0    0  501  0.00000000000E+00  0.00000000000E+00 -0.13325642612E+04  0.13325642612E+04  0.50400001928E-02 0.  1.
    10030    2    1    2    0    0  0.00000000000E+00  0.00000000000E+00  0.91906962420E+03  0.35841981467E+04  0.34643595917E+04 0.  0.
        3    1    3    3  502    0 -0.13428431479E+04 -0.54817435190E+03  0.14392468449E+04  0.20433194392E+04  0.10100000352E+00 0. -1.
       -3    1    3    3    0  502  0.13428431479E+04  0.54817435190E+03 -0.52017722070E+03  0.15408787075E+04  0.10100000352E+00 0.  1.
</event>
<event>
 5   0  0.2856440E-06  0.2848337E+04  0.7818609E-02  0.8288417E-01
        2   -1    0    0  501    0  0.00000000000E+00  0.00000000000E+00  0.28110469924E+04  0.28110469924E+04  0.25500000920E-02 0.  1.
       -2   -1    0    0    0  501  0.00000000000E+00  0.00000000000E+00 -0.72153063642E+03  0.72153063642E+03  0.25500000920E-02 0. -1.
    10030    2    1    2    0    0  0.00000000000E+00  0.00000000000E+00  0.20895163560E+04  0.35325776289E+04  0.28483374277E+04 0.  0.
        4    1    3    3  502    0 -0.11705985987E+04 -0.77701335500E+03  0.75601198661E+03  0.15954957129E+04  0.12699999809E+01 0.  1.
       -4    1    3    3    0  502  0.11705985987E+04  0.77701335500E+03  0.13335043694E+04  0.19370819160E+04  0.12699999809E+01 0. -1.
</event>
<event>
 5   0  0.2664083E-06  0.3366863E+04  0.7818609E-02  0.8146087E-01
        2   -1    0    0  501    0  0.00000000000E+00  0.00000000000E+00  0.18152615058E+04  0.18152615058E+04  0.25500000920E-02 0. -1.
       -2   -1    0    0    0  501  0.00000000000E+00  0.00000000000E+00 -0.15611756459E+04  0.15611756459E+04  0.25500000920E-02 0.  1.
    10030    2    1    2    0    0  0.00000000000E+00  0.00000000000E+00  0.25408585997E+03  0.33764371517E+04  0.33668632605E+04 0.  0.
        2    1    3    3  502    0  0.26706217934E+03 -0.67119491712E+03 -0.13978456664E+04  0.15734666604E+04  0.25500000920E-02 0.  1.
       -2    1    3    3    0  502 -0.26706217934E+03  0.67119491712E+03  0.16519315264E+04  0.18029704912E+04  0.25500000920E-02 0. -1.
</event>
<event>
 5   0  0.1010551E-06  0.2730841E+04  0.7818609E-02  0.8325067E-01
        1   -1    0    0  501    0  0.00000000000E+00  0.00000000000E+00  0.12088404493E+04  0.12088404493E+04  0.50400001928E-02 0.  1.
       -1   -1    0    0    0  501  0.00000000000E+00  0.00000000000E+00 -0.15422823770E+04  0.15422823770E+04  0.50400001928E-02 0. -1.
    10030    2    1    2    0    0  0.00000000000E+00  0.00000000000E+00 -0.33344192771E+03  0.27511228264E+04  0.27308411317E+04 0.  0.
        2    1    3    3  502    0 -0.98601834498E+02  0.10020530894E+03 -0.15349720824E+04  0.15413963538E+04  0.25500000920E-02 0. -1.
       -2    1    3    3    0  502  0.98601834498E+02 -0.10020530894E+03  0.12015301547E+04  0.12097264726E+04  0.25500000920E-02 0.  1.
</event>
<event>
 5   0  0.2664083E-06  0.2697652E+04  0.7818609E-02  0.8335767E-01
       -2   -1    0    0    0  501  0.00000000000E+00  0.00000000000E+00  0.10553927646E+04  0.10553927646E+04  0.25500000920E-02 0.  1.
        2   -1    0    0  501    0  0.00000000000E+00  0.00000000000E+00 -0.17238427189E+04  0.17238427189E+04  0.25500000920E-02 0. -1.
    10030    2    1    2    0    0  0.00000000000E+00  0.00000000000E+00 -0.66844995434E+03  0.27792354835E+04  0.26976516698E+04 0.  0.
        2    1    3    3  502    0  0.35640520196E+03  0.13006880197E+04 -0.31079652368E+03  0.13839828293E+04  0.25500000920E-02 0.  1.
       -2    1    3    3    0  502 -0.35640520196E+03 -0.13006880197E+04 -0.35765343066E+03  0.13952526542E+04  0.25500000920E-02 0. -1.
</event>
<event>
 5   0  0.1010551E-06  0.3119047E+04  0.7818609E-02  0.8210530E-01
        1   -1    0    0  501    0  0.00000000000E+00  0.00000000000E+00  0.18088139996E+04  0.18088139996E+04  0.50400001928E-02 0. -1.
       -1   -1    0    0    0  501  0.00000000000E+00  0.00000000000E+00 -0.13445903320E+04  0.13445903320E+04  0.50400001928E-02 0.  1.
    10030    2    1    2    0    0  0.00000000000E+00  0.00000000000E+00  0.46422366767E+03  0.31534043316E+04  0.31190471726E+04 0.  0.
        2    1    3    3  502    0  0.87440111778E+02  0.11583341445E+04 -0.81989318676E+03  0.14218328317E+04  0.25500000920E-02 0.  1.
       -2    1    3    3    0  502 -0.87440111778E+02 -0.11583341445E+04  0.12841168544E+04  0.17315714999E+04  0.25500000920E-02 0. -1.
</event>
<event>
 5   0  0.1010855E-06  0.2353457E+04  0.7818609E-02  0.8457137E-01
       -1   -1    0    0    0  501  0.00000000000E+00  0.00000000000E+00  0.74830797789E+03  0.74830797791E+03  0.50400001928E-02 0.  1.
        1   -1    0    0  501    0  0.00000000000E+00  0.00000000000E+00 -0.18504272801E+04  0.18504272801E+04  0.50400001928E-02 0. -1.
    10030    2    1    2    0    0  0.00000000000E+00  0.00000000000E+00 -0.11021193022E+04  0.25987352580E+04  0.23534566036E+04 0.  0.
        1    1    3    3  502    0  0.49622069030E+03  0.80542040077E+03 -0.13238188352E+04  0.16270935141E+04  0.50400001928E-02 0. -1.
       -1    1    3    3    0  502 -0.49622069030E+03 -0.80542040077E+03  0.22169953296E+03  0.97164174385E+03  0.50400001928E-02 0.  1.
</event>
<event>
 5   0  0.2664083E-06  0.3341948E+04  0.7818609E-02  0.8152303E-01
        2   -1    0    0  501    0  0.00000000000E+00  0.00000000000E+00  0.22085237059E+04  0.22085237059E+04  0.25500000920E-02 0.  1.
       -2   -1    0    0    0  501  0.00000000000E+00  0.00000000000E+00 -0.12642627252E+04  0.12642627252E+04  0.25500000920E-02 0. -1.
    10030    2    1    2    0    0  0.00000000000E+00  0.00000000000E+00  0.94426098068E+03  0.34727864312E+04  0.33419480542E+04 0.  0.
        2    1    3    3  502    0  0.75884940413E+03 -0.14746786585E+04  0.26012183066E+03  0.16787474292E+04  0.25500000920E-02 0. -1.
       -2    1    3    3    0  502 -0.75884940413E+03  0.14746786585E+04  0.68413915003E+03  0.17940390020E+04  0.25500000920E-02 0.  1.
</event>
<event>
 5   0  0.2856440E-06  0.3349765E+04  0.7818609E-02  0.8150347E-01
       -2   -1    0    0    0  501  0.00000000000E+00  0.00000000000E+00  0.11976733517E+04  0.11976733517E+04  0.25500000920E-02 0.  1.
        2   -1    0    0  501    0  0.00000000000E+00  0.00000000000E+00 -0.23422339140E+04  0.23422339140E+04  0.25500000920E-02 0. -1.
    10030    2    1    2    0    0  0.00000000000E+00  0.00000000000E+00 -0.11445605623E+04  0.35399072658E+04  0.33497648529E+04 0.  0.
        4    1    3    3  502    0  0.14351612900E+03 -0.13856942485E+04  0.41027290546E+03  0.14522640599E+04  0.12699999809E+01 0.  1.
       -4    1    3    3    0  502 -0.14351612900E+03  0.13856942485E+04 -0.15548334678E+04  0.20876432059E+04  0.12699999809E+01 0. -1.
</event>
<event>
 5   0  0.2767014E-06  0.3328549E+04  0.7818609E-02  0.8155669E-01
        2   -1    0    0  501    0  0.00000000000E+00  0.00000000000E+00  0.25418115642E+04  0.25418115642E+04  0.25500000920E-02 0.  1.
       -2   -1    0    0    0  501  0.00000000000E+00  0.00000000000E+00 -0.10896988216E+04  0.10896988216E+04  0.25500000920E-02 0. -1.
    10030    2    1    2    0    0  0.00000000000E+00  0.00000000000E+00  0.14521127426E+04  0.36315103858E+04  0.33285486724E+04 0.  0.
        1    1    3    3  502    0  0.89723060729E+03  0.13097481512E+04  0.18126069220E+03  0.15979106423E+04  0.50400001928E-02 0. -1.
       -1    1    3    3    0  502 -0.89723060729E+03 -0.13097481512E+04  0.12708520504E+04  0.20335997434E+04  0.50400001928E-02 0.  1.
</event>
<event>
 5   0  0.2767014E-06  0.3389576E+04  0.7818609E-02  0.8140470E-01
       -2   -1    0    0    0  501  0.00000000000E+00  0.00000000000E+00  0.91012626735E+03  0.91012626736E+03  0.25500000920E-02 0.  1.
        2   -1    0    0  501    0  0.00000000000E+00  0.00000000000E+00 -0.31559419345E+04  0.31559419345E+04  0.25500000920E-02 0. -1.
    10030    2    1    2    0    0  0.00000000000E+00  0.00000000000E+00 -0.22458156671E+04  0.40660682018E+04  0.33895755798E+04 0.  0.
        1    1    3    3  502    0  0.31640674914E+03  0.16601406011E+04 -0.12752385089E+04  0.21171710608E+04  0.50400001928E-02 0.  1.
       -1    1    3    3    0  502 -0.31640674914E+03 -0.16601406011E+04 -0.97057715823E+03  0.19488971410E+04  0.50400001928E-02 0. -1.
</event>
<event>
 5   0  0.1010551E-06  0.2317904E+04  0.7818609E-02  0.8470895E-01
       -1   -1    0    0    0  501  0.00000000000E+00  0.00000000000E+00  0.10021383426E+04  0.10021383426E+04  0.50400001928E-02 0.  1.
        1   -1    0    0  501    0  0.00000000000E+00  0.00000000000E+00 -0.13403033147E+04  0.13403033147E+04  0.50400001928E-02 0. -1.
    10030    2    1    2    0    0  0.00000000000E+00  0.00000000000E+00 -0.33816497210E+03  0.23424416573E+04  0.23179036584E+04 0.  0.
        2    1    3    3  502    0  0.64490251767E+03  0.88916699412E+03 -0.54266077021E+03  0.12251521996E+04  0.25500000920E-02 0.  1.
       -2    1    3    3    0  502 -0.64490251767E+03 -0.88916699412E+03  0.20449579811E+03  0.11172894577E+04  0.25500000920E-02 0. -1.
</event>
<event>
 5   0  0.1010551E-06  0.2541657E+04  0.7818609E-02  0.8388294E-01
        1   -1    0    0  501    0  0.00000000000E+00  0.00000000000E+00  0.20949858849E+04  0.20949858849E+04  0.50400001928E-02 0. -1.
       -1   -1    0    0    0  501  0.00000000000E+00  0.00000000000E+00 -0.77089047557E+03  0.77089047558E+03  0.50400001928E-02 0.  1.
    10030    2    1    2    0    0  0.00000000000E+00  0.00000000000E+00  0.13240954093E+04  0.28658763604E+04  0.25416566764E+04 0.  0.
        2    1    3    3  502    0 -0.27284558721E+02 -0.10776728973E+04  0.14208572396E+04  0.17835242123E+04  0.25500000920E-02 0.  1.
       -2    1    3    3    0  502  0.27284558721E+02  0.10776728973E+04 -0.96761830302E+02  0.10823521481E+04  0.25500000920E-02 0. -1.
</event>
<event>
 5   0  0.2767014E-06  0.3328156E+04  0.7818609E-02  0.8155768E-01
        2   -1    0    0  501    0  0.00000000000E+00  0.00000000000E+00  0.19378289182E+04  0.19378289182E+04  0.25500000920E-02 0. -1.
       -2   -1    0    0    0  501  0.00000000000E+00  0.00000000000E+00 -0.14289988023E+04  0.14289988023E+04  0.25500000920E-02 0.  1.
    10030    2    1    2    0    0  0.00000000000E+00  0.00000000000E+00  0.50883011586E+03  0.33668277205E+04  0.33281557675E+04 0.  0.
        1    1    3    3  502    0  0.82769252393E+03 -0.84392325809E+03 -0.93046484846E+03  0.15043424524E+04  0.50400001928E-02 0.  1.
       -1    1    3    3    0  502 -0.82769252393E+03  0.84392325809E+03  0.14392949643E+04  0.18624852681E+04  0.50400001928E-02 0. -1.
</event>
<event>
 5   0  0.2906701E-06  0.3397392E+04  0.7818609E-02  0.8138547E-01
        2   -1    0    0  501    0  0.00000000000E+00  0.00000000000E+00  0.14080206104E+04  0.14080206104E+04  0.25500000920E-02 0. -1.
       -2   -1    0    0    0  501  0.00000000000E+00  0.00000000000E+00 -0.20493793295E+04  0.20493793295E+04  0.25500000920E-02 0.  1.
    10030    2    1    2    0    0  0.00000000000E+00  0.00000000000E+00 -0.64135871914E+03  0.34573999399E+04  0.33973921378E+04 0.  0.
        5    1    3    3  502    0  0.91907652162E+03 -0.24603442793E+03  0.11114119660E+04  0.14630424602E+04  0.46999998093E+01 0. -1.
       -5    1    3    3    0  502 -0.91907652162E+03  0.24603442793E+03 -0.17527706851E+04  0.19943574797E+04  0.46999998093E+01 0.  1.
</event>
<event>
 5   0  0.2856440E-06  0.3402361E+04  0.7818609E-02  0.8137327E-01
       -2   -1    0    0    0  501  0.00000000000E+00  0.00000000000E+00  0.17578958730E+04  0.17578958730E+04  0.25500000920E-02 0.  1.
        2   -1    0    0  501    0  0.00000000000E+00  0.00000000000E+00 -0.16462949731E+04  0.16462949731E+04  0.25500000920E-02 0. -1.
    10030    2    1    2    0    0  0.00000000000E+00  0.00000000000E+00  0.11160089989E+03  0.34041908462E+04  0.34023610267E+04 0.  0.
        4    1    3    3  502    0  0.12385778979E+04 -0.49555057640E+03  0.11120044544E+04  0.17367213658E+04  0.12699999809E+01 0.  1.
       -4    1    3    3    0  502 -0.12385778979E+04  0.49555057640E+03 -0.10004035545E+04  0.16674694803E+04  0.12699999809E+01 0. -1.
</event>
<event>
 5   0  0.1010855E-06  0.3374529E+04  0.7818609E-02  0.8144186E-01
       -1   -1    0    0    0  501  0.00000000000E+00  0.00000000000E+00  0.15368596771E+04  0.15368596771E+04  0.50400001928E-02 0. -1.
        1   -1    0    0  501    0  0.00000000000E+00  0.00000000000E+00 -0.18523888554E+04  0.18523888554E+04  0.50400001928E-02 0.  1.
    10030    2    1    2    0    0  0.00000000000E+00  0.00000000000E+00 -0.31552917826E+03  0.33892485325E+04  0.33745291453E+04 0.  0.
        1    1    3    3  502    0  0.95687919024E+03 -0.68350604390E+03 -0.13730273255E+04  0.18077616915E+04  0.50400001928E-02 0.  1.
       -1    1    3    3    0  502 -0.95687919024E+03  0.68350604390E+03  0.10574981472E+04  0.15814868410E+04  0.50400001928E-02 0. -1.
</event>
<event>
 5   0  0.2848685E-06  0.3350286E+04  0.7818609E-02  0.8150217E-01
       -2   -1    0    0    0  501  0.00000000000E+00  0.00000000000E+00  0.17012317627E+04  0.17012317627E+04  0.25500000920E-02 0.  1.
        2   -1    0    0  501    0  0.00000000000E+00  0.00000000000E+00 -0.16494544407E+04  0.16494544407E+04  0.25500000920E-02 0. -1.
    10030    2    1    2    0    0  0.00000000000E+00  0.00000000000E+00  0.51777321904E+02  0.33506862034E+04  0.33502861285E+04 0.  0.
        3    1    3    3  502    0  0.13707290348E+04 -0.85401199840E+03 -0.41898992387E+03  0.16684685034E+04  0.10100000352E+00 0. -1.
       -3    1    3    3    0  502 -0.13707290348E+04  0.85401199840E+03  0.47076724578E+03  0.16822177000E+04  0.10100000352E+00 0.  1.
</event>
<event>
 5   0  0.2767014E-06  0.3374655E+04  0.7818609E-02  0.8144155E-01
        2   -1    0    0  501    0  0.00000000000E+00  0.00000000000E+00  0.27185305230E+04  0.27185305230E+04  0.25500000920E-02 0.  1.
       -2   -1    0    0    0  501  0.00000000000E+00  0.00000000000E+00 -0.10472841461E+04  0.10472841461E+04  0.25500000920E-02 0. -1.
    10030    2    1    2    0    0  0.00000000000E+00  0.00000000000E+00  0.16712463769E+04  0.37658146691E+04  0.33746548964E+04 0.  0.
        1    1    3    3  502    0  0.17619405460E+03  0.99986058060E+02  0.27049098775E+04  0.27124857607E+04  0.50400001928E-02 0.  1.
       -1    1    3    3    0  502 -0.17619405460E+03 -0.99986058060E+02 -0.10336635006E+04  0.10533289084E+04  0.50400001928E-02 0. -1.
</event>
<event>
 5   0  0.9714317E-07  0.3410853E+04  0.7818609E-02  0.8135248E-01
       -1   -1    0    0    0  501  0.00000000000E+00  0.00000000000E+00  0.14138686090E+04  0.14138686090E+04  0.50400001928E-02 0.  1.
        1   -1    0    0  501    0  0.00000000000E+00  0.00000000000E+00 -0.20571074731E+04  0.20571074731E+04  0.50400001928E-02 0. -1.
    10030    2    1    2    0    0  0.00000000000E+00  0.00000000000E+00 -0.64323886402E+03  0.34709760821E+04  0.34108530790E+04 0.  0.
        4    1    3    3  502    0 -0.40529436198E+03 -0.10783462883E+04 -0.16013167369E+04  0.19726406521E+04  0.12699999809E+01 0. -1.
       -4    1    3    3    0  502  0.40529436198E+03  0.10783462883E+04  0.95807787293E+03  0.14983354300E+04  0.12699999809E+01 0.  1.
</event>
<event>
 5   0  0.2848685E-06  0.3490868E+04  0.7818609E-02  0.8115957E-01
        2   -1    0    0  501    0  0.00000000000E+00  0.00000000000E+00  0.22264133403E+04  0.22264133403E+04  0.25500000920E-02 0. -1.
       -2   -1    0    0    0  501  0.00000000000E+00  0.00000000000E+00 -0.13683624748E+04  0.13683624748E+04  0.25500000920E-02 0.  1.
    10030    2    1    2    0    0  0.00000000000E+00  0.00000000000E+00  0.85805086556E+03  0.35947758151E+04  0.34908683552E+04 0.  0.
        3    1    3    3  502    0  0.56916955925E+03  0.39665949688E+03 -0.12202872344E+04  0.14037071234E+04  0.10100000352E+00 0.  1.
       -3    1    3    3    0  502 -0.56916955925E+03 -0.39665949688E+03  0.20783381000E+04  0.21910686917E+04  0.10100000352E+00 0. -1.
</event>
<event>
 5   0  0.2767014E-06  0.3369098E+04  0.7818609E-02  0.8145532E-01
       -2   -1    0    0    0  501  0.00000000000E+00  0.00000000000E+00  0.15328732910E+04  0.15328732910E+04  0.25500000920E-02 0.  1.
        2   -1    0    0  501    0  0.00000000000E+00  0.00000000000E+00 -0.18512332215E+04  0.18512332215E+04  0.25500000920E-02 0. -1.
    10030    2    1    2    0    0  0.00000000000E+00  0.00000000000E+00 -0.31835993050E+03  0.33841065126E+04  0.33690983724E+04 0.  0.
        1    1    3    3  502    0  0.15235445809E+04  0.27108143879E+03  0.50939211292E+03  0.16291573162E+04  0.50400001928E-02 0.  1.
       -1    1    3    3    0  502 -0.15235445809E+04 -0.27108143879E+03 -0.82775204342E+03  0.17549491963E+04  0.50400001928E-02 0. -1.
</event>
<event>
 5   0  0.1010551E-06  0.3361498E+04  0.7818609E-02  0.8147421E-01
       -1   -1    0    0    0  501  0.00000000000E+00  0.00000000000E+00  0.13669911460E+04  0.13669911460E+04  0.50400001928E-02 0. -1.
        1   -1    0    0  501    0  0.00000000000E+00  0.00000000000E+00 -0.20665224049E+04  0.20665224049E+04  0.50400001928E-02 0.  1.
    10030    2    1    2    0    0  0.00000000000E+00  0.00000000000E+00 -0.69953125888E+03  0.34335135509E+04  0.33614983746E+04 0.  0.
        2    1    3    3  502    0  0.13602719312E+04 -0.29171009498E+03  0.61356366093E+03  0.15204916548E+04  0.25500000920E-02 0. -1.
       -2    1    3    3    0  502 -0.13602719312E+04  0.29171009498E+03 -0.13130949198E+04  0.19130218961E+04  0.25500000920E-02 0.  1.
</event>
<event>
 5   0  0.2906701E-06  0.3408519E+04  0.7818609E-02  0.8135819E-01
        2   -1    0    0  501    0  0.00000000000E+00  0.00000000000E+00  0.16148454503E+04  0.16148454503E+04  0.25500000920E-02 0.  1.
       -2   -1    0    0    0  501  0.00000000000E+00  0.00000000000E+00 -0.17986242080E+04  0.17986242080E+04  0.25500000920E-02 0. -1.
    10030    2    1    2    0    0  0.00000000000E+00  0.00000000000E+00 -0.18377875768E+03  0.34134696583E+04  0.34085188098E+04 0.  0.
        5    1    3    3  502    0 -0.14616616923E+04  0.38379528934E+03  0.69711556848E+03  0.16642553688E+04  0.46999998093E+01 0.  1.
       -5    1    3    3    0  502  0.14616616923E+04 -0.38379528934E+03 -0.88089432616E+03  0.17492142895E+04  0.46999998093E+01 0. -1.
</event>
<event>
 5   0  0.1010855E-06  0.2099907E+04  0.7818609E-02  0.8561284E-01
       -1   -1    0    0    0  501  0.00000000000E+00  0.00000000000E+00  0.10996874870E+04  0.10996874870E+04  0.50400001928E-02 0.  1.
        1   -1    0    0  501    0  0.00000000000E+00  0.00000000000E+00 -0.10024688082E+04  0.10024688082E+04  0.50400001928E-02 0. -1.
    10030    2    1    2    0    0  0.00000000000E+00  0.00000000000E+00  0.97218678790E+02  0.21021562952E+04  0.20999070499E+04 0.  0.
        1    1    3    3  502    0 -0.27177547504E+03  0.83649373074E+03 -0.52543205092E+03  0.10245303854E+04  0.50400001928E-02 0.  1.
       -1    1    3    3    0  502  0.27177547504E+03 -0.83649373074E+03  0.62265072971E+03  0.10776259099E+04  0.50400001928E-02 0. -1.
</event>
<event>
 5   0  0.2767014E-06  0.3204270E+04  0.7818609E-02  0.8187690E-01
       -2   -1    0    0    0  501  0.00000000000E+00  0.00000000000E+00  0.12535381352E+04  0.12535381352E+04  0.25500000920E-02 0. -1.
        2   -1    0    0  501    0  0.00000000000E+00  0.00000000000E+00 -0.20476729570E+04  0.20476729570E+04  0.25500000920E-02 0.  1.
    10030    2    1    2    0    0  0.00000000000E+00  0.00000000000E+00 -0.79413482183E+03  0.33012110922E+04  0.32042697390E+04 0.  0.
        1    1    3    3  502    0  0.11416962356E+04  0.10819720274E+04 -0.71074945799E+03  0.17260644700E+04  0.50400001928E-02 0.  1.
       -1    1    3    3    0  502 -0.11416962356E+04 -0.10819720274E+04 -0.83385363841E+02  0.15751466222E+04  0.50400001928E-02 0. -1.
</event>
<event>
 5   0  0.2664083E-06  0.3333830E+04  0.7818609E-02  0.8154340E-01
        2   -1    0    0  501    0  0.00000000000E+00  0.00000000000E+00  0.93945192765E+03  0.93945192766E+03  0.25500000920E-02 0. -1.
       -2   -1    0    0    0  501  0.00000000000E+00  0.00000000000E+00 -0.29576871186E+04  0.29576871186E+04  0.25500000920E-02 0.  1.
    10030    2    1    2    0    0  0.00000000000E+00  0.00000000000E+00 -0.20182351910E+04  0.38971390463E+04  0.33338295487E+04 0.  0.
        2    1    3    3  502    0 -0.13096296848E+04  0.23124301914E+03  0.16568134144E+03  0.13401692252E+04  0.25500000920E-02 0. -1.
       -2    1    3    3    0  502  0.13096296848E+04 -0.23124301914E+03 -0.21839165324E+04  0.25569698211E+04  0.25500000920E-02 0.  1.
</event>
<event>
 5   0  0.9070500E-07  0.2715062E+04  0.7818609E-02  0.8330134E-01
       -3   -1    0    0    0  501  0.00000000000E+00  0.00000000000E+00  0.22337910639E+04  0.22337910662E+04  0.10100000352E+00 0. -1.
        3   -1    0    0  501    0  0.00000000000E+00  0.00000000000E+00 -0.82500581748E+03  0.82500582366E+03  0.10100000352E+00 0.  1.
    10030    2    1    2    0    0  0.00000000000E+00  0.00000000000E+00  0.14087852464E+04  0.30587968898E+04  0.27150621619E+04 0.  0.
        4    1    3    3  502    0 -0.41287047340E+03  0.11117694240E+04 -0.39844133448E+02  0.11866264988E+04  0.12699999809E+01 0.  1.
       -4    1    3    3    0  502  0.41287047340E+03 -0.11117694240E+04  0.14486293799E+04  0.18721703910E+04  0.12699999809E+01 0. -1.
</event>
<event>
 5   0  0.9232963E-07  0.2459333E+04  0.7818609E-02  0.8417618E-01
        1   -1    0    0  501    0  0.00000000000E+00  0.00000000000E+00  0.14129359744E+04  0.14129359744E+04  0.50400001928E-02 0. -1.
       -1   -1    0    0    0  501  0.00000000000E+00  0.00000000000E+00 -0.10701682031E+04  0.10701682031E+04  0.50400001928E-02 0.  1.
    10030    2    1    2    0    0  0.00000000000E+00  0.00000000000E+00  0.34276777131E+03  0.24831041776E+04  0.24593325541E+04 0.  0.
        3    1    3    3  502    0 -0.22080735689E+03  0.81517061835E+03  0.10737903104E+04  0.13661202973E+04  0.10100000352E+00 0. -1.
       -3    1    3    3    0  502  0.22080735689E+03 -0.81517061835E+03 -0.73102253909E+03  0.11169838802E+04  0.10100000352E+00 0.  1.
</event>
<event>
 5   0  0.2848685E-06  0.3390782E+04  0.7818609E-02  0.8140172E-01
       -2   -1    0    0    0  501  0.00000000000E+00  0.00000000000E+00  0.15005370490E+04  0.15005370490E+04  0.25500000920E-02 0. -1.
        2   -1    0    0  501    0  0.00000000000E+00  0.00000000000E+00 -0.19155484613E+04  0.19155484613E+04  0.25500000920E-02 0.  1.
    10030    2    1    2    0    0  0.00000000000E+00  0.00000000000E+00 -0.41501141235E+03  0.34160855103E+04  0.33907824674E+04 0.  0.
        3    1    3    3  502    0 -0.12530675382E+03 -0.14992847473E+04 -0.99487142396E+03  0.18036977842E+04  0.10100000352E+00 0.  1.
       -3    1    3    3    0  502  0.12530675382E+03  0.14992847473E+04  0.57986001161E+03  0.16123877261E+04  0.10100000352E+00 0. -1.
</event>
<event>
 5   0  0.2906701E-06  0.3483662E+04  0.7818609E-02  0.8117673E-01
        2   -1    0    0  501    0  0.00000000000E+00  0.00000000000E+00  0.20146183838E+04  0.20146183838E+04  0.25500000920E-02 0. -1.
       -2   -1    0    0    0  501  0.00000000000E+00  0.00000000000E+00 -0.15059803840E+04  0.15059803840E+04  0.25500000920E-02 0.  1.
    10030    2    1    2    0    0  0.00000000000E+00  0.00000000000E+00  0.50863799984E+03  0.35205987678E+04  0.34836623070E+04 0.  0.
        5    1    3    3  502    0  0.13610938731E+04  0.55066530911E+03  0.12013486269E+04  0.18971213528E+04  0.46999998093E+01 0. -1.
       -5    1    3    3    0  502 -0.13610938731E+04 -0.55066530911E+03 -0.69271062704E+03  0.16234774150E+04  0.46999998093E+01 0.  1.
</event>
<event>
 5   0  0.9070500E-07  0.2477576E+04  0.7818609E-02  0.8411018E-01
       -3   -1    0    0    0  501  0.00000000000E+00  0.00000000000E+00  0.17347579151E+04  0.17347579180E+04  0.10100000352E+00 0. -1.
        3   -1    0    0  501    0  0.00000000000E+00  0.00000000000E+00 -0.88461642141E+03  0.88461642718E+03  0.10100000352E+00 0.  1.
    10030    2    1    2    0    0  0.00000000000E+00  0.00000000000E+00  0.85014149368E+03  0.26193743452E+04  0.24775757105E+04 0.  0.
        2    1    3    3  502    0 -0.99373459294E+03  0.68153048349E+03  0.72892745745E+03  0.14083065999E+04  0.25500000920E-02 0. -1.
       -2    1    3    3    0  502  0.99373459294E+03 -0.68153048349E+03  0.12121403623E+03  0.12110677453E+04  0.25500000920E-02 0.  1.
</event>
<event>
 5   0  0.2767014E-06  0.3368687E+04  0.7818609E-02  0.8145635E-01
       -2   -1    0    0    0  501  0.00000000000E+00  0.00000000000E+00  0.14182840386E+04  0.14182840387E+04  0.25500000920E-02 0. -1.
        2   -1    0    0  501    0  0.00000000000E+00  0.00000000000E+00 -0.20003135967E+04  0.20003135967E+04  0.25500000920E-02 0.  1.
    10030    2    1    2    0    0  0.00000000000E+00  0.00000000000E+00 -0.58202955808E+03  0.34185976354E+04  0.33686868935E+04 0.  0.
        1    1    3    3  502    0  0.53197378500E+03 -0.13899564132E+04 -0.10913939298E+04  0.18455664845E+04  0.50400001928E-02 0.  1.
       -1    1    3    3    0  502 -0.53197378500E+03  0.13899564132E+04  0.50936437173E+03  0.15730311509E+04  0.50400001928E-02 0. -1.
</event>
<event>
 5   0  0.1010855E-06  0.3423794E+04  0.7818609E-02  0.8132091E-01
       -1   -1    0    0    0  501  0.00000000000E+00  0.00000000000E+00  0.16475917493E+04  0.16475917493E+04  0.50400001928E-02 0. -1.
        1   -1    0    0  501    0  0.00000000000E+00  0.00000000000E+00 -0.17787119587E+04  0.17787119587E+04  0.50400001928E-02 0.  1.
    10030    2    1    2    0    0  0.00000000000E+00  0.00000000000E+00 -0.13112020941E+03  0.34263037081E+04  0.34237938884E+04 0.  0.
        1    1    3    3  502    0 -0.10899952468E+04 -0.74993060195E+03  0.10215628846E+04  0.16715490639E+04  0.50400001928E-02 0. -1.
       -1    1    3    3    0  502  0.10899952468E+04  0.74993060195E+03 -0.11526830941E+04  0.17547546441E+04  0.50400001928E-02 0.  1.
</event>
<event>
 5   0  0.2848685E-06  0.3416469E+04  0.7818609E-02  0.8133876E-01
       -2   -1    0    0    0  501  0.00000000000E+00  0.00000000000E+00  0.18668015730E+04  0.18668015730E+04  0.25500000920E-02 0.  1.
        2   -1    0    0  501    0  0.00000000000E+00  0.00000000000E+00 -0.15631357823E+04  0.15631357823E+04  0.25500000920E-02 0. -1.
    10030    2    1    2    0    0  0.00000000000E+00  0.00000000000E+00  0.30366579070E+03  0.34299373552E+04  0.34164685493E+04 0.  0.
        3    1    3    3  502    0 -0.47870446001E+03 -0.53372489898E+03  0.17084434683E+04  0.18527815096E+04  0.10100000352E+00 0.  1.
       -3    1    3    3    0  502  0.47870446001E+03  0.53372489898E+03 -0.14047776776E+04  0.15771558456E+04  0.10100000352E+00 0. -1.
</event>
<event>
 5   0  0.2856440E-06  0.3401319E+04  0.7818609E-02  0.8137583E-01
        2   -1    0    0  501    0  0.00000000000E+00  0.00000000000E+00  0.16153625711E+04  0.16153625711E+04  0.25500000920E-02 0. -1.
       -2   -1    0    0    0  501  0.00000000000E+00  0.00000000000E+00 -0.17904602601E+04  0.17904602601E+04  0.25500000920E-02 0.  1.
    10030    2    1    2    0    0  0.00000000000E+00  0.00000000000E+00 -0.17509768903E+03  0.34058228312E+04  0.34013188555E+04 0.  0.
        4    1    3    3  502    0  0.33923911798E+03  0.15101820471E+04  0.61801737420E+03  0.16666373578E+04  0.12699999809E+01 0. -1.
       -4    1    3    3    0  502 -0.33923911798E+03 -0.15101820471E+04 -0.79311506323E+03  0.17391854735E+04  0.12699999809E+01 0.  1.
</event>
<event>
 5   0  0.2664083E-06  0.3368573E+04  0.7818609E-02  0.8145663E-01
       -2   -1    0    0    0  501  0.00000000000E+00  0.00000000000E+00  0.10764262065E+04  0.10764262065E+04  0.25500000920E-02 0.  1.
        2   -1    0    0  501    0  0.00000000000E+00  0.00000000000E+00 -0.26354074368E+04  0.26354074368E+04  0.25500000920E-02 0. -1.
    10030    2    1    2    0    0  0.00000000000E+00  0.00000000000E+00 -0.15589812303E+04  0.37118336433E+04  0.33685733656E+04 0.  0.
        2    1    3    3  502    0 -0.11683283764E+03 -0.10016741938E+04 -0.22659627523E+04  0.24802395645E+04  0.25500000920E-02 0. -1.
       -2    1    3    3    0  502  0.11683283764E+03  0.10016741938E+04  0.70698152202E+03  0.12315940788E+04  0.25500000920E-02 0.  1.
</event>
<event>
 5   0  0.2664083E-06  0.3395194E+04  0.7818609E-02  0.8139087E-01
       -2   -1    0    0    0  501  0.00000000000E+00  0.00000000000E+00  0.14737935958E+04  0.14737935958E+04  0.25500000920E-02 0. -1.
        2   -1    0    0  501    0  0.00000000000E+00  0.00000000000E+00 -0.19553857963E+04  0.19553857963E+04  0.25500000920E-02 0.  1.
    10030    2    1    2    0    0  0.00000000000E+00  0.00000000000E+00 -0.48159220051E+03  0.34291793922E+04  0.33951936993E+04 0.  0.
        2    1    3    3  502    0  0.74432142801E+03 -0.12076071321E+04  0.70101078939E+03  0.15823228180E+04  0.25500000920E-02 0. -1.
       -2    1    3    3    0  502 -0.74432142801E+03  0.12076071321E+04 -0.11826029899E+04  0.18468565741E+04  0.25500000920E-02 0.  1.
</event>
<event>
 5   0  0.2767014E-06  0.2727383E+04  0.7818609E-02  0.8326174E-01
        2   -1    0    0  501    0  0.00000000000E+00  0.00000000000E+00  0.32944730662E+04  0.32944730662E+04  0.25500000920E-02 0.  1.
       -2   -1    0    0    0  501  0.00000000000E+00  0.00000000000E+00 -0.56447719061E+03  0.56447719062E+03  0.25500000920E-02 0. -1.
    10030    2    1    2    0    0  0.00000000000E+00  0.00000000000E+00  0.27299958755E+04  0.38589502568E+04  0.27273832888E+04 0.  0.
        1    1    3    3  502    0  0.12309093499E+04 -0.57825043778E+03  0.15074986451E+04  0.20302865712E+04  0.50400001928E-02 0.  1.
       -1    1    3    3    0  502 -0.12309093499E+04  0.57825043778E+03  0.12224972305E+04  0.18286636855E+04  0.50400001928E-02 0. -1.
</event>
<event>
 5   0  0.9070500E-07  0.3409462E+04  0.7818609E-02  0.8135588E-01
       -3   -1    0    0    0  501  0.00000000000E+00  0.00000000000E+00  0.10682912032E+04  0.10682912080E+04  0.10100000352E+00 0.  1.
        3   -1    0    0  501    0  0.00000000000E+00  0.00000000000E+00 -0.27203334845E+04  0.27203334863E+04  0.10100000352E+00 0. -1.
    10030    2    1    2    0    0  0.00000000000E+00  0.00000000000E+00 -0.16520422813E+04  0.37886246943E+04  0.34094623294E+04 0.  0.
        4    1    3    3  502    0 -0.13839640808E+03 -0.86263545909E+03 -0.24526476615E+04  0.26036082012E+04  0.12699999809E+01 0. -1.
       -4    1    3    3    0  502  0.13839640808E+03  0.86263545909E+03  0.80060538027E+03  0.11850164931E+04  0.12699999809E+01 0.  1.
</event>
<event>
 5   0  0.1010855E-06  0.3373464E+04  0.7818609E-02  0.8144450E-01
        1   -1    0    0  501    0  0.00000000000E+00  0.00000000000E+00  0.89812334022E+03  0.89812334023E+03  0.50400001928E-02 0.  1.
       -1   -1    0    0    0  501  0.00000000000E+00  0.00000000000E+00 -0.31677885576E+04  0.31677885576E+04  0.50400001928E-02 0. -1.
    10030    2    1    2    0    0  0.00000000000E+00  0.00000000000E+00 -0.22696652174E+04  0.40659118979E+04  0.33734640004E+04 0.  0.
        1    1    3    3  502    0  0.83404186802E+02 -0.11124067638E+04  0.39003240221E+03  0.11817488487E+04  0.50400001928E-02 0.  1.
       -1    1    3    3    0  502 -0.83404186802E+02  0.11124067638E+04 -0.26596976196E+04  0.28841630492E+04  0.50400001928E-02 0. -1.
</event>
<event>
 5   0  0.2767014E-06  0.3353178E+04  0.7818609E-02  0.8149494E-01
       -2   -1    0    0    0  501  0.00000000000E+00  0.00000000000E+00  0.17208468321E+04  0.17208468321E+04  0.25500000920E-02 0. -1.
        2   -1    0    0  501    0  0.00000000000E+00  0.00000000000E+00 -0.16334698842E+04  0.16334698842E+04  0.25500000920E-02 0.  1.
    10030    2    1    2    0    0  0.00000000000E+00  0.00000000000E+00  0.87376947895E+02  0.33543167163E+04  0.33531784775E+04 0.  0.
        1    1    3    3  502    0 -0.16234134771E+04  0.40358475047E+03 -0.68597154810E+02  0.16742334180E+04  0.50400001928E-02 0. -1.
       -1    1    3    3    0  502  0.16234134771E+04 -0.40358475047E+03  0.15597410271E+03  0.16800832983E+04  0.50400001928E-02 0.  1.
</event>
<event>
 5   0  0.1010551E-06  0.3410463E+04  0.7818609E-02  0.8135343E-01
        1   -1    0    0  501    0  0.00000000000E+00  0.00000000000E+00  0.22973700797E+04  0.22973700797E+04  0.50400001928E-02 0. -1.
       -1   -1    0    0    0  501  0.00000000000E+00  0.00000000000E+00 -0.12657144179E+04  0.12657144179E+04  0.50400001928E-02 0.  1.
    10030    2    1    2    0    0  0.00000000000E+00  0.00000000000E+00  0.10316556618E+04  0.35630844977E+04  0.34104629793E+04 0.  0.
        2    1    3    3  502    0  0.12986339798E+04 -0.84286405191E+03 -0.23096408501E+03  0.15653160805E+04  0.25500000920E-02 0.  1.
       -2    1    3    3    0  502 -0.12986339798E+04  0.84286405191E+03  0.12626197468E+04  0.19977684171E+04  0.25500000920E-02 0. -1.
</event>
<event>
 5   0  0.9232963E-07  0.3404338E+04  0.7818609E-02  0.8136842E-01
        1   -1    0    0  501    0  0.00000000000E+00  0.00000000000E+00  0.19857112785E+04  0.19857112785E+04  0.50400001928E-02 0. -1.
       -1   -1    0    0    0  501  0.00000000000E+00  0.00000000000E+00 -0.14591142362E+04  0.14591142362E+04  0.50400001928E-02 0.  1.
    10030    2    1    2    0    0  0.00000000000E+00  0.00000000000E+00  0.52659704236E+03  0.34448255147E+04  0.34043381709E+04 0.  0.
        3    1    3    3  502    0 -0.39132695027E+03 -0.24201726390E+03  0.19215900988E+04  0.19759093238E+04  0.10100000352E+00 0. -1.
       -3    1    3    3    0  502  0.39132695027E+03  0.24201726390E+03 -0.13949930564E+04  0.14689161909E+04  0.10100000352E+00 0.  1.
</event>
<event>
 5   0  0.9714317E-07  0.3433626E+04  0.7818609E-02  0.8129702E-01
       -1   -1    0    0    0  501  0.00000000000E+00  0.00000000000E+00  0.11741770044E+04  0.11741770044E+04  0.50400001928E-02 0. -1.
        1   -1    0    0  501    0  0.00000000000E+00  0.00000000000E+00 -0.25102230060E+04  0.25102230060E+04  0.50400001928E-02 0.  1.
    10030    2    1    2    0    0  0.00000000000E+00  0.00000000000E+00 -0.13360460015E+04  0.36844000104E+04  0.34336255647E+04 0.  0.
        4    1    3    3  502    0  0.70266055366E+03  0.12494345291E+04  0.34576842160E+03  0.14745765190E+04  0.12699999809E+01 0. -1.
       -4    1    3    3    0  502 -0.70266055366E+03 -0.12494345291E+04 -0.16818144231E+04  0.22098234914E+04  0.12699999809E+01 0.  1.
</event>
<event>
 5   0  0.2767014E-06  0.3352059E+04  0.7818609E-02  0.8149774E-01
        2   -1    0    0  501    0  0.00000000000E+00  0.00000000000E+00  0.24275664219E+04  0.24275664219E+04  0.25500000920E-02 0. -1.
       -2   -1    0    0    0  501  0.00000000000E+00  0.00000000000E+00 -0.11571564242E+04  0.11571564242E+04  0.25500000920E-02 0.  1.
    10030    2    1    2    0    0  0.00000000000E+00  0.00000000000E+00  0.12704099977E+04  0.35847228461E+04  0.33520585200E+04 0.  0.
        1    1    3    3  502    0  0.59964189681E+03 -0.10928199787E+04 -0.56293837487E+03  0.13677446853E+04  0.50400001928E-02 0.  1.
       -1    1    3    3    0  502 -0.59964189681E+03  0.10928199787E+04  0.18333483726E+04  0.22169781608E+04  0.50400001928E-02 0. -1.
</event>
<event>
 5   0  0.1010551E-06  0.2611727E+04  0.7818609E-02  0.8364229E-01
       -1   -1    0    0    0  501  0.00000000000E+00  0.00000000000E+00  0.11653367544E+04  0.11653367544E+04  0.50400001928E-02 0.  1.
        1   -1    0    0  501    0  0.00000000000E+00  0.00000000000E+00 -0.14633357374E+04  0.14633357374E+04  0.50400001928E-02 0. -1.
    10030    2    1    2    0    0  0.00000000000E+00  0.00000000000E+00 -0.29799898298E+03  0.26286724918E+04  0.26117265698E+04 0.  0.
        2    1    3    3  502    0 -0.94678282457E+03 -0.89812177762E+03 -0.19683125175E+03  0.13197586848E+04  0.25500000920E-02 0. -1.
       -2    1    3    3    0  502  0.94678282457E+03  0.89812177762E+03 -0.10116773124E+03  0.13089138070E+04  0.25500000920E-02 0.  1.
</event>
<event>
 5   0  0.1003191E-06  0.3503254E+04  0.7818609E-02  0.8113019E-01
       -1   -1    0    0    0  501  0.00000000000E+00  0.00000000000E+00  0.12974094745E+04  0.12974094745E+04  0.50400001928E-02 0.  1.
        1   -1    0    0  501    0  0.00000000000E+00  0.00000000000E+00 -0.23648635789E+04  0.23648635789E+04  0.50400001928E-02 0. -1.
    10030    2    1    2    0    0  0.00000000000E+00  0.00000000000E+00 -0.10674541045E+04  0.36622730534E+04  0.35032535810E+04 0.  0.
        5    1    3    3  502    0  0.78297305556E+03 -0.69728049493E+03  0.93315096905E+03  0.14035810327E+04  0.46999998093E+01 0.  1.
       -5    1    3    3    0  502 -0.78297305556E+03  0.69728049493E+03 -0.20006050735E+04  0.22586920207E+04  0.46999998093E+01 0. -1.
</event>
<event>
 5   0  0.1003191E-06  0.2948854E+04  0.7818609E-02  0.8258489E-01
       -1   -1    0    0    0  501  0.00000000000E+00  0.00000000000E+00  0.12684106937E+04  0.12684106937E+04  0.50400001928E-02 0.  1.
        1   -1    0    0  501    0  0.00000000000E+00  0.00000000000E+00 -0.17139048060E+04  0.17139048060E+04  0.50400001928E-02 0. -1.
    10030    2    1    2    0    0  0.00000000000E+00  0.00000000000E+00 -0.44549411224E+03  0.29823154997E+04  0.29488541394E+04 0.  0.
        5    1    3    3  502    0  0.45646779038E+03  0.12481602129E+03 -0.16350061959E+04  0.17021190421E+04  0.46999998093E+01 0. -1.
       -5    1    3    3    0  502 -0.45646779038E+03 -0.12481602129E+03  0.11895120837E+04  0.12801964576E+04  0.46999998093E+01 0.  1.
</event>
<event>
 5   0  0.2767014E-06  0.3330696E+04  0.7818609E-02  0.8155128E-01
        2   -1    0    0  501    0  0.00000000000E+00  0.00000000000E+00  0.19208363821E+04  0.19208363821E+04  0.25500000920E-02 0.  1.
       -2   -1    0    0    0  501  0.00000000000E+00  0.00000000000E+00 -0.14438420786E+04  0.14438420786E+04  0.25500000920E-02 0. -1.
    10030    2    1    2    0    0  0.00000000000E+00  0.00000000000E+00  0.47699430354E+03  0.33646784607E+04  0.33306962603E+04 0.  0.
        1    1    3    3  502    0  0.10239222760E+04 -0.70220407385E+03 -0.88272640317E+03  0.15233887526E+04  0.50400001928E-02 0. -1.
       -1    1    3    3    0  502 -0.10239222760E+04  0.70220407385E+03  0.13597207067E+04  0.18412897081E+04  0.50400001928E-02 0.  1.
</event>
<event>
 5   0  0.1003191E-06  0.3370309E+04  0.7818609E-02  0.8145232E-01
       -1   -1    0    0    0  501  0.00000000000E+00  0.00000000000E+00  0.16284435371E+04  0.16284435371E+04  0.50400001928E-02 0.  1.
        1   -1    0    0  501    0  0.00000000000E+00  0.00000000000E+00 -0.17438406937E+04  0.17438406937E+04  0.50400001928E-02 0. -1.
    10030    2    1    2    0    0  0.00000000000E+00  0.00000000000E+00 -0.11539715665E+03  0.33722842308E+04  0.33703092484E+04 0.  0.
        5    1    3    3  502    0  0.12170309209E+04  0.46474260122E+02 -0.12230268795E+04  0.17260188172E+04  0.46999998093E+01 0. -1.
       -5    1    3    3    0  502 -0.12170309209E+04 -0.46474260122E+02  0.11076297228E+04  0.16462654137E+04  0.46999998093E+01 0.  1.
</event>
<event>
 5   0  0.2664083E-06  0.3409962E+04  0.7818609E-02  0.8135466E-01
       -2   -1    0    0    0  501  0.00000000000E+00  0.00000000000E+00  0.24471494672E+04  0.24471494672E+04  0.25500000920E-02 0.  1.
        2   -1    0    0  501    0  0.00000000000E+00  0.00000000000E+00 -0.11878965032E+04  0.11878965032E+04  0.25500000920E-02 0. -1.
    10030    2    1    2    0    0  0.00000000000E+00  0.00000000000E+00  0.12592529641E+04  0.36350459704E+04  0.34099620495E+04 0.  0.
        2    1    3    3  502    0 -0.81047639672E+03 -0.14438455564E+04  0.19608974811E+03  0.16673371494E+04  0.25500000920E-02 0. -1.
       -2    1    3    3    0  502  0.81047639672E+03  0.14438455564E+04  0.10631632160E+04  0.19677088210E+04  0.25500000920E-02 0.  1.
</event>
<event>
 5   0  0.1010551E-06  0.2467569E+04  0.7818609E-02  0.8414631E-01
        1   -1    0    0  501    0  0.00000000000E+00  0.00000000000E+00  0.14484435945E+04  0.14484435945E+04  0.50400001928E-02 0.  1.
       -1   -1    0    0    0  501  0.00000000000E+00  0.00000000000E+00 -0.10509375458E+04  0.10509375458E+04  0.50400001928E-02 0. -1.
    10030    2    1    2    0    0  0.00000000000E+00  0.00000000000E+00  0.39750604867E+03  0.24993811403E+04  0.24675686466E+04 0.  0.
        2    1    3    3  502    0  0.52587288559E+03  0.25093765639E+03  0.13002991875E+04  0.14248824429E+04  0.25500000920E-02 0.  1.
       -2    1    3    3    0  502 -0.52587288559E+03 -0.25093765639E+03 -0.90279313882E+03  0.10744986974E+04  0.25500000920E-02 0. -1.
</event>
<event>
 5   0  0.2906701E-06  0.3381358E+04  0.7818609E-02  0.8142497E-01
       -2   -1    0    0    0  501  0.00000000000E+00  0.00000000000E+00  0.28845598633E+04  0.28845598633E+04  0.25500000920E-02 0.  1.
        2   -1    0    0  501    0  0.00000000000E+00  0.00000000000E+00 -0.99092970507E+03  0.99092970507E+03  0.25500000920E-02 0. -1.
    10030    2    1    2    0    0  0.00000000000E+00  0.00000000000E+00  0.18936301582E+04  0.38754895684E+04  0.33813583393E+04 0.  0.
        5    1    3    3  502    0  0.95467303172E+03 -0.83637787094E+01  0.25460327431E+04  0.27191497511E+04  0.46999998093E+01 0.  1.
       -5    1    3    3    0  502 -0.95467303172E+03  0.83637787094E+01 -0.65240258483E+03  0.11563398173E+04  0.46999998093E+01 0. -1.
</event>
<event>
 5   0  0.2856440E-06  0.3272698E+04  0.7818609E-02  0.8169877E-01
        2   -1    0    0  501    0  0.00000000000E+00  0.00000000000E+00  0.26664220540E+04  0.26664220540E+04  0.25500000920E-02 0.  1.
       -2   -1    0    0    0  501  0.00000000000E+00  0.00000000000E+00 -0.10042065440E+04  0.10042065440E+04  0.25500000920E-02 0. -1.
    10030    2    1    2    0    0  0.00000000000E+00  0.00000000000E+00  0.16622155100E+04  0.36706285980E+04  0.32726982603E+04 0.  0.
        4    1    3    3  502    0  0.11593546702E+04  0.51317092135E+03 -0.32917747443E+03  0.13098881893E+04  0.12699999809E+01 0. -1.
       -4    1    3    3    0  502 -0.11593546702E+04 -0.51317092135E+03  0.19913929844E+04  0.23607404087E+04  0.12699999809E+01 0.  1.
</event>
<event>
 5   0  0.2856440E-06  0.3487120E+04  0.7818609E-02  0.8116849E-01
        2   -1    0    0  501    0  0.00000000000E+00  0.00000000000E+00  0.18039951213E+04  0.18039951213E+04  0.25500000920E-02 0.  1.
       -2   -1    0    0    0  501  0.00000000000E+00  0.00000000000E+00 -0.16851491516E+04  0.16851491516E+04  0.25500000920E-02 0. -1.
    10030    2    1    2    0    0  0.00000000000E+00  0.00000000000E+00  0.11884596970E+03  0.34891442730E+04  0.34871196413E+04 0.  0.
        4    1    3    3  502    0  0.77060364036E+03  0.81635963822E+03  0.13942613399E+04  0.17900389175E+04  0.12699999809E+01 0.  1.
       -4    1    3    3    0  502 -0.77060364036E+03 -0.81635963822E+03 -0.12754153702E+04  0.16991053554E+04  0.12699999809E+01 0. -1.
</event>
<event>
 5   0  0.9070500E-07  0.3414256E+04  0.7818609E-02  0.8134416E-01
       -3   -1    0    0    0  501  0.00000000000E+00  0.00000000000E+00  0.10774306195E+04  0.10774306242E+04  0.10100000352E+00 0.  1.
        3   -1    0    0  501    0  0.00000000000E+00  0.00000000000E+00 -0.27048477665E+04  0.27048477684E+04  0.10100000352E+00 0. -1.
    10030    2    1    2    0    0  0.00000000000E+00  0.00000000000E+00 -0.16274171471E+04  0.37822783926E+04  0.34142558880E+04 0.  0.
        4    1    3    3  502    0 -0.91721127350E+03 -0.91244683448E+02  0.77807500528E+03  0.12062356483E+04  0.12699999809E+01 0.  1.
       -4    1    3    3    0  502  0.91721127350E+03  0.91244683448E+02 -0.24054921524E+04  0.25760427443E+04  0.12699999809E+01 0. -1.
</event>
<event>
 5   0  0.9070500E-07  0.3354648E+04  0.7818609E-02  0.8149128E-01
       -3   -1    0    0    0  501  0.00000000000E+00  0.00000000000E+00  0.27056893268E+04  0.27056893287E+04  0.10100000352E+00 0. -1.
        3   -1    0    0  501    0  0.00000000000E+00  0.00000000000E+00 -0.10398149842E+04  0.10398149892E+04  0.10100000352E+00 0.  1.
    10030    2    1    2    0    0  0.00000000000E+00  0.00000000000E+00  0.16658743425E+04  0.37455043178E+04  0.33546483079E+04 0.  0.
        5    1    3    3  502    0 -0.39928379791E+02  0.14992556971E+04  0.16714607815E+04  0.22456992574E+04  0.46999998093E+01 0.  1.
       -5    1    3    3    0  502  0.39928379791E+02 -0.14992556971E+04 -0.55864389942E+01  0.14998050604E+04  0.46999998093E+01 0. -1.
</event>
<event>
 5   0  0.1003191E-06  0.3402487E+04  0.7818609E-02  0.8137296E-01
       -1   -1    0    0    0  501  0.00000000000E+00  0.00000000000E+00  0.15337966090E+04  0.15337966090E+04  0.50400001928E-02 0.  1.
        1   -1    0    0  501    0  0.00000000000E+00  0.00000000000E+00 -0.18869710134E+04  0.18869710134E+04  0.50400001928E-02 0. -1.
    10030    2    1    2    0    0  0.00000000000E+00  0.00000000000E+00 -0.35317440434E+03  0.34207676224E+04  0.34024871736E+04 0.  0.
        5    1    3    3  502    0  0.92437084150E+03  0.14145312565E+04  0.21569490145E+02  0.16899252827E+04  0.46999998093E+01 0. -1.
       -5    1    3    3    0  502 -0.92437084150E+03 -0.14145312565E+04 -0.37474389448E+03  0.17308423397E+04  0.46999998093E+01 0.  1.
</event>
<event>
 5   0  0.2856440E-06  0.3390975E+04  0.7818609E-02  0.8140125E-01
       -2   -1    0    0    0  501  0.00000000000E+00  0.00000000000E+00  0.15409848484E+04  0.15409848484E+04  0.25500000920E-02 0.  1.
        2   -1    0    0  501    0  0.00000000000E+00  0.00000000000E+00 -0.18654810042E+04  0.18654810042E+04  0.25500000920E-02 0. -1.
    10030    2    1    2    0    0  0.00000000000E+00  0.00000000000E+00 -0.32449615588E+03  0.34064658526E+04  0.33909750588E+04 0.  0.
        4    1    3    3  502    0 -0.27919766576E+03  0.10286237353E+04 -0.14868535777E+04  0.18294133759E+04  0.12699999809E+01 0. -1.
       -4    1    3    3    0  502  0.27919766576E+03 -0.10286237353E+04  0.11623574218E+04  0.15770524767E+04  0.12699999809E+01 0.  1.
</event>
<event>
 5   0  0.2906701E-06  0.3328015E+04  0.7818609E-02  0.8155803E-01
       -2   -1    0    0    0  501  0.00000000000E+00  0.00000000000E+00  0.15049568360E+04  0.15049568360E+04  0.25500000920E-02 0. -1.
        2   -1    0    0  501    0  0.00000000000E+00  0.00000000000E+00 -0.18398676584E+04  0.18398676584E+04  0.25500000920E-02 0.  1.
    10030    2    1    2    0    0  0.00000000000E+00  0.00000000000E+00 -0.33491082246E+03  0.33448244944E+04  0.33280152703E+04 0.  0.
        5    1    3    3  502    0 -0.76493468972E+03 -0.61521671822E+03 -0.15178498051E+04  0.18076246322E+04  0.46999998093E+01 0.  1.
       -5    1    3    3    0  502  0.76493468972E+03  0.61521671822E+03  0.11829389826E+04  0.15371998623E+04  0.46999998093E+01 0. -1.
</event>
<event>
 5   0  0.1003191E-06  0.2501863E+04  0.7818609E-02  0.8402322E-01
        1   -1    0    0  501    0  0.00000000000E+00  0.00000000000E+00  0.15279227688E+04  0.15279227689E+04  0.50400001928E-02 0. -1.
       -1   -1    0    0    0  501  0.00000000000E+00  0.00000000000E+00 -0.10241545628E+04  0.10241545628E+04  0.50400001928E-02 0.  1.
    10030    2    1    2    0    0  0.00000000000E+00  0.00000000000E+00  0.50376820602E+03  0.25520773317E+04  0.25018625665E+04 0.  0.
        5    1    3    3  502    0 -0.69315776435E+03  0.50450961261E+03  0.11811062300E+04  0.14594627957E+04  0.46999998093E+01 0. -1.
       -5    1    3    3    0  502  0.69315776435E+03 -0.50450961261E+03 -0.67733802399E+03  0.10926145360E+04  0.46999998093E+01 0.  1.
</event>
<event>
 5   0  0.2856440E-06  0.3366533E+04  0.7818609E-02  0.8146169E-01
        2   -1    0    0  501    0  0.00000000000E+00  0.00000000000E+00  0.29359727849E+04  0.29359727849E+04  0.25500000920E-02 0. -1.
       -2   -1    0    0    0  501  0.00000000000E+00  0.00000000000E+00 -0.96505879900E+03  0.96505879901E+03  0.25500000920E-02 0.  1.
    10030    2    1    2    0    0  0.00000000000E+00  0.00000000000E+00  0.19709139859E+04  0.39010315839E+04  0.33665331543E+04 0.  0.
        4    1    3    3  502    0  0.39085462719E+03 -0.10174073090E+04 -0.50097651069E+03  0.11995265937E+04  0.12699999809E+01 0.  1.
       -4    1    3    3    0  502 -0.39085462719E+03  0.10174073090E+04  0.24718904966E+04  0.27015049902E+04  0.12699999809E+01 0. -1.
</event>
<event>
 5   0  0.2767014E-06  0.3370354E+04  0.7818609E-02  0.8145221E-01
        2   -1    0    0  501    0  0.00000000000E+00  0.00000000000E+00  0.25546352677E+04  0.25546352677E+04  0.25500000920E-02 0. -1.
       -2   -1    0    0    0  501  0.00000000000E+00  0.00000000000E+00 -0.11116346788E+04  0.11116346788E+04  0.25500000920E-02 0.  1.
    10030    2    1    2    0    0  0.00000000000E+00  0.00000000000E+00  0.14430005889E+04  0.36662699464E+04  0.33703537827E+04 0.  0.
        1    1    3    3  502    0 -0.54679003346E+03 -0.10433462296E+04 -0.58940917258E+03  0.13171764757E+04  0.50400001928E-02 0.  1.
       -1    1    3    3    0  502  0.54679003346E+03  0.10433462296E+04  0.20324097615E+04  0.23490934707E+04  0.50400001928E-02 0. -1.
</event>
<event>
 5   0  0.9232963E-07  0.3365104E+04  0.7818609E-02  0.8146524E-01
        1   -1    0    0  501    0  0.00000000000E+00  0.00000000000E+00  0.18075395276E+04  0.18075395276E+04  0.50400001928E-02 0.  1.
       -1   -1    0    0    0  501  0.00000000000E+00  0.00000000000E+00 -0.15662070205E+04  0.15662070205E+04  0.50400001928E-02 0. -1.
    10030    2    1    2    0    0  0.00000000000E+00  0.00000000000E+00  0.24133250713E+03  0.33737465481E+04  0.33651039199E+04 0.  0.
        3    1    3    3  502    0  0.30850640678E+01 -0.15979723830E+04  0.64875985164E+03  0.17246491265E+04  0.10100000352E+00 0.  1.
       -3    1    3    3    0  502 -0.30850640678E+01  0.15979723830E+04 -0.40742734451E+03  0.16490974215E+04  0.10100000352E+00 0. -1.
</event>
<event>
 5   0  0.2848685E-06  0.3416400E+04  0.7818609E-02  0.8133893E-01
        2   -1    0    0  501    0  0.00000000000E+00  0.00000000000E+00  0.18408741881E+04  0.18408741881E+04  0.25500000920E-02 0. -1.
       -2   -1    0    0    0  501  0.00000000000E+00  0.00000000000E+00 -0.15850881966E+04  0.15850881966E+04  0.25500000920E-02 0.  1.
    10030    2    1    2    0    0  0.00000000000E+00  0.00000000000E+00  0.25578599153E+03  0.34259623847E+04  0.34164004139E+04 0.  0.
        3    1    3    3  502    0  0.11482824213E+03 -0.13575431025E+04 -0.90544687959E+03  0.16358309394E+04  0.10100000352E+00 0.  1.
       -3    1    3    3    0  502 -0.11482824213E+03  0.13575431025E+04  0.11612328711E+04  0.17901314453E+04  0.10100000352E+00 0. -1.
</event>
<event>
 5   0  0.9232963E-07  0.3261129E+04  0.7818609E-02  0.8172857E-01
        1   -1    0    0  501    0  0.00000000000E+00  0.00000000000E+00  0.25746783289E+04  0.25746783289E+04  0.50400001928E-02 0. -1.
       -1   -1    0    0    0  501  0.00000000000E+00  0.00000000000E+00 -0.10326495195E+04  0.10326495195E+04  0.50400001928E-02 0.  1.
    10030    2    1    2    0    0  0.00000000000E+00  0.00000000000E+00  0.15420288094E+04  0.36073278485E+04  0.32611288471E+04 0.  0.
        3    1    3    3  502    0  0.12694854826E+04 -0.10223750785E+04  0.72284707723E+03  0.17830737783E+04  0.10100000352E+00 0.  1.
       -3    1    3    3    0  502 -0.12694854826E+04  0.10223750785E+04  0.81918173218E+03  0.18242540701E+04  0.10100000352E+00 0. -1.
</event>
<event>
 5   0  0.1003191E-06  0.3436854E+04  0.7818609E-02  0.8128920E-01
        1   -1    0    0  501    0  0.00000000000E+00  0.00000000000E+00  0.28980262899E+04  0.28980262899E+04  0.50400001928E-02 0. -1.
       -1   -1    0    0    0  501  0.00000000000E+00  0.00000000000E+00 -0.10189661004E+04  0.10189661004E+04  0.50400001928E-02 0.  1.
    10030    2    1    2    0    0  0.00000000000E+00  0.00000000000E+00  0.18790601895E+04  0.39169923903E+04  0.34368535304E+04 0.  0.
        5    1    3    3  502    0  0.38296471358E+03  0.30296676696E+03 -0.93822105500E+03  0.10577011259E+04  0.46999998093E+01 0.  1.
       -5    1    3    3    0  502 -0.38296471358E+03 -0.30296676696E+03  0.28172812445E+04  0.28592912644E+04  0.46999998093E+01 0. -1.
</event>
<event>
 5   0  0.1010855E-06  0.3445779E+04  0.7818609E-02  0.8126761E-01
        1   -1    0    0  501    0  0.00000000000E+00  0.00000000000E+00  0.22310184637E+04  0.22310184637E+04  0.50400001928E-02 0. -1.
       -1   -1    0    0    0  501  0.00000000000E+00  0.00000000000E+00 -0.13304903569E+04  0.13304903569E+04  0.50400001928E-02 0.  1.
    10030    2    1    2    0    0  0.00000000000E+00  0.00000000000E+00  0.90052810685E+03  0.35615088206E+04  0.34457791874E+04 0.  0.
        1    1    3    3  502    0  0.35034488556E+03 -0.16681751979E+04  0.70927689327E+03  0.18462458506E+04  0.50400001928E-02 0. -1.
       -1    1    3    3    0  502 -0.35034488556E+03  0.16681751979E+04  0.19125121358E+03  0.17152629700E+04  0.50400001928E-02 0.  1.
</event>
<event>
 5   0  0.1010855E-06  0.3387822E+04  0.7818609E-02  0.8140902E-01
        1   -1    0    0  501    0  0.00000000000E+00  0.00000000000E+00  0.22629453242E+04  0.22629453242E+04  0.50400001928E-02 0. -1.
       -1   -1    0    0    0  501  0.00000000000E+00  0.00000000000E+00 -0.12679642311E+04  0.12679642311E+04  0.50400001928E-02 0.  1.
    10030    2    1    2    0    0  0.00000000000E+00  0.00000000000E+00  0.99498109310E+03  0.35309095554E+04  0.33878215585E+04 0.  0.
        1    1    3    3  502    0 -0.46421010193E+03  0.15504486426E+04 -0.23577122520E+02  0.16186222206E+04  0.50400001928E-02 0.  1.
       -1    1    3    3    0  502  0.46421010193E+03 -0.15504486426E+04  0.10185582156E+04  0.19122873348E+04  0.50400001928E-02 0. -1.
</event>
<event>
 5   0  0.2848685E-06  0.3456639E+04  0.7818609E-02  0.8124143E-01
        2   -1    0    0  501    0  0.00000000000E+00  0.00000000000E+00  0.16937595624E+04  0.16937595624E+04  0.25500000920E-02 0.  1.
       -2   -1    0    0    0  501  0.00000000000E+00  0.00000000000E+00 -0.17635845977E+04  0.17635845978E+04  0.25500000920E-02 0. -1.
    10030    2    1    2    0    0  0.00000000000E+00  0.00000000000E+00 -0.69825035368E+02  0.34573441601E+04  0.34566389898E+04 0.  0.
        3    1    3    3  502    0  0.15629336971E+04 -0.58542636285E+03  0.41418074940E+03  0.17196021258E+04  0.10100000352E+00 0.  1.
       -3    1    3    3    0  502 -0.15629336971E+04  0.58542636285E+03 -0.48400578477E+03  0.17377420343E+04  0.10100000352E+00 0. -1.
</event>
<event>
 5   0  0.1010855E-06  0.3119266E+04  0.7818609E-02  0.8210470E-01
        1   -1    0    0  501    0  0.00000000000E+00  0.00000000000E+00  0.18462234187E+04  0.18462234187E+04  0.50400001928E-02 0.  1.
       -1   -1    0    0    0  501  0.00000000000E+00  0.00000000000E+00 -0.13175297875E+04  0.13175297875E+04  0.50400001928E-02 0. -1.
    10030    2    1    2    0    0  0.00000000000E+00  0.00000000000E+00  0.52869363123E+03  0.31637532062E+04  0.31192655216E+04 0.  0.
        1    1    3    3  502    0 -0.12351920134E+03 -0.11696287646E+04  0.13032434482E+04  0.17554862361E+04  0.50400001928E-02 0.  1.
       -1    1    3    3    0  502  0.12351920134E+03  0.11696287646E+04 -0.77454981697E+03  0.14082669701E+04  0.50400001928E-02 0. -1.
</event>
<event>
 5   0  0.1010551E-06  0.3381551E+04  0.7818609E-02  0.8142449E-01
        1   -1    0    0  501    0  0.00000000000E+00  0.00000000000E+00  0.12802592463E+04  0.12802592463E+04  0.50400001928E-02 0. -1.
       -1   -1    0    0    0  501  0.00000000000E+00  0.00000000000E+00 -0.22329237111E+04  0.22329237111E+04  0.50400001928E-02 0.  1.
    10030    2    1    2    0    0  0.00000000000E+00  0.00000000000E+00 -0.95266446477E+03  0.35131829574E+04  0.33815506665E+04 0.  0.
        2    1    3    3  502    0  0.42007390641E+03  0.50381161239E+03 -0.20953362680E+04  0.21956143340E+04  0.25500000920E-02 0.  1.
       -2    1    3    3    0  502 -0.42007390641E+03 -0.50381161239E+03  0.11426718032E+04  0.13175686234E+04  0.25500000920E-02 0. -1.
</event>
<event>
 5   0  0.1003191E-06  0.3426475E+04  0.7818609E-02  0.8131439E-01
        1   -1    0    0  501    0  0.00000000000E+00  0.00000000000E+00  0.17943004435E+04  0.17943004435E+04  0.50400001928E-02 0.  1.
       -1   -1    0    0    0  501  0.00000000000E+00  0.00000000000E+00 -0.16358366610E+04  0.16358366610E+04  0.50400001928E-02 0. -1.
    10030    2    1    2    0    0  0.00000000000E+00  0.00000000000E+00  0.15846378254E+03  0.34301371045E+04  0.34264748336E+04 0.  0.
        5    1    3    3  502    0 -0.11934854704E+04 -0.12023351702E+04 -0.17627202805E+03  0.17032649082E+04  0.46999998093E+01 0. -1.
       -5    1    3    3    0  502  0.11934854704E+04  0.12023351702E+04  0.33473581059E+03  0.17268721963E+04  0.46999998093E+01 0.  1.
</event>
<event>
 5   0  0.2856440E-06  0.2411441E+04  0.7818609E-02  0.8435232E-01
        2   -1    0    0  501    0  0.00000000000E+00  0.00000000000E+00  0.13553160626E+04  0.13553160626E+04  0.25500000920E-02 0. -1.
       -2   -1    0    0    0  501  0.00000000000E+00  0.00000000000E+00 -0.10726371800E+04  0.10726371800E+04  0.25500000920E-02 0.  1.
    10030    2    1    2    0    0  0.00000000000E+00  0.00000000000E+00  0.28267888260E+03  0.24279532425E+04  0.24114413941E+04 0.  0.
        4    1    3    3  502    0 -0.39929554486E+03  0.40837465366E+03  0.12104737874E+04  0.13384525366E+04  0.12699999809E+01 0. -1.
       -4    1    3    3    0  502  0.39929554486E+03 -0.40837465366E+03 -0.92779490480E+03  0.10895007059E+04  0.12699999809E+01 0.  1.
</event>
<event>
 5   0  0.2848685E-06  0.2435835E+04  0.7818609E-02  0.8426208E-01
       -2   -1    0    0    0  501  0.00000000000E+00  0.00000000000E+00  0.84496617643E+03  0.84496617643E+03  0.25500000920E-02 0.  1.
        2   -1    0    0  501    0  0.00000000000E+00  0.00000000000E+00 -0.17554819131E+04  0.17554819131E+04  0.25500000920E-02 0. -1.
    10030    2    1    2    0    0  0.00000000000E+00  0.00000000000E+00 -0.91051573671E+03  0.26004480896E+04  0.24358348384E+04 0.  0.
        3    1    3    3  502    0  0.25691004507E+03 -0.10323233313E+04  0.17779859292E+03  0.10785669110E+04  0.10100000352E+00 0.  1.
       -3    1    3    3    0  502 -0.25691004507E+03  0.10323233313E+04 -0.10883143296E+04  0.15218811786E+04  0.10100000352E+00 0. -1.
</event>
<event>
 5   0  0.1010855E-06  0.3498694E+04  0.7818609E-02  0.8114100E-01
       -1   -1    0    0    0  501  0.00000000000E+00  0.00000000000E+00  0.27377803507E+04  0.27377803507E+04  0.50400001928E-02 0.  1.
        1   -1    0    0  501    0  0.00000000000E+00  0.00000000000E+00 -0.11177722940E+04  0.11177722940E+04  0.50400001928E-02 0. -1.
    10030    2    1    2    0    0  0.00000000000E+00  0.00000000000E+00  0.16200080567E+04  0.38555526446E+04  0.34986940552E+04 0.  0.
        1    1    3    3  502    0 -0.38918711848E+03 -0.11782993543E+04 -0.54879037986E+03  0.13568444504E+04  0.50400001928E-02 0. -1.
       -1    1    3    3    0  502  0.38918711848E+03  0.11782993543E+04  0.21687984366E+04  0.24987081942E+04  0.50400001928E-02 0.  1.
</event>
<event>
 5   0  0.1010551E-06  0.3396317E+04  0.7818609E-02  0.8138811E-01
       -1   -1    0    0    0  501  0.00000000000E+00  0.00000000000E+00  0.17886304030E+04  0.17886304030E+04  0.50400001928E-02 0.  1.
        1   -1    0    0  501    0  0.00000000000E+00  0.00000000000E+00 -0.16122626572E+04  0.16122626572E+04  0.50400001928E-02 0. -1.
    10030    2    1    2    0    0  0.00000000000E+00  0.00000000000E+00  0.17636774585E+03  0.34008930602E+04  0.33963168323E+04 0.  0.
        2    1    3    3  502    0  0.48167767459E+03 -0.66752262184E+03  0.15754939719E+04  0.17775773087E+04  0.25500000920E-02 0.  1.
       -2    1    3    3    0  502 -0.48167767459E+03  0.66752262184E+03 -0.13991262260E+04  0.16233157515E+04  0.25500000920E-02 0. -1.
</event>
<event>
 5   0  0.9714317E-07  0.3317078E+04  0.7818609E-02  0.8158563E-01
        1   -1    0    0  501    0  0.00000000000E+00  0.00000000000E+00  0.18113906621E+04  0.18113906621E+04  0.50400001928E-02 0. -1.
       -1   -1    0    0    0  501  0.00000000000E+00  0.00000000000E+00 -0.15185855570E+04  0.15185855570E+04  0.50400001928E-02 0.  1.
    10030    2    1    2    0    0  0.00000000000E+00  0.00000000000E+00  0.29280510516E+03  0.33299762191E+04  0.33170780501E+04 0.  0.
        4    1    3    3  502    0 -0.97736305060E+03 -0.61996958050E+03  0.13389397090E+04  0.17698480078E+04  0.12699999809E+01 0. -1.
       -4    1    3    3    0  502  0.97736305060E+03  0.61996958050E+03 -0.10461346039E+04  0.15601282113E+04  0.12699999809E+01 0.  1.
</event>
<event>
 5   0  0.9232963E-07  0.3039613E+04  0.7818609E-02  0.8232509E-01
        1   -1    0    0  501    0  0.00000000000E+00  0.00000000000E+00  0.14367431032E+04  0.14367431032E+04  0.50400001928E-02 0. -1.
       -1   -1    0    0    0  501  0.00000000000E+00  0.00000000000E+00 -0.16076721384E+04  0.16076721385E+04  0.50400001928E-02 0.  1.
    10030    2    1    2    0    0  0.00000000000E+00  0.00000000000E+00 -0.17092903527E+03  0.30444152416E+04  0.30396130393E+04 0.  0.
        3    1    3    3  502    0  0.35615534547E+03 -0.11368760969E+03 -0.15608975173E+04  0.16050459721E+04  0.10100000352E+00 0.  1.
       -3    1    3    3    0  502 -0.35615534547E+03  0.11368760969E+03  0.13899684821E+04  0.14393692695E+04  0.10100000352E+00 0. -1.
</event>
<event>
 5   0  0.1010855E-06  0.3377052E+04  0.7818609E-02  0.8143562E-01
        1   -1    0    0  501    0  0.00000000000E+00  0.00000000000E+00  0.16820434866E+04  0.16820434866E+04  0.50400001928E-02 0.  1.
       -1   -1    0    0    0  501  0.00000000000E+00  0.00000000000E+00 -0.16950332321E+04  0.16950332322E+04  0.50400001928E-02 0. -1.
    10030    2    1    2    0    0  0.00000000000E+00  0.00000000000E+00 -0.12989745598E+02  0.33770767187E+04  0.33770517364E+04 0.  0.
        1    1    3    3  502    0 -0.16871617507E+04 -0.57998484543E+02 -0.41723110499E+02  0.16886738629E+04  0.50400001928E-02 0. -1.
       -1    1    3    3    0  502  0.16871617507E+04  0.57998484543E+02  0.28733364902E+02  0.16884028558E+04  0.50400001928E-02 0.  1.
</event>
<event>
 5   0  0.2856440E-06  0.3137895E+04  0.7818609E-02  0.8205414E-01
        2   -1    0    0  501    0  0.00000000000E+00  0.00000000000E+00  0.14734805197E+04  0.14734805197E+04  0.25500000920E-02 0. -1.
       -2   -1    0    0    0  501  0.00000000000E+00  0.00000000000E+00 -0.16705998214E+04  0.16705998214E+04  0.25500000920E-02 0.  1.
    10030    2    1    2    0    0  0.00000000000E+00  0.00000000000E+00 -0.19711930166E+03  0.31440803411E+04  0.31378950225E+04 0.  0.
        4    1    3    3  502    0  0.29697607485E+03  0.25091931400E+02  0.14448566131E+04  0.14752751063E+04  0.12699999809E+01 0. -1.
       -4    1    3    3    0  502 -0.29697607485E+03 -0.25091931400E+02 -0.16419759148E+04  0.16688052348E+04  0.12699999809E+01 0.  1.
</event>
<event>
 5   0  0.2856440E-06  0.3414639E+04  0.7818609E-02  0.8134323E-01
       -2   -1    0    0    0  501  0.00000000000E+00  0.00000000000E+00  0.11222173701E+04  0.11222173701E+04  0.25500000920E-02 0.  1.
        2   -1    0    0  501    0  0.00000000000E+00  0.00000000000E+00 -0.25974827033E+04  0.25974827033E+04  0.25500000920E-02 0. -1.
    10030    2    1    2    0    0  0.00000000000E+00  0.00000000000E+00 -0.14752653333E+04  0.37197000734E+04  0.34146391951E+04 0.  0.
        4    1    3    3  502    0 -0.92604235637E+03 -0.49747515491E+03  0.72788381340E+03  0.12786134812E+04  0.12699999809E+01 0.  1.
       -4    1    3    3    0  502  0.92604235637E+03  0.49747515491E+03 -0.22031491467E+04  0.24410865923E+04  0.12699999809E+01 0. -1.
</event>
<event>
 5   0  0.9232963E-07  0.3337160E+04  0.7818609E-02  0.8153504E-01
       -1   -1    0    0    0  501  0.00000000000E+00  0.00000000000E+00  0.11612716192E+04  0.11612716193E+04  0.50400001928E-02 0. -1.
        1   -1    0    0  501    0  0.00000000000E+00  0.00000000000E+00 -0.23975089985E+04  0.23975089986E+04  0.50400001928E-02 0.  1.
    10030    2    1    2    0    0  0.00000000000E+00  0.00000000000E+00 -0.12362373793E+04  0.35587806178E+04  0.33371599644E+04 0.  0.
        3    1    3    3  502    0  0.99275202600E+03  0.51251002985E+03  0.70351395133E+03  0.13202859560E+04  0.10100000352E+00 0. -1.
       -3    1    3    3    0  502 -0.99275202600E+03 -0.51251002985E+03 -0.19397513306E+04  0.22384946618E+04  0.10100000352E+00 0.  1.
</event>
<event>
 5   0  0.9714317E-07  0.3396218E+04  0.7818609E-02  0.8138835E-01
       -1   -1    0    0    0  501  0.00000000000E+00  0.00000000000E+00  0.11788436196E+04  0.11788436196E+04  0.50400001928E-02 0.  1.
        1   -1    0    0  501    0  0.00000000000E+00  0.00000000000E+00 -0.24461037783E+04  0.24461037783E+04  0.50400001928E-02 0. -1.
    10030    2    1    2    0    0  0.00000000000E+00  0.00000000000E+00 -0.12672601587E+04  0.36249473979E+04  0.33962177975E+04 0.  0.
        4    1    3    3  502    0  0.13846862187E+04 -0.56762051347E+03 -0.14901884185E+04  0.21119214254E+04  0.12699999809E+01 0. -1.
       -4    1    3    3    0  502 -0.13846862187E+04  0.56762051347E+03  0.22292825981E+03  0.15130259725E+04  0.12699999809E+01 0.  1.
</event>
<event>
 5   0  0.2856440E-06  0.3411886E+04  0.7818609E-02  0.8134995E-01
       -2   -1    0    0    0  501  0.00000000000E+00  0.00000000000E+00  0.12820518855E+04  0.12820518855E+04  0.25500000920E-02 0.  1.
        2   -1    0    0  501    0  0.00000000000E+00  0.00000000000E+00 -0.22699868446E+04  0.22699868446E+04  0.25500000920E-02 0. -1.
    10030    2    1    2    0    0  0.00000000000E+00  0.00000000000E+00 -0.98793495908E+03  0.35520387302E+04  0.34118856454E+04 0.  0.
        4    1    3    3  502    0 -0.16135500654E+04 -0.45354740943E+03 -0.16312374239E+03  0.16840011978E+04  0.12699999809E+01 0.  1.
       -4    1    3    3    0  502  0.16135500654E+04  0.45354740943E+03 -0.82481121669E+03  0.18680375323E+04  0.12699999809E+01 0. -1.
</event>
<event>
 5   0  0.2856440E-06  0.3404690E+04  0.7818609E-02  0.8136756E-01
        2   -1    0    0  501    0  0.00000000000E+00  0.00000000000E+00  0.25270725127E+04  0.25270725127E+04  0.25500000920E-02 0. -1.
       -2   -1    0    0    0  501  0.00000000000E+00  0.00000000000E+00 -0.11467728189E+04  0.11467728189E+04  0.25500000920E-02 0.  1.
    10030    2    1    2    0    0  0.00000000000E+00  0.00000000000E+00  0.13802996938E+04  0.36738453315E+04  0.34046897473E+04 0.  0.
        4    1    3    3  502    0 -0.58635448189E+03  0.11379696906E+04  0.19009959118E+04  0.22918493983E+04  0.12699999809E+01 0. -1.
       -4    1    3    3    0  502  0.58635448189E+03 -0.11379696906E+04 -0.52069621798E+03  0.13819959332E+04  0.12699999809E+01 0.  1.
</event>
<event>
 5   0  0.2906701E-06  0.3388313E+04  0.7818609E-02  0.8140781E-01
        2   -1    0    0  501    0  0.00000000000E+00  0.00000000000E+00  0.29032485148E+04  0.29032485148E+04  0.25500000920E-02 0. -1.
       -2   -1    0    0    0  501  0.00000000000E+00  0.00000000000E+00 -0.98860497057E+03  0.98860497057E+03  0.25500000920E-02 0.  1.
    10030    2    1    2    0    0  0.00000000000E+00  0.00000000000E+00  0.19146435443E+04  0.38918534854E+04  0.33883128029E+04 0.  0.
        5    1    3    3  502    0 -0.93618995189E+03  0.95930809201E+03  0.21473516452E+04  0.25313760723E+04  0.46999998093E+01 0. -1.
       -5    1    3    3    0  502  0.93618995189E+03 -0.95930809201E+03 -0.23270810088E+03  0.13604774131E+04  0.46999998093E+01 0.  1.
</event>
<event>
 5   0  0.2767014E-06  0.2656915E+04  0.7818609E-02  0.8349122E-01
       -2   -1    0    0    0  501  0.00000000000E+00  0.00000000000E+00  0.25501544108E+04  0.25501544108E+04  0.25500000920E-02 0.  1.
        2   -1    0    0  501    0  0.00000000000E+00  0.00000000000E+00 -0.69203601351E+03  0.69203601352E+03  0.25500000920E-02 0. -1.
    10030    2    1    2    0    0  0.00000000000E+00  0.00000000000E+00  0.18581183973E+04  0.32421904243E+04  0.26569145205E+04 0.  0.
        1    1    3    3  502    0 -0.24519512351E+03 -0.56832658781E+03  0.23634422106E+04  0.24431485509E+04  0.50400001928E-02 0.  1.
       -1    1    3    3    0  502  0.24519512351E+03  0.56832658781E+03 -0.50532381335E+03  0.79904187335E+03  0.50400001928E-02 0. -1.
</event>
<event>
 5   0  0.9070500E-07  0.3405092E+04  0.7818609E-02  0.8136658E-01
       -3   -1    0    0    0  501  0.00000000000E+00  0.00000000000E+00  0.13163099600E+04  0.13163099639E+04  0.10100000352E+00 0.  1.
        3   -1    0    0  501    0  0.00000000000E+00  0.00000000000E+00 -0.22021123685E+04  0.22021123708E+04  0.10100000352E+00 0. -1.
    10030    2    1    2    0    0  0.00000000000E+00  0.00000000000E+00 -0.88580240852E+03  0.35184223347E+04  0.34050917489E+04 0.  0.
        4    1    3    3  502    0 -0.11719298164E+04 -0.12206722619E+04 -0.63676380628E+03  0.18080182586E+04  0.12699999809E+01 0.  1.
       -4    1    3    3    0  502  0.11719298164E+04  0.12206722619E+04 -0.24903860225E+03  0.17104040761E+04  0.12699999809E+01 0. -1.
</event>
<event>
 5   0  0.2906701E-06  0.3373284E+04  0.7818609E-02  0.8144495E-01
       -2   -1    0    0    0  501  0.00000000000E+00  0.00000000000E+00  0.12938391955E+04  0.12938391955E+04  0.25500000920E-02 0. -1.
        2   -1    0    0  501    0  0.00000000000E+00  0.00000000000E+00 -0.21986976307E+04  0.21986976307E+04  0.25500000920E-02 0.  1.
    10030    2    1    2    0    0  0.00000000000E+00  0.00000000000E+00 -0.90485843517E+03  0.34925368261E+04  0.33732839629E+04 0.  0.
        5    1    3    3  502    0  0.10527952086E+03  0.13956304673E+04 -0.14269100734E+04  0.19987402598E+04  0.46999998093E+01 0.  1.
       -5    1    3    3    0  502 -0.10527952086E+03 -0.13956304673E+04  0.52205163820E+03  0.14937965663E+04  0.46999998093E+01 0. -1.
</event>
<event>
 5   0  0.1010551E-06  0.3402905E+04  0.7818609E-02  0.8137194E-01
        1   -1    0    0  501    0  0.00000000000E+00  0.00000000000E+00  0.11371500912E+04  0.11371500912E+04  0.50400001928E-02 0. -1.
       -1   -1    0    0    0  501  0.00000000000E+00  0.00000000000E+00 -0.25457851252E+04  0.25457851252E+04  0.50400001928E-02 0.  1.
    10030    2    1    2    0    0  0.00000000000E+00  0.00000000000E+00 -0.14086350340E+04  0.36829352164E+04  0.34029045166E+04 0.  0.
        2    1    3    3  502    0  0.28709532894E+01  0.16530572611E+04 -0.26825572017E+03  0.16746843530E+04  0.25500000920E-02 0.  1.
       -2    1    3    3    0  502 -0.28709532894E+01 -0.16530572611E+04 -0.11403793139E+04  0.20082508634E+04  0.25500000920E-02 0. -1.
</event>
<event>
 5   0  0.2906701E-06  0.3407477E+04  0.7818609E-02  0.8136074E-01
       -2   -1    0    0    0  501  0.00000000000E+00  0.00000000000E+00  0.12962695120E+04  0.12962695120E+04  0.25500000920E-02 0.  1.
        2   -1    0    0  501    0  0.00000000000E+00  0.00000000000E+00 -0.22392908141E+04  0.22392908141E+04  0.25500000920E-02 0. -1.
    10030    2    1    2    0    0  0.00000000000E+00  0.00000000000E+00 -0.94302130208E+03  0.35355603260E+04  0.34074767267E+04 0.  0.
        5    1    3    3  502    0  0.77992797167E+03  0.13594353586E+04 -0.11647180882E+04  0.19526757156E+04  0.46999998093E+01 0. -1.
       -5    1    3    3    0  502 -0.77992797167E+03 -0.13594353586E+04  0.22169678615E+03  0.15828846105E+04  0.46999998093E+01 0.  1.
</event>
<event>
 5   0  0.9232963E-07  0.3422202E+04  0.7818609E-02  0.8132479E-01
       -1   -1    0    0    0  501  0.00000000000E+00  0.00000000000E+00  0.13018271326E+04  0.13018271326E+04  0.50400001928E-02 0. -1.
        1   -1    0    0  501    0  0.00000000000E+00  0.00000000000E+00 -0.22490441711E+04  0.22490441711E+04  0.50400001928E-02 0.  1.
    10030    2    1    2    0    0  0.00000000000E+00  0.00000000000E+00 -0.94721703851E+03  0.35508713037E+04  0.34222020539E+04 0.  0.
        3    1    3    3  502    0  0.26087233103E+03  0.16910473028E+04 -0.48719119015E+03  0.17790589139E+04  0.10100000352E+00 0. -1.
       -3    1    3    3    0  502 -0.26087233103E+03 -0.16910473028E+04 -0.46002584836E+03  0.17718123898E+04  0.10100000352E+00 0.  1.
</event>
<event>
 5   0  0.9714317E-07  0.2259923E+04  0.7818609E-02  0.8493893E-01
        1   -1    0    0  501    0  0.00000000000E+00  0.00000000000E+00  0.15028549822E+04  0.15028549822E+04  0.50400001928E-02 0. -1.
       -1   -1    0    0    0  501  0.00000000000E+00  0.00000000000E+00 -0.84959159567E+03  0.84959159568E+03  0.50400001928E-02 0.  1.
    10030    2    1    2    0    0  0.00000000000E+00  0.00000000000E+00  0.65326338656E+03  0.23524465779E+04  0.22599229743E+04 0.  0.
        4    1    3    3  502    0 -0.47687838063E+01 -0.84773701234E+03  0.11042993487E+04  0.13921779512E+04  0.12699999809E+01 0.  1.
       -4    1    3    3    0  502  0.47687838063E+01  0.84773701234E+03 -0.45103596214E+03  0.96026862671E+03  0.12699999809E+01 0. -1.
</event>
<event>
 5   0  0.9232963E-07  0.2713653E+04  0.7818609E-02  0.8330589E-01
       -1   -1    0    0    0  501  0.00000000000E+00  0.00000000000E+00  0.11447523995E+04  0.11447523995E+04  0.50400001928E-02 0.  1.
        1   -1    0    0  501    0  0.00000000000E+00  0.00000000000E+00 -0.16081885077E+04  0.16081885077E+04  0.50400001928E-02 0. -1.
    10030    2    1    2    0    0  0.00000000000E+00  0.00000000000E+00 -0.46343610816E+03  0.27529409072E+04  0.27136526330E+04 0.  0.
        3    1    3    3  502    0  0.93939495906E+03 -0.81396650733E+03  0.32019273872E+03  0.12835605807E+04  0.10100000352E+00 0.  1.
       -3    1    3    3    0  502 -0.93939495906E+03  0.81396650733E+03 -0.78362884688E+03  0.14693803265E+04  0.10100000352E+00 0. -1.
</event>
<event>
 5   0  0.9232963E-07  0.2759922E+04  0.7818609E-02  0.8315820E-01
       -1   -1    0    0    0  501  0.00000000000E+00  0.00000000000E+00  0.76668364703E+03  0.76668364704E+03  0.50400001928E-02 0.  1.
        1   -1    0    0  501    0  0.00000000000E+00  0.00000000000E+00 -0.24838054634E+04  0.24838054634E+04  0.50400001928E-02 0. -1.
    10030    2    1    2    0    0  0.00000000000E+00  0.00000000000E+00 -0.17171218164E+04  0.32504891105E+04  0.27599224853E+04 0.  0.
        3    1    3    3  502    0  0.27724411532E+03  0.12844564718E+04 -0.13548945014E+04  0.18874405547E+04  0.10100000352E+00 0. -1.
       -3    1    3    3    0  502 -0.27724411532E+03 -0.12844564718E+04 -0.36222731503E+03  0.13630485558E+04  0.10100000352E+00 0.  1.
</event>
<event>
 5   0  0.2664083E-06  0.2499094E+04  0.7818609E-02  0.8403308E-01
       -2   -1    0    0    0  501  0.00000000000E+00  0.00000000000E+00  0.47925827859E+03  0.47925827860E+03  0.25500000920E-02 0. -1.
        2   -1    0    0  501    0  0.00000000000E+00  0.00000000000E+00 -0.32578827536E+04  0.32578827536E+04  0.25500000920E-02 0.  1.
    10030    2    1    2    0    0  0.00000000000E+00  0.00000000000E+00 -0.27786244750E+04  0.37371410322E+04  0.24990936600E+04 0.  0.
        2    1    3    3  502    0 -0.75674859564E+03 -0.88150999992E+03 -0.70136557564E+03  0.13570711063E+04  0.25500000920E-02 0. -1.
       -2    1    3    3    0  502  0.75674859564E+03  0.88150999992E+03 -0.20772588994E+04  0.23800699259E+04  0.25500000920E-02 0.  1.
</event>
<event>
 5   0  0.1003191E-06  0.3411831E+04  0.7818609E-02  0.8135009E-01
       -1   -1    0    0    0  501  0.00000000000E+00  0.00000000000E+00  0.20211034398E+04  0.20211034398E+04  0.50400001928E-02 0. -1.
        1   -1    0    0  501    0  0.00000000000E+00  0.00000000000E+00 -0.14398807621E+04  0.14398807621E+04  0.50400001928E-02 0.  1.
    10030    2    1    2    0    0  0.00000000000E+00  0.00000000000E+00  0.58122267768E+03  0.34609842020E+04  0.34118311572E+04 0.  0.
        5    1    3    3  502    0 -0.10343686741E+04  0.98104148156E+03  0.12409998952E+04  0.18900962336E+04  0.46999998093E+01 0. -1.
       -5    1    3    3    0  502  0.10343686741E+04 -0.98104148156E+03 -0.65977721751E+03  0.15708879684E+04  0.46999998093E+01 0.  1.
</event>
<event>
 5   0  0.1010551E-06  0.3348757E+04  0.7818609E-02  0.8150599E-01
       -1   -1    0    0    0  501  0.00000000000E+00  0.00000000000E+00  0.17899027724E+04  0.17899027724E+04  0.50400001928E-02 0. -1.
        1   -1    0    0  501    0  0.00000000000E+00  0.00000000000E+00 -0.15663101365E+04  0.15663101365E+04  0.50400001928E-02 0.  1.
    10030    2    1    2    0    0  0.00000000000E+00  0.00000000000E+00  0.22359263586E+03  0.33562129089E+04  0.33487566981E+04 0.  0.
        2    1    3    3  502    0 -0.93970514964E+03  0.11381459545E+04 -0.68060996181E+03  0.16253159392E+04  0.25500000920E-02 0.  1.
       -2    1    3    3    0  502  0.93970514964E+03 -0.11381459545E+04  0.90420259767E+03  0.17308969697E+04  0.25500000920E-02 0. -1.
</event>
<event>
 5   0  0.9232963E-07  0.2803436E+04  0.7818609E-02  0.8302203E-01
        1   -1    0    0  501    0  0.00000000000E+00  0.00000000000E+00  0.18034152895E+04  0.18034152895E+04  0.50400001928E-02 0.  1.
       -1   -1    0    0    0  501  0.00000000000E+00  0.00000000000E+00 -0.10894955412E+04  0.10894955413E+04  0.50400001928E-02 0. -1.
    10030    2    1    2    0    0  0.00000000000E+00  0.00000000000E+00  0.71391974822E+03  0.28929108307E+04  0.28034356899E+04 0.  0.
        3    1    3    3  502    0  0.10638170824E+04  0.17540892158E+03  0.12812814376E+04  0.16745617956E+04  0.10100000352E+00 0.  1.
       -3    1    3    3    0  502 -0.10638170824E+04 -0.17540892158E+03 -0.56736168940E+03  0.12183490351E+04  0.10100000352E+00 0. -1.
</event>
<event>
 5   0  0.2767014E-06  0.3378973E+04  0.7818609E-02  0.8143086E-01
       -2   -1    0    0    0  501  0.00000000000E+00  0.00000000000E+00  0.95501564705E+03  0.95501564706E+03  0.25500000920E-02 0.  1.
        2   -1    0    0  501    0  0.00000000000E+00  0.00000000000E+00 -0.29888148104E+04  0.29888148104E+04  0.25500000920E-02 0. -1.
    10030    2    1    2    0    0  0.00000000000E+00  0.00000000000E+00 -0.20337991633E+04  0.39438304574E+04  0.33789731636E+04 0.  0.
        1    1    3    3  502    0  0.53034105648E+03 -0.82331411772E+03  0.58992166072E+03  0.11432914495E+04  0.50400001928E-02 0.  1.
       -1    1    3    3    0  502 -0.53034105648E+03  0.82331411772E+03 -0.26237208240E+04  0.28005390079E+04  0.50400001928E-02 0. -1.
</event>
<event>
 5   0  0.2664083E-06  0.3389795E+04  0.7818609E-02  0.8140416E-01
        2   -1    0    0  501    0  0.00000000000E+00  0.00000000000E+00  0.13128392970E+04  0.13128392970E+04  0.25500000920E-02 0. -1.
       -2   -1    0    0    0  501  0.00000000000E+00  0.00000000000E+00 -0.21881407595E+04  0.21881407595E+04  0.25500000920E-02 0.  1.
    10030    2    1    2    0    0  0.00000000000E+00  0.00000000000E+00 -0.87530146243E+03  0.35009800565E+04  0.33897947882E+04 0.  0.
        2    1    3    3  502    0  0.12922387533E+04 -0.83815800824E+03 -0.11681604246E+04  0.19331292300E+04  0.25500000920E-02 0.  1.
       -2    1    3    3    0  502 -0.12922387533E+04  0.83815800824E+03  0.29285896219E+03  0.15678508265E+04  0.25500000920E-02 0. -1.
</event>
<event>
 5   0  0.9232963E-07  0.3356300E+04  0.7818609E-02  0.8148716E-01
       -1   -1    0    0    0  501  0.00000000000E+00  0.00000000000E+00  0.13820697529E+04  0.13820697529E+04  0.50400001928E-02 0. -1.
        1   -1    0    0  501    0  0.00000000000E+00  0.00000000000E+00 -0.20376593019E+04  0.20376593019E+04  0.50400001928E-02 0.  1.
    10030    2    1    2    0    0  0.00000000000E+00  0.00000000000E+00 -0.65558954891E+03  0.34197290548E+04  0.33562999198E+04 0.  0.
        3    1    3    3  502    0 -0.59757291944E+03 -0.12537120964E+04 -0.12875625029E+04  0.18938597159E+04  0.10100000352E+00 0.  1.
       -3    1    3    3    0  502  0.59757291944E+03  0.12537120964E+04  0.63197295397E+03  0.15258693389E+04  0.10100000352E+00 0. -1.
</event>
<event>
 5   0  0.2767014E-06  0.3347297E+04  0.7818609E-02  0.8150964E-01
       -2   -1    0    0    0  501  0.00000000000E+00  0.00000000000E+00  0.16301098418E+04  0.16301098418E+04  0.25500000920E-02 0. -1.
        2   -1    0    0  501    0  0.00000000000E+00  0.00000000000E+00 -0.17183501344E+04  0.17183501344E+04  0.25500000920E-02 0.  1.
    10030    2    1    2    0    0  0.00000000000E+00  0.00000000000E+00 -0.88240292682E+02  0.33484599762E+04  0.33472970981E+04 0.  0.
        1    1    3    3  502    0  0.11280893481E+04  0.36627090337E+03 -0.12253603867E+04  0.17053586219E+04  0.50400001928E-02 0.  1.
       -1    1    3    3    0  502 -0.11280893481E+04 -0.36627090337E+03  0.11371200941E+04  0.16431013543E+04  0.50400001928E-02 0. -1.
</event>
<event>
 5   0  0.1010855E-06  0.3415695E+04  0.7818609E-02  0.8134065E-01
       -1   -1    0    0    0  501  0.00000000000E+00  0.00000000000E+00  0.13815059221E+04  0.13815059221E+04  0.50400001928E-02 0. -1.
        1   -1    0    0  501    0  0.00000000000E+00  0.00000000000E+00 -0.21112784290E+04  0.21112784290E+04  0.50400001928E-02 0.  1.
    10030    2    1    2    0    0  0.00000000000E+00  0.00000000000E+00 -0.72977250689E+03  0.34927843511E+04  0.34156953336E+04 0.  0.
        1    1    3    3  502    0  0.16210283638E+02 -0.10828623240E+04 -0.17152544411E+04  0.20285342944E+04  0.50400001928E-02 0.  1.
       -1    1    3    3    0  502 -0.16210283638E+02  0.10828623240E+04  0.98548193418E+03  0.14642500567E+04  0.50400001928E-02 0. -1.
</event>
<event>
 5   0  0.9232963E-07  0.3387528E+04  0.7818609E-02  0.8140974E-01
        1   -1    0    0  501    0  0.00000000000E+00  0.00000000000E+00  0.26826904522E+04  0.26826904522E+04  0.50400001928E-02 0. -1.
       -1   -1    0    0    0  501  0.00000000000E+00  0.00000000000E+00 -0.10693876817E+04  0.10693876817E+04  0.50400001928E-02 0.  1.
    10030    2    1    2    0    0  0.00000000000E+00  0.00000000000E+00  0.16133027704E+04  0.37520781339E+04  0.33875277850E+04 0.  0.
        3    1    3    3  502    0  0.87960337020E+03 -0.69022124733E+03 -0.60255964821E+03  0.12701124356E+04  0.10100000352E+00 0.  1.
       -3    1    3    3    0  502 -0.87960337020E+03  0.69022124733E+03  0.22158624186E+04  0.24819656983E+04  0.10100000352E+00 0. -1.
</event>
<event>
 5   0  0.2856440E-06  0.3240229E+04  0.7818609E-02  0.8178273E-01
       -2   -1    0    0    0  501  0.00000000000E+00  0.00000000000E+00  0.10121052125E+04  0.10121052125E+04  0.25500000920E-02 0. -1.
        2   -1    0    0  501    0  0.00000000000E+00  0.00000000000E+00 -0.25933782271E+04  0.25933782271E+04  0.25500000920E-02 0.  1.
    10030    2    1    2    0    0  0.00000000000E+00  0.00000000000E+00 -0.15812730146E+04  0.36054834395E+04  0.32402293879E+04 0.  0.
        4    1    3    3  502    0 -0.88267040505E+03  0.44009991088E+03 -0.22208125152E+04  0.24299804148E+04  0.12699999809E+01 0.  1.
       -4    1    3    3    0  502  0.88267040505E+03 -0.44009991088E+03  0.63953950062E+03  0.11755030248E+04  0.12699999809E+01 0. -1.
</event>
<event>
 5   0  0.9070500E-07  0.3391655E+04  0.7818609E-02  0.8139957E-01
       -4   -1    0    0    0  501  0.00000000000E+00  0.00000000000E+00  0.14469026060E+04  0.14469031634E+04  0.12699999809E+01 0. -1.
        4   -1    0    0  501    0  0.00000000000E+00  0.00000000000E+00 -0.19875765897E+04  0.19875769954E+04  0.12699999809E+01 0.  1.
    10030    2    1    2    0    0  0.00000000000E+00  0.00000000000E+00 -0.54067398363E+03  0.34344801588E+04  0.33916552898E+04 0.  0.
        1    1    3    3  502    0 -0.11974597172E+04 -0.10534413977E+04 -0.85396739529E+03  0.18091182562E+04  0.50400001928E-02 0.  1.
       -1    1    3    3    0  502  0.11974597172E+04  0.10534413977E+04  0.31329341165E+03  0.16253619026E+04  0.50400001928E-02 0. -1.
</event>
<event>
 5   0  0.2767014E-06  0.3428950E+04  0.7818609E-02  0.8130837E-01
       -2   -1    0    0    0  501  0.00000000000E+00  0.00000000000E+00  0.18973269287E+04  0.18973269287E+04  0.25500000920E-02 0.  1.
        2   -1    0    0  501    0  0.00000000000E+00  0.00000000000E+00 -0.15492454530E+04  0.15492454530E+04  0.25500000920E-02 0. -1.
    10030    2    1    2    0    0  0.00000000000E+00  0.00000000000E+00  0.34808147570E+03  0.34465723816E+04  0.34289503449E+04 0.  0.
        1    1    3    3  502    0 -0.17057110661E+04 -0.12766491184E+03  0.29158851646E+03  0.17351577547E+04  0.50400001928E-02 0.  1.
       -1    1    3    3    0  502  0.17057110661E+04  0.12766491184E+03  0.56492959242E+02  0.17114146269E+04  0.50400001928E-02 0. -1.
</event>
<event>
 5   0  0.2906701E-06  0.2781208E+04  0.7818609E-02  0.8309126E-01
       -2   -1    0    0    0  501  0.00000000000E+00  0.00000000000E+00  0.12996194111E+04  0.12996194111E+04  0.25500000920E-02 0.  1.
        2   -1    0    0  501    0  0.00000000000E+00  0.00000000000E+00 -0.14879587512E+04  0.14879587512E+04  0.25500000920E-02 0. -1.
    10030    2    1    2    0    0  0.00000000000E+00  0.00000000000E+00 -0.18833934006E+03  0.27875781623E+04  0.27812084251E+04 0.  0.
        5    1    3    3  502    0  0.22245517547E+03 -0.10258194951E+04  0.82004106796E+03  0.13320215406E+04  0.46999998093E+01 0.  1.
       -5    1    3    3    0  502 -0.22245517547E+03  0.10258194951E+04 -0.10083804080E+04  0.14555566216E+04  0.46999998093E+01 0. -1.
</event>
<event>
 5   0  0.2856440E-06  0.3479391E+04  0.7818609E-02  0.8118691E-01
       -2   -1    0    0    0  501  0.00000000000E+00  0.00000000000E+00  0.10749038574E+04  0.10749038574E+04  0.25500000920E-02 0. -1.
        2   -1    0    0  501    0  0.00000000000E+00  0.00000000000E+00 -0.28156385071E+04  0.28156385071E+04  0.25500000920E-02 0.  1.
    10030    2    1    2    0    0  0.00000000000E+00  0.00000000000E+00 -0.17407346497E+04  0.38905423645E+04  0.34793911492E+04 0.  0.
        4    1    3    3  502    0 -0.68199356842E+03 -0.76349343630E+03  0.70243846778E+03  0.12415550204E+04  0.12699999809E+01 0. -1.
       -4    1    3    3    0  502  0.68199356842E+03  0.76349343630E+03 -0.24431731175E+04  0.26489873442E+04  0.12699999809E+01 0.  1.
</event>
<event>
 5   0  0.9232963E-07  0.3047787E+04  0.7818609E-02  0.8230215E-01
        1   -1    0    0  501    0  0.00000000000E+00  0.00000000000E+00  0.19106427742E+04  0.19106427742E+04  0.50400001928E-02 0.  1.
       -1   -1    0    0    0  501  0.00000000000E+00  0.00000000000E+00 -0.12154291728E+04  0.12154291728E+04  0.50400001928E-02 0. -1.
    10030    2    1    2    0    0  0.00000000000E+00  0.00000000000E+00  0.69521360135E+03  0.31260719470E+04  0.30477867160E+04 0.  0.
        3    1    3    3  502    0  0.24637040077E+03  0.15001809264E+04  0.23998419084E+03  0.15391015589E+04  0.10100000352E+00 0. -1.
       -3    1    3    3    0  502 -0.24637040077E+03 -0.15001809264E+04  0.45522941051E+03  0.15869703881E+04  0.10100000352E+00 0.  1.
</event>
<event>
 5   0  0.9232963E-07  0.3420848E+04  0.7818609E-02  0.8132809E-01
        1   -1    0    0  501    0  0.00000000000E+00  0.00000000000E+00  0.18634099374E+04  0.18634099374E+04  0.50400001928E-02 0. -1.
       -1   -1    0    0    0  501  0.00000000000E+00  0.00000000000E+00 -0.15699977863E+04  0.15699977863E+04  0.50400001928E-02 0.  1.
    10030    2    1    2    0    0  0.00000000000E+00  0.00000000000E+00  0.29341215105E+03  0.34334077237E+04  0.34208475422E+04 0.  0.
        3    1    3    3  502    0  0.39479957537E+03 -0.10608829094E+04  0.14336817297E+04  0.18266862250E+04  0.10100000352E+00 0. -1.
       -3    1    3    3    0  502 -0.39479957537E+03  0.10608829094E+04 -0.11402695787E+04  0.16067214987E+04  0.10100000352E+00 0.  1.
</event>
<event>
 5   0  0.2848685E-06  0.3350185E+04  0.7818609E-02  0.8150242E-01
        2   -1    0    0  501    0  0.00000000000E+00  0.00000000000E+00  0.21119079553E+04  0.21119079553E+04  0.25500000920E-02 0.  1.
       -2   -1    0    0    0  501  0.00000000000E+00  0.00000000000E+00 -0.13286254344E+04  0.13286254344E+04  0.25500000920E-02 0. -1.
    10030    2    1    2    0    0  0.00000000000E+00  0.00000000000E+00  0.78328252089E+03  0.34405333898E+04  0.33501848454E+04 0.  0.
        3    1    3    3  502    0 -0.11343418975E+04 -0.54666796034E+02 -0.87291264301E+03  0.14323744244E+04  0.10100000352E+00 0. -1.
       -3    1    3    3    0  502  0.11343418975E+04  0.54666796034E+02  0.16561951639E+04  0.20081589654E+04  0.10100000352E+00 0.  1.
</event>
<event>
 5   0  0.2856440E-06  0.3408827E+04  0.7818609E-02  0.8135743E-01
        2   -1    0    0  501    0  0.00000000000E+00  0.00000000000E+00  0.16446859679E+04  0.16446859679E+04  0.25500000920E-02 0.  1.
       -2   -1    0    0    0  501  0.00000000000E+00  0.00000000000E+00 -0.17663096505E+04  0.17663096505E+04  0.25500000920E-02 0. -1.
    10030    2    1    2    0    0  0.00000000000E+00  0.00000000000E+00 -0.12162368259E+03  0.34109956184E+04  0.34088265999E+04 0.  0.
        4    1    3    3  502    0 -0.13406579482E+04 -0.10519001037E+04 -0.94973305356E+02  0.17067158826E+04  0.12699999809E+01 0. -1.
       -4    1    3    3    0  502  0.13406579482E+04  0.10519001037E+04 -0.26650377233E+02  0.17042797358E+04  0.12699999809E+01 0.  1.
</event>
<event>
 5   0  0.9714317E-07  0.3389862E+04  0.7818609E-02  0.8140399E-01
        1   -1    0    0  501    0  0.00000000000E+00  0.00000000000E+00  0.99038559392E+03  0.99038559393E+03  0.50400001928E-02 0. -1.
       -1   -1    0    0    0  501  0.00000000000E+00  0.00000000000E+00 -0.29006785783E+04  0.29006785783E+04  0.50400001928E-02 0.  1.
    10030    2    1    2    0    0  0.00000000000E+00  0.00000000000E+00 -0.19102929844E+04  0.38910641722E+04  0.33898615173E+04 0.  0.
        4    1    3    3  502    0  0.95379581951E+03  0.55528065916E+03 -0.24317008100E+04  0.26704369526E+04  0.12699999809E+01 0.  1.
       -4    1    3    3    0  502 -0.95379581951E+03 -0.55528065916E+03  0.52140782561E+03  0.12206272196E+04  0.12699999809E+01 0. -1.
</event>
<event>
 5   0  0.1010855E-06  0.3086063E+04  0.7818609E-02  0.8219573E-01
       -1   -1    0    0    0  501  0.00000000000E+00  0.00000000000E+00  0.91506839437E+03  0.91506839438E+03  0.50400001928E-02 0.  1.
        1   -1    0    0  501    0  0.00000000000E+00  0.00000000000E+00 -0.26019330651E+04  0.26019330651E+04  0.50400001928E-02 0. -1.
    10030    2    1    2    0    0  0.00000000000E+00  0.00000000000E+00 -0.16868646708E+04  0.35170014595E+04  0.30860633255E+04 0.  0.
        1    1    3    3  502    0 -0.24374694989E+03  0.14995363606E+04 -0.11511875761E+04  0.19061098362E+04  0.50400001928E-02 0. -1.
       -1    1    3    3    0  502  0.24374694989E+03 -0.14995363606E+04 -0.53567709470E+03  0.16108916233E+04  0.50400001928E-02 0.  1.
</event>
<event>
 5   0  0.1010551E-06  0.3534648E+04  0.7818609E-02  0.8105628E-01
        1   -1    0    0  501    0  0.00000000000E+00  0.00000000000E+00  0.22153533358E+04  0.22153533358E+04  0.50400001928E-02 0. -1.
       -1   -1    0    0    0  501  0.00000000000E+00  0.00000000000E+00 -0.14099031830E+04  0.14099031830E+04  0.50400001928E-02 0.  1.
    10030    2    1    2    0    0  0.00000000000E+00  0.00000000000E+00  0.80545015274E+03  0.36252565188E+04  0.35346477729E+04 0.  0.
        2    1    3    3  502    0  0.23473718168E+03 -0.97172545696E+03  0.18975083148E+04  0.21447353479E+04  0.25500000920E-02 0. -1.
       -2    1    3    3    0  502 -0.23473718168E+03  0.97172545696E+03 -0.10920581620E+04  0.14805211709E+04  0.25500000920E-02 0.  1.
</event>
<event>
 5   0  0.2856440E-06  0.3390777E+04  0.7818609E-02  0.8140174E-01
        2   -1    0    0  501    0  0.00000000000E+00  0.00000000000E+00  0.23164870377E+04  0.23164870377E+04  0.25500000920E-02 0. -1.
       -2   -1    0    0    0  501  0.00000000000E+00  0.00000000000E+00 -0.12408197304E+04  0.12408197304E+04  0.25500000920E-02 0.  1.
    10030    2    1    2    0    0  0.00000000000E+00  0.00000000000E+00  0.10756673073E+04  0.35573067681E+04  0.33907773868E+04 0.  0.
        4    1    3    3  502    0  0.56539468682E+03 -0.27579024496E+03  0.21895144581E+04  0.22780927519E+04  0.12699999809E+01 0. -1.
       -4    1    3    3    0  502 -0.56539468682E+03  0.27579024496E+03 -0.11138471508E+04  0.12792140163E+04  0.12699999809E+01 0.  1.
</event>
<event>
 5   0  0.2856440E-06  0.3240975E+04  0.7818609E-02  0.8178079E-01
        2   -1    0    0  501    0  0.00000000000E+00  0.00000000000E+00  0.21911328354E+04  0.21911328354E+04  0.25500000920E-02 0. -1.
       -2   -1    0    0    0  501  0.00000000000E+00  0.00000000000E+00 -0.11984577240E+04  0.11984577240E+04  0.25500000920E-02 0.  1.
    10030    2    1    2    0    0  0.00000000000E+00  0.00000000000E+00  0.99267511142E+03  0.33895905594E+04  0.32409752057E+04 0.  0.
        4    1    3    3  502    0 -0.67110061499E+03 -0.42396268363E+03 -0.98119262090E+03  0.12620859578E+04  0.12699999809E+01 0.  1.
       -4    1    3    3    0  502  0.67110061499E+03  0.42396268363E+03  0.19738677323E+04  0.21275046017E+04  0.12699999809E+01 0. -1.
</event>
<event>
 5   0  0.2906701E-06  0.3302361E+04  0.7818609E-02  0.8162295E-01
        2   -1    0    0  501    0  0.00000000000E+00  0.00000000000E+00  0.21581231905E+04  0.21581231905E+04  0.25500000920E-02 0. -1.
       -2   -1    0    0    0  501  0.00000000000E+00  0.00000000000E+00 -0.12633185352E+04  0.12633185352E+04  0.25500000920E-02 0.  1.
    10030    2    1    2    0    0  0.00000000000E+00  0.00000000000E+00  0.89480465531E+03  0.34214417256E+04  0.33023609904E+04 0.  0.
        5    1    3    3  502    0  0.14739142186E+04 -0.74411708644E+03  0.46350548333E+03  0.17149322976E+04  0.46999998093E+01 0. -1.
       -5    1    3    3    0  502 -0.14739142186E+04  0.74411708644E+03  0.43129917198E+03  0.17065094280E+04  0.46999998093E+01 0.  1.
</event>
<event>
 5   0  0.9232963E-07  0.3249852E+04  0.7818609E-02  0.8175774E-01
        1   -1    0    0  501    0  0.00000000000E+00  0.00000000000E+00  0.25880423359E+04  0.25880423359E+04  0.50400001928E-02 0. -1.
       -1   -1    0    0    0  501  0.00000000000E+00  0.00000000000E+00 -0.10202248825E+04  0.10202248825E+04  0.50400001928E-02 0.  1.
    10030    2    1    2    0    0  0.00000000000E+00  0.00000000000E+00  0.15678174534E+04  0.36082672184E+04  0.32498524201E+04 0.  0.
        3    1    3    3  502    0 -0.15466415707E+04  0.39411709976E+03  0.44539561201E+03  0.16570472829E+04  0.10100000352E+00 0. -1.
       -3    1    3    3    0  502  0.15466415707E+04 -0.39411709976E+03  0.11224218414E+04  0.19512199355E+04  0.10100000352E+00 0.  1.
</event>
<event>
 5   0  0.1010551E-06  0.3390243E+04  0.7818609E-02  0.8140305E-01
       -1   -1    0    0    0  501  0.00000000000E+00  0.00000000000E+00  0.20564958013E+04  0.20564958013E+04  0.50400001928E-02 0. -1.
        1   -1    0    0  501    0  0.00000000000E+00  0.00000000000E+00 -0.13972494397E+04  0.13972494397E+04  0.50400001928E-02 0.  1.
    10030    2    1    2    0    0  0.00000000000E+00  0.00000000000E+00  0.65924636162E+03  0.34537452410E+04  0.33902434167E+04 0.  0.
        2    1    3    3  502    0  0.91888676308E+03 -0.91731800342E+03  0.14398118245E+04  0.19387839727E+04  0.25500000920E-02 0. -1.
       -2    1    3    3    0  502 -0.91888676308E+03  0.91731800342E+03 -0.78056546285E+03  0.15149612683E+04  0.25500000920E-02 0.  1.
</event>
<event>
 5   0  0.2767014E-06  0.3300867E+04  0.7818609E-02  0.8162675E-01
        2   -1    0    0  501    0  0.00000000000E+00  0.00000000000E+00  0.20598562307E+04  0.20598562307E+04  0.25500000920E-02 0.  1.
       -2   -1    0    0    0  501  0.00000000000E+00  0.00000000000E+00 -0.13223890629E+04  0.13223890629E+04  0.25500000920E-02 0. -1.
    10030    2    1    2    0    0  0.00000000000E+00  0.00000000000E+00  0.73746716777E+03  0.33822452937E+04  0.33008673713E+04 0.  0.
        1    1    3    3  502    0 -0.82793265242E+03 -0.45718769073E+03 -0.10171792249E+04  0.13889372330E+04  0.50400001928E-02 0. -1.
       -1    1    3    3    0  502  0.82793265242E+03  0.45718769073E+03  0.17546463927E+04  0.19933080607E+04  0.50400001928E-02 0.  1.
</event>
<event>
 5   0  0.9714317E-07  0.3380996E+04  0.7818609E-02  0.8142586E-01
        1   -1    0    0  501    0  0.00000000000E+00  0.00000000000E+00  0.22773054707E+04  0.22773054707E+04  0.50400001928E-02 0. -1.
       -1   -1    0    0    0  501  0.00000000000E+00  0.00000000000E+00 -0.12548968478E+04  0.12548968478E+04  0.50400001928E-02 0.  1.
    10030    2    1    2    0    0  0.00000000000E+00  0.00000000000E+00  0.10224086229E+04  0.35322023185E+04  0.33809959815E+04 0.  0.
        4    1    3    3  502    0  0.46695878621E+03  0.84101490169E+03  0.19634907128E+04  0.21864706641E+04  0.12699999809E+01 0. -1.
       -4    1    3    3    0  502 -0.46695878621E+03 -0.84101490169E+03 -0.94108208991E+03  0.13457316544E+04  0.12699999809E+01 0.  1.
</event>
<event>
 5   0  0.2856440E-06  0.3240616E+04  0.7818609E-02  0.8178172E-01
        2   -1    0    0  501    0  0.00000000000E+00  0.00000000000E+00  0.20885539079E+04  0.20885539079E+04  0.25500000920E-02 0.  1.
       -2   -1    0    0    0  501  0.00000000000E+00  0.00000000000E+00 -0.12570409746E+04  0.12570409746E+04  0.25500000920E-02 0. -1.
    10030    2    1    2    0    0  0.00000000000E+00  0.00000000000E+00  0.83151293322E+03  0.33455948825E+04  0.32406158920E+04 0.  0.
        4    1    3    3  502    0  0.14600957373E+04 -0.61206565937E+03  0.59778886799E+02  0.15843229033E+04  0.12699999809E+01 0. -1.
       -4    1    3    3    0  502 -0.14600957373E+04  0.61206565937E+03  0.77173404642E+03  0.17612719792E+04  0.12699999809E+01 0.  1.
</event>
<event>
 5   0  0.2664083E-06  0.3231109E+04  0.7818609E-02  0.8180649E-01
        2   -1    0    0  501    0  0.00000000000E+00  0.00000000000E+00  0.14331676572E+04  0.14331676572E+04  0.25500000920E-02 0. -1.
       -2   -1    0    0    0  501  0.00000000000E+00  0.00000000000E+00 -0.18211526685E+04  0.18211526685E+04  0.25500000920E-02 0.  1.
    10030    2    1    2    0    0  0.00000000000E+00  0.00000000000E+00 -0.38798501132E+03  0.32543203257E+04  0.32311094710E+04 0.  0.
        2    1    3    3  502    0  0.11180433134E+04  0.84000437129E+03  0.62076166343E+03  0.15300239335E+04  0.25500000920E-02 0. -1.
       -2    1    3    3    0  502 -0.11180433134E+04 -0.84000437129E+03 -0.10087466748E+04  0.17242963922E+04  0.25500000920E-02 0.  1.
</event>
<event>
 5   0  0.1010855E-06  0.3357820E+04  0.7818609E-02  0.8148337E-01
        1   -1    0    0  501    0  0.00000000000E+00  0.00000000000E+00  0.21080082134E+04  0.21080082135E+04  0.50400001928E-02 0.  1.
       -1   -1    0    0    0  501  0.00000000000E+00  0.00000000000E+00 -0.13371571735E+04  0.13371571735E+04  0.50400001928E-02 0. -1.
    10030    2    1    2    0    0  0.00000000000E+00  0.00000000000E+00  0.77085103996E+03  0.34451653869E+04  0.33578197119E+04 0.  0.
        1    1    3    3  502    0 -0.15410743818E+04 -0.38381269142E+03 -0.17327191016E+03  0.15975749082E+04  0.50400001928E-02 0.  1.
       -1    1    3    3    0  502  0.15410743818E+04  0.38381269142E+03  0.94412295012E+03  0.18475904788E+04  0.50400001928E-02 0. -1.
</event>
<event>
 5   0  0.2856440E-06  0.3399217E+04  0.7818609E-02  0.8138099E-01
       -2   -1    0    0    0  501  0.00000000000E+00  0.00000000000E+00  0.24570163174E+04  0.24570163174E+04  0.25500000920E-02 0. -1.
        2   -1    0    0  501    0  0.00000000000E+00  0.00000000000E+00 -0.11756814196E+04  0.11756814196E+04  0.25500000920E-02 0.  1.
    10030    2    1    2    0    0  0.00000000000E+00  0.00000000000E+00  0.12813348978E+04  0.36326977370E+04  0.33992166345E+04 0.  0.
        4    1    3    3  502    0 -0.15437897653E+04 -0.53438378893E+03  0.13962093915E+03  0.16396183985E+04  0.12699999809E+01 0.  1.
       -4    1    3    3    0  502  0.15437897653E+04  0.53438378893E+03  0.11417139587E+04  0.19930793385E+04  0.12699999809E+01 0. -1.
</event>
<event>
 5   0  0.9232963E-07  0.2792935E+04  0.7818609E-02  0.8305465E-01
        1   -1    0    0  501    0  0.00000000000E+00  0.00000000000E+00  0.28528407366E+04  0.28528407366E+04  0.50400001928E-02 0. -1.
       -1   -1    0    0    0  501  0.00000000000E+00  0.00000000000E+00 -0.68357196924E+03  0.68357196925E+03  0.50400001928E-02 0.  1.
    10030    2    1    2    0    0  0.00000000000E+00  0.00000000000E+00  0.21692687674E+04  0.35364127059E+04  0.27929353450E+04 0.  0.
        3    1    3    3  502    0 -0.53294400234E+03 -0.86502160692E+03 -0.12842830824E+03  0.10241023048E+04  0.10100000352E+00 0.  1.
       -3    1    3    3    0  502  0.53294400234E+03  0.86502160692E+03  0.22976970756E+04  0.25123104011E+04  0.10100000352E+00 0. -1.
</event>
<event>
 5   0  0.2906701E-06  0.3435200E+04  0.7818609E-02  0.8129321E-01
        2   -1    0    0  501    0  0.00000000000E+00  0.00000000000E+00  0.18629017943E+04  0.18629017943E+04  0.25500000920E-02 0. -1.
       -2   -1    0    0    0  501  0.00000000000E+00  0.00000000000E+00 -0.15836313456E+04  0.15836313456E+04  0.25500000920E-02 0.  1.
    10030    2    1    2    0    0  0.00000000000E+00  0.00000000000E+00  0.27927044868E+03  0.34465331398E+04  0.34351999506E+04 0.  0.
        5    1    3    3  502    0 -0.41505738920E+03 -0.80813515611E+03  0.16021041877E+04  0.18417695255E+04  0.46999998093E+01 0. -1.
       -5    1    3    3    0  502  0.41505738920E+03  0.80813515611E+03 -0.13228337390E+04  0.16047636143E+04  0.46999998093E+01 0.  1.
</event>
<event>
 5   0  0.2906701E-06  0.3402624E+04  0.7818609E-02  0.8137263E-01
        2   -1    0    0  501    0  0.00000000000E+00  0.00000000000E+00  0.17932469569E+04  0.17932469569E+04  0.25500000920E-02 0.  1.
       -2   -1    0    0    0  501  0.00000000000E+00  0.00000000000E+00 -0.16140901499E+04  0.16140901499E+04  0.25500000920E-02 0. -1.
    10030    2    1    2    0    0  0.00000000000E+00  0.00000000000E+00  0.17915680703E+03  0.34073371068E+04  0.34026238401E+04 0.  0.
        5    1    3    3  502    0 -0.13420067867E+04  0.46406998708E+03 -0.84878790611E+03  0.16543295222E+04  0.46999998093E+01 0. -1.
       -5    1    3    3    0  502  0.13420067867E+04 -0.46406998708E+03  0.10279447131E+04  0.17530075846E+04  0.46999998093E+01 0.  1.
</event>
<event>
 5   0  0.2767014E-06  0.3407917E+04  0.7818609E-02  0.8135966E-01
       -2   -1    0    0    0  501  0.00000000000E+00  0.00000000000E+00  0.13323001941E+04  0.13323001941E+04  0.25500000920E-02 0. -1.
        2   -1    0    0  501    0  0.00000000000E+00  0.00000000000E+00 -0.21792947668E+04  0.21792947668E+04  0.25500000920E-02 0.  1.
    10030    2    1    2    0    0  0.00000000000E+00  0.00000000000E+00 -0.84699457264E+03  0.35115949609E+04  0.34079171591E+04 0.  0.
        1    1    3    3  502    0 -0.65473660634E+03 -0.12641482959E+04 -0.13883184285E+04  0.19885117542E+04  0.50400001928E-02 0.  1.
       -1    1    3    3    0  502  0.65473660634E+03  0.12641482959E+04  0.54132385585E+03  0.15230832067E+04  0.50400001928E-02 0. -1.
</event>
<event>
 5   0  0.9714317E-07  0.3419021E+04  0.7818609E-02  0.8133254E-01
       -1   -1    0    0    0  501  0.00000000000E+00  0.00000000000E+00  0.22545971087E+04  0.22545971087E+04  0.50400001928E-02 0. -1.
        1   -1    0    0  501    0  0.00000000000E+00  0.00000000000E+00 -0.12962079177E+04  0.12962079177E+04  0.50400001928E-02 0.  1.
    10030    2    1    2    0    0  0.00000000000E+00  0.00000000000E+00  0.95838919102E+03  0.35508050264E+04  0.34190212772E+04 0.  0.
        4    1    3    3  502    0  0.14075973649E+04  0.29914595100E+03  0.14375894488E+04  0.20340805485E+04  0.12699999809E+01 0. -1.
       -4    1    3    3    0  502 -0.14075973649E+04 -0.29914595100E+03 -0.47920025782E+03  0.15167244778E+04  0.12699999809E+01 0.  1.
</event>
<event>
 5   0  0.9232963E-07  0.3444520E+04  0.7818609E-02  0.8127065E-01
        1   -1    0    0  501    0  0.00000000000E+00  0.00000000000E+00  0.20351563825E+04  0.20351563825E+04  0.50400001928E-02 0.  1.
       -1   -1    0    0    0  501  0.00000000000E+00  0.00000000000E+00 -0.14574696716E+04  0.14574696716E+04  0.50400001928E-02 0. -1.
    10030    2    1    2    0    0  0.00000000000E+00  0.00000000000E+00  0.57768671090E+03  0.34926260540E+04  0.34445195336E+04 0.  0.
        3    1    3    3  502    0  0.17110921310E+04  0.17557118911E+03  0.37675585934E+03  0.17608539153E+04  0.10100000352E+00 0. -1.
       -3    1    3    3    0  502 -0.17110921310E+04 -0.17557118911E+03  0.20093085156E+03  0.17317721388E+04  0.10100000352E+00 0.  1.
</event>
<event>
 5   0  0.9232963E-07  0.3384066E+04  0.7818609E-02  0.8141828E-01
        1   -1    0    0  501    0  0.00000000000E+00  0.00000000000E+00  0.14269976859E+04  0.14269976859E+04  0.50400001928E-02 0. -1.
       -1   -1    0    0    0  501  0.00000000000E+00  0.00000000000E+00 -0.20062931844E+04  0.20062931844E+04  0.50400001928E-02 0.  1.
    10030    2    1    2    0    0  0.00000000000E+00  0.00000000000E+00 -0.57929549851E+03  0.34332908702E+04  0.33840660344E+04 0.  0.
        3    1    3    3  502    0  0.49014561908E+03  0.10337155590E+04  0.97514786473E+03  0.15032378232E+04  0.10100000352E+00 0. -1.
       -3    1    3    3    0  502 -0.49014561908E+03 -0.10337155590E+04 -0.15544433632E+04  0.19300530471E+04  0.10100000352E+00 0.  1.
</event>
<event>
 5   0  0.2856440E-06  0.3640154E+04  0.7818609E-02  0.8081355E-01
       -2   -1    0    0    0  501  0.00000000000E+00  0.00000000000E+00  0.15041384141E+04  0.15041384142E+04  0.25500000920E-02 0.  1.
        2   -1    0    0  501    0  0.00000000000E+00  0.00000000000E+00 -0.22023768024E+04  0.22023768024E+04  0.25500000920E-02 0. -1.
    10030    2    1    2    0    0  0.00000000000E+00  0.00000000000E+00 -0.69823838827E+03  0.37065152166E+04  0.36401535962E+04 0.  0.
        4    1    3    3  502    0  0.87853492145E+02 -0.95714346014E+03  0.12246435317E+04  0.15567900411E+04  0.12699999809E+01 0.  1.
       -4    1    3    3    0  502 -0.87853492145E+02  0.95714346014E+03 -0.19228819199E+04  0.21497251755E+04  0.12699999809E+01 0. -1.
</event>
<event>
 5   0  0.1003191E-06  0.3067312E+04  0.7818609E-02  0.8224767E-01
        1   -1    0    0  501    0  0.00000000000E+00  0.00000000000E+00  0.11779709043E+04  0.11779709043E+04  0.50400001928E-02 0. -1.
       -1   -1    0    0    0  501  0.00000000000E+00  0.00000000000E+00 -0.19967387189E+04  0.19967387189E+04  0.50400001928E-02 0.  1.
    10030    2    1    2    0    0  0.00000000000E+00  0.00000000000E+00 -0.81876781459E+03  0.31747096233E+04  0.30673116010E+04 0.  0.
        5    1    3    3  502    0 -0.46891954315E+03  0.21420280051E+03  0.10855964771E+04  0.12017945660E+04  0.46999998093E+01 0. -1.
       -5    1    3    3    0  502  0.46891954315E+03 -0.21420280051E+03 -0.19043642917E+04  0.19729150573E+04  0.46999998093E+01 0.  1.
</event>
<event>
 5   0  0.1010855E-06  0.3399671E+04  0.7818609E-02  0.8137987E-01
        1   -1    0    0  501    0  0.00000000000E+00  0.00000000000E+00  0.21767535256E+04  0.21767535256E+04  0.50400001928E-02 0. -1.
       -1   -1    0    0    0  501  0.00000000000E+00  0.00000000000E+00 -0.13274086658E+04  0.13274086658E+04  0.50400001928E-02 0.  1.
    10030    2    1    2    0    0  0.00000000000E+00  0.00000000000E+00  0.84934485978E+03  0.35041621914E+04  0.33996714507E+04 0.  0.
        1    1    3    3  502    0 -0.94962590884E+03  0.21556562491E+03  0.18607587878E+04  0.21001621775E+04  0.50400001928E-02 0. -1.
       -1    1    3    3    0  502  0.94962590884E+03 -0.21556562491E+03 -0.10114139280E+04  0.14040000139E+04  0.50400001928E-02 0.  1.
</event>
<event>
 5   0  0.1010551E-06  0.3371313E+04  0.7818609E-02  0.8144983E-01
        1   -1    0    0  501    0  0.00000000000E+00  0.00000000000E+00  0.18150228203E+04  0.18150228203E+04  0.50400001928E-02 0. -1.
       -1   -1    0    0    0  501  0.00000000000E+00  0.00000000000E+00 -0.15655105640E+04  0.15655105640E+04  0.50400001928E-02 0.  1.
    10030    2    1    2    0    0  0.00000000000E+00  0.00000000000E+00  0.24951225630E+03  0.33805333843E+04  0.33713127408E+04 0.  0.
        2    1    3    3  502    0 -0.46069535852E+03 -0.11850873216E+04  0.12344740781E+04  0.17721733613E+04  0.25500000920E-02 0. -1.
       -2    1    3    3    0  502  0.46069535852E+03  0.11850873216E+04 -0.98496182177E+03  0.16083600230E+04  0.25500000920E-02 0.  1.
</event>
<event>
 5   0  0.2848685E-06  0.3392727E+04  0.7818609E-02  0.8139694E-01
       -2   -1    0    0    0  501  0.00000000000E+00  0.00000000000E+00  0.11698606205E+04  0.11698606205E+04  0.25500000920E-02 0.  1.
        2   -1    0    0  501    0  0.00000000000E+00  0.00000000000E+00 -0.24598225317E+04  0.24598225317E+04  0.25500000920E-02 0. -1.
    10030    2    1    2    0    0  0.00000000000E+00  0.00000000000E+00 -0.12899619112E+04  0.36296831522E+04  0.33927272294E+04 0.  0.
        3    1    3    3  502    0  0.64646351442E+03 -0.13716972640E+04 -0.14584699757E+04  0.21039494147E+04  0.10100000352E+00 0. -1.
       -3    1    3    3    0  502 -0.64646351442E+03  0.13716972640E+04  0.16850806454E+03  0.15257337374E+04  0.10100000352E+00 0.  1.
</event>
<event>
 5   0  0.2856440E-06  0.3409404E+04  0.7818609E-02  0.8135602E-01
        2   -1    0    0  501    0  0.00000000000E+00  0.00000000000E+00  0.16828203136E+04  0.16828203136E+04  0.25500000920E-02 0.  1.
       -2   -1    0    0    0  501  0.00000000000E+00  0.00000000000E+00 -0.17268681838E+04  0.17268681838E+04  0.25500000920E-02 0. -1.
    10030    2    1    2    0    0  0.00000000000E+00  0.00000000000E+00 -0.44047870262E+02  0.34096884974E+04  0.34094039705E+04 0.  0.
        4    1    3    3  502    0 -0.35089949178E+03 -0.63896449336E+03 -0.15631266322E+04  0.17247528977E+04  0.12699999809E+01 0. -1.
       -4    1    3    3    0  502  0.35089949178E+03  0.63896449336E+03  0.15190787619E+04  0.16849355996E+04  0.12699999809E+01 0.  1.
</event>
<event>
 5   0  0.2767014E-06  0.3407864E+04  0.7818609E-02  0.8135979E-01
       -2   -1    0    0    0  501  0.00000000000E+00  0.00000000000E+00  0.14692893588E+04  0.14692893588E+04  0.25500000920E-02 0.  1.
        2   -1    0    0  501    0  0.00000000000E+00  0.00000000000E+00 -0.19760461959E+04  0.19760461959E+04  0.25500000920E-02 0. -1.
    10030    2    1    2    0    0  0.00000000000E+00  0.00000000000E+00 -0.50675683712E+03  0.34453355547E+04  0.34078636405E+04 0.  0.
        1    1    3    3  502    0 -0.14920039165E+04  0.64242198008E+03  0.26667247373E+03  0.16461761436E+04  0.50400001928E-02 0.  1.
       -1    1    3    3    0  502  0.14920039165E+04 -0.64242198008E+03 -0.77342931085E+03  0.17991594111E+04  0.50400001928E-02 0. -1.
</event>
<event>
 5   0  0.2848685E-06  0.3340827E+04  0.7818609E-02  0.8152584E-01
       -2   -1    0    0    0  501  0.00000000000E+00  0.00000000000E+00  0.14047918985E+04  0.14047918985E+04  0.25500000920E-02 0.  1.
        2   -1    0    0  501    0  0.00000000000E+00  0.00000000000E+00 -0.19862596435E+04  0.19862596435E+04  0.25500000920E-02 0. -1.
    10030    2    1    2    0    0  0.00000000000E+00  0.00000000000E+00 -0.58146774494E+03  0.33910515420E+04  0.33408271164E+04 0.  0.
        3    1    3    3  502    0  0.61853430854E+03  0.58617353152E+03  0.11675614288E+04  0.14454700966E+04  0.10100000352E+00 0.  1.
       -3    1    3    3    0  502 -0.61853430854E+03 -0.58617353152E+03 -0.17490291737E+04  0.19455814454E+04  0.10100000352E+00 0. -1.
</event>
<event>
 5   0  0.1003191E-06  0.3380459E+04  0.7818609E-02  0.8142719E-01
       -1   -1    0    0    0  501  0.00000000000E+00  0.00000000000E+00  0.16796326848E+04  0.16796326848E+04  0.50400001928E-02 0. -1.
        1   -1    0    0  501    0  0.00000000000E+00  0.00000000000E+00 -0.17008933368E+04  0.17008933368E+04  0.50400001928E-02 0.  1.
    10030    2    1    2    0    0  0.00000000000E+00  0.00000000000E+00 -0.21260651968E+02  0.33805260216E+04  0.33804591652E+04 0.  0.
        5    1    3    3  502    0  0.95871302771E+03  0.13588420166E+04 -0.31274829410E+03  0.16921630775E+04  0.46999998093E+01 0. -1.
       -5    1    3    3    0  502 -0.95871302771E+03 -0.13588420166E+04  0.29148764213E+03  0.16883629441E+04  0.46999998093E+01 0.  1.
</event>
<event>
 5   0  0.9714317E-07  0.3319770E+04  0.7818609E-02  0.8157883E-01
       -1   -1    0    0    0  501  0.00000000000E+00  0.00000000000E+00  0.15421037678E+04  0.15421037678E+04  0.50400001928E-02 0. -1.
        1   -1    0    0  501    0  0.00000000000E+00  0.00000000000E+00 -0.17866617400E+04  0.17866617400E+04  0.50400001928E-02 0.  1.
    10030    2    1    2    0    0  0.00000000000E+00  0.00000000000E+00 -0.24455797217E+03  0.33287655078E+04  0.33197697517E+04 0.  0.
        4    1    3    3  502    0 -0.15835385320E+03  0.29863771446E+03 -0.17517843799E+04  0.17840993677E+04  0.12699999809E+01 0.  1.
       -4    1    3    3    0  502  0.15835385320E+03 -0.29863771446E+03  0.15072264077E+04  0.15446661401E+04  0.12699999809E+01 0. -1.
</event>
<event>
 5   0  0.1003191E-06  0.3280492E+04  0.7818609E-02  0.8167877E-01
       -1   -1    0    0    0  501  0.00000000000E+00  0.00000000000E+00  0.11315838595E+04  0.11315838595E+04  0.50400001928E-02 0. -1.
        1   -1    0    0  501    0  0.00000000000E+00  0.00000000000E+00 -0.23775587888E+04  0.23775587888E+04  0.50400001928E-02 0.  1.
    10030    2    1    2    0    0  0.00000000000E+00  0.00000000000E+00 -0.12459749293E+04  0.35091426483E+04  0.32804921280E+04 0.  0.
        5    1    3    3  502    0 -0.14233680546E+03  0.19080181083E+03  0.11130009428E+04  0.11381820091E+04  0.46999998093E+01 0. -1.
       -5    1    3    3    0  502  0.14233680546E+03 -0.19080181083E+03 -0.23589758721E+04  0.23709606392E+04  0.46999998093E+01 0.  1.
</event>
<event>
 5   0  0.9232963E-07  0.2942042E+04  0.7818609E-02  0.8260478E-01
       -1   -1    0    0    0  501  0.00000000000E+00  0.00000000000E+00  0.11713212080E+04  0.11713212080E+04  0.50400001928E-02 0.  1.
        1   -1    0    0  501    0  0.00000000000E+00  0.00000000000E+00 -0.18474029692E+04  0.18474029692E+04  0.50400001928E-02 0. -1.
    10030    2    1    2    0    0  0.00000000000E+00  0.00000000000E+00 -0.67608176119E+03  0.30187241772E+04  0.29420416568E+04 0.  0.
        3    1    3    3  502    0  0.11433815603E+04 -0.91841017148E+03 -0.22058616486E+03  0.14830566078E+04  0.10100000352E+00 0.  1.
       -3    1    3    3    0  502 -0.11433815603E+04  0.91841017148E+03 -0.45549559633E+03  0.15356675695E+04  0.10100000352E+00 0. -1.
</event>
<event>
 5   0  0.2856440E-06  0.3416780E+04  0.7818609E-02  0.8133800E-01
       -2   -1    0    0    0  501  0.00000000000E+00  0.00000000000E+00  0.17586438383E+04  0.17586438383E+04  0.25500000920E-02 0. -1.
        2   -1    0    0  501    0  0.00000000000E+00  0.00000000000E+00 -0.16595725658E+04  0.16595725658E+04  0.25500000920E-02 0.  1.
    10030    2    1    2    0    0  0.00000000000E+00  0.00000000000E+00  0.99071272448E+02  0.34182164041E+04  0.34167803951E+04 0.  0.
        4    1    3    3  502    0 -0.73522863199E+03  0.15420876006E+04  0.49916380931E+02  0.17091192373E+04  0.12699999809E+01 0. -1.
       -4    1    3    3    0  502  0.73522863199E+03 -0.15420876006E+04  0.49154891517E+02  0.17090971668E+04  0.12699999809E+01 0.  1.
</event>
<event>
 5   0  0.2767014E-06  0.3422582E+04  0.7818609E-02  0.8132386E-01
        2   -1    0    0  501    0  0.00000000000E+00  0.00000000000E+00  0.26537595220E+04  0.26537595220E+04  0.25500000920E-02 0. -1.
       -2   -1    0    0    0  501  0.00000000000E+00  0.00000000000E+00 -0.11035351959E+04  0.11035351959E+04  0.25500000920E-02 0.  1.
    10030    2    1    2    0    0  0.00000000000E+00  0.00000000000E+00  0.15502243261E+04  0.37572947178E+04  0.34225820860E+04 0.  0.
        1    1    3    3  502    0 -0.11510103282E+04 -0.12157316089E+04  0.38591481258E+03  0.17180682067E+04  0.50400001928E-02 0.  1.
       -1    1    3    3    0  502  0.11510103282E+04  0.12157316089E+04  0.11643095135E+04  0.20392265111E+04  0.50400001928E-02 0. -1.
</event>
<event>
 5   0  0.2664083E-06  0.3397338E+04  0.7818609E-02  0.8138560E-01
       -2   -1    0    0    0  501  0.00000000000E+00  0.00000000000E+00  0.21049432941E+04  0.21049432941E+04  0.25500000920E-02 0.  1.
        2   -1    0    0  501    0  0.00000000000E+00  0.00000000000E+00 -0.13708093817E+04  0.13708093817E+04  0.25500000920E-02 0. -1.
    10030    2    1    2    0    0  0.00000000000E+00  0.00000000000E+00  0.73413391236E+03  0.34757526758E+04  0.33973377904E+04 0.  0.
        2    1    3    3  502    0  0.69797159618E+03  0.36375050584E+03 -0.11730007834E+04  0.14125896848E+04  0.25500000920E-02 0. -1.
       -2    1    3    3    0  502 -0.69797159618E+03 -0.36375050584E+03  0.19071346958E+04  0.20631629910E+04  0.25500000920E-02 0.  1.
</event>
<event>
 5   0  0.9232963E-07  0.3350473E+04  0.7818609E-02  0.8150170E-01
        1   -1    0    0  501    0  0.00000000000E+00  0.00000000000E+00  0.22611156558E+04  0.22611156558E+04  0.50400001928E-02 0. -1.
       -1   -1    0    0    0  501  0.00000000000E+00  0.00000000000E+00 -0.12411649336E+04  0.12411649336E+04  0.50400001928E-02 0.  1.
    10030    2    1    2    0    0  0.00000000000E+00  0.00000000000E+00  0.10199507222E+04  0.35022805894E+04  0.33504730787E+04 0.  0.
        3    1    3    3  502    0  0.82611492490E+03  0.92371033909E+03  0.16883086955E+04  0.20943001029E+04  0.10100000352E+00 0. -1.
       -3    1    3    3    0  502 -0.82611492490E+03 -0.92371033909E+03 -0.66835797328E+03  0.14079804865E+04  0.10100000352E+00 0.  1.
</event>
<event>
 5   0  0.2848685E-06  0.3451747E+04  0.7818609E-02  0.8125321E-01
       -2   -1    0    0    0  501  0.00000000000E+00  0.00000000000E+00  0.16563147652E+04  0.16563147652E+04  0.25500000920E-02 0. -1.
        2   -1    0    0  501    0  0.00000000000E+00  0.00000000000E+00 -0.17983536391E+04  0.17983536391E+04  0.25500000920E-02 0.  1.
    10030    2    1    2    0    0  0.00000000000E+00  0.00000000000E+00 -0.14203887393E+03  0.34546684043E+04  0.34517472014E+04 0.  0.
        3    1    3    3  502    0  0.11589653676E+04 -0.56710397360E+03  0.10761757339E+04  0.16801672121E+04  0.10100000352E+00 0. -1.
       -3    1    3    3    0  502 -0.11589653676E+04  0.56710397360E+03 -0.12182146079E+04  0.17745011922E+04  0.10100000352E+00 0.  1.
</event>
<event>
 5   0  0.2906701E-06  0.3350182E+04  0.7818609E-02  0.8150243E-01
       -2   -1    0    0    0  501  0.00000000000E+00  0.00000000000E+00  0.15684788982E+04  0.15684788982E+04  0.25500000920E-02 0.  1.
        2   -1    0    0  501    0  0.00000000000E+00  0.00000000000E+00 -0.17889493856E+04  0.17889493856E+04  0.25500000920E-02 0. -1.
    10030    2    1    2    0    0  0.00000000000E+00  0.00000000000E+00 -0.22047048742E+03  0.33574282838E+04  0.33501817032E+04 0.  0.
        5    1    3    3  502    0  0.15029922197E+04  0.23051722668E+03 -0.81445248652E+03  0.17249576073E+04  0.46999998093E+01 0. -1.
       -5    1    3    3    0  502 -0.15029922197E+04 -0.23051722668E+03  0.59398199911E+03  0.16324706764E+04  0.46999998093E+01 0.  1.
</event>
<event>
 5   0  0.2767014E-06  0.2772085E+04  0.7818609E-02  0.8311988E-01
        2   -1    0    0  501    0  0.00000000000E+00  0.00000000000E+00  0.21164264647E+04  0.21164264647E+04  0.25500000920E-02 0. -1.
       -2   -1    0    0    0  501  0.00000000000E+00  0.00000000000E+00 -0.90771601160E+03  0.90771601160E+03  0.25500000920E-02 0.  1.
    10030    2    1    2    0    0  0.00000000000E+00  0.00000000000E+00  0.12087104531E+04  0.30241424763E+04  0.27720852724E+04 0.  0.
        1    1    3    3  502    0  0.49833825786E+03 -0.16497236590E+02  0.20151987771E+04  0.20759670733E+04  0.50400001928E-02 0. -1.
       -1    1    3    3    0  502 -0.49833825786E+03  0.16497236590E+02 -0.80648832402E+03  0.94817540301E+03  0.50400001928E-02 0.  1.
</event>
<event>
 5   0  0.9232963E-07  0.2566563E+04  0.7818609E-02  0.8379648E-01
        1   -1    0    0  501    0  0.00000000000E+00  0.00000000000E+00  0.18478764034E+04  0.18478764034E+04  0.50400001928E-02 0.  1.
       -1   -1    0    0    0  501  0.00000000000E+00  0.00000000000E+00 -0.89119150240E+03  0.89119150241E+03  0.50400001928E-02 0. -1.
    10030    2    1    2    0    0  0.00000000000E+00  0.00000000000E+00  0.95668490103E+03  0.27390679059E+04  0.25665632650E+04 0.  0.
        3    1    3    3  502    0  0.42039439378E+03 -0.61822619695E+03  0.15914590394E+04  0.17583165134E+04  0.10100000352E+00 0.  1.
       -3    1    3    3    0  502 -0.42039439378E+03  0.61822619695E+03 -0.63477413836E+03  0.98075139248E+03  0.10100000352E+00 0. -1.
</event>
<event>
 5   0  0.9714317E-07  0.2523712E+04  0.7818609E-02  0.8394586E-01
        1   -1    0    0  501    0  0.00000000000E+00  0.00000000000E+00  0.18835870620E+04  0.18835870620E+04  0.50400001928E-02 0.  1.
       -1   -1    0    0    0  501  0.00000000000E+00  0.00000000000E+00 -0.84534475242E+03  0.84534475243E+03  0.50400001928E-02 0. -1.
    10030    2    1    2    0    0  0.00000000000E+00  0.00000000000E+00  0.10382423096E+04  0.27289318144E+04  0.25237119000E+04 0.  0.
        4    1    3    3  502    0  0.51811072130E+03  0.71051137824E+03  0.14977060068E+04  0.17367757581E+04  0.12699999809E+01 0.  1.
       -4    1    3    3    0  502 -0.51811072130E+03 -0.71051137824E+03 -0.45946369724E+03  0.99215605634E+03  0.12699999809E+01 0. -1.
</event>
<event>
 5   0  0.9232963E-07  0.2372821E+04  0.7818609E-02  0.8449749E-01
       -1   -1    0    0    0  501  0.00000000000E+00  0.00000000000E+00  0.14061699475E+04  0.14061699475E+04  0.50400001928E-02 0.  1.
        1   -1    0    0  501    0  0.00000000000E+00  0.00000000000E+00 -0.10009959333E+04  0.10009959334E+04  0.50400001928E-02 0. -1.
    10030    2    1    2    0    0  0.00000000000E+00  0.00000000000E+00  0.40517401416E+03  0.24071658809E+04  0.23728214421E+04 0.  0.
        3    1    3    3  502    0 -0.31986225307E+03  0.64447723335E+03  0.11595902832E+04  0.13646656735E+04  0.10100000352E+00 0.  1.
       -3    1    3    3    0  502  0.31986225307E+03 -0.64447723335E+03 -0.75441626903E+03  0.10425002074E+04  0.10100000352E+00 0. -1.
</event>
<event>
 5   0  0.2856440E-06  0.2478205E+04  0.7818609E-02  0.8410791E-01
       -2   -1    0    0    0  501  0.00000000000E+00  0.00000000000E+00  0.96017533134E+03  0.96017533134E+03  0.25500000920E-02 0.  1.
        2   -1    0    0  501    0  0.00000000000E+00  0.00000000000E+00 -0.15990575095E+04  0.15990575095E+04  0.25500000920E-02 0. -1.
    10030    2    1    2    0    0  0.00000000000E+00  0.00000000000E+00 -0.63888217818E+03  0.25592328409E+04  0.24782054588E+04 0.  0.
        4    1    3    3  502    0 -0.11119606942E+03 -0.11769143469E+04 -0.70290659372E+03  0.13753440435E+04  0.12699999809E+01 0. -1.
       -4    1    3    3    0  502  0.11119606942E+03  0.11769143469E+04  0.64024415540E+02  0.11838887973E+04  0.12699999809E+01 0.  1.
</event>
<event>
 5   0  0.2906701E-06  0.3320185E+04  0.7818609E-02  0.8157778E-01
       -2   -1    0    0    0  501  0.00000000000E+00  0.00000000000E+00  0.12429751588E+04  0.12429751588E+04  0.25500000920E-02 0. -1.
        2   -1    0    0  501    0  0.00000000000E+00  0.00000000000E+00 -0.22171860568E+04  0.22171860568E+04  0.25500000920E-02 0.  1.
    10030    2    1    2    0    0  0.00000000000E+00  0.00000000000E+00 -0.97421089808E+03  0.34601612156E+04  0.33201850497E+04 0.  0.
        5    1    3    3  502    0 -0.46781260742E+03  0.15851139880E+04 -0.32414791058E+03  0.16841997947E+04  0.46999998093E+01 0. -1.
       -5    1    3    3    0  502  0.46781260742E+03 -0.15851139880E+04 -0.65006298749E+03  0.17759614209E+04  0.46999998093E+01 0.  1.
</event>
<event>
 5   0  0.2664083E-06  0.2748020E+04  0.7818609E-02  0.8319590E-01
        2   -1    0    0  501    0  0.00000000000E+00  0.00000000000E+00  0.13777008475E+04  0.13777008475E+04  0.25500000920E-02 0.  1.
       -2   -1    0    0    0  501  0.00000000000E+00  0.00000000000E+00 -0.13703288295E+04  0.13703288295E+04  0.25500000920E-02 0. -1.
    10030    2    1    2    0    0  0.00000000000E+00  0.00000000000E+00  0.73720180229E+01  0.27480296771E+04  0.27480197888E+04 0.  0.
        2    1    3    3  502    0 -0.76680301371E+03 -0.53205664600E+03 -0.10046985264E+04  0.13713096898E+04  0.25500000920E-02 0. -1.
       -2    1    3    3    0  502  0.76680301371E+03  0.53205664600E+03  0.10120705444E+04  0.13767199873E+04  0.25500000920E-02 0.  1.
</event>
<event>
 5   0  0.2848685E-06  0.3449374E+04  0.7818609E-02  0.8125894E-01
       -2   -1    0    0    0  501  0.00000000000E+00  0.00000000000E+00  0.11953317520E+04  0.11953317520E+04  0.25500000920E-02 0.  1.
        2   -1    0    0  501    0  0.00000000000E+00  0.00000000000E+00 -0.24884681426E+04  0.24884681426E+04  0.25500000920E-02 0. -1.
    10030    2    1    2    0    0  0.00000000000E+00  0.00000000000E+00 -0.12931363906E+04  0.36837998945E+04  0.34493738473E+04 0.  0.
        3    1    3    3  502    0  0.57880099789E+03  0.13893678999E+04 -0.15459362124E+04  0.21576080597E+04  0.10100000352E+00 0. -1.
       -3    1    3    3    0  502 -0.57880099789E+03 -0.13893678999E+04  0.25279982178E+03  0.15261918348E+04  0.10100000352E+00 0.  1.
</event>
<event>
 5   0  0.2664083E-06  0.2181496E+04  0.7818609E-02  0.8526170E-01
        2   -1    0    0  501    0  0.00000000000E+00  0.00000000000E+00  0.11525877922E+04  0.11525877922E+04  0.25500000920E-02 0. -1.
       -2   -1    0    0    0  501  0.00000000000E+00  0.00000000000E+00 -0.10322258556E+04  0.10322258556E+04  0.25500000920E-02 0.  1.
    10030    2    1    2    0    0  0.00000000000E+00  0.00000000000E+00  0.12036193669E+03  0.21848136478E+04  0.21814957437E+04 0.  0.
        2    1    3    3  502    0 -0.41307424268E+03  0.10073704064E+04 -0.55347896561E+01  0.10887865262E+04  0.25500000920E-02 0.  1.
       -2    1    3    3    0  502  0.41307424268E+03 -0.10073704064E+04  0.12589672635E+03  0.10960271216E+04  0.25500000920E-02 0. -1.
</event>
<event>
 5   0  0.2848685E-06  0.3396330E+04  0.7818609E-02  0.8138808E-01
       -2   -1    0    0    0  501  0.00000000000E+00  0.00000000000E+00  0.12681389169E+04  0.12681389169E+04  0.25500000920E-02 0. -1.
        2   -1    0    0  501    0  0.00000000000E+00  0.00000000000E+00 -0.22740125382E+04  0.22740125382E+04  0.25500000920E-02 0.  1.
    10030    2    1    2    0    0  0.00000000000E+00  0.00000000000E+00 -0.10058736213E+04  0.35421514551E+04  0.33963296643E+04 0.  0.
        3    1    3    3  502    0 -0.12190549378E+04  0.20640090551E+03 -0.17169901139E+04  0.21158334851E+04  0.10100000352E+00 0.  1.
       -3    1    3    3    0  502  0.12190549378E+04 -0.20640090551E+03  0.71111649261E+03  0.14263179699E+04  0.10100000352E+00 0. -1.
</event>
<event>
 5   0  0.2848685E-06  0.3189951E+04  0.7818609E-02  0.8191476E-01
        2   -1    0    0  501    0  0.00000000000E+00  0.00000000000E+00  0.16359400489E+04  0.16359400489E+04  0.25500000920E-02 0.  1.
       -2   -1    0    0    0  501  0.00000000000E+00  0.00000000000E+00 -0.15550365898E+04  0.15550365898E+04  0.25500000920E-02 0. -1.
    10030    2    1    2    0    0  0.00000000000E+00  0.00000000000E+00  0.80903459140E+02  0.31909766388E+04  0.31899508679E+04 0.  0.
        3    1    3    3  502    0 -0.36315057846E+03 -0.15521339477E+04  0.94769194169E+02  0.15968654748E+04  0.10100000352E+00 0.  1.
       -3    1    3    3    0  502  0.36315057846E+03  0.15521339477E+04 -0.13865735029E+02  0.15941111640E+04  0.10100000352E+00 0. -1.
</event>
<event>
 5   0  0.2664083E-06  0.3479665E+04  0.7818609E-02  0.8118626E-01
       -2   -1    0    0    0  501  0.00000000000E+00  0.00000000000E+00  0.11878863961E+04  0.11878863961E+04  0.25500000920E-02 0. -1.
        2   -1    0    0  501    0  0.00000000000E+00  0.00000000000E+00 -0.25482373823E+04  0.25482373823E+04  0.25500000920E-02 0.  1.
    10030    2    1    2    0    0  0.00000000000E+00  0.00000000000E+00 -0.13603509862E+04  0.37361237784E+04  0.34796646507E+04 0.  0.
        2    1    3    3  502    0  0.15026187322E+04  0.53321844992E+03  0.67441736780E+02  0.15958487891E+04  0.25500000920E-02 0. -1.
       -2    1    3    3    0  502 -0.15026187322E+04 -0.53321844992E+03 -0.14277927230E+04  0.21402749893E+04  0.25500000920E-02 0.  1.
</event>
<event>
 5   0  0.1003191E-06  0.3385497E+04  0.7818609E-02  0.8141475E-01
       -1   -1    0    0    0  501  0.00000000000E+00  0.00000000000E+00  0.11293489193E+04  0.11293489193E+04  0.50400001928E-02 0.  1.
        1   -1    0    0  501    0  0.00000000000E+00  0.00000000000E+00 -0.25372121334E+04  0.25372121334E+04  0.50400001928E-02 0. -1.
    10030    2    1    2    0    0  0.00000000000E+00  0.00000000000E+00 -0.14078632141E+04  0.36665610527E+04  0.33854971753E+04 0.  0.
        5    1    3    3  502    0  0.12875048853E+03 -0.12277907273E+04 -0.19582393736E+04  0.23149017890E+04  0.46999998093E+01 0. -1.
       -5    1    3    3    0  502 -0.12875048853E+03  0.12277907273E+04  0.55037615948E+03  0.13516592637E+04  0.46999998093E+01 0.  1.
</event>
<event>
 5   0  0.1010551E-06  0.3200026E+04  0.7818609E-02  0.8188810E-01
       -1   -1    0    0    0  501  0.00000000000E+00  0.00000000000E+00  0.15825173697E+04  0.15825173697E+04  0.50400001928E-02 0. -1.
        1   -1    0    0  501    0  0.00000000000E+00  0.00000000000E+00 -0.16177015837E+04  0.16177015837E+04  0.50400001928E-02 0.  1.
    10030    2    1    2    0    0  0.00000000000E+00  0.00000000000E+00 -0.35184214004E+02  0.32002189535E+04  0.32000255345E+04 0.  0.
        2    1    3    3  502    0 -0.48614756233E+03 -0.13584596523E+04 -0.70921815920E+03  0.16077134311E+04  0.25500000920E-02 0.  1.
       -2    1    3    3    0  502  0.48614756233E+03  0.13584596523E+04  0.67403394519E+03  0.15925055223E+04  0.25500000920E-02 0. -1.
</event>
<event>
 5   0  0.1010551E-06  0.3390877E+04  0.7818609E-02  0.8140149E-01
        1   -1    0    0  501    0  0.00000000000E+00  0.00000000000E+00  0.22360231918E+04  0.22360231918E+04  0.50400001928E-02 0. -1.
       -1   -1    0    0    0  501  0.00000000000E+00  0.00000000000E+00 -0.12855466013E+04  0.12855466014E+04  0.50400001928E-02 0.  1.
    10030    2    1    2    0    0  0.00000000000E+00  0.00000000000E+00  0.95047659044E+03  0.35215697932E+04  0.33908771814E+04 0.  0.
        2    1    3    3  502    0  0.18641744572E+03  0.14912466546E+04 -0.33983158134E+03  0.15407964020E+04  0.25500000920E-02 0.  1.
       -2    1    3    3    0  502 -0.18641744572E+03 -0.14912466546E+04  0.12903081718E+04  0.19807733911E+04  0.25500000920E-02 0. -1.
</event>
<event>
 5   0  0.9232963E-07  0.3388183E+04  0.7818609E-02  0.8140813E-01
       -1   -1    0    0    0  501  0.00000000000E+00  0.00000000000E+00  0.13806846282E+04  0.13806846282E+04  0.50400001928E-02 0. -1.
        1   -1    0    0  501    0  0.00000000000E+00  0.00000000000E+00 -0.20786395801E+04  0.20786395802E+04  0.50400001928E-02 0.  1.
    10030    2    1    2    0    0  0.00000000000E+00  0.00000000000E+00 -0.69795495195E+03  0.34593242084E+04  0.33881828262E+04 0.  0.
        3    1    3    3  502    0 -0.99583633041E+03 -0.84510917976E+02  0.10476304697E+04  0.14478817989E+04  0.10100000352E+00 0. -1.
       -3    1    3    3    0  502  0.99583633041E+03  0.84510917976E+02 -0.17455854217E+04  0.20114424095E+04  0.10100000352E+00 0.  1.
</event>
<event>
 5   0  0.2767014E-06  0.3247074E+04  0.7818609E-02  0.8176495E-01
        2   -1    0    0  501    0  0.00000000000E+00  0.00000000000E+00  0.27129045918E+04  0.27129045918E+04  0.25500000920E-02 0. -1.
       -2   -1    0    0    0  501  0.00000000000E+00  0.00000000000E+00 -0.97160505809E+03  0.97160505810E+03  0.25500000920E-02 0.  1.
    10030    2    1    2    0    0  0.00000000000E+00  0.00000000000E+00  0.17412995337E+04  0.36845096499E+04  0.32470736508E+04 0.  0.
        1    1    3    3  502    0  0.12301933341E+04 -0.41908365426E+03 -0.23350921038E+03  0.13204292104E+04  0.50400001928E-02 0.  1.
       -1    1    3    3    0  502 -0.12301933341E+04  0.41908365426E+03  0.19748087440E+04  0.23640804394E+04  0.50400001928E-02 0. -1.
</event>
<event>
 5   0  0.9232963E-07  0.3378039E+04  0.7818609E-02  0.8143317E-01
       -1   -1    0    0    0  501  0.00000000000E+00  0.00000000000E+00  0.13559659625E+04  0.13559659625E+04  0.50400001928E-02 0.  1.
        1   -1    0    0  501    0  0.00000000000E+00  0.00000000000E+00 -0.21038777338E+04  0.21038777338E+04  0.50400001928E-02 0. -1.
    10030    2    1    2    0    0  0.00000000000E+00  0.00000000000E+00 -0.74791177130E+03  0.34598436963E+04  0.33780388372E+04 0.  0.
        3    1    3    3  502    0  0.16461667801E+04  0.35021140312E+03 -0.22812278346E+03  0.16983972178E+04  0.10100000352E+00 0.  1.
       -3    1    3    3    0  502 -0.16461667801E+04 -0.35021140312E+03 -0.51978898784E+03  0.17614464786E+04  0.10100000352E+00 0. -1.
</event>
<event>
 5   0  0.2848685E-06  0.3397168E+04  0.7818609E-02  0.8138602E-01
       -2   -1    0    0    0  501  0.00000000000E+00  0.00000000000E+00  0.15647357482E+04  0.15647357482E+04  0.25500000920E-02 0.  1.
        2   -1    0    0  501    0  0.00000000000E+00  0.00000000000E+00 -0.18438813530E+04  0.18438813530E+04  0.25500000920E-02 0. -1.
    10030    2    1    2    0    0  0.00000000000E+00  0.00000000000E+00 -0.27914560481E+03  0.34086171012E+04  0.33971676841E+04 0.  0.
        3    1    3    3  502    0 -0.12208851761E+04  0.99853803255E+03 -0.77221208235E+03  0.17561179704E+04  0.10100000352E+00 0. -1.
       -3    1    3    3    0  502  0.12208851761E+04 -0.99853803255E+03  0.49306647754E+03  0.16524991308E+04  0.10100000352E+00 0.  1.
</event>
<event>
 5   0  0.1010855E-06  0.3528305E+04  0.7818609E-02  0.8107115E-01
        1   -1    0    0  501    0  0.00000000000E+00  0.00000000000E+00  0.26452464477E+04  0.26452464477E+04  0.50400001928E-02 0. -1.
       -1   -1    0    0    0  501  0.00000000000E+00  0.00000000000E+00 -0.11765381496E+04  0.11765381496E+04  0.50400001928E-02 0.  1.
    10030    2    1    2    0    0  0.00000000000E+00  0.00000000000E+00  0.14687082980E+04  0.38217845973E+04  0.35283046132E+04 0.  0.
        1    1    3    3  502    0  0.19693425480E+03 -0.57129113087E+03 -0.10609396311E+04  0.12209625538E+04  0.50400001928E-02 0.  1.
       -1    1    3    3    0  502 -0.19693425480E+03  0.57129113087E+03  0.25296479291E+04  0.26008220435E+04  0.50400001928E-02 0. -1.
</event>
<event>
 5   0  0.2856440E-06  0.3235369E+04  0.7818609E-02  0.8179538E-01
        2   -1    0    0  501    0  0.00000000000E+00  0.00000000000E+00  0.11058576151E+04  0.11058576151E+04  0.25500000920E-02 0.  1.
       -2   -1    0    0    0  501  0.00000000000E+00  0.00000000000E+00 -0.23664009229E+04  0.23664009229E+04  0.25500000920E-02 0. -1.
    10030    2    1    2    0    0  0.00000000000E+00  0.00000000000E+00 -0.12605433078E+04  0.34722585379E+04  0.32353685916E+04 0.  0.
        4    1    3    3  502    0 -0.10978607255E+04 -0.74471715157E+03 -0.16237958814E+04  0.20968110277E+04  0.12699999809E+01 0. -1.
       -4    1    3    3    0  502  0.10978607255E+04  0.74471715157E+03  0.36325257354E+03  0.13754475103E+04  0.12699999809E+01 0.  1.
</event>
<event>
 5   0  0.2856440E-06  0.3404738E+04  0.7818609E-02  0.8136745E-01
       -2   -1    0    0    0  501  0.00000000000E+00  0.00000000000E+00  0.15817160707E+04  0.15817160707E+04  0.25500000920E-02 0.  1.
        2   -1    0    0  501    0  0.00000000000E+00  0.00000000000E+00 -0.18322248850E+04  0.18322248850E+04  0.25500000920E-02 0. -1.
    10030    2    1    2    0    0  0.00000000000E+00  0.00000000000E+00 -0.25050881429E+03  0.34139409557E+04  0.34047376085E+04 0.  0.
        4    1    3    3  502    0  0.11214582949E+04  0.95249871274E+03  0.73329335617E+03  0.16439717954E+04  0.12699999809E+01 0. -1.
       -4    1    3    3    0  502 -0.11214582949E+04 -0.95249871274E+03 -0.98380217046E+03  0.17699691603E+04  0.12699999809E+01 0.  1.
</event>
<event>
 5   0  0.1003191E-06  0.3354831E+04  0.7818609E-02  0.8149082E-01
       -1   -1    0    0    0  501  0.00000000000E+00  0.00000000000E+00  0.10611137950E+04  0.10611137950E+04  0.50400001928E-02 0.  1.
        1   -1    0    0  501    0  0.00000000000E+00  0.00000000000E+00 -0.26516693626E+04  0.26516693626E+04  0.50400001928E-02 0. -1.
    10030    2    1    2    0    0  0.00000000000E+00  0.00000000000E+00 -0.15905555676E+04  0.37127831576E+04  0.33548311078E+04 0.  0.
        5    1    3    3  502    0 -0.13418017965E+04 -0.78774762443E+03 -0.14888182387E+04  0.21535041720E+04  0.46999998093E+01 0. -1.
       -5    1    3    3    0  502  0.13418017965E+04  0.78774762443E+03 -0.10173732890E+03  0.15592789856E+04  0.46999998093E+01 0.  1.
</event>
<event>
 5   0  0.9232963E-07  0.3384564E+04  0.7818609E-02  0.8141705E-01
        1   -1    0    0  501    0  0.00000000000E+00  0.00000000000E+00  0.16404133945E+04  0.16404133945E+04  0.50400001928E-02 0. -1.
       -1   -1    0    0    0  501  0.00000000000E+00  0.00000000000E+00 -0.17457905006E+04  0.17457905006E+04  0.50400001928E-02 0.  1.
    10030    2    1    2    0    0  0.00000000000E+00  0.00000000000E+00 -0.10537710611E+03  0.33862038951E+04  0.33845638544E+04 0.  0.
        3    1    3    3  502    0 -0.35501166544E+03  0.82819005265E+03 -0.14858232608E+04  0.17377004398E+04  0.10100000352E+00 0.  1.
       -3    1    3    3    0  502  0.35501166544E+03 -0.82819005265E+03  0.13804461547E+04  0.16485034553E+04  0.10100000352E+00 0. -1.
</event>
<event>
 5   0  0.1010551E-06  0.2501364E+04  0.7818609E-02  0.8402500E-01
        1   -1    0    0  501    0  0.00000000000E+00  0.00000000000E+00  0.14122218622E+04  0.14122218622E+04  0.50400001928E-02 0. -1.
       -1   -1    0    0    0  501  0.00000000000E+00  0.00000000000E+00 -0.11076202671E+04  0.11076202671E+04  0.50400001928E-02 0.  1.
    10030    2    1    2    0    0  0.00000000000E+00  0.00000000000E+00  0.30460159518E+03  0.25198421293E+04  0.25013640728E+04 0.  0.
        2    1    3    3  502    0  0.97928678201E+03 -0.19566067586E+02  0.93574765210E+03  0.13546250776E+04  0.25500000920E-02 0. -1.
       -2    1    3    3    0  502 -0.97928678201E+03  0.19566067586E+02 -0.63114605692E+03  0.11652170517E+04  0.25500000920E-02 0.  1.
</event>
<event>
 5   0  0.2856440E-06  0.2775524E+04  0.7818609E-02  0.8310908E-01
        2   -1    0    0  501    0  0.00000000000E+00  0.00000000000E+00  0.20555783786E+04  0.20555783786E+04  0.25500000920E-02 0.  1.
       -2   -1    0    0    0  501  0.00000000000E+00  0.00000000000E+00 -0.93690599906E+03  0.93690599906E+03  0.25500000920E-02 0. -1.
    10030    2    1    2    0    0  0.00000000000E+00  0.00000000000E+00  0.11186723796E+04  0.29924843777E+04  0.27755242492E+04 0.  0.
        4    1    3    3  502    0 -0.91841994872E+03 -0.28152231177E+03  0.16391923921E+04  0.18999219261E+04  0.12699999809E+01 0.  1.
       -4    1    3    3    0  502  0.91841994872E+03  0.28152231177E+03 -0.52052001251E+03  0.10925624516E+04  0.12699999809E+01 0. -1.
</event>
<event>
 5   0  0.9232963E-07  0.2556963E+04  0.7818609E-02  0.8382968E-01
       -1   -1    0    0    0  501  0.00000000000E+00  0.00000000000E+00  0.12511357928E+04  0.12511357928E+04  0.50400001928E-02 0.  1.
        1   -1    0    0  501    0  0.00000000000E+00  0.00000000000E+00 -0.13064252729E+04  0.13064252729E+04  0.50400001928E-02 0. -1.
    10030    2    1    2    0    0  0.00000000000E+00  0.00000000000E+00 -0.55289480097E+02  0.25575610657E+04  0.25569633705E+04 0.  0.
        3    1    3    3  502    0 -0.32719074885E+03 -0.11451076695E+04  0.43742636199E+03  0.12687266030E+04  0.10100000352E+00 0.  1.
       -3    1    3    3    0  502  0.32719074885E+03  0.11451076695E+04 -0.49271584209E+03  0.12888344627E+04  0.10100000352E+00 0. -1.
</event>
<event>
 5   0  0.2664083E-06  0.3416049E+04  0.7818609E-02  0.8133979E-01
       -2   -1    0    0    0  501  0.00000000000E+00  0.00000000000E+00  0.10236759223E+04  0.10236759223E+04  0.25500000920E-02 0. -1.
        2   -1    0    0  501    0  0.00000000000E+00  0.00000000000E+00 -0.28498739127E+04  0.28498739127E+04  0.25500000920E-02 0.  1.
    10030    2    1    2    0    0  0.00000000000E+00  0.00000000000E+00 -0.18261979904E+04  0.38735498351E+04  0.34160487738E+04 0.  0.
        2    1    3    3  502    0  0.45438580442E+03  0.16282187793E+04 -0.63584410324E+03  0.18060621739E+04  0.25500000920E-02 0. -1.
       -2    1    3    3    0  502 -0.45438580442E+03 -0.16282187793E+04 -0.11903538872E+04  0.20674876612E+04  0.25500000920E-02 0.  1.
</event>
<event>
 5   0  0.2856440E-06  0.3404758E+04  0.7818609E-02  0.8136739E-01
        2   -1    0    0  501    0  0.00000000000E+00  0.00000000000E+00  0.16870974434E+04  0.16870974434E+04  0.25500000920E-02 0. -1.
       -2   -1    0    0    0  501  0.00000000000E+00  0.00000000000E+00 -0.17177991413E+04  0.17177991413E+04  0.25500000920E-02 0.  1.
    10030    2    1    2    0    0  0.00000000000E+00  0.00000000000E+00 -0.30701697923E+02  0.34048965848E+04  0.34047581645E+04 0.  0.
        4    1    3    3  502    0  0.12004689892E+04 -0.24912515981E+03  0.11657576174E+04  0.16917983257E+04  0.12699999809E+01 0. -1.
       -4    1    3    3    0  502 -0.12004689892E+04  0.24912515981E+03 -0.11964593153E+04  0.17130982591E+04  0.12699999809E+01 0.  1.
</event>
<event>
 5   0  0.1003191E-06  0.3370885E+04  0.7818609E-02  0.8145089E-01
       -1   -1    0    0    0  501  0.00000000000E+00  0.00000000000E+00  0.16003463215E+04  0.16003463215E+04  0.50400001928E-02 0.  1.
        1   -1    0    0  501    0  0.00000000000E+00  0.00000000000E+00 -0.17750637022E+04  0.17750637022E+04  0.50400001928E-02 0. -1.
    10030    2    1    2    0    0  0.00000000000E+00  0.00000000000E+00 -0.17471738074E+03  0.33754100237E+04  0.33708851457E+04 0.  0.
        5    1    3    3  502    0  0.87928236851E+03  0.48932951270E+03  0.12665338163E+04  0.16176250658E+04  0.46999998093E+01 0.  1.
       -5    1    3    3    0  502 -0.87928236851E+03 -0.48932951270E+03 -0.14412511970E+04  0.17577849580E+04  0.46999998093E+01 0. -1.
</event>
<event>
 5   0  0.1010551E-06  0.3375197E+04  0.7818609E-02  0.8144021E-01
       -1   -1    0    0    0  501  0.00000000000E+00  0.00000000000E+00  0.24089730307E+04  0.24089730307E+04  0.50400001928E-02 0.  1.
        1   -1    0    0  501    0  0.00000000000E+00  0.00000000000E+00 -0.11822415719E+04  0.11822415720E+04  0.50400001928E-02 0. -1.
    10030    2    1    2    0    0  0.00000000000E+00  0.00000000000E+00  0.12267314587E+04  0.35912146026E+04  0.33751966240E+04 0.  0.
        2    1    3    3  502    0  0.18642856631E+03 -0.20356611216E+03 -0.11580589866E+04  0.11905021583E+04  0.25500000920E-02 0. -1.
       -2    1    3    3    0  502 -0.18642856631E+03  0.20356611216E+03  0.23847904453E+04  0.24007124444E+04  0.25500000920E-02 0.  1.
</event>
<event>
 5   0  0.2664083E-06  0.3354448E+04  0.7818609E-02  0.8149178E-01
        2   -1    0    0  501    0  0.00000000000E+00  0.00000000000E+00  0.14066968751E+04  0.14066968751E+04  0.25500000920E-02 0. -1.
       -2   -1    0    0    0  501  0.00000000000E+00  0.00000000000E+00 -0.19997769850E+04  0.19997769850E+04  0.25500000920E-02 0.  1.
    10030    2    1    2    0    0  0.00000000000E+00  0.00000000000E+00 -0.59308010998E+03  0.34064738601E+04  0.33544478149E+04 0.  0.
        2    1    3    3  502    0  0.10095239217E+04  0.63739077559E+03 -0.14928062284E+04  0.19115114400E+04  0.25500000920E-02 0.  1.
       -2    1    3    3    0  502 -0.10095239217E+04 -0.63739077559E+03  0.89972611846E+03  0.14949624201E+04  0.25500000920E-02 0. -1.
</event>
<event>
 5   0  0.2848685E-06  0.3382080E+04  0.7818609E-02  0.8142319E-01
        2   -1    0    0  501    0  0.00000000000E+00  0.00000000000E+00  0.15037066980E+04  0.15037066980E+04  0.25500000920E-02 0. -1.
       -2   -1    0    0    0  501  0.00000000000E+00  0.00000000000E+00 -0.19017113723E+04  0.19017113723E+04  0.25500000920E-02 0.  1.
    10030    2    1    2    0    0  0.00000000000E+00  0.00000000000E+00 -0.39800467425E+03  0.34054180703E+04  0.33820799093E+04 0.  0.
        3    1    3    3  502    0  0.25155614701E+03 -0.87802418733E+03  0.12339869886E+04  0.15352299069E+04  0.10100000352E+00 0. -1.
       -3    1    3    3    0  502 -0.25155614701E+03  0.87802418733E+03 -0.16319916629E+04  0.18701881634E+04  0.10100000352E+00 0.  1.
</event>
<event>
 5   0  0.2906701E-06  0.3557851E+04  0.7818609E-02  0.8100215E-01
        2   -1    0    0  501    0  0.00000000000E+00  0.00000000000E+00  0.25634861044E+04  0.25634861044E+04  0.25500000920E-02 0. -1.
       -2   -1    0    0    0  501  0.00000000000E+00  0.00000000000E+00 -0.12344814184E+04  0.12344814184E+04  0.25500000920E-02 0.  1.
    10030    2    1    2    0    0  0.00000000000E+00  0.00000000000E+00  0.13290046860E+04  0.37979675228E+04  0.35578510156E+04 0.  0.
        5    1    3    3  502    0 -0.61120029757E+03  0.15393758438E+04 -0.28387848425E+02  0.16565239969E+04  0.46999998093E+01 0.  1.
       -5    1    3    3    0  502  0.61120029757E+03 -0.15393758438E+04  0.13573925344E+04  0.21414435259E+04  0.46999998093E+01 0. -1.
</event>
<event>
 5   0  0.1010551E-06  0.2545966E+04  0.7818609E-02  0.8386790E-01
        1   -1    0    0  501    0  0.00000000000E+00  0.00000000000E+00  0.11316195460E+04  0.11316195460E+04  0.50400001928E-02 0.  1.
       -1   -1    0    0    0  501  0.00000000000E+00  0.00000000000E+00 -0.14320061973E+04  0.14320061974E+04  0.50400001928E-02 0. -1.
    10030    2    1    2    0    0  0.00000000000E+00  0.00000000000E+00 -0.30038665139E+03  0.25636257433E+04  0.25459663807E+04 0.  0.
        2    1    3    3  502    0 -0.59127554815E+03  0.12229550419E+03 -0.12786464094E+04  0.14140366348E+04  0.25500000920E-02 0. -1.
       -2    1    3    3    0  502  0.59127554815E+03 -0.12229550419E+03  0.97825975805E+03  0.11495891085E+04  0.25500000920E-02 0.  1.
</event>
<event>
 5   0  0.2664083E-06  0.3354733E+04  0.7818609E-02  0.8149107E-01
       -2   -1    0    0    0  501  0.00000000000E+00  0.00000000000E+00  0.17399214127E+04  0.17399214127E+04  0.25500000920E-02 0.  1.
        2   -1    0    0  501    0  0.00000000000E+00  0.00000000000E+00 -0.16170605492E+04  0.16170605492E+04  0.25500000920E-02 0. -1.
    10030    2    1    2    0    0  0.00000000000E+00  0.00000000000E+00  0.12286086347E+03  0.33569819619E+04  0.33547329403E+04 0.  0.
        2    1    3    3  502    0  0.51333685638E+03  0.13819404861E+04 -0.73928351463E+03  0.16491859659E+04  0.25500000920E-02 0.  1.
       -2    1    3    3    0  502 -0.51333685638E+03 -0.13819404861E+04  0.86214437810E+03  0.17077959960E+04  0.25500000920E-02 0. -1.
</event>
<event>
 5   0  0.1010551E-06  0.3440259E+04  0.7818609E-02  0.8128095E-01
       -1   -1    0    0    0  501  0.00000000000E+00  0.00000000000E+00  0.18350789930E+04  0.18350789930E+04  0.50400001928E-02 0.  1.
        1   -1    0    0  501    0  0.00000000000E+00  0.00000000000E+00 -0.16123808796E+04  0.16123808796E+04  0.50400001928E-02 0. -1.
    10030    2    1    2    0    0  0.00000000000E+00  0.00000000000E+00  0.22269811337E+03  0.34474598726E+04  0.34402594559E+04 0.  0.
        2    1    3    3  502    0 -0.87964791063E+03 -0.12909213037E+04  0.83298683920E+03  0.17703461055E+04  0.25500000920E-02 0. -1.
       -2    1    3    3    0  502  0.87964791063E+03  0.12909213037E+04 -0.61028872583E+03  0.16771137671E+04  0.25500000920E-02 0.  1.
</event>
<event>
 5   0  0.2906701E-06  0.3380189E+04  0.7818609E-02  0.8142786E-01
       -2   -1    0    0    0  501  0.00000000000E+00  0.00000000000E+00  0.13858731021E+04  0.13858731021E+04  0.25500000920E-02 0. -1.
        2   -1    0    0  501    0  0.00000000000E+00  0.00000000000E+00 -0.20610978497E+04  0.20610978497E+04  0.25500000920E-02 0.  1.
    10030    2    1    2    0    0  0.00000000000E+00  0.00000000000E+00 -0.67522474764E+03  0.34469709518E+04  0.33801893856E+04 0.  0.
        5    1    3    3  502    0 -0.36228094200E+03 -0.15250573573E+04 -0.98203938712E+03  0.18497218363E+04  0.46999998093E+01 0.  1.
       -5    1    3    3    0  502  0.36228094200E+03  0.15250573573E+04  0.30681463948E+03  0.15972491155E+04  0.46999998093E+01 0. -1.
</event>
<event>
 5   0  0.1010855E-06  0.3472411E+04  0.7818609E-02  0.8120359E-01
        1   -1    0    0  501    0  0.00000000000E+00  0.00000000000E+00  0.25082584867E+04  0.25082584867E+04  0.50400001928E-02 0.  1.
       -1   -1    0    0    0  501  0.00000000000E+00  0.00000000000E+00 -0.12017941003E+04  0.12017941003E+04  0.50400001928E-02 0. -1.
    10030    2    1    2    0    0  0.00000000000E+00  0.00000000000E+00  0.13064643864E+04  0.37100525870E+04  0.34724114107E+04 0.  0.
        1    1    3    3  502    0 -0.26935914249E+03  0.12956690203E+04  0.18540230207E+04  0.22778748690E+04  0.50400001928E-02 0.  1.
       -1    1    3    3    0  502  0.26935914249E+03 -0.12956690203E+04 -0.54755863423E+03  0.14321777179E+04  0.50400001928E-02 0. -1.
</event>
<event>
 5   0  0.9714317E-07  0.3422181E+04  0.7818609E-02  0.8132484E-01
        1   -1    0    0  501    0  0.00000000000E+00  0.00000000000E+00  0.20020786921E+04  0.20020786921E+04  0.50400001928E-02 0.  1.
       -1   -1    0    0    0  501  0.00000000000E+00  0.00000000000E+00 -0.14623955248E+04  0.14623955248E+04  0.50400001928E-02 0. -1.
    10030    2    1    2    0    0  0.00000000000E+00  0.00000000000E+00  0.53968316721E+03  0.34644742169E+04  0.34221811289E+04 0.  0.
        4    1    3    3  502    0  0.22687049029E+03  0.16358099128E+04  0.72313071084E+03  0.18028488367E+04  0.12699999809E+01 0.  1.
       -4    1    3    3    0  502 -0.22687049029E+03 -0.16358099128E+04 -0.18344754363E+03  0.16616253802E+04  0.12699999809E+01 0. -1.
</event>
<event>
 5   0  0.1010855E-06  0.3370559E+04  0.7818609E-02  0.8145170E-01
       -1   -1    0    0    0  501  0.00000000000E+00  0.00000000000E+00  0.11568647566E+04  0.11568647566E+04  0.50400001928E-02 0.  1.
        1   -1    0    0  501    0  0.00000000000E+00  0.00000000000E+00 -0.24550556056E+04  0.24550556056E+04  0.50400001928E-02 0. -1.
    10030    2    1    2    0    0  0.00000000000E+00  0.00000000000E+00 -0.12981908490E+04  0.36119203622E+04  0.33705591854E+04 0.  0.
        1    1    3    3  502    0  0.19808814736E+03 -0.16697722156E+04 -0.77028265801E+03  0.18495171097E+04  0.50400001928E-02 0. -1.
       -1    1    3    3    0  502 -0.19808814736E+03  0.16697722156E+04 -0.52790819099E+03  0.17624032524E+04  0.50400001928E-02 0.  1.
</event>
<event>
 5   0  0.2906701E-06  0.2831553E+04  0.7818609E-02  0.8293539E-01
        2   -1    0    0  501    0  0.00000000000E+00  0.00000000000E+00  0.12434254606E+04  0.12434254606E+04  0.25500000920E-02 0. -1.
       -2   -1    0    0    0  501  0.00000000000E+00  0.00000000000E+00 -0.16120172561E+04  0.16120172561E+04  0.25500000920E-02 0.  1.
    10030    2    1    2    0    0  0.00000000000E+00  0.00000000000E+00 -0.36859179547E+03  0.28554427167E+04  0.28315531421E+04 0.  0.
        5    1    3    3  502    0 -0.84887112150E+03  0.11166090606E+04  0.96892932989E+01  0.14026809856E+04  0.46999998093E+01 0. -1.
       -5    1    3    3    0  502  0.84887112150E+03 -0.11166090606E+04 -0.37828108877E+03  0.14527617310E+04  0.46999998093E+01 0.  1.
</event>
<event>
 5   0  0.1003191E-06  0.3439309E+04  0.7818609E-02  0.8128326E-01
       -1   -1    0    0    0  501  0.00000000000E+00  0.00000000000E+00  0.11848026898E+04  0.11848026898E+04  0.50400001928E-02 0.  1.
        1   -1    0    0  501    0  0.00000000000E+00  0.00000000000E+00 -0.24959524583E+04  0.24959524584E+04  0.50400001928E-02 0. -1.
    10030    2    1    2    0    0  0.00000000000E+00  0.00000000000E+00 -0.13111497686E+04  0.36807551481E+04  0.34393087598E+04 0.  0.
        5    1    3    3  502    0  0.15029245966E+02 -0.12677816624E+04 -0.18988958008E+04  0.22832703682E+04  0.46999998093E+01 0.  1.
       -5    1    3    3    0  502 -0.15029245966E+02  0.12677816624E+04  0.58774603224E+03  0.13974847800E+04  0.46999998093E+01 0. -1.
</event>
<event>
 5   0  0.9232963E-07  0.3373187E+04  0.7818609E-02  0.8144519E-01
        1   -1    0    0  501    0  0.00000000000E+00  0.00000000000E+00  0.15761625141E+04  0.15761625141E+04  0.50400001928E-02 0.  1.
       -1   -1    0    0    0  501  0.00000000000E+00  0.00000000000E+00 -0.18047620816E+04  0.18047620816E+04  0.50400001928E-02 0. -1.
    10030    2    1    2    0    0  0.00000000000E+00  0.00000000000E+00 -0.22859956750E+03  0.33809245956E+04  0.33731874183E+04 0.  0.
        3    1    3    3  502    0  0.94585250732E+02  0.70620381497E+03  0.14179080956E+04  0.15868628094E+04  0.10100000352E+00 0.  1.
       -3    1    3    3    0  502 -0.94585250732E+02 -0.70620381497E+03 -0.16465076631E+04  0.17940617862E+04  0.10100000352E+00 0. -1.
</event>
<event>
 5   0  0.2767014E-06  0.3362985E+04  0.7818609E-02  0.8147051E-01
       -2   -1    0    0    0  501  0.00000000000E+00  0.00000000000E+00  0.11607810801E+04  0.11607810801E+04  0.25500000920E-02 0.  1.
        2   -1    0    0  501    0  0.00000000000E+00  0.00000000000E+00 -0.24357877142E+04  0.24357877142E+04  0.25500000920E-02 0. -1.
    10030    2    1    2    0    0  0.00000000000E+00  0.00000000000E+00 -0.12750066341E+04  0.35965687943E+04  0.33629845636E+04 0.  0.
        1    1    3    3  502    0 -0.99928074749E+02  0.14393544951E+04  0.28600849974E+03  0.14708935532E+04  0.50400001928E-02 0.  1.
       -1    1    3    3    0  502  0.99928074749E+02 -0.14393544951E+04 -0.15610151338E+04  0.21256752412E+04  0.50400001928E-02 0. -1.
</event>
<event>
 5   0  0.9232963E-07  0.3416825E+04  0.7818609E-02  0.8133789E-01
       -1   -1    0    0    0  501  0.00000000000E+00  0.00000000000E+00  0.16928139129E+04  0.16928139129E+04  0.50400001928E-02 0.  1.
        1   -1    0    0  501    0  0.00000000000E+00  0.00000000000E+00 -0.17241550353E+04  0.17241550353E+04  0.50400001928E-02 0. -1.
    10030    2    1    2    0    0  0.00000000000E+00  0.00000000000E+00 -0.31341122444E+02  0.34169689482E+04  0.34168252116E+04 0.  0.
        3    1    3    3  502    0  0.31290545952E+03 -0.16474888927E+04  0.31075417383E+03  0.17054904411E+04  0.10100000352E+00 0. -1.
       -3    1    3    3    0  502 -0.31290545952E+03  0.16474888927E+04 -0.34209529627E+03  0.17114785070E+04  0.10100000352E+00 0.  1.
</event>
<event>
 5   0  0.2848685E-06  0.3362823E+04  0.7818609E-02  0.8147092E-01
        2   -1    0    0  501    0  0.00000000000E+00  0.00000000000E+00  0.20068319834E+04  0.20068319834E+04  0.25500000920E-02 0. -1.
       -2   -1    0    0    0  501  0.00000000000E+00  0.00000000000E+00 -0.14087597245E+04  0.14087597245E+04  0.25500000920E-02 0.  1.
    10030    2    1    2    0    0  0.00000000000E+00  0.00000000000E+00  0.59807225891E+03  0.34155917080E+04  0.33628226669E+04 0.  0.
        3    1    3    3  502    0  0.16684159123E+04  0.18330558411E+02  0.87937340468E+02  0.16708323231E+04  0.10100000352E+00 0.  1.
       -3    1    3    3    0  502 -0.16684159123E+04 -0.18330558411E+02  0.51013491844E+03  0.17447593849E+04  0.10100000352E+00 0. -1.
</event>
<event>
 5   0  0.9232963E-07  0.3369408E+04  0.7818609E-02  0.8145456E-01
       -1   -1    0    0    0  501  0.00000000000E+00  0.00000000000E+00  0.14699469241E+04  0.14699469241E+04  0.50400001928E-02 0. -1.
        1   -1    0    0  501    0  0.00000000000E+00  0.00000000000E+00 -0.19308365446E+04  0.19308365446E+04  0.50400001928E-02 0.  1.
    10030    2    1    2    0    0  0.00000000000E+00  0.00000000000E+00 -0.46088962049E+03  0.34007834686E+04  0.33694078053E+04 0.  0.
        3    1    3    3  502    0 -0.10219198071E+04  0.13375637461E+04 -0.16029681696E+03  0.16908849597E+04  0.10100000352E+00 0. -1.
       -3    1    3    3    0  502  0.10219198071E+04 -0.13375637461E+04 -0.30059280353E+03  0.17098985090E+04  0.10100000352E+00 0.  1.
</event>
<event>
 5   0  0.1010855E-06  0.3188746E+04  0.7818609E-02  0.8191796E-01
       -1   -1    0    0    0  501  0.00000000000E+00  0.00000000000E+00  0.14505678484E+04  0.14505678484E+04  0.50400001928E-02 0.  1.
        1   -1    0    0  501    0  0.00000000000E+00  0.00000000000E+00 -0.17524342974E+04  0.17524342974E+04  0.50400001928E-02 0. -1.
    10030    2    1    2    0    0  0.00000000000E+00  0.00000000000E+00 -0.30186644896E+03  0.32030021458E+04  0.31887457397E+04 0.  0.
        1    1    3    3  502    0 -0.43047412243E+03  0.11774751113E+04  0.83849312060E+03  0.15082527378E+04  0.50400001928E-02 0.  1.
       -1    1    3    3    0  502  0.43047412243E+03 -0.11774751113E+04 -0.11403595696E+04  0.16947494079E+04  0.50400001928E-02 0. -1.
</event>
<event>
 5   0  0.2767014E-06  0.3204549E+04  0.7818609E-02  0.8187617E-01
       -2   -1    0    0    0  501  0.00000000000E+00  0.00000000000E+00  0.13352616066E+04  0.13352616066E+04  0.25500000920E-02 0.  1.
        2   -1    0    0  501    0  0.00000000000E+00  0.00000000000E+00 -0.19226815315E+04  0.19226815315E+04  0.25500000920E-02 0. -1.
    10030    2    1    2    0    0  0.00000000000E+00  0.00000000000E+00 -0.58741992497E+03  0.32579431381E+04  0.32045485365E+04 0.  0.
        1    1    3    3  502    0  0.15876496921E+04  0.28690370185E+02 -0.51135201005E+03  0.16682132838E+04  0.50400001928E-02 0. -1.
       -1    1    3    3    0  502 -0.15876496921E+04 -0.28690370185E+02 -0.76067914922E+02  0.15897298543E+04  0.50400001928E-02 0.  1.
</event>
<event>
 5   0  0.9232963E-07  0.3400889E+04  0.7818609E-02  0.8137688E-01
       -1   -1    0    0    0  501  0.00000000000E+00  0.00000000000E+00  0.10232606043E+04  0.10232606043E+04  0.50400001928E-02 0.  1.
        1   -1    0    0  501    0  0.00000000000E+00  0.00000000000E+00 -0.28257827487E+04  0.28257827487E+04  0.50400001928E-02 0. -1.
    10030    2    1    2    0    0  0.00000000000E+00  0.00000000000E+00 -0.18025221444E+04  0.38490433530E+04  0.34008893914E+04 0.  0.
        3    1    3    3  502    0 -0.16349317773E+04 -0.12538456075E+03 -0.14109232866E+04  0.21631984965E+04  0.10100000352E+00 0. -1.
       -3    1    3    3    0  502  0.16349317773E+04  0.12538456075E+03 -0.39159885776E+03  0.16858448565E+04  0.10100000352E+00 0.  1.
</event>
<event>
 5   0  0.9232963E-07  0.3448161E+04  0.7818609E-02  0.8126186E-01
        1   -1    0    0  501    0  0.00000000000E+00  0.00000000000E+00  0.16105514157E+04  0.16105514157E+04  0.50400001928E-02 0. -1.
       -1   -1    0    0    0  501  0.00000000000E+00  0.00000000000E+00 -0.18456124931E+04  0.18456124931E+04  0.50400001928E-02 0.  1.
    10030    2    1    2    0    0  0.00000000000E+00  0.00000000000E+00 -0.23506107745E+03  0.34561639088E+04  0.34481611410E+04 0.  0.
        3    1    3    3  502    0  0.13681893584E+04  0.10458684092E+04 -0.19939600531E+03  0.17336497994E+04  0.10100000352E+00 0.  1.
       -3    1    3    3    0  502 -0.13681893584E+04 -0.10458684092E+04 -0.35665072133E+02  0.17225141094E+04  0.10100000352E+00 0. -1.
</event>
<event>
 5   0  0.2848685E-06  0.3417290E+04  0.7818609E-02  0.8133676E-01
        2   -1    0    0  501    0  0.00000000000E+00  0.00000000000E+00  0.20269441673E+04  0.20269441673E+04  0.25500000920E-02 0.  1.
       -2   -1    0    0    0  501  0.00000000000E+00  0.00000000000E+00 -0.14403295664E+04  0.14403295664E+04  0.25500000920E-02 0. -1.
    10030    2    1    2    0    0  0.00000000000E+00  0.00000000000E+00  0.58661460097E+03  0.34672737337E+04  0.34172899283E+04 0.  0.
        3    1    3    3  502    0 -0.11048065815E+04 -0.10758558322E+03  0.16112661773E+04  0.19566172197E+04  0.10100000352E+00 0.  1.
       -3    1    3    3    0  502  0.11048065815E+04  0.10758558322E+03 -0.10246515763E+04  0.15106565140E+04  0.10100000352E+00 0. -1.
</event>
<event>
 5   0  0.2906701E-06  0.3415086E+04  0.7818609E-02  0.8134214E-01
        2   -1    0    0  501    0  0.00000000000E+00  0.00000000000E+00  0.13037655778E+04  0.13037655778E+04  0.25500000920E-02 0. -1.
       -2   -1    0    0    0  501  0.00000000000E+00  0.00000000000E+00 -0.22363704082E+04  0.22363704082E+04  0.25500000920E-02 0.  1.
    10030    2    1    2    0    0  0.00000000000E+00  0.00000000000E+00 -0.93260483034E+03  0.35401359860E+04  0.34150858013E+04 0.  0.
        5    1    3    3  502    0 -0.16231290005E+04  0.52172075606E+03 -0.36828663026E+03  0.17442469526E+04  0.46999998093E+01 0.  1.
       -5    1    3    3    0  502  0.16231290005E+04 -0.52172075606E+03 -0.56431820008E+03  0.17958890335E+04  0.46999998093E+01 0. -1.
</event>
<event>
 5   0  0.2664083E-06  0.3417476E+04  0.7818609E-02  0.8133630E-01
        2   -1    0    0  501    0  0.00000000000E+00  0.00000000000E+00  0.16374858752E+04  0.16374858752E+04  0.25500000920E-02 0.  1.
       -2   -1    0    0    0  501  0.00000000000E+00  0.00000000000E+00 -0.17830907812E+04  0.17830907812E+04  0.25500000920E-02 0. -1.
    10030    2    1    2    0    0  0.00000000000E+00  0.00000000000E+00 -0.14560490602E+03  0.34205766564E+04  0.34174762433E+04 0.  0.
        2    1    3    3  502    0 -0.12848455061E+04 -0.10629716507E+04 -0.44603384973E+03  0.17261758021E+04  0.25500000920E-02 0. -1.
       -2    1    3    3    0  502  0.12848455061E+04  0.10629716507E+04  0.30042894370E+03  0.16944008543E+04  0.25500000920E-02 0.  1.
</event>
<event>
 5   0  0.2664083E-06  0.3311263E+04  0.7818609E-02  0.8160035E-01
        2   -1    0    0  501    0  0.00000000000E+00  0.00000000000E+00  0.24853852841E+04  0.24853852841E+04  0.25500000920E-02 0. -1.
       -2   -1    0    0    0  501  0.00000000000E+00  0.00000000000E+00 -0.11028939740E+04  0.11028939740E+04  0.25500000920E-02 0.  1.
    10030    2    1    2    0    0  0.00000000000E+00  0.00000000000E+00  0.13824913101E+04  0.35882792580E+04  0.33112634765E+04 0.  0.
        2    1    3    3  502    0 -0.40183227041E+03 -0.14041477913E+04  0.15362327815E+04  0.21196960519E+04  0.25500000920E-02 0. -1.
       -2    1    3    3    0  502  0.40183227041E+03  0.14041477913E+04 -0.15374147142E+03  0.14685832061E+04  0.25500000920E-02 0.  1.
</event>
<event>
 5   0  0.2848685E-06  0.3340906E+04  0.7818609E-02  0.8152564E-01
        2   -1    0    0  501    0  0.00000000000E+00  0.00000000000E+00  0.26497741926E+04  0.26497741926E+04  0.25500000920E-02 0. -1.
       -2   -1    0    0    0  501  0.00000000000E+00  0.00000000000E+00 -0.10530760922E+04  0.10530760922E+04  0.25500000920E-02 0.  1.
    10030    2    1    2    0    0  0.00000000000E+00  0.00000000000E+00  0.15966981005E+04  0.37028502848E+04  0.33409063751E+04 0.  0.
        3    1    3    3  502    0  0.13762992820E+04 -0.79834405081E+03  0.13622529262E+04  0.20945849189E+04  0.10100000352E+00 0. -1.
       -3    1    3    3    0  502 -0.13762992820E+04  0.79834405081E+03  0.23444517424E+03  0.16082653659E+04  0.10100000352E+00 0.  1.
</event>
<event>
 5   0  0.1010551E-06  0.3288369E+04  0.7818609E-02  0.8165861E-01
        1   -1    0    0  501    0  0.00000000000E+00  0.00000000000E+00  0.18062415592E+04  0.18062415592E+04  0.50400001928E-02 0. -1.
       -1   -1    0    0    0  501  0.00000000000E+00  0.00000000000E+00 -0.14966671912E+04  0.14966671912E+04  0.50400001928E-02 0.  1.
    10030    2    1    2    0    0  0.00000000000E+00  0.00000000000E+00  0.30957436797E+03  0.33029087504E+04  0.32883688851E+04 0.  0.
        2    1    3    3  502    0  0.11800998340E+03 -0.13919304264E+04  0.10257694612E+04  0.17330896272E+04  0.25500000920E-02 0. -1.
       -2    1    3    3    0  502 -0.11800998340E+03  0.13919304264E+04 -0.71619509326E+03  0.15698191233E+04  0.25500000920E-02 0.  1.
</event>
<event>
 5   0  0.2767014E-06  0.3348090E+04  0.7818609E-02  0.8150766E-01
        2   -1    0    0  501    0  0.00000000000E+00  0.00000000000E+00  0.16768255126E+04  0.16768255126E+04  0.25500000920E-02 0. -1.
       -2   -1    0    0    0  501  0.00000000000E+00  0.00000000000E+00 -0.16712688191E+04  0.16712688191E+04  0.25500000920E-02 0.  1.
    10030    2    1    2    0    0  0.00000000000E+00  0.00000000000E+00  0.55566934490E+01  0.33480943317E+04  0.33480897206E+04 0.  0.
        1    1    3    3  502    0  0.91786466447E+03 -0.44502524213E+03 -0.13245904939E+04  0.16718441868E+04  0.50400001928E-02 0.  1.
       -1    1    3    3    0  502 -0.91786466447E+03  0.44502524213E+03  0.13301471873E+04  0.16762501449E+04  0.50400001928E-02 0. -1.
</event>
<event>
 5   0  0.9232963E-07  0.3428494E+04  0.7818609E-02  0.8130948E-01
        1   -1    0    0  501    0  0.00000000000E+00  0.00000000000E+00  0.18689985014E+04  0.18689985014E+04  0.50400001928E-02 0.  1.
       -1   -1    0    0    0  501  0.00000000000E+00  0.00000000000E+00 -0.15723086776E+04  0.15723086776E+04  0.50400001928E-02 0. -1.
    10030    2    1    2    0    0  0.00000000000E+00  0.00000000000E+00  0.29668982380E+03  0.34413071790E+04  0.34284938747E+04 0.  0.
        3    1    3    3  502    0  0.47143304223E+03 -0.39735579982E+03  0.17538545853E+04  0.18590714515E+04  0.10100000352E+00 0.  1.
       -3    1    3    3    0  502 -0.47143304223E+03  0.39735579982E+03 -0.14571647615E+04  0.15822357275E+04  0.10100000352E+00 0. -1.
</event>
<event>
 5   0  0.9232963E-07  0.3347162E+04  0.7818609E-02  0.8150998E-01
       -1   -1    0    0    0  501  0.00000000000E+00  0.00000000000E+00  0.12989360970E+04  0.12989360970E+04  0.50400001928E-02 0.  1.
        1   -1    0    0  501    0  0.00000000000E+00  0.00000000000E+00 -0.21562826351E+04  0.21562826351E+04  0.50400001928E-02 0. -1.
    10030    2    1    2    0    0  0.00000000000E+00  0.00000000000E+00 -0.85734653812E+03  0.34552187321E+04  0.33471619919E+04 0.  0.
        3    1    3    3  502    0 -0.74130017797E+03  0.17790254513E+03 -0.19666358407E+04  0.21092254051E+04  0.10100000352E+00 0. -1.
       -3    1    3    3    0  502  0.74130017797E+03 -0.17790254513E+03  0.11092893026E+04  0.13459933270E+04  0.10100000352E+00 0.  1.
</event>
<event>
 5   0  0.9714317E-07  0.3374698E+04  0.7818609E-02  0.8144144E-01
       -1   -1    0    0    0  501  0.00000000000E+00  0.00000000000E+00  0.20471279878E+04  0.20471279878E+04  0.50400001928E-02 0. -1.
        1   -1    0    0  501    0  0.00000000000E+00  0.00000000000E+00 -0.13908001838E+04  0.13908001838E+04  0.50400001928E-02 0.  1.
    10030    2    1    2    0    0  0.00000000000E+00  0.00000000000E+00  0.65632780401E+03  0.34379281716E+04  0.33746976052E+04 0.  0.
        4    1    3    3  502    0  0.91531731845E+03  0.29926363193E+03  0.17396858986E+04  0.19884348502E+04  0.12699999809E+01 0. -1.
       -4    1    3    3    0  502 -0.91531731845E+03 -0.29926363193E+03 -0.10833580946E+04  0.14494933214E+04  0.12699999809E+01 0.  1.
</event>
<event>
 5   0  0.2856440E-06  0.3259326E+04  0.7818609E-02  0.8173323E-01
        2   -1    0    0  501    0  0.00000000000E+00  0.00000000000E+00  0.16238810461E+04  0.16238810461E+04  0.25500000920E-02 0. -1.
       -2   -1    0    0    0  501  0.00000000000E+00  0.00000000000E+00 -0.16354654565E+04  0.16354654565E+04  0.25500000920E-02 0.  1.
    10030    2    1    2    0    0  0.00000000000E+00  0.00000000000E+00 -0.11584410440E+02  0.32593465026E+04  0.32593259158E+04 0.  0.
        4    1    3    3  502    0  0.96150086791E+03 -0.10640927454E+03  0.13057010730E+04  0.16250119254E+04  0.12699999809E+01 0. -1.
       -4    1    3    3    0  502 -0.96150086791E+03  0.10640927454E+03 -0.13172854834E+04  0.16343345773E+04  0.12699999809E+01 0.  1.
</event>
<event>
 5   0  0.9232963E-07  0.2335946E+04  0.7818609E-02  0.8463881E-01
        1   -1    0    0  501    0  0.00000000000E+00  0.00000000000E+00  0.13677418834E+04  0.13677418834E+04  0.50400001928E-02 0.  1.
       -1   -1    0    0    0  501  0.00000000000E+00  0.00000000000E+00 -0.99738207560E+03  0.99738207562E+03  0.50400001928E-02 0. -1.
    10030    2    1    2    0    0  0.00000000000E+00  0.00000000000E+00  0.37035980777E+03  0.23651239590E+04  0.23359462653E+04 0.  0.
        3    1    3    3  502    0  0.12219234369E+03 -0.11385454068E+04 -0.47791148441E+02  0.11460805453E+04  0.10100000352E+00 0.  1.
       -3    1    3    3    0  502 -0.12219234369E+03  0.11385454068E+04  0.41815095621E+03  0.12190434137E+04  0.10100000352E+00 0. -1.
</event>
<event>
 5   0  0.2906701E-06  0.2376920E+04  0.7818609E-02  0.8448195E-01
        2   -1    0    0  501    0  0.00000000000E+00  0.00000000000E+00  0.14000593106E+04  0.14000593106E+04  0.25500000920E-02 0.  1.
       -2   -1    0    0    0  501  0.00000000000E+00  0.00000000000E+00 -0.10088410206E+04  0.10088410206E+04  0.25500000920E-02 0. -1.
    10030    2    1    2    0    0  0.00000000000E+00  0.00000000000E+00  0.39121829003E+03  0.24089003312E+04  0.23769200776E+04 0.  0.
        5    1    3    3  502    0 -0.10014990379E+04 -0.63982957316E+03  0.18979009111E+03  0.12035051201E+04  0.46999998093E+01 0. -1.
       -5    1    3    3    0  502  0.10014990379E+04  0.63982957316E+03  0.20142819891E+03  0.12053952111E+04  0.46999998093E+01 0.  1.
</event>
<event>
 5   0  0.9232963E-07  0.3452903E+04  0.7818609E-02  0.8125043E-01
       -1   -1    0    0    0  501  0.00000000000E+00  0.00000000000E+00  0.14391698237E+04  0.14391698237E+04  0.50400001928E-02 0.  1.
        1   -1    0    0  501    0  0.00000000000E+00  0.00000000000E+00 -0.20710791132E+04  0.20710791132E+04  0.50400001928E-02 0. -1.
    10030    2    1    2    0    0  0.00000000000E+00  0.00000000000E+00 -0.63190928954E+03  0.35102489369E+04  0.34529028728E+04 0.  0.
        3    1    3    3  502    0 -0.91058309285E+03  0.12193792649E+04  0.51280679793E+03  0.16059321850E+04  0.10100000352E+00 0.  1.
       -3    1    3    3    0  502  0.91058309285E+03 -0.12193792649E+04 -0.11447160875E+04  0.19043167519E+04  0.10100000352E+00 0. -1.
</event>
<event>
 5   0  0.2767014E-06  0.3442384E+04  0.7818609E-02  0.8127581E-01
       -2   -1    0    0    0  501  0.00000000000E+00  0.00000000000E+00  0.19894733074E+04  0.19894733074E+04  0.25500000920E-02 0. -1.
        2   -1    0    0  501    0  0.00000000000E+00  0.00000000000E+00 -0.14890889371E+04  0.14890889371E+04  0.25500000920E-02 0.  1.
    10030    2    1    2    0    0  0.00000000000E+00  0.00000000000E+00  0.50038437039E+03  0.34785622445E+04  0.34423844600E+04 0.  0.
        1    1    3    3  502    0 -0.44184663486E+03  0.11533011300E+04 -0.96122740036E+03  0.15650207859E+04  0.50400001928E-02 0.  1.
       -1    1    3    3    0  502  0.44184663486E+03 -0.11533011300E+04  0.14616117708E+04  0.19135414586E+04  0.50400001928E-02 0. -1.
</event>
<event>
 5   0  0.9232963E-07  0.3354713E+04  0.7818609E-02  0.8149112E-01
        1   -1    0    0  501    0  0.00000000000E+00  0.00000000000E+00  0.22987893747E+04  0.22987893747E+04  0.50400001928E-02 0. -1.
       -1   -1    0    0    0  501  0.00000000000E+00  0.00000000000E+00 -0.12239155914E+04  0.12239155914E+04  0.50400001928E-02 0.  1.
    10030    2    1    2    0    0  0.00000000000E+00  0.00000000000E+00  0.10748737833E+04  0.35227049661E+04  0.33547125999E+04 0.  0.
        3    1    3    3  502    0 -0.99392537897E+03  0.11096899325E+04  0.13468986144E+04  0.20083414284E+04  0.10100000352E+00 0. -1.
       -3    1    3    3    0  502  0.99392537897E+03 -0.11096899325E+04 -0.27202483113E+03  0.15143635377E+04  0.10100000352E+00 0.  1.
</event>
<event>
 5   0  0.2906701E-06  0.3481142E+04  0.7818609E-02  0.8118274E-01
       -2   -1    0    0    0  501  0.00000000000E+00  0.00000000000E+00  0.24860720046E+04  0.24860720046E+04  0.25500000920E-02 0. -1.
        2   -1    0    0  501    0  0.00000000000E+00  0.00000000000E+00 -0.12186238371E+04  0.12186238371E+04  0.25500000920E-02 0.  1.
    10030    2    1    2    0    0  0.00000000000E+00  0.00000000000E+00  0.12674481674E+04  0.37046958417E+04  0.34811415401E+04 0.  0.
        5    1    3    3  502    0  0.55274127267E+03  0.10452268247E+04  0.19930702601E+04  0.23174065637E+04  0.46999998093E+01 0. -1.
       -5    1    3    3    0  502 -0.55274127267E+03 -0.10452268247E+04 -0.72562209266E+03  0.13872892780E+04  0.46999998093E+01 0.  1.
</event>
<event>
 5   0  0.2848685E-06  0.3538538E+04  0.7818609E-02  0.8104717E-01
        2   -1    0    0  501    0  0.00000000000E+00  0.00000000000E+00  0.22676445880E+04  0.22676445880E+04  0.25500000920E-02 0. -1.
       -2   -1    0    0    0  501  0.00000000000E+00  0.00000000000E+00 -0.13804244704E+04  0.13804244704E+04  0.25500000920E-02 0.  1.
    10030    2    1    2    0    0  0.00000000000E+00  0.00000000000E+00  0.88722011763E+03  0.36480690584E+04  0.35385375959E+04 0.  0.
        3    1    3    3  502    0  0.83516644503E+03 -0.10653081938E+04 -0.73092087397E+03  0.15383854761E+04  0.10100000352E+00 0.  1.
       -3    1    3    3    0  502 -0.83516644503E+03  0.10653081938E+04  0.16181409916E+04  0.21096835823E+04  0.10100000352E+00 0. -1.
</event>
<event>
 5   0  0.2848685E-06  0.2811512E+04  0.7818609E-02  0.8299703E-01
       -2   -1    0    0    0  501  0.00000000000E+00  0.00000000000E+00  0.10562447522E+04  0.10562447522E+04  0.25500000920E-02 0.  1.
        2   -1    0    0  501    0  0.00000000000E+00  0.00000000000E+00 -0.18709205906E+04  0.18709205906E+04  0.25500000920E-02 0. -1.
    10030    2    1    2    0    0  0.00000000000E+00  0.00000000000E+00 -0.81467583841E+03  0.29271653429E+04  0.28115120883E+04 0.  0.
        3    1    3    3  502    0  0.60858895439E+03  0.47866382613E+03  0.81423428830E+03  0.11236000446E+04  0.10100000352E+00 0.  1.
       -3    1    3    3    0  502 -0.60858895439E+03 -0.47866382613E+03 -0.16289101267E+04  0.18035652982E+04  0.10100000352E+00 0. -1.
</event>
<event>
 5   0  0.1010855E-06  0.3417010E+04  0.7818609E-02  0.8133744E-01
        1   -1    0    0  501    0  0.00000000000E+00  0.00000000000E+00  0.17166219511E+04  0.17166219511E+04  0.50400001928E-02 0. -1.
       -1   -1    0    0    0  501  0.00000000000E+00  0.00000000000E+00 -0.17004265964E+04  0.17004265964E+04  0.50400001928E-02 0.  1.
    10030    2    1    2    0    0  0.00000000000E+00  0.00000000000E+00  0.16195354707E+02  0.34170485475E+04  0.34170101678E+04 0.  0.
        1    1    3    3  502    0 -0.96108984423E+03  0.13511871416E+04  0.41991444619E+03  0.17104761099E+04  0.50400001928E-02 0. -1.
       -1    1    3    3    0  502  0.96108984423E+03 -0.13511871416E+04 -0.40371909149E+03  0.17065724377E+04  0.50400001928E-02 0.  1.
</event>
<event>
 5   0  0.9714317E-07  0.3388078E+04  0.7818609E-02  0.8140839E-01
        1   -1    0    0  501    0  0.00000000000E+00  0.00000000000E+00  0.17017475037E+04  0.17017475037E+04  0.50400001928E-02 0.  1.
       -1   -1    0    0    0  501  0.00000000000E+00  0.00000000000E+00 -0.16863653156E+04  0.16863653156E+04  0.50400001928E-02 0. -1.
    10030    2    1    2    0    0  0.00000000000E+00  0.00000000000E+00  0.15382188102E+02  0.33881128193E+04  0.33880779012E+04 0.  0.
        4    1    3    3  502    0  0.38100117862E+03  0.95383667448E+03 -0.13394679393E+04  0.16879402456E+04  0.12699999809E+01 0. -1.
       -4    1    3    3    0  502 -0.38100117862E+03 -0.95383667448E+03  0.13548501274E+04  0.17001725736E+04  0.12699999809E+01 0.  1.
</event>
<event>
 5   0  0.1010855E-06  0.3363760E+04  0.7818609E-02  0.8146858E-01
        1   -1    0    0  501    0  0.00000000000E+00  0.00000000000E+00  0.16322276966E+04  0.16322276966E+04  0.50400001928E-02 0. -1.
       -1   -1    0    0    0  501  0.00000000000E+00  0.00000000000E+00 -0.17330430851E+04  0.17330430851E+04  0.50400001928E-02 0.  1.
    10030    2    1    2    0    0  0.00000000000E+00  0.00000000000E+00 -0.10081538847E+03  0.33652707817E+04  0.33637603499E+04 0.  0.
        1    1    3    3  502    0  0.10676096759E+04  0.12486221962E+04  0.31013325237E+03  0.16718344545E+04  0.50400001928E-02 0. -1.
       -1    1    3    3    0  502 -0.10676096759E+04 -0.12486221962E+04 -0.41094864083E+03  0.16934363272E+04  0.50400001928E-02 0.  1.
</event>
<event>
 5   0  0.9070500E-07  0.3381105E+04  0.7818609E-02  0.8142559E-01
        3   -1    0    0  501    0  0.00000000000E+00  0.00000000000E+00  0.14156016241E+04  0.14156016277E+04  0.10100000352E+00 0.  1.
       -3   -1    0    0    0  501  0.00000000000E+00  0.00000000000E+00 -0.20189072398E+04  0.20189072424E+04  0.10100000352E+00 0. -1.
    10030    2    1    2    0    0  0.00000000000E+00  0.00000000000E+00 -0.60330561576E+03  0.34345088701E+04  0.33811053685E+04 0.  0.
        5    1    3    3  502    0  0.19330341799E+02 -0.79508479905E+02  0.14135823280E+04  0.14159563371E+04  0.46999998093E+01 0.  1.
       -5    1    3    3    0  502 -0.19330341799E+02  0.79508479905E+02 -0.20168879438E+04  0.20185525330E+04  0.46999998093E+01 0. -1.
</event>
<event>
 5   0  0.1003191E-06  0.3406138E+04  0.7818609E-02  0.8136402E-01
        1   -1    0    0  501    0  0.00000000000E+00  0.00000000000E+00  0.24233206567E+04  0.24233206567E+04  0.50400001928E-02 0. -1.
       -1   -1    0    0    0  501  0.00000000000E+00  0.00000000000E+00 -0.11968880389E+04  0.11968880389E+04  0.50400001928E-02 0.  1.
    10030    2    1    2    0    0  0.00000000000E+00  0.00000000000E+00  0.12264326178E+04  0.36202086956E+04  0.34061377003E+04 0.  0.
        5    1    3    3  502    0 -0.16943250780E+04 -0.16294434068E+03  0.67270821067E+03  0.18302586579E+04  0.46999998093E+01 0. -1.
       -5    1    3    3    0  502  0.16943250780E+04  0.16294434068E+03  0.55372440717E+03  0.17899500376E+04  0.46999998093E+01 0.  1.
</event>
<event>
 5   0  0.9714317E-07  0.3404603E+04  0.7818609E-02  0.8136778E-01
       -1   -1    0    0    0  501  0.00000000000E+00  0.00000000000E+00  0.24010612989E+04  0.24010612989E+04  0.50400001928E-02 0. -1.
        1   -1    0    0  501    0  0.00000000000E+00  0.00000000000E+00 -0.12068956341E+04  0.12068956341E+04  0.50400001928E-02 0.  1.
    10030    2    1    2    0    0  0.00000000000E+00  0.00000000000E+00  0.11941656648E+04  0.36079569331E+04  0.34046030012E+04 0.  0.
        4    1    3    3  502    0  0.12357746042E+03 -0.34570387527E+03  0.23586083661E+04  0.23870101792E+04  0.12699999809E+01 0. -1.
       -4    1    3    3    0  502 -0.12357746042E+03  0.34570387527E+03 -0.11644427013E+04  0.12209467538E+04  0.12699999809E+01 0.  1.
</event>
<event>
 5   0  0.1010551E-06  0.3425585E+04  0.7818609E-02  0.8131655E-01
        1   -1    0    0  501    0  0.00000000000E+00  0.00000000000E+00  0.19573764937E+04  0.19573764937E+04  0.50400001928E-02 0. -1.
       -1   -1    0    0    0  501  0.00000000000E+00  0.00000000000E+00 -0.14987703303E+04  0.14987703303E+04  0.50400001928E-02 0.  1.
    10030    2    1    2    0    0  0.00000000000E+00  0.00000000000E+00  0.45860616336E+03  0.34561468240E+04  0.34255848050E+04 0.  0.
        2    1    3    3  502    0  0.15826916368E+04  0.54650434901E+03  0.59318407747E+03  0.17763578385E+04  0.25500000920E-02 0.  1.
       -2    1    3    3    0  502 -0.15826916368E+04 -0.54650434901E+03 -0.13457791411E+03  0.16797889855E+04  0.25500000920E-02 0. -1.
</event>
<event>
 5   0  0.2664083E-06  0.3340327E+04  0.7818609E-02  0.8152709E-01
       -2   -1    0    0    0  501  0.00000000000E+00  0.00000000000E+00  0.16411001091E+04  0.16411001091E+04  0.25500000920E-02 0.  1.
        2   -1    0    0  501    0  0.00000000000E+00  0.00000000000E+00 -0.16997411588E+04  0.16997411588E+04  0.25500000920E-02 0. -1.
    10030    2    1    2    0    0  0.00000000000E+00  0.00000000000E+00 -0.58641049624E+02  0.33408412679E+04  0.33403265716E+04 0.  0.
        2    1    3    3  502    0  0.14437174767E+04  0.80362004560E+02  0.80667141443E+03  0.16557466519E+04  0.25500000920E-02 0.  1.
       -2    1    3    3    0  502 -0.14437174767E+04 -0.80362004560E+02 -0.86531246406E+03  0.16850946160E+04  0.25500000920E-02 0. -1.
</event>
<event>
 5   0  0.1003191E-06  0.3161824E+04  0.7818609E-02  0.8198973E-01
       -1   -1    0    0    0  501  0.00000000000E+00  0.00000000000E+00  0.18279861435E+04  0.18279861435E+04  0.50400001928E-02 0. -1.
        1   -1    0    0  501    0  0.00000000000E+00  0.00000000000E+00 -0.13672332050E+04  0.13672332050E+04  0.50400001928E-02 0.  1.
    10030    2    1    2    0    0  0.00000000000E+00  0.00000000000E+00  0.46075293850E+03  0.31952193485E+04  0.31618243807E+04 0.  0.
        5    1    3    3  502    0  0.86611650455E+03  0.10558805054E+04 -0.57441402718E+03  0.14815583032E+04  0.46999998093E+01 0.  1.
       -5    1    3    3    0  502 -0.86611650455E+03 -0.10558805054E+04  0.10351669657E+04  0.17136610453E+04  0.46999998093E+01 0. -1.
</event>
<event>
 5   0  0.9232963E-07  0.3421345E+04  0.7818609E-02  0.8132687E-01
       -1   -1    0    0    0  501  0.00000000000E+00  0.00000000000E+00  0.11437399572E+04  0.11437399572E+04  0.50400001928E-02 0.  1.
        1   -1    0    0  501    0  0.00000000000E+00  0.00000000000E+00 -0.25586239056E+04  0.25586239056E+04  0.50400001928E-02 0. -1.
    10030    2    1    2    0    0  0.00000000000E+00  0.00000000000E+00 -0.14148839485E+04  0.37023638628E+04  0.34213449965E+04 0.  0.
        3    1    3    3  502    0 -0.98474656278E+03  0.50983662458E+02  0.80525825344E+03  0.12730930805E+04  0.10100000352E+00 0.  1.
       -3    1    3    3    0  502  0.98474656278E+03 -0.50983662458E+02 -0.22201422019E+04  0.24292707823E+04  0.10100000352E+00 0. -1.
</event>
<event>
 5   0  0.2664083E-06  0.2991789E+04  0.7818609E-02  0.8246080E-01
       -2   -1    0    0    0  501  0.00000000000E+00  0.00000000000E+00  0.32001899106E+04  0.32001899106E+04  0.25500000920E-02 0.  1.
        2   -1    0    0  501    0  0.00000000000E+00  0.00000000000E+00 -0.69923970923E+03  0.69923970923E+03  0.25500000920E-02 0. -1.
    10030    2    1    2    0    0  0.00000000000E+00  0.00000000000E+00  0.25009502013E+04  0.38994296198E+04  0.29917886707E+04 0.  0.
        2    1    3    3  502    0 -0.64667193293E+03  0.32735433061E+03  0.29560351004E+04  0.30435980289E+04  0.25500000920E-02 0.  1.
       -2    1    3    3    0  502  0.64667193293E+03 -0.32735433061E+03 -0.45508489908E+03  0.85583159090E+03  0.25500000920E-02 0. -1.
</event>
<event>
 5   0  0.1010551E-06  0.3391589E+04  0.7818609E-02  0.8139974E-01
        1   -1    0    0  501    0  0.00000000000E+00  0.00000000000E+00  0.20945518270E+04  0.20945518270E+04  0.50400001928E-02 0. -1.
       -1   -1    0    0    0  501  0.00000000000E+00  0.00000000000E+00 -0.13729516294E+04  0.13729516294E+04  0.50400001928E-02 0.  1.
    10030    2    1    2    0    0  0.00000000000E+00  0.00000000000E+00  0.72160019755E+03  0.34675034564E+04  0.33915886211E+04 0.  0.
        2    1    3    3  502    0  0.13239584232E+04 -0.55599207014E+03 -0.56145832510E+03  0.15418263648E+04  0.25500000920E-02 0.  1.
       -2    1    3    3    0  502 -0.13239584232E+04  0.55599207014E+03  0.12830585226E+04  0.19256770916E+04  0.25500000920E-02 0. -1.
</event>
<event>
 5   0  0.1003191E-06  0.3393882E+04  0.7818609E-02  0.8139410E-01
       -1   -1    0    0    0  501  0.00000000000E+00  0.00000000000E+00  0.18254216058E+04  0.18254216058E+04  0.50400001928E-02 0. -1.
        1   -1    0    0  501    0  0.00000000000E+00  0.00000000000E+00 -0.15775031963E+04  0.15775031963E+04  0.50400001928E-02 0.  1.
    10030    2    1    2    0    0  0.00000000000E+00  0.00000000000E+00  0.24791840957E+03  0.34029248021E+04  0.33938817998E+04 0.  0.
        5    1    3    3  502    0 -0.77849941404E+03  0.64523434732E+03  0.14903807441E+04  0.18010123690E+04  0.46999998093E+01 0. -1.
       -5    1    3    3    0  502  0.77849941404E+03 -0.64523434732E+03 -0.12424623346E+04  0.16019124331E+04  0.46999998093E+01 0.  1.
</event>
<event>
 5   0  0.2767014E-06  0.3385532E+04  0.7818609E-02  0.8141466E-01
       -2   -1    0    0    0  501  0.00000000000E+00  0.00000000000E+00  0.12924341880E+04  0.12924341880E+04  0.25500000920E-02 0. -1.
        2   -1    0    0  501    0  0.00000000000E+00  0.00000000000E+00 -0.22171004425E+04  0.22171004425E+04  0.25500000920E-02 0.  1.
    10030    2    1    2    0    0  0.00000000000E+00  0.00000000000E+00 -0.92466625443E+03  0.35095346305E+04  0.33855318106E+04 0.  0.
        1    1    3    3  502    0 -0.12220337658E+04  0.97240186281E+03 -0.11393424138E+04  0.19331407200E+04  0.50400001928E-02 0.  1.
       -1    1    3    3    0  502  0.12220337658E+04 -0.97240186281E+03  0.21467615934E+03  0.15763939105E+04  0.50400001928E-02 0. -1.
</event>
<event>
 5   0  0.2664083E-06  0.3417241E+04  0.7818609E-02  0.8133688E-01
       -2   -1    0    0    0  501  0.00000000000E+00  0.00000000000E+00  0.12414738797E+04  0.12414738797E+04  0.25500000920E-02 0.  1.
        2   -1    0    0  501    0  0.00000000000E+00  0.00000000000E+00 -0.23515471886E+04  0.23515471886E+04  0.25500000920E-02 0. -1.
    10030    2    1    2    0    0  0.00000000000E+00  0.00000000000E+00 -0.11100733089E+04  0.35930210683E+04  0.34172412332E+04 0.  0.
        2    1    3    3  502    0  0.29522834703E+03  0.62700902148E+03  0.10870555261E+04  0.12891818362E+04  0.25500000920E-02 0.  1.
       -2    1    3    3    0  502 -0.29522834703E+03 -0.62700902148E+03 -0.21971288350E+04  0.23038392321E+04  0.25500000920E-02 0. -1.
</event>
<event>
 5   0  0.2856440E-06  0.3418286E+04  0.7818609E-02  0.8133433E-01
       -2   -1    0    0    0  501  0.00000000000E+00  0.00000000000E+00  0.18163141437E+04  0.18163141437E+04  0.25500000920E-02 0.  1.
        2   -1    0    0  501    0  0.00000000000E+00  0.00000000000E+00 -0.16082958998E+04  0.16082958998E+04  0.25500000920E-02 0. -1.
    10030    2    1    2    0    0  0.00000000000E+00  0.00000000000E+00  0.20801824394E+03  0.34246100435E+04  0.34182864655E+04 0.  0.
        4    1    3    3  502    0  0.67683084858E+03 -0.79600343020E+03 -0.12510637416E+04  0.16299949561E+04  0.12699999809E+01 0. -1.
       -4    1    3    3    0  502 -0.67683084858E+03  0.79600343020E+03  0.14590819855E+04  0.17946150874E+04  0.12699999809E+01 0.  1.
</event>
<event>
 5   0  0.2906701E-06  0.2733954E+04  0.7818609E-02  0.8324071E-01
       -2   -1    0    0    0  501  0.00000000000E+00  0.00000000000E+00  0.80686058156E+03  0.80686058156E+03  0.25500000920E-02 0.  1.
        2   -1    0    0  501    0  0.00000000000E+00  0.00000000000E+00 -0.23159218667E+04  0.23159218667E+04  0.25500000920E-02 0. -1.
    10030    2    1    2    0    0  0.00000000000E+00  0.00000000000E+00 -0.15090612851E+04  0.31227824482E+04  0.27339539602E+04 0.  0.
        5    1    3    3  502    0 -0.63777143965E+03  0.50081659919E+03 -0.20115117628E+04  0.21688179585E+04  0.46999998093E+01 0. -1.
       -5    1    3    3    0  502  0.63777143965E+03 -0.50081659919E+03  0.50245047764E+03  0.95396448977E+03  0.46999998093E+01 0.  1.
</event>
<event>
 5   0  0.2856440E-06  0.2117965E+04  0.7818609E-02  0.8553371E-01
        2   -1    0    0  501    0  0.00000000000E+00  0.00000000000E+00  0.13759397838E+04  0.13759397838E+04  0.25500000920E-02 0. -1.
       -2   -1    0    0    0  501  0.00000000000E+00  0.00000000000E+00 -0.81503873484E+03  0.81503873484E+03  0.25500000920E-02 0.  1.
    10030    2    1    2    0    0  0.00000000000E+00  0.00000000000E+00  0.56090104896E+03  0.21909785186E+04  0.21179652694E+04 0.  0.
        4    1    3    3  502    0 -0.88197523898E+03  0.19928788710E+03  0.85067583804E+03  0.12414696849E+04  0.12699999809E+01 0. -1.
       -4    1    3    3    0  502  0.88197523898E+03 -0.19928788710E+03 -0.28977478909E+03  0.94950883377E+03  0.12699999809E+01 0.  1.
</event>
<event>
 5   0  0.2767014E-06  0.3383163E+04  0.7818609E-02  0.8142051E-01
       -2   -1    0    0    0  501  0.00000000000E+00  0.00000000000E+00  0.11528179000E+04  0.11528179000E+04  0.25500000920E-02 0. -1.
        2   -1    0    0  501    0  0.00000000000E+00  0.00000000000E+00 -0.24821342056E+04  0.24821342056E+04  0.25500000920E-02 0.  1.
    10030    2    1    2    0    0  0.00000000000E+00  0.00000000000E+00 -0.13293163056E+04  0.36349521055E+04  0.33831634559E+04 0.  0.
        1    1    3    3  502    0 -0.24559705450E+03  0.12796838574E+04 -0.18236126392E+04  0.22413102744E+04  0.50400001928E-02 0.  1.
       -1    1    3    3    0  502  0.24559705450E+03 -0.12796838574E+04  0.49429633364E+03  0.13936418312E+04  0.50400001928E-02 0. -1.
</event>
<event>
 5   0  0.9714317E-07  0.3401532E+04  0.7818609E-02  0.8137530E-01
       -1   -1    0    0    0  501  0.00000000000E+00  0.00000000000E+00  0.16086024172E+04  0.16086024172E+04  0.50400001928E-02 0.  1.
        1   -1    0    0  501    0  0.00000000000E+00  0.00000000000E+00 -0.17982103819E+04  0.17982103819E+04  0.50400001928E-02 0. -1.
    10030    2    1    2    0    0  0.00000000000E+00  0.00000000000E+00 -0.18960796465E+03  0.34068127991E+04  0.34015323411E+04 0.  0.
        4    1    3    3  502    0 -0.11005226536E+04 -0.65079436990E+03  0.10285076816E+04  0.16408878959E+04  0.12699999809E+01 0.  1.
       -4    1    3    3    0  502  0.11005226536E+04  0.65079436990E+03 -0.12181156462E+04  0.17659249031E+04  0.12699999809E+01 0. -1.
</event>
<event>
 5   0  0.2664083E-06  0.2484682E+04  0.7818609E-02  0.8408463E-01
        2   -1    0    0  501    0  0.00000000000E+00  0.00000000000E+00  0.16363540016E+04  0.16363540016E+04  0.25500000920E-02 0.  1.
       -2   -1    0    0    0  501  0.00000000000E+00  0.00000000000E+00 -0.94320144546E+03  0.94320144546E+03  0.25500000920E-02 0. -1.
    10030    2    1    2    0    0  0.00000000000E+00  0.00000000000E+00  0.69315255611E+03  0.25795554470E+04  0.24846822409E+04 0.  0.
        2    1    3    3  502    0  0.49068608505E+02  0.39483634685E+02 -0.94154296536E+03  0.94364709578E+03  0.25500000920E-02 0. -1.
       -2    1    3    3    0  502 -0.49068608505E+02 -0.39483634685E+02  0.16346955215E+04  0.16359083512E+04  0.25500000920E-02 0.  1.
</event>
<event>
 5   0  0.2848685E-06  0.3458355E+04  0.7818609E-02  0.8123731E-01
        2   -1    0    0  501    0  0.00000000000E+00  0.00000000000E+00  0.26637901868E+04  0.26637901868E+04  0.25500000920E-02 0.  1.
       -2   -1    0    0    0  501  0.00000000000E+00  0.00000000000E+00 -0.11224815799E+04  0.11224815799E+04  0.25500000920E-02 0. -1.
    10030    2    1    2    0    0  0.00000000000E+00  0.00000000000E+00  0.15413086069E+04  0.37862717666E+04  0.34583553416E+04 0.  0.
        3    1    3    3  502    0 -0.70058602566E+03 -0.11730896191E+04  0.19309013929E+04  0.23654471529E+04  0.10100000352E+00 0.  1.
       -3    1    3    3    0  502  0.70058602566E+03  0.11730896191E+04 -0.38959278601E+03  0.14208246137E+04  0.10100000352E+00 0. -1.
</event>
<event>
 5   0  0.9070500E-07  0.3380920E+04  0.7818609E-02  0.8142605E-01
       -4   -1    0    0    0  501  0.00000000000E+00  0.00000000000E+00  0.17330085876E+04  0.17330090530E+04  0.12699999809E+01 0.  1.
        4   -1    0    0  501    0  0.00000000000E+00  0.00000000000E+00 -0.16489548419E+04  0.16489553310E+04  0.12699999809E+01 0. -1.
    10030    2    1    2    0    0  0.00000000000E+00  0.00000000000E+00  0.84053745699E+02  0.33819643840E+04  0.33809197066E+04 0.  0.
        2    1    3    3  502    0 -0.11097453040E+04 -0.43235335932E+03 -0.11580064529E+04  0.16611571304E+04  0.25500000920E-02 0. -1.
       -2    1    3    3    0  502  0.11097453040E+04  0.43235335932E+03  0.12420601986E+04  0.17208072536E+04  0.25500000920E-02 0.  1.
</event>
<event>
 5   0  0.2767014E-06  0.2676929E+04  0.7818609E-02  0.8342530E-01
       -2   -1    0    0    0  501  0.00000000000E+00  0.00000000000E+00  0.13493398735E+04  0.13493398735E+04  0.25500000920E-02 0. -1.
        2   -1    0    0  501    0  0.00000000000E+00  0.00000000000E+00 -0.13276768655E+04  0.13276768655E+04  0.25500000920E-02 0.  1.
    10030    2    1    2    0    0  0.00000000000E+00  0.00000000000E+00  0.21663008071E+02  0.26770167390E+04  0.26769290866E+04 0.  0.
        1    1    3    3  502    0 -0.91501212818E+03  0.94047646196E+03  0.27493135432E+03  0.13406455236E+04  0.50400001928E-02 0. -1.
       -1    1    3    3    0  502  0.91501212818E+03 -0.94047646196E+03 -0.25326834625E+03  0.13363712154E+04  0.50400001928E-02 0.  1.
</event>
<event>
 5   0  0.1010855E-06  0.3085499E+04  0.7818609E-02  0.8219729E-01
       -1   -1    0    0    0  501  0.00000000000E+00  0.00000000000E+00  0.26110192930E+04  0.26110192930E+04  0.50400001928E-02 0. -1.
        1   -1    0    0  501    0  0.00000000000E+00  0.00000000000E+00 -0.91155025318E+03  0.91155025320E+03  0.50400001928E-02 0.  1.
    10030    2    1    2    0    0  0.00000000000E+00  0.00000000000E+00  0.16994690398E+04  0.35225695462E+04  0.30854985319E+04 0.  0.
        1    1    3    3  502    0 -0.11998065116E+04  0.23032455798E+03  0.19252484073E+04  0.22801680853E+04  0.50400001928E-02 0. -1.
       -1    1    3    3    0  502  0.11998065116E+04 -0.23032455798E+03 -0.22577936751E+03  0.12424014609E+04  0.50400001928E-02 0.  1.
</event>
<event>
 5   0  0.2664083E-06  0.3406830E+04  0.7818609E-02  0.8136232E-01
        2   -1    0    0  501    0  0.00000000000E+00  0.00000000000E+00  0.23084070218E+04  0.23084070218E+04  0.25500000920E-02 0.  1.
       -2   -1    0    0    0  501  0.00000000000E+00  0.00000000000E+00 -0.12569805779E+04  0.12569805779E+04  0.25500000920E-02 0. -1.
    10030    2    1    2    0    0  0.00000000000E+00  0.00000000000E+00  0.10514264439E+04  0.35653875997E+04  0.34068300763E+04 0.  0.
        2    1    3    3  502    0 -0.11851980677E+04 -0.15212721185E+03  0.17962096194E+04  0.21573609214E+04  0.25500000920E-02 0.  1.
       -2    1    3    3    0  502  0.11851980677E+04  0.15212721185E+03 -0.74478317546E+03  0.14080266783E+04  0.25500000920E-02 0. -1.
</event>
<event>
 5   0  0.1003191E-06  0.3367915E+04  0.7818609E-02  0.8145826E-01
       -1   -1    0    0    0  501  0.00000000000E+00  0.00000000000E+00  0.25295780317E+04  0.25295780317E+04  0.50400001928E-02 0. -1.
        1   -1    0    0  501    0  0.00000000000E+00  0.00000000000E+00 -0.11210219513E+04  0.11210219513E+04  0.50400001928E-02 0.  1.
    10030    2    1    2    0    0  0.00000000000E+00  0.00000000000E+00  0.14085560804E+04  0.36505999829E+04  0.33679147857E+04 0.  0.
        5    1    3    3  502    0  0.16278148240E+04  0.16015217749E+03  0.27035119291E+03  0.16578726365E+04  0.46999998093E+01 0.  1.
       -5    1    3    3    0  502 -0.16278148240E+04 -0.16015217749E+03  0.11382048875E+04  0.19927273464E+04  0.46999998093E+01 0. -1.
</event>
<event>
 5   0  0.2906701E-06  0.3171541E+04  0.7818609E-02  0.8196374E-01
        2   -1    0    0  501    0  0.00000000000E+00  0.00000000000E+00  0.18434160390E+04  0.18434160390E+04  0.25500000920E-02 0.  1.
       -2   -1    0    0    0  501  0.00000000000E+00  0.00000000000E+00 -0.13641345748E+04  0.13641345748E+04  0.25500000920E-02 0. -1.
    10030    2    1    2    0    0  0.00000000000E+00  0.00000000000E+00  0.47928146425E+03  0.32075506138E+04  0.31715406694E+04 0.  0.
        5    1    3    3  502    0 -0.92264627750E+03  0.12017404334E+04  0.71313295552E+03  0.16745258806E+04  0.46999998093E+01 0.  1.
       -5    1    3    3    0  502  0.92264627750E+03 -0.12017404334E+04 -0.23385149127E+03  0.15330247332E+04  0.46999998093E+01 0. -1.
</event>
<event>
 5   0  0.9714317E-07  0.3338818E+04  0.7818609E-02  0.8153088E-01
        1   -1    0    0  501    0  0.00000000000E+00  0.00000000000E+00  0.10832676931E+04  0.10832676931E+04  0.50400001928E-02 0.  1.
       -1   -1    0    0    0  501  0.00000000000E+00  0.00000000000E+00 -0.25727030601E+04  0.25727030601E+04  0.50400001928E-02 0. -1.
    10030    2    1    2    0    0  0.00000000000E+00  0.00000000000E+00 -0.14894353670E+04  0.36559707532E+04  0.33388178201E+04 0.  0.
        4    1    3    3  502    0  0.20946815112E+02 -0.16514140906E+04 -0.10114038046E+04  0.19366327831E+04  0.12699999809E+01 0.  1.
       -4    1    3    3    0  502 -0.20946815112E+02  0.16514140906E+04 -0.47803156243E+03  0.17193379701E+04  0.12699999809E+01 0. -1.
</event>
<event>
 5   0  0.2856440E-06  0.2248358E+04  0.7818609E-02  0.8498566E-01
       -2   -1    0    0    0  501  0.00000000000E+00  0.00000000000E+00  0.55614284070E+03  0.55614284070E+03  0.25500000920E-02 0. -1.
        2   -1    0    0  501    0  0.00000000000E+00  0.00000000000E+00 -0.22723988969E+04  0.22723988969E+04  0.25500000920E-02 0.  1.
    10030    2    1    2    0    0  0.00000000000E+00  0.00000000000E+00 -0.17162560562E+04  0.28285417376E+04  0.22483579588E+04 0.  0.
        4    1    3    3  502    0 -0.61100720486E+03 -0.81713932288E+03 -0.26440106204E+03  0.10540189808E+04  0.12699999809E+01 0. -1.
       -4    1    3    3    0  502  0.61100720486E+03  0.81713932288E+03 -0.14518549941E+04  0.17745227568E+04  0.12699999809E+01 0.  1.
</event>
<event>
 5   0  0.1010855E-06  0.3346844E+04  0.7818609E-02  0.8151077E-01
        1   -1    0    0  501    0  0.00000000000E+00  0.00000000000E+00  0.26882928157E+04  0.26882928157E+04  0.50400001928E-02 0.  1.
       -1   -1    0    0    0  501  0.00000000000E+00  0.00000000000E+00 -0.10416798477E+04  0.10416798477E+04  0.50400001928E-02 0. -1.
    10030    2    1    2    0    0  0.00000000000E+00  0.00000000000E+00  0.16466129680E+04  0.37299726634E+04  0.33468435582E+04 0.  0.
        1    1    3    3  502    0  0.85650928890E+03 -0.14325382553E+04  0.68879886495E+03  0.18056073469E+04  0.50400001928E-02 0. -1.
       -1    1    3    3    0  502 -0.85650928890E+03  0.14325382553E+04  0.95781410308E+03  0.19243653164E+04  0.50400001928E-02 0.  1.
</event>
<event>
 5   0  0.2767014E-06  0.3074006E+04  0.7818609E-02  0.8222908E-01
        2   -1    0    0  501    0  0.00000000000E+00  0.00000000000E+00  0.21728193358E+04  0.21728193358E+04  0.25500000920E-02 0. -1.
       -2   -1    0    0    0  501  0.00000000000E+00  0.00000000000E+00 -0.10872408469E+04  0.10872408469E+04  0.25500000920E-02 0.  1.
    10030    2    1    2    0    0  0.00000000000E+00  0.00000000000E+00  0.10855784889E+04  0.32600601827E+04  0.30740058131E+04 0.  0.
        1    1    3    3  502    0 -0.11980554121E+04 -0.56990807993E+03  0.13658044805E+04  0.19040887241E+04  0.50400001928E-02 0. -1.
       -1    1    3    3    0  502  0.11980554121E+04  0.56990807993E+03 -0.28022599161E+03  0.13559714586E+04  0.50400001928E-02 0.  1.
</event>
<event>
 5   0  0.9714317E-07  0.2663166E+04  0.7818609E-02  0.8347056E-01
       -1   -1    0    0    0  501  0.00000000000E+00  0.00000000000E+00  0.67751497310E+03  0.67751497312E+03  0.50400001928E-02 0. -1.
        1   -1    0    0  501    0  0.00000000000E+00  0.00000000000E+00 -0.26170845239E+04  0.26170845239E+04  0.50400001928E-02 0.  1.
    10030    2    1    2    0    0  0.00000000000E+00  0.00000000000E+00 -0.19395695508E+04  0.32945994971E+04  0.26631664994E+04 0.  0.
        4    1    3    3  502    0  0.18928487995E+03 -0.22085360379E+03  0.63773296546E+03  0.70093510985E+03  0.12699999809E+01 0. -1.
       -4    1    3    3    0  502 -0.18928487995E+03  0.22085360379E+03 -0.25773025163E+04  0.25936643872E+04  0.12699999809E+01 0.  1.
</event>
<event>
 5   0  0.2848685E-06  0.3521662E+04  0.7818609E-02  0.8108675E-01
        2   -1    0    0  501    0  0.00000000000E+00  0.00000000000E+00  0.17873601275E+04  0.17873601275E+04  0.25500000920E-02 0.  1.
       -2   -1    0    0    0  501  0.00000000000E+00  0.00000000000E+00 -0.17346957243E+04  0.17346957243E+04  0.25500000920E-02 0. -1.
    10030    2    1    2    0    0  0.00000000000E+00  0.00000000000E+00  0.52664403221E+02  0.35220558519E+04  0.35216620912E+04 0.  0.
        3    1    3    3  502    0  0.13746342704E+04 -0.94577436207E+03  0.58890504256E+03  0.17694399342E+04  0.10100000352E+00 0.  1.
       -3    1    3    3    0  502 -0.13746342704E+04  0.94577436207E+03 -0.53624063934E+03  0.17526159177E+04  0.10100000352E+00 0. -1.
</event>
<event>
 5   0  0.9232963E-07  0.2737476E+04  0.7818609E-02  0.8322947E-01
       -1   -1    0    0    0  501  0.00000000000E+00  0.00000000000E+00  0.10126984894E+04  0.10126984894E+04  0.50400001928E-02 0. -1.
        1   -1    0    0  501    0  0.00000000000E+00  0.00000000000E+00 -0.18499515174E+04  0.18499515174E+04  0.50400001928E-02 0.  1.
    10030    2    1    2    0    0  0.00000000000E+00  0.00000000000E+00 -0.83725302796E+03  0.28626500068E+04  0.27374755576E+04 0.  0.
        3    1    3    3  502    0  0.91403292482E+03 -0.47944348508E+03  0.52143475627E+03  0.11563807583E+04  0.10100000352E+00 0. -1.
       -3    1    3    3    0  502 -0.91403292482E+03  0.47944348508E+03 -0.13586877842E+04  0.17062692485E+04  0.10100000352E+00 0.  1.
</event>
<event>
 5   0  0.2767014E-06  0.3296586E+04  0.7818609E-02  0.8163765E-01
        2   -1    0    0  501    0  0.00000000000E+00  0.00000000000E+00  0.29127781174E+04  0.29127781174E+04  0.25500000920E-02 0.  1.
       -2   -1    0    0    0  501  0.00000000000E+00  0.00000000000E+00 -0.93274201407E+03  0.93274201407E+03  0.25500000920E-02 0. -1.
    10030    2    1    2    0    0  0.00000000000E+00  0.00000000000E+00  0.19800361034E+04  0.38455201315E+04  0.32965864331E+04 0.  0.
        1    1    3    3  502    0  0.99815367411E+03 -0.13098877011E+04  0.90958781357E+03  0.18813470007E+04  0.50400001928E-02 0. -1.
       -1    1    3    3    0  502 -0.99815367411E+03  0.13098877011E+04  0.10704482898E+04  0.19641731308E+04  0.50400001928E-02 0.  1.
</event>
<event>
 5   0  0.9714317E-07  0.3403101E+04  0.7818609E-02  0.8137146E-01
       -1   -1    0    0    0  501  0.00000000000E+00  0.00000000000E+00  0.18651199766E+04  0.18651199766E+04  0.50400001928E-02 0.  1.
        1   -1    0    0  501    0  0.00000000000E+00  0.00000000000E+00 -0.15523263774E+04  0.15523263774E+04  0.50400001928E-02 0. -1.
    10030    2    1    2    0    0  0.00000000000E+00  0.00000000000E+00  0.31279359918E+03  0.34174463540E+04  0.34031014893E+04 0.  0.
        4    1    3    3  502    0 -0.14438437099E+04  0.68830093001E+03 -0.42642059689E+03  0.16553787987E+04  0.12699999809E+01 0.  1.
       -4    1    3    3    0  502  0.14438437099E+04 -0.68830093001E+03  0.73921419607E+03  0.17620675553E+04  0.12699999809E+01 0. -1.
</event>
<event>
 5   0  0.2848685E-06  0.2151731E+04  0.7818609E-02  0.8538792E-01
       -2   -1    0    0    0  501  0.00000000000E+00  0.00000000000E+00  0.56001552028E+03  0.56001552029E+03  0.25500000920E-02 0.  1.
        2   -1    0    0  501    0  0.00000000000E+00  0.00000000000E+00 -0.20668836276E+04  0.20668836276E+04  0.25500000920E-02 0. -1.
    10030    2    1    2    0    0  0.00000000000E+00  0.00000000000E+00 -0.15068681074E+04  0.26268991479E+04  0.21517313123E+04 0.  0.
        3    1    3    3  502    0  0.68472518017E+03 -0.67891050974E+03 -0.13360130838E+04  0.16476343717E+04  0.10100000352E+00 0.  1.
       -3    1    3    3    0  502 -0.68472518017E+03  0.67891050974E+03 -0.17085502352E+03  0.97926477617E+03  0.10100000352E+00 0. -1.
</event>
<event>
 5   0  0.9714317E-07  0.3344007E+04  0.7818609E-02  0.8151787E-01
       -1   -1    0    0    0  501  0.00000000000E+00  0.00000000000E+00  0.11752118262E+04  0.11752118262E+04  0.50400001928E-02 0.  1.
        1   -1    0    0  501    0  0.00000000000E+00  0.00000000000E+00 -0.23788010250E+04  0.23788010250E+04  0.50400001928E-02 0. -1.
    10030    2    1    2    0    0  0.00000000000E+00  0.00000000000E+00 -0.12035891989E+04  0.35540128512E+04  0.33440066368E+04 0.  0.
        4    1    3    3  502    0  0.12628349736E+04  0.95881534157E+03 -0.11656947522E+04  0.19679748215E+04  0.12699999809E+01 0. -1.
       -4    1    3    3    0  502 -0.12628349736E+04 -0.95881534157E+03 -0.37894446655E+02  0.15860380297E+04  0.12699999809E+01 0.  1.
</event>
<event>
 5   0  0.9070500E-07  0.3557820E+04  0.7818609E-02  0.8100222E-01
        3   -1    0    0  501    0  0.00000000000E+00  0.00000000000E+00  0.14557811806E+04  0.14557811841E+04  0.10100000352E+00 0. -1.
       -3   -1    0    0    0  501  0.00000000000E+00  0.00000000000E+00 -0.21737617127E+04  0.21737617151E+04  0.10100000352E+00 0.  1.
    10030    2    1    2    0    0  0.00000000000E+00  0.00000000000E+00 -0.71798053208E+03  0.36295428992E+04  0.35578203458E+04 0.  0.
        5    1    3    3  502    0 -0.17321932580E+04 -0.34837451573E+03 -0.14833042741E+03  0.17730996283E+04  0.46999998093E+01 0.  1.
       -5    1    3    3    0  502  0.17321932580E+04  0.34837451573E+03 -0.56965010467E+03  0.18564432709E+04  0.46999998093E+01 0. -1.
</event>
<event>
 5   0  0.9714317E-07  0.3388902E+04  0.7818609E-02  0.8140635E-01
       -1   -1    0    0    0  501  0.00000000000E+00  0.00000000000E+00  0.11733263701E+04  0.11733263701E+04  0.50400001928E-02 0. -1.
        1   -1    0    0  501    0  0.00000000000E+00  0.00000000000E+00 -0.24470298440E+04  0.24470298441E+04  0.50400001928E-02 0.  1.
    10030    2    1    2    0    0  0.00000000000E+00  0.00000000000E+00 -0.12737034739E+04  0.36203562142E+04  0.33889022674E+04 0.  0.
        4    1    3    3  502    0  0.12705638500E+04  0.30698800797E+03 -0.17887267169E+04  0.22154275015E+04  0.12699999809E+01 0.  1.
       -4    1    3    3    0  502 -0.12705638500E+04 -0.30698800797E+03  0.51502324294E+03  0.14049287127E+04  0.12699999809E+01 0. -1.
</event>
<event>
 5   0  0.1003191E-06  0.2323615E+04  0.7818609E-02  0.8468668E-01
        1   -1    0    0  501    0  0.00000000000E+00  0.00000000000E+00  0.10919842294E+04  0.10919842295E+04  0.50400001928E-02 0. -1.
       -1   -1    0    0    0  501  0.00000000000E+00  0.00000000000E+00 -0.12360953036E+04  0.12360953036E+04  0.50400001928E-02 0.  1.
    10030    2    1    2    0    0  0.00000000000E+00  0.00000000000E+00 -0.14411107414E+03  0.23280795331E+04  0.23236149230E+04 0.  0.
        5    1    3    3  502    0 -0.20133964230E+02  0.38578740689E+03 -0.11698510832E+04  0.12319947024E+04  0.46999998093E+01 0.  1.
       -5    1    3    3    0  502  0.20133964230E+02 -0.38578740689E+03  0.10257400091E+04  0.10960848307E+04  0.46999998093E+01 0. -1.
</event>
<event>
 5   0  0.2664083E-06  0.3288900E+04  0.7818609E-02  0.8165725E-01
        2   -1    0    0  501    0  0.00000000000E+00  0.00000000000E+00  0.23694509650E+04  0.23694509650E+04  0.25500000920E-02 0.  1.
       -2   -1    0    0    0  501  0.00000000000E+00  0.00000000000E+00 -0.11412840200E+04  0.11412840201E+04  0.25500000920E-02 0. -1.
    10030    2    1    2    0    0  0.00000000000E+00  0.00000000000E+00  0.12281669450E+04  0.35107349851E+04  0.32889004380E+04 0.  0.
        2    1    3    3  502    0 -0.42707770991E+03  0.18034826782E+03 -0.10700851079E+04  0.11661916678E+04  0.25500000920E-02 0. -1.
       -2    1    3    3    0  502  0.42707770991E+03 -0.18034826782E+03  0.22982520529E+04  0.23445433173E+04  0.25500000920E-02 0.  1.
</event>
<event>
 5   0  0.2856440E-06  0.3375448E+04  0.7818609E-02  0.8143959E-01
       -2   -1    0    0    0  501  0.00000000000E+00  0.00000000000E+00  0.15862068474E+04  0.15862068474E+04  0.25500000920E-02 0.  1.
        2   -1    0    0  501    0  0.00000000000E+00  0.00000000000E+00 -0.17957378684E+04  0.17957378684E+04  0.25500000920E-02 0. -1.
    10030    2    1    2    0    0  0.00000000000E+00  0.00000000000E+00 -0.20953102101E+03  0.33819447158E+04  0.33754476462E+04 0.  0.
        4    1    3    3  502    0 -0.36268141769E+03 -0.11578480933E+04  0.10706336678E+04  0.16181495856E+04  0.12699999809E+01 0.  1.
       -4    1    3    3    0  502  0.36268141769E+03  0.11578480933E+04 -0.12801646889E+04  0.17637951302E+04  0.12699999809E+01 0. -1.
</event>
<event>
 5   0  0.2906701E-06  0.3028560E+04  0.7818609E-02  0.8235622E-01
        2   -1    0    0  501    0  0.00000000000E+00  0.00000000000E+00  0.17927730761E+04  0.17927730761E+04  0.25500000920E-02 0. -1.
       -2   -1    0    0    0  501  0.00000000000E+00  0.00000000000E+00 -0.12790483427E+04  0.12790483427E+04  0.25500000920E-02 0.  1.
    10030    2    1    2    0    0  0.00000000000E+00  0.00000000000E+00  0.51372473346E+03  0.30718214188E+04  0.30285596786E+04 0.  0.
        5    1    3    3  502    0  0.65500660071E+03 -0.11371136940E+04  0.10232751221E+04  0.16640839118E+04  0.46999998093E+01 0. -1.
       -5    1    3    3    0  502 -0.65500660071E+03  0.11371136940E+04 -0.50955038860E+03  0.14077375070E+04  0.46999998093E+01 0.  1.
</event>
<event>
 5   0  0.2906701E-06  0.3426089E+04  0.7818609E-02  0.8131533E-01
       -2   -1    0    0    0  501  0.00000000000E+00  0.00000000000E+00  0.12575409904E+04  0.12575409904E+04  0.25500000920E-02 0. -1.
        2   -1    0    0  501    0  0.00000000000E+00  0.00000000000E+00 -0.23335397447E+04  0.23335397447E+04  0.25500000920E-02 0.  1.
    10030    2    1    2    0    0  0.00000000000E+00  0.00000000000E+00 -0.10759987543E+04  0.35910807351E+04  0.34260892468E+04 0.  0.
        5    1    3    3  502    0  0.10543199535E+03 -0.52074277532E+03  0.11689888303E+04  0.12840739539E+04  0.46999998093E+01 0. -1.
       -5    1    3    3    0  502 -0.10543199535E+03  0.52074277532E+03 -0.22449875846E+04  0.23070067813E+04  0.46999998093E+01 0.  1.
</event>
<event>
 5   0  0.9714317E-07  0.3173947E+04  0.7818609E-02  0.8195732E-01
       -1   -1    0    0    0  501  0.00000000000E+00  0.00000000000E+00  0.17091936353E+04  0.17091936354E+04  0.50400001928E-02 0.  1.
        1   -1    0    0  501    0  0.00000000000E+00  0.00000000000E+00 -0.14734934595E+04  0.14734934595E+04  0.50400001928E-02 0. -1.
    10030    2    1    2    0    0  0.00000000000E+00  0.00000000000E+00  0.23570017585E+03  0.31826870949E+04  0.31739474745E+04 0.  0.
        4    1    3    3  502    0  0.70991776572E+03  0.49439057332E+03  0.14519565961E+04  0.16901434386E+04  0.12699999809E+01 0.  1.
       -4    1    3    3    0  502 -0.70991776572E+03 -0.49439057332E+03 -0.12162564203E+04  0.14925436563E+04  0.12699999809E+01 0. -1.
</event>
<event>
 5   0  0.1010855E-06  0.3415611E+04  0.7818609E-02  0.8134085E-01
       -1   -1    0    0    0  501  0.00000000000E+00  0.00000000000E+00  0.19202655944E+04  0.19202655944E+04  0.50400001928E-02 0.  1.
        1   -1    0    0  501    0  0.00000000000E+00  0.00000000000E+00 -0.15188521909E+04  0.15188521909E+04  0.50400001928E-02 0. -1.
    10030    2    1    2    0    0  0.00000000000E+00  0.00000000000E+00  0.40141340351E+03  0.34391177853E+04  0.34156109879E+04 0.  0.
        1    1    3    3  502    0  0.27306676645E+03  0.99652639162E+03  0.15698329540E+04  0.18793631399E+04  0.50400001928E-02 0.  1.
       -1    1    3    3    0  502 -0.27306676645E+03 -0.99652639162E+03 -0.11684195505E+04  0.15597546455E+04  0.50400001928E-02 0. -1.
</event>
<event>
 5   0  0.2848685E-06  0.3340558E+04  0.7818609E-02  0.8152651E-01
       -2   -1    0    0    0  501  0.00000000000E+00  0.00000000000E+00  0.15996711755E+04  0.15996711755E+04  0.25500000920E-02 0. -1.
        2   -1    0    0  501    0  0.00000000000E+00  0.00000000000E+00 -0.17440038569E+04  0.17440038569E+04  0.25500000920E-02 0.  1.
    10030    2    1    2    0    0  0.00000000000E+00  0.00000000000E+00 -0.14433268139E+03  0.33436750324E+04  0.33405584562E+04 0.  0.
        3    1    3    3  502    0  0.73334705384E+03 -0.14721714750E+04 -0.36354948654E+03  0.16844153266E+04  0.10100000352E+00 0.  1.
       -3    1    3    3    0  502 -0.73334705384E+03  0.14721714750E+04  0.21921680515E+03  0.16592597058E+04  0.10100000352E+00 0. -1.
</event>
<event>
 5   0  0.2767014E-06  0.3413011E+04  0.7818609E-02  0.8134720E-01
       -2   -1    0    0    0  501  0.00000000000E+00  0.00000000000E+00  0.11371952938E+04  0.11371952938E+04  0.25500000920E-02 0. -1.
        2   -1    0    0  501    0  0.00000000000E+00  0.00000000000E+00 -0.25608277064E+04  0.25608277064E+04  0.25500000920E-02 0.  1.
    10030    2    1    2    0    0  0.00000000000E+00  0.00000000000E+00 -0.14236324127E+04  0.36980230002E+04  0.34130111139E+04 0.  0.
        1    1    3    3  502    0  0.52750994388E+03 -0.11454808681E+04 -0.19575049250E+04  0.23285658014E+04  0.50400001928E-02 0.  1.
       -1    1    3    3    0  502 -0.52750994388E+03  0.11454808681E+04  0.53387251233E+03  0.13694571988E+04  0.50400001928E-02 0. -1.
</event>
<event>
 5   0  0.2906701E-06  0.3393406E+04  0.7818609E-02  0.8139527E-01
       -2   -1    0    0    0  501  0.00000000000E+00  0.00000000000E+00  0.16865971255E+04  0.16865971255E+04  0.25500000920E-02 0. -1.
        2   -1    0    0  501    0  0.00000000000E+00  0.00000000000E+00 -0.17068695245E+04  0.17068695245E+04  0.25500000920E-02 0.  1.
    10030    2    1    2    0    0  0.00000000000E+00  0.00000000000E+00 -0.20272398951E+02  0.33934666500E+04  0.33934060963E+04 0.  0.
        5    1    3    3  502    0  0.12437316732E+04  0.23519121682E+03  0.11197493351E+04  0.16899834457E+04  0.46999998093E+01 0. -1.
       -5    1    3    3    0  502 -0.12437316732E+04 -0.23519121682E+03 -0.11400217340E+04  0.17034832043E+04  0.46999998093E+01 0.  1.
</event>
<event>
 5   0  0.9232963E-07  0.3583516E+04  0.7818609E-02  0.8094278E-01
        1   -1    0    0  501    0  0.00000000000E+00  0.00000000000E+00  0.25388079454E+04  0.25388079454E+04  0.50400001928E-02 0.  1.
       -1   -1    0    0    0  501  0.00000000000E+00  0.00000000000E+00 -0.12645292523E+04  0.12645292523E+04  0.50400001928E-02 0. -1.
    10030    2    1    2    0    0  0.00000000000E+00  0.00000000000E+00  0.12742786931E+04  0.38033371977E+04  0.35835161017E+04 0.  0.
        3    1    3    3  502    0 -0.55148489648E+03 -0.40284577191E+03 -0.11209691474E+04  0.13126279544E+04  0.10100000352E+00 0. -1.
       -3    1    3    3    0  502  0.55148489648E+03  0.40284577191E+03  0.23952478405E+04  0.24907092433E+04  0.10100000352E+00 0.  1.
</event>
<event>
 5   0  0.2664083E-06  0.3312917E+04  0.7818609E-02  0.8159616E-01
       -2   -1    0    0    0  501  0.00000000000E+00  0.00000000000E+00  0.22029182030E+04  0.22029182030E+04  0.25500000920E-02 0. -1.
        2   -1    0    0  501    0  0.00000000000E+00  0.00000000000E+00 -0.12455547658E+04  0.12455547658E+04  0.25500000920E-02 0.  1.
    10030    2    1    2    0    0  0.00000000000E+00  0.00000000000E+00  0.95736343721E+03  0.34484729687E+04  0.33129173043E+04 0.  0.
        2    1    3    3  502    0 -0.73370098008E+03 -0.44957973013E+03 -0.99465435314E+03  0.13152096198E+04  0.25500000920E-02 0.  1.
       -2    1    3    3    0  502  0.73370098008E+03  0.44957973013E+03  0.19520177903E+04  0.21332633489E+04  0.25500000920E-02 0. -1.
</event>
<event>
 5   0  0.1010855E-06  0.2862761E+04  0.7818609E-02  0.8284044E-01
       -1   -1    0    0    0  501  0.00000000000E+00  0.00000000000E+00  0.17808252807E+04  0.17808252807E+04  0.50400001928E-02 0.  1.
        1   -1    0    0  501    0  0.00000000000E+00  0.00000000000E+00 -0.11505055843E+04  0.11505055843E+04  0.50400001928E-02 0. -1.
    10030    2    1    2    0    0  0.00000000000E+00  0.00000000000E+00  0.63031969641E+03  0.29313308650E+04  0.28627605070E+04 0.  0.
        1    1    3    3  502    0  0.30458658686E+03 -0.10362788202E+04  0.12769138500E+04  0.16724699586E+04  0.50400001928E-02 0.  1.
       -1    1    3    3    0  502 -0.30458658686E+03  0.10362788202E+04 -0.64659415360E+03  0.12588609064E+04  0.50400001928E-02 0. -1.
</event>
<event>
 5   0  0.2848685E-06  0.3392066E+04  0.7818609E-02  0.8139856E-01
        2   -1    0    0  501    0  0.00000000000E+00  0.00000000000E+00  0.24463284925E+04  0.24463284925E+04  0.25500000920E-02 0. -1.
       -2   -1    0    0    0  501  0.00000000000E+00  0.00000000000E+00 -0.11758553029E+04  0.11758553029E+04  0.25500000920E-02 0.  1.
    10030    2    1    2    0    0  0.00000000000E+00  0.00000000000E+00  0.12704731896E+04  0.36221837954E+04  0.33920662320E+04 0.  0.
        3    1    3    3  502    0  0.17869375199E+02  0.86434485052E+03 -0.92290141525E+03  0.12645783359E+04  0.10100000352E+00 0.  1.
       -3    1    3    3    0  502 -0.17869375199E+02 -0.86434485052E+03  0.21933746049E+04  0.23576054595E+04  0.10100000352E+00 0. -1.
</event>
<event>
 5   0  0.2664083E-06  0.3380411E+04  0.7818609E-02  0.8142731E-01
        2   -1    0    0  501    0  0.00000000000E+00  0.00000000000E+00  0.17493161183E+04  0.17493161183E+04  0.25500000920E-02 0.  1.
       -2   -1    0    0    0  501  0.00000000000E+00  0.00000000000E+00 -0.16330918426E+04  0.16330918426E+04  0.25500000920E-02 0. -1.
    10030    2    1    2    0    0  0.00000000000E+00  0.00000000000E+00  0.11622427567E+03  0.33824079609E+04  0.33804105567E+04 0.  0.
        2    1    3    3  502    0  0.53690251061E+03  0.37083278933E+03  0.16182039054E+04  0.17448109190E+04  0.25500000920E-02 0.  1.
       -2    1    3    3    0  502 -0.53690251061E+03 -0.37083278933E+03 -0.15019796297E+04  0.16375970419E+04  0.25500000920E-02 0. -1.
</event>
<event>
 5   0  0.9232963E-07  0.3013454E+04  0.7818609E-02  0.8239899E-01
        1   -1    0    0  501    0  0.00000000000E+00  0.00000000000E+00  0.13150504850E+04  0.13150504850E+04  0.50400001928E-02 0. -1.
       -1   -1    0    0    0  501  0.00000000000E+00  0.00000000000E+00 -0.17263418250E+04  0.17263418250E+04  0.50400001928E-02 0.  1.
    10030    2    1    2    0    0  0.00000000000E+00  0.00000000000E+00 -0.41129134000E+03  0.30413923100E+04  0.30134542666E+04 0.  0.
        3    1    3    3  502    0  0.10966682440E+04  0.10274683814E+04 -0.95759580465E+02  0.15058361197E+04  0.10100000352E+00 0. -1.
       -3    1    3    3    0  502 -0.10966682440E+04 -0.10274683814E+04 -0.31553175954E+03  0.15355561903E+04  0.10100000352E+00 0.  1.
</event>
<event>
 5   0  0.2906701E-06  0.3217951E+04  0.7818609E-02  0.8184093E-01
       -2   -1    0    0    0  501  0.00000000000E+00  0.00000000000E+00  0.11811633072E+04  0.11811633072E+04  0.25500000920E-02 0. -1.
        2   -1    0    0  501    0  0.00000000000E+00  0.00000000000E+00 -0.21917387232E+04  0.21917387232E+04  0.25500000920E-02 0.  1.
    10030    2    1    2    0    0  0.00000000000E+00  0.00000000000E+00 -0.10105754160E+04  0.33729020305E+04  0.32179505024E+04 0.  0.
        5    1    3    3  502    0 -0.14389771602E+02  0.13712356776E+03  0.11749527511E+04  0.11830240892E+04  0.46999998093E+01 0. -1.
       -5    1    3    3    0  502  0.14389771602E+02 -0.13712356776E+03 -0.21855281671E+04  0.21898779413E+04  0.46999998093E+01 0.  1.
</event>
<event>
 5   0  0.2664083E-06  0.3376722E+04  0.7818609E-02  0.8143643E-01
       -2   -1    0    0    0  501  0.00000000000E+00  0.00000000000E+00  0.22303916801E+04  0.22303916801E+04  0.25500000920E-02 0.  1.
        2   -1    0    0  501    0  0.00000000000E+00  0.00000000000E+00 -0.12780547711E+04  0.12780547711E+04  0.25500000920E-02 0. -1.
    10030    2    1    2    0    0  0.00000000000E+00  0.00000000000E+00  0.95233690903E+03  0.35084464513E+04  0.33767219182E+04 0.  0.
        2    1    3    3  502    0 -0.10927366730E+04 -0.21979494010E+03 -0.84144133588E+03  0.13965696452E+04  0.25500000920E-02 0. -1.
       -2    1    3    3    0  502  0.10927366730E+04  0.21979494010E+03  0.17937782449E+04  0.21118768061E+04  0.25500000920E-02 0.  1.
</event>
<event>
 5   0  0.2906701E-06  0.3343278E+04  0.7818609E-02  0.8151970E-01
       -2   -1    0    0    0  501  0.00000000000E+00  0.00000000000E+00  0.11258874427E+04  0.11258874427E+04  0.25500000920E-02 0. -1.
        2   -1    0    0  501    0  0.00000000000E+00  0.00000000000E+00 -0.24819324203E+04  0.24819324203E+04  0.25500000920E-02 0.  1.
    10030    2    1    2    0    0  0.00000000000E+00  0.00000000000E+00 -0.13560449776E+04  0.36078198630E+04  0.33432777603E+04 0.  0.
        5    1    3    3  502    0 -0.12118891120E+04  0.11504790463E+04 -0.72720509150E+03  0.18223958382E+04  0.46999998093E+01 0. -1.
       -5    1    3    3    0  502  0.12118891120E+04 -0.11504790463E+04 -0.62883988611E+03  0.17854240248E+04  0.46999998093E+01 0.  1.
</event>
<event>
 5   0  0.1010855E-06  0.3246014E+04  0.7818609E-02  0.8176770E-01
       -1   -1    0    0    0  501  0.00000000000E+00  0.00000000000E+00  0.12496203678E+04  0.12496203679E+04  0.50400001928E-02 0.  1.
        1   -1    0    0  501    0  0.00000000000E+00  0.00000000000E+00 -0.21079618034E+04  0.21079618034E+04  0.50400001928E-02 0. -1.
    10030    2    1    2    0    0  0.00000000000E+00  0.00000000000E+00 -0.85834143552E+03  0.33575821712E+04  0.32460141738E+04 0.  0.
        1    1    3    3  502    0 -0.75227324425E+03  0.38545230624E+03  0.10039698536E+04  0.13124191332E+04  0.50400001928E-02 0.  1.
       -1    1    3    3    0  502  0.75227324425E+03 -0.38545230624E+03 -0.18623112891E+04  0.20451630380E+04  0.50400001928E-02 0. -1.
</event>
<event>
 5   0  0.2856440E-06  0.3329730E+04  0.7818609E-02  0.8155372E-01
        2   -1    0    0  501    0  0.00000000000E+00  0.00000000000E+00  0.15103465363E+04  0.15103465363E+04  0.25500000920E-02 0.  1.
       -2   -1    0    0    0  501  0.00000000000E+00  0.00000000000E+00 -0.18351912551E+04  0.18351912551E+04  0.25500000920E-02 0. -1.
    10030    2    1    2    0    0  0.00000000000E+00  0.00000000000E+00 -0.32484471877E+03  0.33455377914E+04  0.33297295720E+04 0.  0.
        4    1    3    3  502    0 -0.13081187124E+04  0.36252257073E+03 -0.11309364868E+04  0.17668095908E+04  0.12699999809E+01 0. -1.
       -4    1    3    3    0  502  0.13081187124E+04 -0.36252257073E+03  0.80609176807E+03  0.15787282006E+04  0.12699999809E+01 0.  1.
</event>
<event>
 5   0  0.2848685E-06  0.3466479E+04  0.7818609E-02  0.8121780E-01
        2   -1    0    0  501    0  0.00000000000E+00  0.00000000000E+00  0.21425332431E+04  0.21425332431E+04  0.25500000920E-02 0. -1.
       -2   -1    0    0    0  501  0.00000000000E+00  0.00000000000E+00 -0.14021342111E+04  0.14021342111E+04  0.25500000920E-02 0.  1.
    10030    2    1    2    0    0  0.00000000000E+00  0.00000000000E+00  0.74039903198E+03  0.35446674542E+04  0.34664789967E+04 0.  0.
        3    1    3    3  502    0  0.15530773643E+04 -0.75863406006E+03  0.50172501651E+03  0.17998063616E+04  0.10100000352E+00 0. -1.
       -3    1    3    3    0  502 -0.15530773643E+04  0.75863406006E+03  0.23867401547E+03  0.17448610926E+04  0.10100000352E+00 0.  1.
</event>
<event>
 5   0  0.2906701E-06  0.3371792E+04  0.7818609E-02  0.8144864E-01
       -2   -1    0    0    0  501  0.00000000000E+00  0.00000000000E+00  0.12471314412E+04  0.12471314412E+04  0.25500000920E-02 0. -1.
        2   -1    0    0  501    0  0.00000000000E+00  0.00000000000E+00 -0.22790267505E+04  0.22790267505E+04  0.25500000920E-02 0.  1.
    10030    2    1    2    0    0  0.00000000000E+00  0.00000000000E+00 -0.10318953092E+04  0.35261581917E+04  0.33717923518E+04 0.  0.
        5    1    3    3  502    0  0.52086355416E+03 -0.16023075236E+04 -0.57813063489E+03  0.17812763298E+04  0.46999998093E+01 0. -1.
       -5    1    3    3    0  502 -0.52086355416E+03  0.16023075236E+04 -0.45376467435E+03  0.17448818619E+04  0.46999998093E+01 0.  1.
</event>
<event>
 5   0  0.2848685E-06  0.2226249E+04  0.7818609E-02  0.8507581E-01
       -2   -1    0    0    0  501  0.00000000000E+00  0.00000000000E+00  0.54740225190E+03  0.54740225191E+03  0.25500000920E-02 0.  1.
        2   -1    0    0  501    0  0.00000000000E+00  0.00000000000E+00 -0.22635028726E+04  0.22635028726E+04  0.25500000920E-02 0. -1.
    10030    2    1    2    0    0  0.00000000000E+00  0.00000000000E+00 -0.17161006207E+04  0.28109051246E+04  0.22262493748E+04 0.  0.
        3    1    3    3  502    0 -0.41801973726E+03  0.42210211534E+03 -0.20466142050E+04  0.21310890199E+04  0.10100000352E+00 0. -1.
       -3    1    3    3    0  502  0.41801973726E+03 -0.42210211534E+03  0.33051358427E+03  0.67981610462E+03  0.10100000352E+00 0.  1.
</event>
<event>
 5   0  0.9232963E-07  0.3303840E+04  0.7818609E-02  0.8161919E-01
        1   -1    0    0  501    0  0.00000000000E+00  0.00000000000E+00  0.14995325663E+04  0.14995325664E+04  0.50400001928E-02 0.  1.
       -1   -1    0    0    0  501  0.00000000000E+00  0.00000000000E+00 -0.18197934057E+04  0.18197934057E+04  0.50400001928E-02 0. -1.
    10030    2    1    2    0    0  0.00000000000E+00  0.00000000000E+00 -0.32026083930E+03  0.33193259720E+04  0.33038398725E+04 0.  0.
        3    1    3    3  502    0  0.33748674746E+03 -0.12397163931E+03 -0.17800070459E+04  0.18159546706E+04  0.10100000352E+00 0. -1.
       -3    1    3    3    0  502 -0.33748674746E+03  0.12397163931E+03  0.14597462066E+04  0.15033713014E+04  0.10100000352E+00 0.  1.
</event>
<event>
 5   0  0.9232963E-07  0.3413817E+04  0.7818609E-02  0.8134523E-01
        1   -1    0    0  501    0  0.00000000000E+00  0.00000000000E+00  0.12092247051E+04  0.12092247051E+04  0.50400001928E-02 0. -1.
       -1   -1    0    0    0  501  0.00000000000E+00  0.00000000000E+00 -0.24094258236E+04  0.24094258236E+04  0.50400001928E-02 0.  1.
    10030    2    1    2    0    0  0.00000000000E+00  0.00000000000E+00 -0.12002011186E+04  0.36186505287E+04  0.34138173536E+04 0.  0.
        3    1    3    3  502    0 -0.16820723511E+04  0.19163698870E+03 -0.83098890048E+03  0.18859042109E+04  0.10100000352E+00 0.  1.
       -3    1    3    3    0  502  0.16820723511E+04 -0.19163698870E+03 -0.36921221807E+03  0.17327463178E+04  0.10100000352E+00 0. -1.
</event>
<event>
 5   0  0.2856440E-06  0.3835793E+04  0.7818609E-02  0.8038517E-01
        2   -1    0    0  501    0  0.00000000000E+00  0.00000000000E+00  0.20781486930E+04  0.20781486930E+04  0.25500000920E-02 0.  1.
       -2   -1    0    0    0  501  0.00000000000E+00  0.00000000000E+00 -0.17700015919E+04  0.17700015919E+04  0.25500000920E-02 0. -1.
    10030    2    1    2    0    0  0.00000000000E+00  0.00000000000E+00  0.30814710110E+03  0.38481502848E+04  0.38357927445E+04 0.  0.
        4    1    3    3  502    0  0.10703707261E+04  0.39823653673E+03  0.16998291218E+04  0.20478541175E+04  0.12699999809E+01 0.  1.
       -4    1    3    3    0  502 -0.10703707261E+04 -0.39823653673E+03 -0.13916820207E+04  0.18002961673E+04  0.12699999809E+01 0. -1.
</event>
<event>
 5   0  0.1003191E-06  0.3373541E+04  0.7818609E-02  0.8144431E-01
        1   -1    0    0  501    0  0.00000000000E+00  0.00000000000E+00  0.29848406836E+04  0.29848406836E+04  0.50400001928E-02 0. -1.
       -1   -1    0    0    0  501  0.00000000000E+00  0.00000000000E+00 -0.95321508905E+03  0.95321508907E+03  0.50400001928E-02 0.  1.
    10030    2    1    2    0    0  0.00000000000E+00  0.00000000000E+00  0.20316255945E+04  0.39380557727E+04  0.33735412718E+04 0.  0.
        5    1    3    3  502    0 -0.44981198072E+03  0.37899201419E+03  0.28612402514E+04  0.29210757661E+04  0.46999998093E+01 0. -1.
       -5    1    3    3    0  502  0.44981198072E+03 -0.37899201419E+03 -0.82961465690E+03  0.10169800066E+04  0.46999998093E+01 0.  1.
</event>
<event>
 5   0  0.1003191E-06  0.3488953E+04  0.7818609E-02  0.8116413E-01
        1   -1    0    0  501    0  0.00000000000E+00  0.00000000000E+00  0.20094594856E+04  0.20094594856E+04  0.50400001928E-02 0. -1.
       -1   -1    0    0    0  501  0.00000000000E+00  0.00000000000E+00 -0.15144365489E+04  0.15144365489E+04  0.50400001928E-02 0.  1.
    10030    2    1    2    0    0  0.00000000000E+00  0.00000000000E+00  0.49502293671E+03  0.35238960346E+04  0.34889533609E+04 0.  0.
        5    1    3    3  502    0 -0.11831890146E+04 -0.76599484600E+02 -0.10449028029E+04  0.15803947871E+04  0.46999998093E+01 0.  1.
       -5    1    3    3    0  502  0.11831890146E+04  0.76599484600E+02  0.15399257396E+04  0.19435012475E+04  0.46999998093E+01 0. -1.
</event>
<event>
 5   0  0.9232963E-07  0.3185889E+04  0.7818609E-02  0.8192554E-01
       -1   -1    0    0    0  501  0.00000000000E+00  0.00000000000E+00  0.22876016377E+04  0.22876016377E+04  0.50400001928E-02 0. -1.
        1   -1    0    0  501    0  0.00000000000E+00  0.00000000000E+00 -0.11092282423E+04  0.11092282423E+04  0.50400001928E-02 0.  1.
    10030    2    1    2    0    0  0.00000000000E+00  0.00000000000E+00  0.11783733954E+04  0.33968298800E+04  0.31858891027E+04 0.  0.
        3    1    3    3  502    0  0.94961796639E+03 -0.81125284983E+03  0.16433705972E+04  0.20641154034E+04  0.10100000352E+00 0. -1.
       -3    1    3    3    0  502 -0.94961796639E+03  0.81125284983E+03 -0.46499720180E+03  0.13327144767E+04  0.10100000352E+00 0.  1.
</event>
<event>
 5   0  0.2767014E-06  0.3057131E+04  0.7818609E-02  0.8227603E-01
       -2   -1    0    0    0  501  0.00000000000E+00  0.00000000000E+00  0.14168775432E+04  0.14168775432E+04  0.25500000920E-02 0.  1.
        2   -1    0    0  501    0  0.00000000000E+00  0.00000000000E+00 -0.16490569318E+04  0.16490569318E+04  0.25500000920E-02 0. -1.
    10030    2    1    2    0    0  0.00000000000E+00  0.00000000000E+00 -0.23217938864E+03  0.30659344750E+04  0.30571305070E+04 0.  0.
        1    1    3    3  502    0  0.27660100356E+03  0.33069140121E+03  0.13546419532E+04  0.14215905667E+04  0.50400001928E-02 0.  1.
       -1    1    3    3    0  502 -0.27660100356E+03 -0.33069140121E+03 -0.15868213418E+04  0.16443439083E+04  0.50400001928E-02 0. -1.
</event>
<event>
 5   0  0.1010551E-06  0.3402213E+04  0.7818609E-02  0.8137363E-01
        1   -1    0    0  501    0  0.00000000000E+00  0.00000000000E+00  0.26220925518E+04  0.26220925518E+04  0.50400001928E-02 0. -1.
       -1   -1    0    0    0  501  0.00000000000E+00  0.00000000000E+00 -0.11036081729E+04  0.11036081729E+04  0.50400001928E-02 0.  1.
    10030    2    1    2    0    0  0.00000000000E+00  0.00000000000E+00  0.15184843789E+04  0.37257007247E+04  0.34022126743E+04 0.  0.
        2    1    3    3  502    0 -0.91132068635E+02 -0.11294343076E+04  0.21486742217E+04  0.24291413751E+04  0.25500000920E-02 0. -1.
       -2    1    3    3    0  502  0.91132068635E+02  0.11294343076E+04 -0.63018984283E+03  0.12965593496E+04  0.25500000920E-02 0.  1.
</event>
<event>
 5   0  0.9232963E-07  0.3277777E+04  0.7818609E-02  0.8168573E-01
       -1   -1    0    0    0  501  0.00000000000E+00  0.00000000000E+00  0.12260178842E+04  0.12260178842E+04  0.50400001928E-02 0. -1.
        1   -1    0    0  501    0  0.00000000000E+00  0.00000000000E+00 -0.21907966351E+04  0.21907966351E+04  0.50400001928E-02 0.  1.
    10030    2    1    2    0    0  0.00000000000E+00  0.00000000000E+00 -0.96477875087E+03  0.34168145193E+04  0.32777772074E+04 0.  0.
        3    1    3    3  502    0  0.11310303546E+04 -0.15406886353E+03  0.74350014006E+03  0.13622625835E+04  0.10100000352E+00 0. -1.
       -3    1    3    3    0  502 -0.11310303546E+04  0.15406886353E+03 -0.17082788909E+04  0.20545519359E+04  0.10100000352E+00 0.  1.
</event>
<event>
 5   0  0.1010551E-06  0.3496768E+04  0.7818609E-02  0.8114556E-01
        1   -1    0    0  501    0  0.00000000000E+00  0.00000000000E+00  0.17551600583E+04  0.17551600583E+04  0.50400001928E-02 0.  1.
       -1   -1    0    0    0  501  0.00000000000E+00  0.00000000000E+00 -0.17416345574E+04  0.17416345574E+04  0.50400001928E-02 0. -1.
    10030    2    1    2    0    0  0.00000000000E+00  0.00000000000E+00  0.13525500842E+02  0.34967946157E+04  0.34967684575E+04 0.  0.
        2    1    3    3  502    0  0.11695589635E+04  0.99005394065E+03 -0.83512978494E+03  0.17451408918E+04  0.25500000920E-02 0. -1.
       -2    1    3    3    0  502 -0.11695589635E+04 -0.99005394065E+03  0.84865528578E+03  0.17516537239E+04  0.25500000920E-02 0.  1.
</event>
<event>
 5   0  0.9232963E-07  0.3341179E+04  0.7818609E-02  0.8152496E-01
       -1   -1    0    0    0  501  0.00000000000E+00  0.00000000000E+00  0.12102707793E+04  0.12102707793E+04  0.50400001928E-02 0. -1.
        1   -1    0    0  501    0  0.00000000000E+00  0.00000000000E+00 -0.23059873566E+04  0.23059873567E+04  0.50400001928E-02 0.  1.
    10030    2    1    2    0    0  0.00000000000E+00  0.00000000000E+00 -0.10957165773E+04  0.35162581360E+04  0.33411789029E+04 0.  0.
        3    1    3    3  502    0 -0.10525252510E+04 -0.63920918268E+03 -0.17359392959E+04  0.21283521871E+04  0.10100000352E+00 0.  1.
       -3    1    3    3    0  502  0.10525252510E+04  0.63920918268E+03  0.64022271857E+03  0.13879059489E+04  0.10100000352E+00 0. -1.
</event>
<event>
 5   0  0.2906701E-06  0.3329694E+04  0.7818609E-02  0.8155380E-01
       -2   -1    0    0    0  501  0.00000000000E+00  0.00000000000E+00  0.18003352856E+04  0.18003352856E+04  0.25500000920E-02 0.  1.
        2   -1    0    0  501    0  0.00000000000E+00  0.00000000000E+00 -0.15395555864E+04  0.15395555864E+04  0.25500000920E-02 0. -1.
    10030    2    1    2    0    0  0.00000000000E+00  0.00000000000E+00  0.26077969923E+03  0.33398908719E+04  0.33296944282E+04 0.  0.
        5    1    3    3  502    0  0.82614932288E+03  0.38501316113E+03 -0.12670513425E+04  0.15608328009E+04  0.46999998093E+01 0. -1.
       -5    1    3    3    0  502 -0.82614932288E+03 -0.38501316113E+03  0.15278310417E+04  0.17790580710E+04  0.46999998093E+01 0.  1.
</event>
<event>
 5   0  0.2767014E-06  0.3387830E+04  0.7818609E-02  0.8140900E-01
       -2   -1    0    0    0  501  0.00000000000E+00  0.00000000000E+00  0.24357273961E+04  0.24357273961E+04  0.25500000920E-02 0. -1.
        2   -1    0    0  501    0  0.00000000000E+00  0.00000000000E+00 -0.11780251360E+04  0.11780251360E+04  0.25500000920E-02 0.  1.
    10030    2    1    2    0    0  0.00000000000E+00  0.00000000000E+00  0.12577022601E+04  0.36137525321E+04  0.33878300412E+04 0.  0.
        1    1    3    3  502    0  0.26891079687E+03 -0.42537806636E+03 -0.10964424918E+04  0.12064185235E+04  0.50400001928E-02 0.  1.
       -1    1    3    3    0  502 -0.26891079687E+03  0.42537806636E+03  0.23541447519E+04  0.24073340086E+04  0.50400001928E-02 0. -1.
</event>
<event>
 5   0  0.1010855E-06  0.3365037E+04  0.7818609E-02  0.8146541E-01
       -1   -1    0    0    0  501  0.00000000000E+00  0.00000000000E+00  0.17809536274E+04  0.17809536274E+04  0.50400001928E-02 0. -1.
        1   -1    0    0  501    0  0.00000000000E+00  0.00000000000E+00 -0.15895237227E+04  0.15895237228E+04  0.50400001928E-02 0.  1.
    10030    2    1    2    0    0  0.00000000000E+00  0.00000000000E+00  0.19142990464E+03  0.33704773501E+04  0.33650367248E+04 0.  0.
        1    1    3    3  502    0  0.38422829149E+03  0.15246603472E+04  0.69555505831E+03  0.17193072423E+04  0.50400001928E-02 0. -1.
       -1    1    3    3    0  502 -0.38422829149E+03 -0.15246603472E+04 -0.50412515368E+03  0.16511701078E+04  0.50400001928E-02 0.  1.
</event>
<event>
 5   0  0.2664083E-06  0.3298309E+04  0.7818609E-02  0.8163326E-01
       -2   -1    0    0    0  501  0.00000000000E+00  0.00000000000E+00  0.13572417414E+04  0.13572417414E+04  0.25500000920E-02 0. -1.
        2   -1    0    0  501    0  0.00000000000E+00  0.00000000000E+00 -0.20038508631E+04  0.20038508631E+04  0.25500000920E-02 0.  1.
    10030    2    1    2    0    0  0.00000000000E+00  0.00000000000E+00 -0.64660912161E+03  0.33610926045E+04  0.32983086787E+04 0.  0.
        2    1    3    3  502    0 -0.12298451895E+03 -0.14126818675E+04 -0.11813024068E+04  0.18456084707E+04  0.25500000920E-02 0.  1.
       -2    1    3    3    0  502  0.12298451895E+03  0.14126818675E+04  0.53469328521E+03  0.15154841338E+04  0.25500000920E-02 0. -1.
</event>
<event>
 5   0  0.2906701E-06  0.3465323E+04  0.7818609E-02  0.8122057E-01
        2   -1    0    0  501    0  0.00000000000E+00  0.00000000000E+00  0.35284669997E+04  0.35284669997E+04  0.25500000920E-02 0.  1.
       -2   -1    0    0    0  501  0.00000000000E+00  0.00000000000E+00 -0.85082723344E+03  0.85082723344E+03  0.25500000920E-02 0. -1.
    10030    2    1    2    0    0  0.00000000000E+00  0.00000000000E+00  0.26776397663E+04  0.43792942332E+04  0.34653229666E+04 0.  0.
        5    1    3    3  502    0  0.10680803767E+04  0.22849116028E+02 -0.38506178273E+03  0.11356110425E+04  0.46999998093E+01 0. -1.
       -5    1    3    3    0  502 -0.10680803767E+04 -0.22849116028E+02  0.30627015490E+04  0.32436831907E+04  0.46999998093E+01 0.  1.
</event>
<event>
 5   0  0.1010551E-06  0.3425857E+04  0.7818609E-02  0.8131589E-01
        1   -1    0    0  501    0  0.00000000000E+00  0.00000000000E+00  0.16359777436E+04  0.16359777436E+04  0.50400001928E-02 0. -1.
       -1   -1    0    0    0  501  0.00000000000E+00  0.00000000000E+00 -0.17934985750E+04  0.17934985750E+04  0.50400001928E-02 0.  1.
    10030    2    1    2    0    0  0.00000000000E+00  0.00000000000E+00 -0.15752083137E+03  0.34294763186E+04  0.34258568282E+04 0.  0.
        2    1    3    3  502    0  0.82175114186E+03  0.63893697483E+03  0.12830475130E+04  0.16521883420E+04  0.25500000920E-02 0. -1.
       -2    1    3    3    0  502 -0.82175114186E+03 -0.63893697483E+03 -0.14405683444E+04  0.17772879766E+04  0.25500000920E-02 0.  1.
</event>
<event>
 5   0  0.2664083E-06  0.3370003E+04  0.7818609E-02  0.8145308E-01
       -2   -1    0    0    0  501  0.00000000000E+00  0.00000000000E+00  0.15483614853E+04  0.15483614853E+04  0.25500000920E-02 0. -1.
        2   -1    0    0  501    0  0.00000000000E+00  0.00000000000E+00 -0.18337001252E+04  0.18337001252E+04  0.25500000920E-02 0.  1.
    10030    2    1    2    0    0  0.00000000000E+00  0.00000000000E+00 -0.28533863994E+03  0.33820616106E+04  0.33700033528E+04 0.  0.
        2    1    3    3  502    0  0.52515330641E+03  0.84633568787E+01  0.14641131571E+04  0.15554693698E+04  0.25500000920E-02 0. -1.
       -2    1    3    3    0  502 -0.52515330641E+03 -0.84633568787E+01 -0.17494517971E+04  0.18265922407E+04  0.25500000920E-02 0.  1.
</event>
<event>
 5   0  0.2848685E-06  0.3520328E+04  0.7818609E-02  0.8108989E-01
        2   -1    0    0  501    0  0.00000000000E+00  0.00000000000E+00  0.18486978422E+04  0.18486978422E+04  0.25500000920E-02 0. -1.
       -2   -1    0    0    0  501  0.00000000000E+00  0.00000000000E+00 -0.16758700542E+04  0.16758700542E+04  0.25500000920E-02 0.  1.
    10030    2    1    2    0    0  0.00000000000E+00  0.00000000000E+00  0.17282778803E+03  0.35245678965E+04  0.35203280263E+04 0.  0.
        3    1    3    3  502    0 -0.24416281406E+03 -0.12475013335E+04  0.13053786167E+04  0.18220560913E+04  0.10100000352E+00 0. -1.
       -3    1    3    3    0  502  0.24416281406E+03  0.12475013335E+04 -0.11325508287E+04  0.17025118051E+04  0.10100000352E+00 0.  1.
</event>
<event>
 5   0  0.9070500E-07  0.3393145E+04  0.7818609E-02  0.8139591E-01
        3   -1    0    0  501    0  0.00000000000E+00  0.00000000000E+00  0.12772332199E+04  0.12772332239E+04  0.10100000352E+00 0. -1.
       -3   -1    0    0    0  501  0.00000000000E+00  0.00000000000E+00 -0.22535884370E+04  0.22535884392E+04  0.10100000352E+00 0.  1.
    10030    2    1    2    0    0  0.00000000000E+00  0.00000000000E+00 -0.97635521710E+03  0.35308216631E+04  0.33931448697E+04 0.  0.
        5    1    3    3  502    0 -0.19312823302E+02  0.95079136417E+03 -0.19501609193E+04  0.21696835955E+04  0.46999998093E+01 0.  1.
       -5    1    3    3    0  502  0.19312823302E+02 -0.95079136417E+03  0.97380570225E+03  0.13611380676E+04  0.46999998093E+01 0. -1.
</event>
<event>
 5   0  0.1003191E-06  0.3455049E+04  0.7818609E-02  0.8124526E-01
       -1   -1    0    0    0  501  0.00000000000E+00  0.00000000000E+00  0.26211811745E+04  0.26211811745E+04  0.50400001928E-02 0. -1.
        1   -1    0    0  501    0  0.00000000000E+00  0.00000000000E+00 -0.11385481611E+04  0.11385481611E+04  0.50400001928E-02 0.  1.
    10030    2    1    2    0    0  0.00000000000E+00  0.00000000000E+00  0.14826330134E+04  0.37597293356E+04  0.34550490625E+04 0.  0.
        5    1    3    3  502    0  0.15833171123E+04 -0.48905432611E+03  0.21016261250E+03  0.16704064253E+04  0.46999998093E+01 0.  1.
       -5    1    3    3    0  502 -0.15833171123E+04  0.48905432611E+03  0.12724704009E+04  0.20893229102E+04  0.46999998093E+01 0. -1.
</event>
<event>
 5   0  0.2767014E-06  0.3391276E+04  0.7818609E-02  0.8140051E-01
       -2   -1    0    0    0  501  0.00000000000E+00  0.00000000000E+00  0.11716186926E+04  0.11716186926E+04  0.25500000920E-02 0. -1.
        2   -1    0    0  501    0  0.00000000000E+00  0.00000000000E+00 -0.24540312472E+04  0.24540312472E+04  0.25500000920E-02 0.  1.
    10030    2    1    2    0    0  0.00000000000E+00  0.00000000000E+00 -0.12824125545E+04  0.36256499398E+04  0.33912763859E+04 0.  0.
        1    1    3    3  502    0 -0.10162120820E+04 -0.54939919826E+01 -0.20923923360E+04  0.23261175524E+04  0.50400001928E-02 0.  1.
       -1    1    3    3    0  502  0.10162120820E+04  0.54939919826E+01  0.80997978150E+03  0.12995323874E+04  0.50400001928E-02 0. -1.
</event>
<event>
 5   0  0.9714317E-07  0.3209439E+04  0.7818609E-02  0.8186329E-01
       -1   -1    0    0    0  501  0.00000000000E+00  0.00000000000E+00  0.11339529811E+04  0.11339529811E+04  0.50400001928E-02 0. -1.
        1   -1    0    0  501    0  0.00000000000E+00  0.00000000000E+00 -0.22709272171E+04  0.22709272171E+04  0.50400001928E-02 0.  1.
    10030    2    1    2    0    0  0.00000000000E+00  0.00000000000E+00 -0.11369742360E+04  0.34048801982E+04  0.32094390087E+04 0.  0.
        4    1    3    3  502    0  0.11796039706E+04 -0.10832552658E+04 -0.46126011990E+03  0.16666343359E+04  0.12699999809E+01 0.  1.
       -4    1    3    3    0  502 -0.11796039706E+04  0.10832552658E+04 -0.67571411614E+03  0.17382458624E+04  0.12699999809E+01 0. -1.
</event>
<event>
 5   0  0.1010551E-06  0.3092039E+04  0.7818609E-02  0.8217926E-01
       -1   -1    0    0    0  501  0.00000000000E+00  0.00000000000E+00  0.14751411933E+04  0.14751411933E+04  0.50400001928E-02 0.  1.
        1   -1    0    0  501    0  0.00000000000E+00  0.00000000000E+00 -0.16203034513E+04  0.16203034513E+04  0.50400001928E-02 0. -1.
    10030    2    1    2    0    0  0.00000000000E+00  0.00000000000E+00 -0.14516225802E+03  0.30954446446E+04  0.30920390467E+04 0.  0.
        2    1    3    3  502    0  0.32733937663E+02 -0.15381626496E+04  0.79772295035E+02  0.15405776405E+04  0.25500000920E-02 0.  1.
       -2    1    3    3    0  502 -0.32733937663E+02  0.15381626496E+04 -0.22493455306E+03  0.15548670041E+04  0.25500000920E-02 0. -1.
</event>
<event>
 5   0  0.2856440E-06  0.3367586E+04  0.7818609E-02  0.8145908E-01
        2   -1    0    0  501    0  0.00000000000E+00  0.00000000000E+00  0.16405628723E+04  0.16405628723E+04  0.25500000920E-02 0.  1.
       -2   -1    0    0    0  501  0.00000000000E+00  0.00000000000E+00 -0.17281619759E+04  0.17281619759E+04  0.25500000920E-02 0. -1.
    10030    2    1    2    0    0  0.00000000000E+00  0.00000000000E+00 -0.87599103548E+02  0.33687248482E+04  0.33675857079E+04 0.  0.
        4    1    3    3  502    0  0.40124748732E+03  0.42138713321E+03 -0.16243941898E+04  0.17254636359E+04  0.12699999809E+01 0. -1.
       -4    1    3    3    0  502 -0.40124748732E+03 -0.42138713321E+03  0.15367950862E+04  0.16432612123E+04  0.12699999809E+01 0.  1.
</event>
<event>
 5   0  0.2664083E-06  0.3472978E+04  0.7818609E-02  0.8120224E-01
        2   -1    0    0  501    0  0.00000000000E+00  0.00000000000E+00  0.26887009963E+04  0.26887009963E+04  0.25500000920E-02 0.  1.
       -2   -1    0    0    0  501  0.00000000000E+00  0.00000000000E+00 -0.11215055978E+04  0.11215055978E+04  0.25500000920E-02 0. -1.
    10030    2    1    2    0    0  0.00000000000E+00  0.00000000000E+00  0.15671953985E+04  0.38102065941E+04  0.34729775227E+04 0.  0.
        2    1    3    3  502    0  0.16474978637E+04 -0.29312046472E+03  0.12925678405E+04  0.21144503872E+04  0.25500000920E-02 0.  1.
       -2    1    3    3    0  502 -0.16474978637E+04  0.29312046472E+03  0.27462755799E+03  0.16957562069E+04  0.25500000920E-02 0. -1.
</event>
<event>
 5   0  0.2848685E-06  0.3401498E+04  0.7818609E-02  0.8137539E-01
        2   -1    0    0  501    0  0.00000000000E+00  0.00000000000E+00  0.11146045038E+04  0.11146045038E+04  0.25500000920E-02 0.  1.
       -2   -1    0    0    0  501  0.00000000000E+00  0.00000000000E+00 -0.25951330504E+04  0.25951330504E+04  0.25500000920E-02 0. -1.
    10030    2    1    2    0    0  0.00000000000E+00  0.00000000000E+00 -0.14805285466E+04  0.37097375542E+04  0.34014978970E+04 0.  0.
        3    1    3    3  502    0  0.50143208369E+02 -0.32248109612E+03  0.10801345348E+04  0.11283612109E+04  0.10100000352E+00 0.  1.
       -3    1    3    3    0  502 -0.50143208369E+02  0.32248109612E+03 -0.25606630815E+04  0.25813763433E+04  0.10100000352E+00 0. -1.
</event>
<event>
 5   0  0.1010551E-06  0.3247626E+04  0.7818609E-02  0.8176351E-01
       -1   -1    0    0    0  501  0.00000000000E+00  0.00000000000E+00  0.11326853412E+04  0.11326853412E+04  0.50400001928E-02 0.  1.
        1   -1    0    0  501    0  0.00000000000E+00  0.00000000000E+00 -0.23278921661E+04  0.23278921661E+04  0.50400001928E-02 0. -1.
    10030    2    1    2    0    0  0.00000000000E+00  0.00000000000E+00 -0.11952068249E+04  0.34605775073E+04  0.32476264147E+04 0.  0.
        2    1    3    3  502    0  0.21528658370E+03 -0.14352339996E+04  0.17852787508E+03  0.14622301970E+04  0.25500000920E-02 0.  1.
       -2    1    3    3    0  502 -0.21528658370E+03  0.14352339996E+04 -0.13737347000E+04  0.19983473103E+04  0.25500000920E-02 0. -1.
</event>
<event>
 5   0  0.2856440E-06  0.3425038E+04  0.7818609E-02  0.8131788E-01
       -2   -1    0    0    0  501  0.00000000000E+00  0.00000000000E+00  0.10430203974E+04  0.10430203974E+04  0.25500000920E-02 0.  1.
        2   -1    0    0  501    0  0.00000000000E+00  0.00000000000E+00 -0.28117585532E+04  0.28117585532E+04  0.25500000920E-02 0. -1.
    10030    2    1    2    0    0  0.00000000000E+00  0.00000000000E+00 -0.17687381558E+04  0.38547789506E+04  0.34250381157E+04 0.  0.
        4    1    3    3  502    0  0.35320252132E+03 -0.11935449629E+04  0.43939572550E+03  0.13199893242E+04  0.12699999809E+01 0.  1.
       -4    1    3    3    0  502 -0.35320252132E+03  0.11935449629E+04 -0.22081338813E+04  0.25347896264E+04  0.12699999809E+01 0. -1.
</event>
<event>
 5   0  0.2848685E-06  0.3213412E+04  0.7818609E-02  0.8185284E-01
        2   -1    0    0  501    0  0.00000000000E+00  0.00000000000E+00  0.16689902023E+04  0.16689902023E+04  0.25500000920E-02 0. -1.
       -2   -1    0    0    0  501  0.00000000000E+00  0.00000000000E+00 -0.15467456816E+04  0.15467456816E+04  0.25500000920E-02 0.  1.
    10030    2    1    2    0    0  0.00000000000E+00  0.00000000000E+00  0.12224452067E+03  0.32157358839E+04  0.32134115131E+04 0.  0.
        3    1    3    3  502    0  0.80008066114E+03 -0.79060985141E+03  0.12092578491E+04  0.16515137169E+04  0.10100000352E+00 0. -1.
       -3    1    3    3    0  502 -0.80008066114E+03  0.79060985141E+03 -0.10870133284E+04  0.15642221670E+04  0.10100000352E+00 0.  1.
</event>
<event>
 5   0  0.9232963E-07  0.3366336E+04  0.7818609E-02  0.8146218E-01
       -1   -1    0    0    0  501  0.00000000000E+00  0.00000000000E+00  0.13275190066E+04  0.13275190066E+04  0.50400001928E-02 0.  1.
        1   -1    0    0  501    0  0.00000000000E+00  0.00000000000E+00 -0.21340976925E+04  0.21340976925E+04  0.50400001928E-02 0. -1.
    10030    2    1    2    0    0  0.00000000000E+00  0.00000000000E+00 -0.80657868586E+03  0.34616166991E+04  0.33663364352E+04 0.  0.
        3    1    3    3  502    0 -0.95878217250E+03 -0.11948035315E+04  0.31375372281E+03  0.15637327592E+04  0.10100000352E+00 0.  1.
       -3    1    3    3    0  502  0.95878217250E+03  0.11948035315E+04 -0.11203324087E+04  0.18978839399E+04  0.10100000352E+00 0. -1.
</event>
<event>
 5   0  0.2767014E-06  0.3253057E+04  0.7818609E-02  0.8174944E-01
       -2   -1    0    0    0  501  0.00000000000E+00  0.00000000000E+00  0.19288510314E+04  0.19288510314E+04  0.25500000920E-02 0.  1.
        2   -1    0    0  501    0  0.00000000000E+00  0.00000000000E+00 -0.13715907596E+04  0.13715907596E+04  0.25500000920E-02 0. -1.
    10030    2    1    2    0    0  0.00000000000E+00  0.00000000000E+00  0.55726027177E+03  0.33004417911E+04  0.32530565636E+04 0.  0.
        1    1    3    3  502    0 -0.67629385070E+03  0.75539892720E+03  0.15690027516E+04  0.18680927563E+04  0.50400001928E-02 0.  1.
       -1    1    3    3    0  502  0.67629385070E+03 -0.75539892720E+03 -0.10117424798E+04  0.14323490347E+04  0.50400001928E-02 0. -1.
</event>
<event>
 5   0  0.1010551E-06  0.2370383E+04  0.7818609E-02  0.8450676E-01
        1   -1    0    0  501    0  0.00000000000E+00  0.00000000000E+00  0.88183007525E+03  0.88183007527E+03  0.50400001928E-02 0. -1.
       -1   -1    0    0    0  501  0.00000000000E+00  0.00000000000E+00 -0.15929136111E+04  0.15929136111E+04  0.50400001928E-02 0.  1.
    10030    2    1    2    0    0  0.00000000000E+00  0.00000000000E+00 -0.71108353585E+03  0.24747436864E+04  0.23703832007E+04 0.  0.
        2    1    3    3  502    0  0.14217918950E+03  0.88297420293E+03 -0.11674837749E+04  0.14706722033E+04  0.25500000920E-02 0.  1.
       -2    1    3    3    0  502 -0.14217918950E+03 -0.88297420293E+03  0.45640023901E+03  0.10040714831E+04  0.25500000920E-02 0. -1.
</event>
<event>
 5   0  0.1010855E-06  0.3410157E+04  0.7818609E-02  0.8135418E-01
        1   -1    0    0  501    0  0.00000000000E+00  0.00000000000E+00  0.28368486855E+04  0.28368486855E+04  0.50400001928E-02 0.  1.
       -1   -1    0    0    0  501  0.00000000000E+00  0.00000000000E+00 -0.10248318514E+04  0.10248318514E+04  0.50400001928E-02 0. -1.
    10030    2    1    2    0    0  0.00000000000E+00  0.00000000000E+00  0.18120168341E+04  0.38616805369E+04  0.34101571170E+04 0.  0.
        1    1    3    3  502    0 -0.38952054238E+03 -0.16257112648E+04  0.52596949892E+03  0.17525145601E+04  0.50400001928E-02 0. -1.
       -1    1    3    3    0  502  0.38952054238E+03  0.16257112648E+04  0.12860473351E+04  0.21091659768E+04  0.50400001928E-02 0.  1.
</event>
<event>
 5   0  0.2856440E-06  0.3412780E+04  0.7818609E-02  0.8134777E-01
       -2   -1    0    0    0  501  0.00000000000E+00  0.00000000000E+00  0.13443581285E+04  0.13443581285E+04  0.25500000920E-02 0.  1.
        2   -1    0    0  501    0  0.00000000000E+00  0.00000000000E+00 -0.21659160952E+04  0.21659160952E+04  0.25500000920E-02 0. -1.
    10030    2    1    2    0    0  0.00000000000E+00  0.00000000000E+00 -0.82155796676E+03  0.35102742237E+04  0.34127800446E+04 0.  0.
        4    1    3    3  502    0 -0.13040293752E+04  0.80927472803E+03  0.35641583347E+03  0.15755799110E+04  0.12699999809E+01 0.  1.
       -4    1    3    3    0  502  0.13040293752E+04 -0.80927472803E+03 -0.11779738002E+04  0.19346943127E+04  0.12699999809E+01 0. -1.
</event>
<event>
 5   0  0.2856440E-06  0.3413923E+04  0.7818609E-02  0.8134498E-01
        2   -1    0    0  501    0  0.00000000000E+00  0.00000000000E+00  0.19087178720E+04  0.19087178720E+04  0.25500000920E-02 0. -1.
       -2   -1    0    0    0  501  0.00000000000E+00  0.00000000000E+00 -0.15265311527E+04  0.15265311527E+04  0.25500000920E-02 0.  1.
    10030    2    1    2    0    0  0.00000000000E+00  0.00000000000E+00  0.38218671932E+03  0.34352490247E+04  0.34139228423E+04 0.  0.
        4    1    3    3  502    0  0.57052169711E+03  0.29085338823E+03 -0.14010756321E+04  0.15404886368E+04  0.12699999809E+01 0.  1.
       -4    1    3    3    0  502 -0.57052169711E+03 -0.29085338823E+03  0.17832623514E+04  0.18947603878E+04  0.12699999809E+01 0. -1.
</event>
<event>
 5   0  0.2856440E-06  0.3474147E+04  0.7818609E-02  0.8119944E-01
       -2   -1    0    0    0  501  0.00000000000E+00  0.00000000000E+00  0.12029930092E+04  0.12029930092E+04  0.25500000920E-02 0.  1.
        2   -1    0    0  501    0  0.00000000000E+00  0.00000000000E+00 -0.25082638206E+04  0.25082638206E+04  0.25500000920E-02 0. -1.
    10030    2    1    2    0    0  0.00000000000E+00  0.00000000000E+00 -0.13052708114E+04  0.37112568298E+04  0.34741467104E+04 0.  0.
        4    1    3    3  502    0  0.13860873599E+04  0.56101490096E+03 -0.15969624690E+04  0.21877537861E+04  0.12699999809E+01 0. -1.
       -4    1    3    3    0  502 -0.13860873599E+04 -0.56101490096E+03  0.29169165754E+03  0.15235030437E+04  0.12699999809E+01 0.  1.
</event>
<event>
 5   0  0.9232963E-07  0.2126160E+04  0.7818609E-02  0.8549806E-01
       -1   -1    0    0    0  501  0.00000000000E+00  0.00000000000E+00  0.74983043389E+03  0.74983043391E+03  0.50400001928E-02 0.  1.
        1   -1    0    0  501    0  0.00000000000E+00  0.00000000000E+00 -0.15071930407E+04  0.15071930407E+04  0.50400001928E-02 0. -1.
    10030    2    1    2    0    0  0.00000000000E+00  0.00000000000E+00 -0.75736260682E+03  0.22570234746E+04  0.21261601179E+04 0.  0.
        3    1    3    3  502    0 -0.10051358026E+04 -0.34545001055E+03 -0.40254869589E+03  0.11365206352E+04  0.10100000352E+00 0.  1.
       -3    1    3    3    0  502  0.10051358026E+04  0.34545001055E+03 -0.35481391093E+03  0.11205028394E+04  0.10100000352E+00 0. -1.
</event>
<event>
 5   0  0.2848685E-06  0.3418591E+04  0.7818609E-02  0.8133358E-01
       -2   -1    0    0    0  501  0.00000000000E+00  0.00000000000E+00  0.10966352683E+04  0.10966352683E+04  0.25500000920E-02 0.  1.
        2   -1    0    0  501    0  0.00000000000E+00  0.00000000000E+00 -0.26642327700E+04  0.26642327700E+04  0.25500000920E-02 0. -1.
    10030    2    1    2    0    0  0.00000000000E+00  0.00000000000E+00 -0.15675975017E+04  0.37608680383E+04  0.34185912997E+04 0.  0.
        3    1    3    3  502    0 -0.47202307901E+03  0.48268751896E+03  0.94374286190E+03  0.11603635756E+04  0.10100000352E+00 0.  1.
       -3    1    3    3    0  502  0.47202307901E+03 -0.48268751896E+03 -0.25113403636E+04  0.26005044627E+04  0.10100000352E+00 0. -1.
</event>
<event>
 5   0  0.2767014E-06  0.3379382E+04  0.7818609E-02  0.8142985E-01
       -2   -1    0    0    0  501  0.00000000000E+00  0.00000000000E+00  0.11881605582E+04  0.11881605582E+04  0.25500000920E-02 0.  1.
        2   -1    0    0  501    0  0.00000000000E+00  0.00000000000E+00 -0.24029203510E+04  0.24029203510E+04  0.25500000920E-02 0. -1.
    10030    2    1    2    0    0  0.00000000000E+00  0.00000000000E+00 -0.12147597927E+04  0.35910809092E+04  0.33793817101E+04 0.  0.
        1    1    3    3  502    0  0.62012989852E+03 -0.12073097384E+04 -0.16768549174E+04  0.21573132154E+04  0.50400001928E-02 0. -1.
       -1    1    3    3    0  502 -0.62012989852E+03  0.12073097384E+04  0.46209512468E+03  0.14337676938E+04  0.50400001928E-02 0.  1.
</event>
<event>
 5   0  0.1010551E-06  0.3422577E+04  0.7818609E-02  0.8132387E-01
        1   -1    0    0  501    0  0.00000000000E+00  0.00000000000E+00  0.22178070793E+04  0.22178070793E+04  0.50400001928E-02 0. -1.
       -1   -1    0    0    0  501  0.00000000000E+00  0.00000000000E+00 -0.13204524571E+04  0.13204524571E+04  0.50400001928E-02 0.  1.
    10030    2    1    2    0    0  0.00000000000E+00  0.00000000000E+00  0.89735462227E+03  0.35382595364E+04  0.34225772787E+04 0.  0.
        2    1    3    3  502    0  0.12465661207E+04  0.27660754679E+03  0.16265150786E+04  0.20678467374E+04  0.25500000920E-02 0. -1.
       -2    1    3    3    0  502 -0.12465661207E+04 -0.27660754679E+03 -0.72916045637E+03  0.14704127990E+04  0.25500000920E-02 0.  1.
</event>
<event>
 5   0  0.1010855E-06  0.3381796E+04  0.7818609E-02  0.8142389E-01
        1   -1    0    0  501    0  0.00000000000E+00  0.00000000000E+00  0.13514519851E+04  0.13514519851E+04  0.50400001928E-02 0. -1.
       -1   -1    0    0    0  501  0.00000000000E+00  0.00000000000E+00 -0.21156025032E+04  0.21156025032E+04  0.50400001928E-02 0.  1.
    10030    2    1    2    0    0  0.00000000000E+00  0.00000000000E+00 -0.76415051809E+03  0.34670544883E+04  0.33817955009E+04 0.  0.
        1    1    3    3  502    0 -0.16898208845E+04  0.59630284758E+01 -0.44363082768E+03  0.17470942993E+04  0.50400001928E-02 0. -1.
       -1    1    3    3    0  502  0.16898208845E+04 -0.59630284758E+01 -0.32051969040E+03  0.17199601889E+04  0.50400001928E-02 0.  1.
</event>
<event>
 5   0  0.1010551E-06  0.3392586E+04  0.7818609E-02  0.8139728E-01
       -1   -1    0    0    0  501  0.00000000000E+00  0.00000000000E+00  0.12111618032E+04  0.12111618033E+04  0.50400001928E-02 0.  1.
        1   -1    0    0  501    0  0.00000000000E+00  0.00000000000E+00 -0.23757431021E+04  0.23757431021E+04  0.50400001928E-02 0. -1.
    10030    2    1    2    0    0  0.00000000000E+00  0.00000000000E+00 -0.11645812989E+04  0.35869049054E+04  0.33925856214E+04 0.  0.
        2    1    3    3  502    0 -0.10806007270E+04  0.12633987544E+04 -0.22604149397E+03  0.16777869653E+04  0.25500000920E-02 0.  1.
       -2    1    3    3    0  502  0.10806007270E+04 -0.12633987544E+04 -0.93853980490E+03  0.19091179401E+04  0.25500000920E-02 0. -1.
</event>
<event>
 5   0  0.2848685E-06  0.3430892E+04  0.7818609E-02  0.8130366E-01
       -2   -1    0    0    0  501  0.00000000000E+00  0.00000000000E+00  0.15487616727E+04  0.15487616727E+04  0.25500000920E-02 0.  1.
        2   -1    0    0  501    0  0.00000000000E+00  0.00000000000E+00 -0.19000693798E+04  0.19000693798E+04  0.25500000920E-02 0. -1.
    10030    2    1    2    0    0  0.00000000000E+00  0.00000000000E+00 -0.35130770710E+03  0.34488310525E+04  0.34308917971E+04 0.  0.
        3    1    3    3  502    0 -0.27073159062E+03  0.60300959490E+03 -0.17669149070E+04  0.18865058878E+04  0.10100000352E+00 0. -1.
       -3    1    3    3    0  502  0.27073159062E+03 -0.60300959490E+03  0.14156071999E+04  0.15623251647E+04  0.10100000352E+00 0.  1.
</event>
<event>
 5   0  0.1010551E-06  0.3517865E+04  0.7818609E-02  0.8109569E-01
       -1   -1    0    0    0  501  0.00000000000E+00  0.00000000000E+00  0.28937930307E+04  0.28937930307E+04  0.50400001928E-02 0. -1.
        1   -1    0    0  501    0  0.00000000000E+00  0.00000000000E+00 -0.10691307196E+04  0.10691307196E+04  0.50400001928E-02 0.  1.
    10030    2    1    2    0    0  0.00000000000E+00  0.00000000000E+00  0.18246623111E+04  0.39629237504E+04  0.35178647077E+04 0.  0.
        2    1    3    3  502    0  0.12219391511E+04  0.12357660588E+04  0.12179259403E+04  0.21221679097E+04  0.25500000920E-02 0.  1.
       -2    1    3    3    0  502 -0.12219391511E+04 -0.12357660588E+04  0.60673637085E+03  0.18407558406E+04  0.25500000920E-02 0. -1.
</event>
<event>
 5   0  0.2664083E-06  0.3506815E+04  0.7818609E-02  0.8112177E-01
        2   -1    0    0  501    0  0.00000000000E+00  0.00000000000E+00  0.27130632281E+04  0.27130632281E+04  0.25500000920E-02 0. -1.
       -2   -1    0    0    0  501  0.00000000000E+00  0.00000000000E+00 -0.11331981773E+04  0.11331981773E+04  0.25500000920E-02 0.  1.
    10030    2    1    2    0    0  0.00000000000E+00  0.00000000000E+00  0.15798650509E+04  0.38462614054E+04  0.35068152532E+04 0.  0.
        2    1    3    3  502    0 -0.17418815470E+04  0.19812654355E+03  0.82518140935E+03  0.19376093026E+04  0.25500000920E-02 0. -1.
       -2    1    3    3    0  502  0.17418815470E+04 -0.19812654355E+03  0.75468364151E+03  0.19086521029E+04  0.25500000920E-02 0.  1.
</event>
<event>
 5   0  0.9232963E-07  0.3311275E+04  0.7818609E-02  0.8160032E-01
        1   -1    0    0  501    0  0.00000000000E+00  0.00000000000E+00  0.95930923183E+03  0.95930923184E+03  0.50400001928E-02 0.  1.
       -1   -1    0    0    0  501  0.00000000000E+00  0.00000000000E+00 -0.28574054708E+04  0.28574054708E+04  0.50400001928E-02 0. -1.
    10030    2    1    2    0    0  0.00000000000E+00  0.00000000000E+00 -0.18980962389E+04  0.38167147026E+04  0.33112749492E+04 0.  0.
        3    1    3    3  502    0 -0.13503030172E+04  0.91467875603E+03 -0.62063620635E+03  0.17450343194E+04  0.10100000352E+00 0. -1.
       -3    1    3    3    0  502  0.13503030172E+04 -0.91467875603E+03 -0.12774600326E+04  0.20716803832E+04  0.10100000352E+00 0.  1.
</event>
<event>
 5   0  0.1010855E-06  0.3371486E+04  0.7818609E-02  0.8144940E-01
       -1   -1    0    0    0  501  0.00000000000E+00  0.00000000000E+00  0.11342069598E+04  0.11342069598E+04  0.50400001928E-02 0. -1.
        1   -1    0    0  501    0  0.00000000000E+00  0.00000000000E+00 -0.25054764349E+04  0.25054764349E+04  0.50400001928E-02 0.  1.
    10030    2    1    2    0    0  0.00000000000E+00  0.00000000000E+00 -0.13712694751E+04  0.36396833947E+04  0.33714856133E+04 0.  0.
        1    1    3    3  502    0 -0.12259198830E+04 -0.86954227701E+03  0.13846875165E+03  0.15093564610E+04  0.50400001928E-02 0.  1.
       -1    1    3    3    0  502  0.12259198830E+04  0.86954227701E+03 -0.15097382268E+04  0.21303269337E+04  0.50400001928E-02 0. -1.
</event>
<event>
 5   0  0.2856440E-06  0.3394558E+04  0.7818609E-02  0.8139243E-01
       -2   -1    0    0    0  501  0.00000000000E+00  0.00000000000E+00  0.19072617408E+04  0.19072617408E+04  0.25500000920E-02 0.  1.
        2   -1    0    0  501    0  0.00000000000E+00  0.00000000000E+00 -0.15104142597E+04  0.15104142597E+04  0.25500000920E-02 0. -1.
    10030    2    1    2    0    0  0.00000000000E+00  0.00000000000E+00  0.39684748105E+03  0.34176760005E+04  0.33945576032E+04 0.  0.
        4    1    3    3  502    0  0.13558315794E+03 -0.13772754246E+04 -0.79085823335E+03  0.15939663567E+04  0.12699999809E+01 0. -1.
       -4    1    3    3    0  502 -0.13558315794E+03  0.13772754246E+04  0.11877057144E+04  0.18237096438E+04  0.12699999809E+01 0.  1.
</event>
<event>
 5   0  0.2906701E-06  0.3191509E+04  0.7818609E-02  0.8191063E-01
        2   -1    0    0  501    0  0.00000000000E+00  0.00000000000E+00  0.26891850899E+04  0.26891850899E+04  0.25500000920E-02 0.  1.
       -2   -1    0    0    0  501  0.00000000000E+00  0.00000000000E+00 -0.94691590322E+03  0.94691590322E+03  0.25500000920E-02 0. -1.
    10030    2    1    2    0    0  0.00000000000E+00  0.00000000000E+00  0.17422691867E+04  0.36361009932E+04  0.31915088146E+04 0.  0.
        5    1    3    3  502    0  0.54896891671E+03  0.91544737500E+03  0.22225436504E+04  0.24655898150E+04  0.46999998093E+01 0.  1.
       -5    1    3    3    0  502 -0.54896891671E+03 -0.91544737500E+03 -0.48027446363E+03  0.11705111782E+04  0.46999998093E+01 0. -1.
</event>
<event>
 5   0  0.1010551E-06  0.2751148E+04  0.7818609E-02  0.8318597E-01
        1   -1    0    0  501    0  0.00000000000E+00  0.00000000000E+00  0.12374835132E+04  0.12374835132E+04  0.50400001928E-02 0.  1.
       -1   -1    0    0    0  501  0.00000000000E+00  0.00000000000E+00 -0.15290743920E+04  0.15290743920E+04  0.50400001928E-02 0. -1.
    10030    2    1    2    0    0  0.00000000000E+00  0.00000000000E+00 -0.29159087883E+03  0.27665579052E+04  0.27511483788E+04 0.  0.
        2    1    3    3  502    0 -0.88051217197E+03  0.10557525049E+04 -0.97680667514E+02  0.13782077309E+04  0.25500000920E-02 0.  1.
       -2    1    3    3    0  502  0.88051217197E+03 -0.10557525049E+04 -0.19391021131E+03  0.13883501744E+04  0.25500000920E-02 0. -1.
</event>
<event>
 5   0  0.9714317E-07  0.2528496E+04  0.7818609E-02  0.8392903E-01
       -1   -1    0    0    0  501  0.00000000000E+00  0.00000000000E+00  0.13637358877E+04  0.13637358877E+04  0.50400001928E-02 0. -1.
        1   -1    0    0  501    0  0.00000000000E+00  0.00000000000E+00 -0.11720184373E+04  0.11720184373E+04  0.50400001928E-02 0.  1.
    10030    2    1    2    0    0  0.00000000000E+00  0.00000000000E+00  0.19171745047E+03  0.25357543250E+04  0.25284964734E+04 0.  0.
        4    1    3    3  502    0 -0.11670003787E+04 -0.31325814005E+03 -0.27709777551E+03  0.12396795296E+04  0.12699999809E+01 0. -1.
       -4    1    3    3    0  502  0.11670003787E+04  0.31325814005E+03  0.46881522598E+03  0.12960747953E+04  0.12699999809E+01 0.  1.
</event>
<event>
 5   0  0.1010855E-06  0.3338664E+04  0.7818609E-02  0.8153126E-01
       -1   -1    0    0    0  501  0.00000000000E+00  0.00000000000E+00  0.92523310331E+03  0.92523310332E+03  0.50400001928E-02 0. -1.
        1   -1    0    0  501    0  0.00000000000E+00  0.00000000000E+00 -0.30118567047E+04  0.30118567047E+04  0.50400001928E-02 0.  1.
    10030    2    1    2    0    0  0.00000000000E+00  0.00000000000E+00 -0.20866236014E+04  0.39370898080E+04  0.33386641195E+04 0.  0.
        1    1    3    3  502    0 -0.13079102605E+04  0.76601751978E+03 -0.18681548308E+04  0.24057045875E+04  0.50400001928E-02 0.  1.
       -1    1    3    3    0  502  0.13079102605E+04 -0.76601751978E+03 -0.21846877052E+03  0.15313852206E+04  0.50400001928E-02 0. -1.
</event>
<event>
 5   0  0.1003191E-06  0.3418294E+04  0.7818609E-02  0.8133431E-01
        1   -1    0    0  501    0  0.00000000000E+00  0.00000000000E+00  0.24498556775E+04  0.24498556775E+04  0.50400001928E-02 0. -1.
       -1   -1    0    0    0  501  0.00000000000E+00  0.00000000000E+00 -0.11923899592E+04  0.11923899593E+04  0.50400001928E-02 0.  1.
    10030    2    1    2    0    0  0.00000000000E+00  0.00000000000E+00  0.12574657182E+04  0.36422456367E+04  0.34182939086E+04 0.  0.
        5    1    3    3  502    0  0.71773036663E+03 -0.75071406150E+03  0.20750316029E+04  0.23204496815E+04  0.46999998093E+01 0. -1.
       -5    1    3    3    0  502 -0.71773036663E+03  0.75071406150E+03 -0.81756588472E+03  0.13217959552E+04  0.46999998093E+01 0.  1.
</event>
<event>
 5   0  0.9232963E-07  0.2536736E+04  0.7818609E-02  0.8390014E-01
       -1   -1    0    0    0  501  0.00000000000E+00  0.00000000000E+00  0.14222324326E+04  0.14222324326E+04  0.50400001928E-02 0. -1.
        1   -1    0    0  501    0  0.00000000000E+00  0.00000000000E+00 -0.11311491044E+04  0.11311491044E+04  0.50400001928E-02 0.  1.
    10030    2    1    2    0    0  0.00000000000E+00  0.00000000000E+00  0.29108332818E+03  0.25533815370E+04  0.25367356523E+04 0.  0.
        3    1    3    3  502    0  0.34188884463E+03 -0.11061486155E+03  0.13699253939E+04  0.14162694746E+04  0.10100000352E+00 0. -1.
       -3    1    3    3    0  502 -0.34188884463E+03  0.11061486155E+03 -0.10788420657E+04  0.11371120624E+04  0.10100000352E+00 0.  1.
</event>
<event>
 5   0  0.2767014E-06  0.3434650E+04  0.7818609E-02  0.8129454E-01
       -2   -1    0    0    0  501  0.00000000000E+00  0.00000000000E+00  0.22175148996E+04  0.22175148996E+04  0.25500000920E-02 0. -1.
        2   -1    0    0  501    0  0.00000000000E+00  0.00000000000E+00 -0.13299591808E+04  0.13299591808E+04  0.25500000920E-02 0.  1.
    10030    2    1    2    0    0  0.00000000000E+00  0.00000000000E+00  0.88755571884E+03  0.35474740804E+04  0.34346495013E+04 0.  0.
        1    1    3    3  502    0  0.16314727153E+04 -0.51374196039E+03  0.28520854575E+03  0.17340639945E+04  0.50400001928E-02 0.  1.
       -1    1    3    3    0  502 -0.16314727153E+04  0.51374196039E+03  0.60234717309E+03  0.18134100859E+04  0.50400001928E-02 0. -1.
</event>
<event>
 5   0  0.1003191E-06  0.3396314E+04  0.7818609E-02  0.8138812E-01
        1   -1    0    0  501    0  0.00000000000E+00  0.00000000000E+00  0.20513334444E+04  0.20513334444E+04  0.50400001928E-02 0. -1.
       -1   -1    0    0    0  501  0.00000000000E+00  0.00000000000E+00 -0.14057867419E+04  0.14057867419E+04  0.50400001928E-02 0.  1.
    10030    2    1    2    0    0  0.00000000000E+00  0.00000000000E+00  0.64554670256E+03  0.34571201863E+04  0.33963140958E+04 0.  0.
        5    1    3    3  502    0  0.14604710175E+04 -0.84493612179E+03  0.12744557262E+03  0.16920866133E+04  0.46999998093E+01 0. -1.
       -5    1    3    3    0  502 -0.14604710175E+04  0.84493612179E+03  0.51810112994E+03  0.17650335730E+04  0.46999998093E+01 0.  1.
</event>
<event>
 5   0  0.1010855E-06  0.2809690E+04  0.7818609E-02  0.8300266E-01
       -1   -1    0    0    0  501  0.00000000000E+00  0.00000000000E+00  0.15628990430E+04  0.15628990430E+04  0.50400001928E-02 0. -1.
        1   -1    0    0  501    0  0.00000000000E+00  0.00000000000E+00 -0.12627751036E+04  0.12627751036E+04  0.50400001928E-02 0.  1.
    10030    2    1    2    0    0  0.00000000000E+00  0.00000000000E+00  0.30012393940E+03  0.28256741467E+04  0.28096903752E+04 0.  0.
        1    1    3    3  502    0 -0.84500058767E+03  0.10786623506E+04  0.46174688433E+03  0.14459421306E+04  0.50400001928E-02 0. -1.
       -1    1    3    3    0  502  0.84500058767E+03 -0.10786623506E+04 -0.16162294492E+03  0.13797320161E+04  0.50400001928E-02 0.  1.
</event>
<event>
 5   0  0.9232963E-07  0.3216439E+04  0.7818609E-02  0.8184489E-01
       -1   -1    0    0    0  501  0.00000000000E+00  0.00000000000E+00  0.28892512191E+04  0.28892512192E+04  0.50400001928E-02 0. -1.
        1   -1    0    0  501    0  0.00000000000E+00  0.00000000000E+00 -0.89516963017E+03  0.89516963019E+03  0.50400001928E-02 0.  1.
    10030    2    1    2    0    0  0.00000000000E+00  0.00000000000E+00  0.19940815890E+04  0.37844208493E+04  0.32164389908E+04 0.  0.
        3    1    3    3  502    0  0.73711020208E+03 -0.11385617804E+04 -0.19680004979E+02  0.13564813639E+04  0.10100000352E+00 0.  1.
       -3    1    3    3    0  502 -0.73711020208E+03  0.11385617804E+04  0.20137615940E+04  0.24279394855E+04  0.10100000352E+00 0. -1.
</event>
<event>
 5   0  0.9714317E-07  0.3017899E+04  0.7818609E-02  0.8238638E-01
        1   -1    0    0  501    0  0.00000000000E+00  0.00000000000E+00  0.12526365615E+04  0.12526365616E+04  0.50400001928E-02 0. -1.
       -1   -1    0    0    0  501  0.00000000000E+00  0.00000000000E+00 -0.18177094539E+04  0.18177094539E+04  0.50400001928E-02 0.  1.
    10030    2    1    2    0    0  0.00000000000E+00  0.00000000000E+00 -0.56507289235E+03  0.30703460155E+04  0.30178994816E+04 0.  0.
        4    1    3    3  502    0  0.14146417618E+04  0.46622795186E+03 -0.36785539611E+02  0.14899444977E+04  0.12699999809E+01 0. -1.
       -4    1    3    3    0  502 -0.14146417618E+04 -0.46622795186E+03 -0.52828735274E+03  0.15804015178E+04  0.12699999809E+01 0.  1.
</event>
<event>
 5   0  0.9232963E-07  0.3321464E+04  0.7818609E-02  0.8157455E-01
       -1   -1    0    0    0  501  0.00000000000E+00  0.00000000000E+00  0.11344733669E+04  0.11344733669E+04  0.50400001928E-02 0. -1.
        1   -1    0    0  501    0  0.00000000000E+00  0.00000000000E+00 -0.24311107003E+04  0.24311107004E+04  0.50400001928E-02 0.  1.
    10030    2    1    2    0    0  0.00000000000E+00  0.00000000000E+00 -0.12966373334E+04  0.35655840673E+04  0.33214637386E+04 0.  0.
        3    1    3    3  502    0  0.11189079815E+04  0.51049977800E+03 -0.18463466713E+04  0.22184591804E+04  0.10100000352E+00 0. -1.
       -3    1    3    3    0  502 -0.11189079815E+04 -0.51049977800E+03  0.54970933789E+03  0.13471248869E+04  0.10100000352E+00 0.  1.
</event>
<event>
 5   0  0.2767014E-06  0.3363382E+04  0.7818609E-02  0.8146953E-01
        2   -1    0    0  501    0  0.00000000000E+00  0.00000000000E+00  0.20134923696E+04  0.20134923696E+04  0.25500000920E-02 0.  1.
       -2   -1    0    0    0  501  0.00000000000E+00  0.00000000000E+00 -0.14045664813E+04  0.14045664813E+04  0.25500000920E-02 0. -1.
    10030    2    1    2    0    0  0.00000000000E+00  0.00000000000E+00  0.60892588832E+03  0.34180588508E+04  0.33633815678E+04 0.  0.
        1    1    3    3  502    0  0.67504507937E+03  0.14005707954E+04 -0.34689293732E+03  0.15929906221E+04  0.50400001928E-02 0. -1.
       -1    1    3    3    0  502 -0.67504507937E+03 -0.14005707954E+04  0.95581882564E+03  0.18250682287E+04  0.50400001928E-02 0.  1.
</event>
<event>
 5   0  0.2848685E-06  0.3374346E+04  0.7818609E-02  0.8144231E-01
        2   -1    0    0  501    0  0.00000000000E+00  0.00000000000E+00  0.21184027441E+04  0.21184027441E+04  0.25500000920E-02 0. -1.
       -2   -1    0    0    0  501  0.00000000000E+00  0.00000000000E+00 -0.13437261386E+04  0.13437261386E+04  0.25500000920E-02 0.  1.
    10030    2    1    2    0    0  0.00000000000E+00  0.00000000000E+00  0.77467660550E+03  0.34621288827E+04  0.33743462415E+04 0.  0.
        3    1    3    3  502    0 -0.92815698719E+03  0.52559782026E+03  0.17285654645E+04  0.20311738076E+04  0.10100000352E+00 0. -1.
       -3    1    3    3    0  502  0.92815698719E+03 -0.52559782026E+03 -0.95388885897E+03  0.14309550751E+04  0.10100000352E+00 0.  1.
</event>
<event>
 5   0  0.9232963E-07  0.2083352E+04  0.7818609E-02  0.8568613E-01
        1   -1    0    0  501    0  0.00000000000E+00  0.00000000000E+00  0.19879755589E+04  0.19879755590E+04  0.50400001928E-02 0.  1.
       -1   -1    0    0    0  501  0.00000000000E+00  0.00000000000E+00 -0.54582602900E+03  0.54582602903E+03  0.50400001928E-02 0. -1.
    10030    2    1    2    0    0  0.00000000000E+00  0.00000000000E+00  0.14421495299E+04  0.25338015880E+04  0.20833519195E+04 0.  0.
        3    1    3    3  502    0 -0.64596609928E+03 -0.61296582623E+03  0.13783812720E+04  0.16410162238E+04  0.10100000352E+00 0.  1.
       -3    1    3    3    0  502  0.64596609928E+03  0.61296582623E+03  0.63768257922E+02  0.89278536417E+03  0.10100000352E+00 0. -1.
</event>
<event>
 5   0  0.9070500E-07  0.2111171E+04  0.7818609E-02  0.8556338E-01
       -4   -1    0    0    0  501  0.00000000000E+00  0.00000000000E+00  0.18889082801E+04  0.18889087071E+04  0.12699999809E+01 0.  1.
        4   -1    0    0  501    0  0.00000000000E+00  0.00000000000E+00 -0.58989573623E+03  0.58989710333E+03  0.12699999809E+01 0. -1.
    10030    2    1    2    0    0  0.00000000000E+00  0.00000000000E+00  0.12990125439E+04  0.24788058104E+04  0.21111713944E+04 0.  0.
        3    1    3    3  502    0 -0.53255739354E+03 -0.72373932992E+03  0.12999034535E+04  0.15802420681E+04  0.10100000352E+00 0.  1.
       -3    1    3    3    0  502  0.53255739354E+03  0.72373932992E+03 -0.89090961553E+00  0.89856374232E+03  0.10100000352E+00 0. -1.
</event>
<event>
 5   0  0.9714317E-07  0.2522641E+04  0.7818609E-02  0.8394964E-01
        1   -1    0    0  501    0  0.00000000000E+00  0.00000000000E+00  0.10485390454E+04  0.10485390454E+04  0.50400001928E-02 0.  1.
       -1   -1    0    0    0  501  0.00000000000E+00  0.00000000000E+00 -0.15172814155E+04  0.15172814155E+04  0.50400001928E-02 0. -1.
    10030    2    1    2    0    0  0.00000000000E+00  0.00000000000E+00 -0.46874237015E+03  0.25658204609E+04  0.25226405269E+04 0.  0.
        4    1    3    3  502    0 -0.60215125910E+03 -0.72952604346E+02 -0.13592027441E+04  0.14884024771E+04  0.12699999809E+01 0. -1.
       -4    1    3    3    0  502  0.60215125910E+03  0.72952604346E+02  0.89046037395E+03  0.10774179838E+04  0.12699999809E+01 0.  1.
</event>
<event>
 5   0  0.1010551E-06  0.2673770E+04  0.7818609E-02  0.8343566E-01
        1   -1    0    0  501    0  0.00000000000E+00  0.00000000000E+00  0.15429146142E+04  0.15429146142E+04  0.50400001928E-02 0. -1.
       -1   -1    0    0    0  501  0.00000000000E+00  0.00000000000E+00 -0.11583668547E+04  0.11583668547E+04  0.50400001928E-02 0.  1.
    10030    2    1    2    0    0  0.00000000000E+00  0.00000000000E+00  0.38454775953E+03  0.27012814690E+04  0.26737697349E+04 0.  0.
        2    1    3    3  502    0 -0.11521603685E+04 -0.48880578980E+03  0.66706322277E+03  0.14182305729E+04  0.25500000920E-02 0. -1.
       -2    1    3    3    0  502  0.11521603685E+04  0.48880578980E+03 -0.28251546324E+03  0.12830508960E+04  0.25500000920E-02 0.  1.
</event>
<event>
 5   0  0.1010855E-06  0.2281333E+04  0.7818609E-02  0.8485318E-01
       -1   -1    0    0    0  501  0.00000000000E+00  0.00000000000E+00  0.87007466526E+03  0.87007466528E+03  0.50400001928E-02 0. -1.
        1   -1    0    0  501    0  0.00000000000E+00  0.00000000000E+00 -0.14954114381E+04  0.14954114381E+04  0.50400001928E-02 0.  1.
    10030    2    1    2    0    0  0.00000000000E+00  0.00000000000E+00 -0.62533677280E+03  0.23654861033E+04  0.22813325987E+04 0.  0.
        1    1    3    3  502    0 -0.95468792608E+03 -0.36095494395E+03  0.21543449540E+03  0.10431344734E+04  0.50400001928E-02 0. -1.
       -1    1    3    3    0  502  0.95468792608E+03  0.36095494395E+03 -0.84077126820E+03  0.13223516299E+04  0.50400001928E-02 0.  1.
</event>
<event>
 5   0  0.1003191E-06  0.2826476E+04  0.7818609E-02  0.8295096E-01
        1   -1    0    0  501    0  0.00000000000E+00  0.00000000000E+00  0.22623853618E+04  0.22623853618E+04  0.50400001928E-02 0.  1.
       -1   -1    0    0    0  501  0.00000000000E+00  0.00000000000E+00 -0.88280316774E+03  0.88280316776E+03  0.50400001928E-02 0. -1.
    10030    2    1    2    0    0  0.00000000000E+00  0.00000000000E+00  0.13795821940E+04  0.31451885296E+04  0.28264755184E+04 0.  0.
        5    1    3    3  502    0 -0.49260682970E+02  0.12728610484E+04  0.87156846361E+01  0.12738523919E+04  0.46999998093E+01 0. -1.
       -5    1    3    3    0  502  0.49260682970E+02 -0.12728610484E+04  0.13708665094E+04  0.18713361376E+04  0.46999998093E+01 0.  1.
</event>
<event>
 5   0  0.2906701E-06  0.3399236E+04  0.7818609E-02  0.8138094E-01
        2   -1    0    0  501    0  0.00000000000E+00  0.00000000000E+00  0.16767000002E+04  0.16767000002E+04  0.25500000920E-02 0. -1.
       -2   -1    0    0    0  501  0.00000000000E+00  0.00000000000E+00 -0.17228492011E+04  0.17228492011E+04  0.25500000920E-02 0.  1.
    10030    2    1    2    0    0  0.00000000000E+00  0.00000000000E+00 -0.46149200921E+02  0.33995492012E+04  0.33992359469E+04 0.  0.
        5    1    3    3  502    0  0.61635946530E+03  0.26804029587E+03 -0.15842868679E+04  0.17209682043E+04  0.46999998093E+01 0.  1.
       -5    1    3    3    0  502 -0.61635946530E+03 -0.26804029587E+03  0.15381376669E+04  0.16785809969E+04  0.46999998093E+01 0. -1.
</event>
<event>
 5   0  0.2856440E-06  0.3401576E+04  0.7818609E-02  0.8137520E-01
       -2   -1    0    0    0  501  0.00000000000E+00  0.00000000000E+00  0.10975801450E+04  0.10975801450E+04  0.25500000920E-02 0. -1.
        2   -1    0    0  501    0  0.00000000000E+00  0.00000000000E+00 -0.26355062234E+04  0.26355062234E+04  0.25500000920E-02 0.  1.
    10030    2    1    2    0    0  0.00000000000E+00  0.00000000000E+00 -0.15379260785E+04  0.37330863684E+04  0.34015756954E+04 0.  0.
        4    1    3    3  502    0  0.10096719013E+03  0.72743129876E+03 -0.24525247456E+04  0.25601230260E+04  0.12699999809E+01 0.  1.
       -4    1    3    3    0  502 -0.10096719013E+03 -0.72743129876E+03  0.91459866710E+03  0.11729633424E+04  0.12699999809E+01 0. -1.
</event>
<event>
 5   0  0.1003191E-06  0.3135323E+04  0.7818609E-02  0.8206110E-01
       -1   -1    0    0    0  501  0.00000000000E+00  0.00000000000E+00  0.12511751305E+04  0.12511751306E+04  0.50400001928E-02 0. -1.
        1   -1    0    0  501    0  0.00000000000E+00  0.00000000000E+00 -0.19642035841E+04  0.19642035841E+04  0.50400001928E-02 0.  1.
    10030    2    1    2    0    0  0.00000000000E+00  0.00000000000E+00 -0.71302845358E+03  0.32153787147E+04  0.31353230620E+04 0.  0.
        5    1    3    3  502    0  0.42446070921E+03 -0.13677049681E+04  0.29754526592E+03  0.14626479579E+04  0.46999998093E+01 0. -1.
       -5    1    3    3    0  502 -0.42446070921E+03  0.13677049681E+04 -0.10105737195E+04  0.17527307568E+04  0.46999998093E+01 0.  1.
</event>
<event>
 5   0  0.2767014E-06  0.3372936E+04  0.7818609E-02  0.8144581E-01
       -2   -1    0    0    0  501  0.00000000000E+00  0.00000000000E+00  0.23577686818E+04  0.23577686818E+04  0.25500000920E-02 0. -1.
        2   -1    0    0  501    0  0.00000000000E+00  0.00000000000E+00 -0.12062992815E+04  0.12062992815E+04  0.25500000920E-02 0.  1.
    10030    2    1    2    0    0  0.00000000000E+00  0.00000000000E+00  0.11514694004E+04  0.35640679633E+04  0.33729362086E+04 0.  0.
        1    1    3    3  502    0  0.71216564912E+03 -0.55316327275E+03 -0.93015568916E+03  0.12955150035E+04  0.50400001928E-02 0.  1.
       -1    1    3    3    0  502 -0.71216564912E+03  0.55316327275E+03  0.20816250895E+04  0.22685529598E+04  0.50400001928E-02 0. -1.
</event>
<event>
 5   0  0.2856440E-06  0.3367351E+04  0.7818609E-02  0.8145966E-01
        2   -1    0    0  501    0  0.00000000000E+00  0.00000000000E+00  0.23524863111E+04  0.23524863111E+04  0.25500000920E-02 0. -1.
       -2   -1    0    0    0  501  0.00000000000E+00  0.00000000000E+00 -0.12050070167E+04  0.12050070167E+04  0.25500000920E-02 0.  1.
    10030    2    1    2    0    0  0.00000000000E+00  0.00000000000E+00  0.11474792944E+04  0.35574933278E+04  0.33673505975E+04 0.  0.
        4    1    3    3  502    0  0.15983677066E+04 -0.61743467068E+02  0.11289319947E+04  0.19578254884E+04  0.12699999809E+01 0.  1.
       -4    1    3    3    0  502 -0.15983677066E+04  0.61743467068E+02  0.18547299683E+02  0.15996678394E+04  0.12699999809E+01 0. -1.
</event>
<event>
 5   0  0.2856440E-06  0.3375439E+04  0.7818609E-02  0.8143961E-01
       -2   -1    0    0    0  501  0.00000000000E+00  0.00000000000E+00  0.11693805666E+04  0.11693805666E+04  0.25500000920E-02 0.  1.
        2   -1    0    0  501    0  0.00000000000E+00  0.00000000000E+00 -0.24358174992E+04  0.24358174993E+04  0.25500000920E-02 0. -1.
    10030    2    1    2    0    0  0.00000000000E+00  0.00000000000E+00 -0.12664369327E+04  0.36051980658E+04  0.33754393180E+04 0.  0.
        4    1    3    3  502    0  0.13494979545E+02 -0.75456600575E+03  0.97911967839E+03  0.12362155674E+04  0.12699999809E+01 0.  1.
       -4    1    3    3    0  502 -0.13494979545E+02  0.75456600575E+03 -0.22455566111E+04  0.23689824984E+04  0.12699999809E+01 0. -1.
</event>
<event>
 5   0  0.1010855E-06  0.3376774E+04  0.7818609E-02  0.8143630E-01
        1   -1    0    0  501    0  0.00000000000E+00  0.00000000000E+00  0.18847836590E+04  0.18847836590E+04  0.50400001928E-02 0.  1.
       -1   -1    0    0    0  501  0.00000000000E+00  0.00000000000E+00 -0.15124552203E+04  0.15124552203E+04  0.50400001928E-02 0. -1.
    10030    2    1    2    0    0  0.00000000000E+00  0.00000000000E+00  0.37232843871E+03  0.33972388793E+04  0.33767741317E+04 0.  0.
        1    1    3    3  502    0  0.75361965884E+03  0.13714930428E+04 -0.45148695923E+03  0.16287345489E+04  0.50400001928E-02 0. -1.
       -1    1    3    3    0  502 -0.75361965884E+03 -0.13714930428E+04  0.82381539795E+03  0.17685043303E+04  0.50400001928E-02 0.  1.
</event>
<event>
 5   0  0.1003191E-06  0.3414434E+04  0.7818609E-02  0.8134373E-01
        1   -1    0    0  501    0  0.00000000000E+00  0.00000000000E+00  0.26595083360E+04  0.26595083360E+04  0.50400001928E-02 0.  1.
       -1   -1    0    0    0  501  0.00000000000E+00  0.00000000000E+00 -0.10959128712E+04  0.10959128712E+04  0.50400001928E-02 0. -1.
    10030    2    1    2    0    0  0.00000000000E+00  0.00000000000E+00  0.15635954648E+04  0.37554212072E+04  0.34144337255E+04 0.  0.
        5    1    3    3  502    0  0.83062108593E+03 -0.14475857129E+04  0.11770334048E+04  0.20422696959E+04  0.46999998093E+01 0.  1.
       -5    1    3    3    0  502 -0.83062108593E+03  0.14475857129E+04  0.38656205997E+03  0.17131515113E+04  0.46999998093E+01 0. -1.
</event>
<event>
 5   0  0.9232963E-07  0.3392424E+04  0.7818609E-02  0.8139768E-01
        1   -1    0    0  501    0  0.00000000000E+00  0.00000000000E+00  0.18363392223E+04  0.18363392223E+04  0.50400001928E-02 0.  1.
       -1   -1    0    0    0  501  0.00000000000E+00  0.00000000000E+00 -0.15667774467E+04  0.15667774467E+04  0.50400001928E-02 0. -1.
    10030    2    1    2    0    0  0.00000000000E+00  0.00000000000E+00  0.26956177559E+03  0.34031166690E+04  0.33924238402E+04 0.  0.
        3    1    3    3  502    0 -0.73710964574E+03 -0.44047359771E+03  0.16021927625E+04  0.18177924190E+04  0.10100000352E+00 0.  1.
       -3    1    3    3    0  502  0.73710964574E+03  0.44047359771E+03 -0.13326309869E+04  0.15853242500E+04  0.10100000352E+00 0. -1.
</event>
<event>
 5   0  0.2856440E-06  0.3399292E+04  0.7818609E-02  0.8138080E-01
        2   -1    0    0  501    0  0.00000000000E+00  0.00000000000E+00  0.18252386951E+04  0.18252386951E+04  0.25500000920E-02 0.  1.
       -2   -1    0    0    0  501  0.00000000000E+00  0.00000000000E+00 -0.15826951526E+04  0.15826951526E+04  0.25500000920E-02 0. -1.
    10030    2    1    2    0    0  0.00000000000E+00  0.00000000000E+00  0.24254354258E+03  0.34079338477E+04  0.33992919469E+04 0.  0.
        4    1    3    3  502    0  0.69113665363E+03  0.14706341159E+04 -0.37835273334E+03  0.16684085173E+04  0.12699999809E+01 0.  1.
       -4    1    3    3    0  502 -0.69113665363E+03 -0.14706341159E+04  0.62089627593E+03  0.17395253304E+04  0.12699999809E+01 0. -1.
</event>
<event>
 5   0  0.9714317E-07  0.3306032E+04  0.7818609E-02  0.8161362E-01
       -1   -1    0    0    0  501  0.00000000000E+00  0.00000000000E+00  0.23995438484E+04  0.23995438484E+04  0.50400001928E-02 0. -1.
        1   -1    0    0  501    0  0.00000000000E+00  0.00000000000E+00 -0.11387420520E+04  0.11387420521E+04  0.50400001928E-02 0.  1.
    10030    2    1    2    0    0  0.00000000000E+00  0.00000000000E+00  0.12608017964E+04  0.35382859004E+04  0.33060317518E+04 0.  0.
        4    1    3    3  502    0  0.32375652949E+01  0.15742817908E+04  0.11698822910E+04  0.19613770230E+04  0.12699999809E+01 0. -1.
       -4    1    3    3    0  502 -0.32375652949E+01 -0.15742817908E+04  0.90919505400E+02  0.15769088775E+04  0.12699999809E+01 0.  1.
</event>
<event>
 5   0  0.2767014E-06  0.3499519E+04  0.7818609E-02  0.8113904E-01
       -2   -1    0    0    0  501  0.00000000000E+00  0.00000000000E+00  0.14517023143E+04  0.14517023143E+04  0.25500000920E-02 0. -1.
        2   -1    0    0  501    0  0.00000000000E+00  0.00000000000E+00 -0.21090129199E+04  0.21090129199E+04  0.25500000920E-02 0.  1.
    10030    2    1    2    0    0  0.00000000000E+00  0.00000000000E+00 -0.65731060558E+03  0.35607152342E+04  0.34995193594E+04 0.  0.
        1    1    3    3  502    0 -0.10172755965E+04  0.16651469499E+03 -0.17672689086E+04  0.20459267284E+04  0.50400001928E-02 0.  1.
       -1    1    3    3    0  502  0.10172755965E+04 -0.16651469499E+03  0.11099583030E+04  0.15147885058E+04  0.50400001928E-02 0. -1.
</event>
<event>
 5   0  0.1003191E-06  0.3416741E+04  0.7818609E-02  0.8133810E-01
        1   -1    0    0  501    0  0.00000000000E+00  0.00000000000E+00  0.20589064102E+04  0.20589064102E+04  0.50400001928E-02 0.  1.
       -1   -1    0    0    0  501  0.00000000000E+00  0.00000000000E+00 -0.14175142570E+04  0.14175142570E+04  0.50400001928E-02 0. -1.
    10030    2    1    2    0    0  0.00000000000E+00  0.00000000000E+00  0.64139215319E+03  0.34764206672E+04  0.34167406634E+04 0.  0.
        5    1    3    3  502    0 -0.11824717797E+03 -0.51605385308E+03 -0.13319324506E+04  0.14333039166E+04  0.46999998093E+01 0. -1.
       -5    1    3    3    0  502  0.11824717797E+03  0.51605385308E+03  0.19733246038E+04  0.20431167506E+04  0.46999998093E+01 0.  1.
</event>
<event>
 5   0  0.2848685E-06  0.3381325E+04  0.7818609E-02  0.8142505E-01
        2   -1    0    0  501    0  0.00000000000E+00  0.00000000000E+00  0.23592628362E+04  0.23592628362E+04  0.25500000920E-02 0.  1.
       -2   -1    0    0    0  501  0.00000000000E+00  0.00000000000E+00 -0.12115396548E+04  0.12115396548E+04  0.25500000920E-02 0. -1.
    10030    2    1    2    0    0  0.00000000000E+00  0.00000000000E+00  0.11477231813E+04  0.35708024910E+04  0.33813254693E+04 0.  0.
        3    1    3    3  502    0 -0.18235095609E+03  0.84276841862E+03 -0.96187447636E+03  0.12917867460E+04  0.10100000352E+00 0. -1.
       -3    1    3    3    0  502  0.18235095609E+03 -0.84276841862E+03  0.21095976577E+04  0.22790157451E+04  0.10100000352E+00 0.  1.
</event>
<event>
 5   0  0.2767014E-06  0.3188488E+04  0.7818609E-02  0.8191864E-01
        2   -1    0    0  501    0  0.00000000000E+00  0.00000000000E+00  0.19374329962E+04  0.19374329962E+04  0.25500000920E-02 0.  1.
       -2   -1    0    0    0  501  0.00000000000E+00  0.00000000000E+00 -0.13118462491E+04  0.13118462491E+04  0.25500000920E-02 0. -1.
    10030    2    1    2    0    0  0.00000000000E+00  0.00000000000E+00  0.62558674706E+03  0.32492792453E+04  0.31884881740E+04 0.  0.
        1    1    3    3  502    0  0.93187332660E+03  0.92189634660E+03  0.12374704748E+04  0.18026685627E+04  0.50400001928E-02 0.  1.
       -1    1    3    3    0  502 -0.93187332660E+03 -0.92189634660E+03 -0.61188372778E+03  0.14466106826E+04  0.50400001928E-02 0. -1.
</event>
<event>
 5   0  0.1003191E-06  0.3356068E+04  0.7818609E-02  0.8148774E-01
       -1   -1    0    0    0  501  0.00000000000E+00  0.00000000000E+00  0.12714678175E+04  0.12714678175E+04  0.50400001928E-02 0. -1.
        1   -1    0    0  501    0  0.00000000000E+00  0.00000000000E+00 -0.22146040418E+04  0.22146040418E+04  0.50400001928E-02 0.  1.
    10030    2    1    2    0    0  0.00000000000E+00  0.00000000000E+00 -0.94313622429E+03  0.34860718593E+04  0.33560677989E+04 0.  0.
        5    1    3    3  502    0 -0.14125684989E+04  0.12637694520E+01 -0.14124278220E+04  0.19975799867E+04  0.46999998093E+01 0.  1.
       -5    1    3    3    0  502  0.14125684989E+04 -0.12637694520E+01  0.46929159772E+03  0.14884918726E+04  0.46999998093E+01 0. -1.
</event>
<event>
 5   0  0.1010551E-06  0.3367518E+04  0.7818609E-02  0.8145925E-01
        1   -1    0    0  501    0  0.00000000000E+00  0.00000000000E+00  0.16293914712E+04  0.16293914712E+04  0.50400001928E-02 0. -1.
       -1   -1    0    0    0  501  0.00000000000E+00  0.00000000000E+00 -0.17399401511E+04  0.17399401511E+04  0.50400001928E-02 0.  1.
    10030    2    1    2    0    0  0.00000000000E+00  0.00000000000E+00 -0.11054867991E+03  0.33693316224E+04  0.33675175680E+04 0.  0.
        2    1    3    3  502    0  0.94816961489E+03 -0.18226392470E+03 -0.14354368237E+04  0.17299493148E+04  0.25500000920E-02 0.  1.
       -2    1    3    3    0  502 -0.94816961489E+03  0.18226392470E+03  0.13248881438E+04  0.16393823076E+04  0.25500000920E-02 0. -1.
</event>
<event>
 5   0  0.2664083E-06  0.2594959E+04  0.7818609E-02  0.8369916E-01
       -2   -1    0    0    0  501  0.00000000000E+00  0.00000000000E+00  0.13437136816E+04  0.13437136816E+04  0.25500000920E-02 0. -1.
        2   -1    0    0  501    0  0.00000000000E+00  0.00000000000E+00 -0.12528359305E+04  0.12528359305E+04  0.25500000920E-02 0.  1.
    10030    2    1    2    0    0  0.00000000000E+00  0.00000000000E+00  0.90877751083E+02  0.25965496122E+04  0.25949587902E+04 0.  0.
        2    1    3    3  502    0 -0.95405548248E+03 -0.60483217483E+02  0.92322959624E+03  0.13289969792E+04  0.25500000920E-02 0. -1.
       -2    1    3    3    0  502  0.95405548248E+03  0.60483217483E+02 -0.83235184516E+03  0.12675526330E+04  0.25500000920E-02 0.  1.
</event>
<event>
 5   0  0.2664083E-06  0.3425148E+04  0.7818609E-02  0.8131762E-01
        2   -1    0    0  501    0  0.00000000000E+00  0.00000000000E+00  0.15539483032E+04  0.15539483032E+04  0.25500000920E-02 0. -1.
       -2   -1    0    0    0  501  0.00000000000E+00  0.00000000000E+00 -0.18873915225E+04  0.18873915225E+04  0.25500000920E-02 0.  1.
    10030    2    1    2    0    0  0.00000000000E+00  0.00000000000E+00 -0.33344321927E+03  0.34413398258E+04  0.34251475028E+04 0.  0.
        2    1    3    3  502    0 -0.16388561043E+04  0.47353255659E+03 -0.31852007677E+03  0.17353781870E+04  0.25500000920E-02 0.  1.
       -2    1    3    3    0  502  0.16388561043E+04 -0.47353255659E+03 -0.14923142492E+02  0.17059616387E+04  0.25500000920E-02 0. -1.
</event>
<event>
 5   0  0.9232963E-07  0.2891556E+04  0.7818609E-02  0.8275394E-01
        1   -1    0    0  501    0  0.00000000000E+00  0.00000000000E+00  0.23232436872E+04  0.23232436872E+04  0.50400001928E-02 0. -1.
       -1   -1    0    0    0  501  0.00000000000E+00  0.00000000000E+00 -0.89972221597E+03  0.89972221599E+03  0.50400001928E-02 0.  1.
    10030    2    1    2    0    0  0.00000000000E+00  0.00000000000E+00  0.14235214712E+04  0.32229659032E+04  0.28915559538E+04 0.  0.
        3    1    3    3  502    0 -0.29217679023E+03  0.12634916895E+04  0.14241505598E+04  0.19261317071E+04  0.10100000352E+00 0. -1.
       -3    1    3    3    0  502  0.29217679023E+03 -0.12634916895E+04 -0.62908856583E+00  0.12968341960E+04  0.10100000352E+00 0.  1.
</event>
<event>
 5   0  0.1010551E-06  0.3283156E+04  0.7818609E-02  0.8167194E-01
       -1   -1    0    0    0  501  0.00000000000E+00  0.00000000000E+00  0.12635491426E+04  0.12635491426E+04  0.50400001928E-02 0. -1.
        1   -1    0    0  501    0  0.00000000000E+00  0.00000000000E+00 -0.21327062311E+04  0.21327062311E+04  0.50400001928E-02 0.  1.
    10030    2    1    2    0    0  0.00000000000E+00  0.00000000000E+00 -0.86915708853E+03  0.33962553737E+04  0.32831564871E+04 0.  0.
        2    1    3    3  502    0 -0.13865021222E+04 -0.87864100703E+03 -0.45476951696E+03  0.17032948857E+04  0.25500000920E-02 0.  1.
       -2    1    3    3    0  502  0.13865021222E+04  0.87864100703E+03 -0.41438757157E+03  0.16929604879E+04  0.25500000920E-02 0. -1.
</event>
<event>
 5   0  0.2767014E-06  0.3414773E+04  0.7818609E-02  0.8134290E-01
       -2   -1    0    0    0  501  0.00000000000E+00  0.00000000000E+00  0.99102277992E+03  0.99102277992E+03  0.25500000920E-02 0.  1.
        2   -1    0    0  501    0  0.00000000000E+00  0.00000000000E+00 -0.29415758439E+04  0.29415758439E+04  0.25500000920E-02 0. -1.
    10030    2    1    2    0    0  0.00000000000E+00  0.00000000000E+00 -0.19505530640E+04  0.39325986238E+04  0.34147730057E+04 0.  0.
        1    1    3    3  502    0 -0.63978895518E+03 -0.12165361707E+04  0.19117245192E+03  0.13877453182E+04  0.50400001928E-02 0.  1.
       -1    1    3    3    0  502  0.63978895518E+03  0.12165361707E+04 -0.21417255159E+04  0.25448533056E+04  0.50400001928E-02 0. -1.
</event>
<event>
 5   0  0.9714317E-07  0.3950867E+04  0.7818609E-02  0.8014532E-01
       -1   -1    0    0    0  501  0.00000000000E+00  0.00000000000E+00  0.16540320906E+04  0.16540320906E+04  0.50400001928E-02 0.  1.
        1   -1    0    0  501    0  0.00000000000E+00  0.00000000000E+00 -0.23592871070E+04  0.23592871070E+04  0.50400001928E-02 0. -1.
    10030    2    1    2    0    0  0.00000000000E+00  0.00000000000E+00 -0.70525501635E+03  0.40133191976E+04  0.39508665307E+04 0.  0.
        4    1    3    3  502    0  0.29685747650E+03  0.35208778454E+03  0.15987393861E+04  0.16637486009E+04  0.12699999809E+01 0.  1.
       -4    1    3    3    0  502 -0.29685747650E+03 -0.35208778454E+03 -0.23039944025E+04  0.23495705967E+04  0.12699999809E+01 0. -1.
</event>
<event>
 5   0  0.2767014E-06  0.2206844E+04  0.7818609E-02  0.8515585E-01
        2   -1    0    0  501    0  0.00000000000E+00  0.00000000000E+00  0.10121076109E+04  0.10121076109E+04  0.25500000920E-02 0.  1.
       -2   -1    0    0    0  501  0.00000000000E+00  0.00000000000E+00 -0.12029749842E+04  0.12029749843E+04  0.25500000920E-02 0. -1.
    10030    2    1    2    0    0  0.00000000000E+00  0.00000000000E+00 -0.19086737335E+03  0.22150825952E+04  0.22068440247E+04 0.  0.
        1    1    3    3  502    0 -0.51321735278E+03  0.76802574168E+03  0.51037941221E+03  0.10553401042E+04  0.50400001928E-02 0.  1.
       -1    1    3    3    0  502  0.51321735278E+03 -0.76802574168E+03 -0.70124678556E+03  0.11597424910E+04  0.50400001928E-02 0. -1.
</event>
<event>
 5   0  0.1010855E-06  0.3456523E+04  0.7818609E-02  0.8124171E-01
        1   -1    0    0  501    0  0.00000000000E+00  0.00000000000E+00  0.25159372590E+04  0.25159372590E+04  0.50400001928E-02 0. -1.
       -1   -1    0    0    0  501  0.00000000000E+00  0.00000000000E+00 -0.11871872442E+04  0.11871872442E+04  0.50400001928E-02 0.  1.
    10030    2    1    2    0    0  0.00000000000E+00  0.00000000000E+00  0.13287500148E+04  0.37031245032E+04  0.34565234680E+04 0.  0.
        1    1    3    3  502    0  0.24393672579E+03 -0.87422313445E+03 -0.91130799428E+03  0.12861778553E+04  0.50400001928E-02 0.  1.
       -1    1    3    3    0  502 -0.24393672579E+03  0.87422313445E+03  0.22400580090E+04  0.24169466479E+04  0.50400001928E-02 0. -1.
</event>
<event>
 5   0  0.2856440E-06  0.3184119E+04  0.7818609E-02  0.8193024E-01
        2   -1    0    0  501    0  0.00000000000E+00  0.00000000000E+00  0.22107082254E+04  0.22107082254E+04  0.25500000920E-02 0. -1.
       -2   -1    0    0    0  501  0.00000000000E+00  0.00000000000E+00 -0.11465349099E+04  0.11465349099E+04  0.25500000920E-02 0.  1.
    10030    2    1    2    0    0  0.00000000000E+00  0.00000000000E+00  0.10641733155E+04  0.33572431352E+04  0.31841194424E+04 0.  0.
        4    1    3    3  502    0  0.12899252363E+04  0.64762521070E+02 -0.44941394081E+03  0.13675071490E+04  0.12699999809E+01 0.  1.
       -4    1    3    3    0  502 -0.12899252363E+04 -0.64762521070E+02  0.15135872563E+04  0.19897359862E+04  0.12699999809E+01 0. -1.
</event>
<event>
 5   0  0.2848685E-06  0.2482436E+04  0.7818609E-02  0.8409269E-01
        2   -1    0    0  501    0  0.00000000000E+00  0.00000000000E+00  0.23038340429E+04  0.23038340429E+04  0.25500000920E-02 0.  1.
       -2   -1    0    0    0  501  0.00000000000E+00  0.00000000000E+00 -0.66872121618E+03  0.66872121618E+03  0.25500000920E-02 0. -1.
    10030    2    1    2    0    0  0.00000000000E+00  0.00000000000E+00  0.16351128267E+04  0.29725552590E+04  0.24824364669E+04 0.  0.
        3    1    3    3  502    0 -0.31049462906E+03 -0.16145607897E+03  0.22435334400E+04  0.22706645033E+04  0.10100000352E+00 0.  1.
       -3    1    3    3    0  502  0.31049462906E+03  0.16145607897E+03 -0.60842061329E+03  0.70189075574E+03  0.10100000352E+00 0. -1.
</event>
<event>
 5   0  0.2664083E-06  0.2992500E+04  0.7818609E-02  0.8245876E-01
       -2   -1    0    0    0  501  0.00000000000E+00  0.00000000000E+00  0.17288292085E+04  0.17288292085E+04  0.25500000920E-02 0.  1.
        2   -1    0    0  501    0  0.00000000000E+00  0.00000000000E+00 -0.12949593591E+04  0.12949593591E+04  0.25500000920E-02 0. -1.
    10030    2    1    2    0    0  0.00000000000E+00  0.00000000000E+00  0.43386984932E+03  0.30237885676E+04  0.29924996667E+04 0.  0.
        2    1    3    3  502    0  0.17700475395E+03 -0.46067065815E+03  0.16442248717E+04  0.17166897119E+04  0.25500000920E-02 0.  1.
       -2    1    3    3    0  502 -0.17700475395E+03  0.46067065815E+03 -0.12103550224E+04  0.13070988557E+04  0.25500000920E-02 0. -1.
</event>
<event>
 5   0  0.2767014E-06  0.3266661E+04  0.7818609E-02  0.8171431E-01
        2   -1    0    0  501    0  0.00000000000E+00  0.00000000000E+00  0.28257562597E+04  0.28257562597E+04  0.25500000920E-02 0. -1.
       -2   -1    0    0    0  501  0.00000000000E+00  0.00000000000E+00 -0.94409009622E+03  0.94409009623E+03  0.25500000920E-02 0.  1.
    10030    2    1    2    0    0  0.00000000000E+00  0.00000000000E+00  0.18816661635E+04  0.37698463560E+04  0.32666609859E+04 0.  0.
        1    1    3    3  502    0 -0.10085446772E+04 -0.94587965162E+03  0.19441932952E+04  0.23857364168E+04  0.50400001928E-02 0. -1.
       -1    1    3    3    0  502  0.10085446772E+04  0.94587965162E+03 -0.62527131733E+02  0.13841099391E+04  0.50400001928E-02 0.  1.
</event>
<event>
 5   0  0.9714317E-07  0.3380758E+04  0.7818609E-02  0.8142645E-01
       -1   -1    0    0    0  501  0.00000000000E+00  0.00000000000E+00  0.13168488605E+04  0.13168488605E+04  0.50400001928E-02 0. -1.
        1   -1    0    0  501    0  0.00000000000E+00  0.00000000000E+00 -0.21698628755E+04  0.21698628755E+04  0.50400001928E-02 0.  1.
    10030    2    1    2    0    0  0.00000000000E+00  0.00000000000E+00 -0.85301401502E+03  0.34867117360E+04  0.33807581724E+04 0.  0.
        4    1    3    3  502    0 -0.13714051344E+03 -0.87682528371E+03 -0.19102574304E+04  0.21063511487E+04  0.12699999809E+01 0.  1.
       -4    1    3    3    0  502  0.13714051344E+03  0.87682528371E+03  0.10572434154E+04  0.13803605872E+04  0.12699999809E+01 0. -1.
</event>
<event>
 5   0  0.2664083E-06  0.3392943E+04  0.7818609E-02  0.8139640E-01
       -2   -1    0    0    0  501  0.00000000000E+00  0.00000000000E+00  0.11458269426E+04  0.11458269426E+04  0.25500000920E-02 0. -1.
        2   -1    0    0  501    0  0.00000000000E+00  0.00000000000E+00 -0.25117367884E+04  0.25117367884E+04  0.25500000920E-02 0.  1.
    10030    2    1    2    0    0  0.00000000000E+00  0.00000000000E+00 -0.13659098457E+04  0.36575637310E+04  0.33929430794E+04 0.  0.
        2    1    3    3  502    0  0.54391817825E+03 -0.15542597058E+04 -0.11227509628E+04  0.19930228153E+04  0.25500000920E-02 0. -1.
       -2    1    3    3    0  502 -0.54391817825E+03  0.15542597058E+04 -0.24315888296E+03  0.16645409157E+04  0.25500000920E-02 0.  1.
</event>
<event>
 5   0  0.1003191E-06  0.3302858E+04  0.7818609E-02  0.8162169E-01
       -1   -1    0    0    0  501  0.00000000000E+00  0.00000000000E+00  0.10421418031E+04  0.10421418031E+04  0.50400001928E-02 0.  1.
        1   -1    0    0  501    0  0.00000000000E+00  0.00000000000E+00 -0.26169349648E+04  0.26169349648E+04  0.50400001928E-02 0. -1.
    10030    2    1    2    0    0  0.00000000000E+00  0.00000000000E+00 -0.15747931617E+04  0.36590767678E+04  0.33028577461E+04 0.  0.
        5    1    3    3  502    0 -0.45746691956E+03 -0.25772811780E+03 -0.25219880230E+04  0.25760717077E+04  0.46999998093E+01 0. -1.
       -5    1    3    3    0  502  0.45746691956E+03  0.25772811780E+03  0.94719486124E+03  0.10830050602E+04  0.46999998093E+01 0.  1.
</event>
<event>
 5   0  0.9714317E-07  0.2359868E+04  0.7818609E-02  0.8454683E-01
       -1   -1    0    0    0  501  0.00000000000E+00  0.00000000000E+00  0.94005504461E+03  0.94005504462E+03  0.50400001928E-02 0. -1.
        1   -1    0    0  501    0  0.00000000000E+00  0.00000000000E+00 -0.14810242413E+04  0.14810242413E+04  0.50400001928E-02 0.  1.
    10030    2    1    2    0    0  0.00000000000E+00  0.00000000000E+00 -0.54096919670E+03  0.24210792859E+04  0.23598680550E+04 0.  0.
        4    1    3    3  502    0 -0.94751666678E+03 -0.50962789231E+03 -0.76754543188E+03  0.13216035810E+04  0.12699999809E+01 0.  1.
       -4    1    3    3    0  502  0.94751666678E+03  0.50962789231E+03  0.22657623519E+03  0.10994757049E+04  0.12699999809E+01 0. -1.
</event>
<event>
 5   0  0.1010551E-06  0.3150246E+04  0.7818609E-02  0.8202082E-01
       -1   -1    0    0    0  501  0.00000000000E+00  0.00000000000E+00  0.14977493067E+04  0.14977493067E+04  0.50400001928E-02 0.  1.
        1   -1    0    0  501    0  0.00000000000E+00  0.00000000000E+00 -0.16564937894E+04  0.16564937894E+04  0.50400001928E-02 0. -1.
    10030    2    1    2    0    0  0.00000000000E+00  0.00000000000E+00 -0.15874448273E+03  0.31542430961E+04  0.31502459743E+04 0.  0.
        2    1    3    3  502    0  0.39347760690E+03 -0.10018975060E+04  0.10720386688E+04  0.15191741662E+04  0.25500000920E-02 0.  1.
       -2    1    3    3    0  502 -0.39347760690E+03  0.10018975060E+04 -0.12307831515E+04  0.16350689300E+04  0.25500000920E-02 0. -1.
</event>
<event>
 5   0  0.1003191E-06  0.3387286E+04  0.7818609E-02  0.8141034E-01
       -1   -1    0    0    0  501  0.00000000000E+00  0.00000000000E+00  0.30603366269E+04  0.30603366269E+04  0.50400001928E-02 0. -1.
        1   -1    0    0  501    0  0.00000000000E+00  0.00000000000E+00 -0.93729128228E+03  0.93729128230E+03  0.50400001928E-02 0.  1.
    10030    2    1    2    0    0  0.00000000000E+00  0.00000000000E+00  0.21230453446E+04  0.39976279092E+04  0.33872861357E+04 0.  0.
        5    1    3    3  502    0 -0.48948353963E+03  0.35256882868E+03  0.29292415483E+04  0.29907151407E+04  0.46999998093E+01 0. -1.
       -5    1    3    3    0  502  0.48948353963E+03 -0.35256882868E+03 -0.80619620369E+03  0.10069127685E+04  0.46999998093E+01 0.  1.
</event>
<event>
 5   0  0.2767014E-06  0.3529287E+04  0.7818609E-02  0.8106884E-01
        2   -1    0    0  501    0  0.00000000000E+00  0.00000000000E+00  0.26730667420E+04  0.26730667420E+04  0.25500000920E-02 0.  1.
       -2   -1    0    0    0  501  0.00000000000E+00  0.00000000000E+00 -0.11649417798E+04  0.11649417798E+04  0.25500000920E-02 0. -1.
    10030    2    1    2    0    0  0.00000000000E+00  0.00000000000E+00  0.15081249622E+04  0.38380085218E+04  0.35292872527E+04 0.  0.
        1    1    3    3  502    0 -0.10554632717E+04  0.13689733783E+04  0.11398879661E+04  0.20706123258E+04  0.50400001928E-02 0.  1.
       -1    1    3    3    0  502  0.10554632717E+04 -0.13689733783E+04  0.36823699610E+03  0.17673961960E+04  0.50400001928E-02 0. -1.
</event>
<event>
 5   0  0.2856440E-06  0.3316830E+04  0.7818609E-02  0.8158626E-01
       -2   -1    0    0    0  501  0.00000000000E+00  0.00000000000E+00  0.19049143169E+04  0.19049143169E+04  0.25500000920E-02 0.  1.
        2   -1    0    0  501    0  0.00000000000E+00  0.00000000000E+00 -0.14438133844E+04  0.14438133844E+04  0.25500000920E-02 0. -1.
    10030    2    1    2    0    0  0.00000000000E+00  0.00000000000E+00  0.46110093251E+03  0.33487277013E+04  0.33168302862E+04 0.  0.
        4    1    3    3  502    0  0.22975818751E+03  0.19825241539E+03 -0.14155418807E+04  0.14477062111E+04  0.12699999809E+01 0. -1.
       -4    1    3    3    0  502 -0.22975818751E+03 -0.19825241539E+03  0.18766428132E+04  0.19010214902E+04  0.12699999809E+01 0.  1.
</event>
<event>
 5   0  0.2848685E-06  0.3405928E+04  0.7818609E-02  0.8136453E-01
        2   -1    0    0  501    0  0.00000000000E+00  0.00000000000E+00  0.20883709618E+04  0.20883709618E+04  0.25500000920E-02 0. -1.
       -2   -1    0    0    0  501  0.00000000000E+00  0.00000000000E+00 -0.13886835907E+04  0.13886835907E+04  0.25500000920E-02 0.  1.
    10030    2    1    2    0    0  0.00000000000E+00  0.00000000000E+00  0.69968737111E+03  0.34770545524E+04  0.34059280590E+04 0.  0.
        3    1    3    3  502    0 -0.92326716177E+03  0.70077166678E+03  0.16235292207E+04  0.19948309005E+04  0.10100000352E+00 0. -1.
       -3    1    3    3    0  502  0.92326716177E+03 -0.70077166678E+03 -0.92384184960E+03  0.14822236519E+04  0.10100000352E+00 0.  1.
</event>
<event>
 5   0  0.1010551E-06  0.3368206E+04  0.7818609E-02  0.8145754E-01
       -1   -1    0    0    0  501  0.00000000000E+00  0.00000000000E+00  0.13977754668E+04  0.13977754668E+04  0.50400001928E-02 0. -1.
        1   -1    0    0  501    0  0.00000000000E+00  0.00000000000E+00 -0.20290833329E+04  0.20290833329E+04  0.50400001928E-02 0.  1.
    10030    2    1    2    0    0  0.00000000000E+00  0.00000000000E+00 -0.63130786617E+03  0.34268587997E+04  0.33682059930E+04 0.  0.
        2    1    3    3  502    0  0.17277213345E+03  0.91867310328E+02  0.13861701920E+04  0.13999134309E+04  0.25500000920E-02 0. -1.
       -2    1    3    3    0  502 -0.17277213345E+03 -0.91867310328E+02 -0.20174780582E+04  0.20269453688E+04  0.25500000920E-02 0.  1.
</event>
<event>
 5   0  0.1010551E-06  0.2774331E+04  0.7818609E-02  0.8311282E-01
       -1   -1    0    0    0  501  0.00000000000E+00  0.00000000000E+00  0.90214614872E+03  0.90214614873E+03  0.50400001928E-02 0.  1.
        1   -1    0    0  501    0  0.00000000000E+00  0.00000000000E+00 -0.21329452330E+04  0.21329452330E+04  0.50400001928E-02 0. -1.
    10030    2    1    2    0    0  0.00000000000E+00  0.00000000000E+00 -0.12307990843E+04  0.30350913818E+04  0.27743311464E+04 0.  0.
        2    1    3    3  502    0 -0.92207062429E+03 -0.30153874967E+02  0.51787347840E+03  0.10579775196E+04  0.25500000920E-02 0.  1.
       -2    1    3    3    0  502  0.92207062429E+03  0.30153874967E+02 -0.17486725627E+04  0.19771138622E+04  0.25500000920E-02 0. -1.
</event>
<event>
 5   0  0.9714317E-07  0.2906178E+04  0.7818609E-02  0.8271042E-01
       -1   -1    0    0    0  501  0.00000000000E+00  0.00000000000E+00  0.70420772041E+03  0.70420772043E+03  0.50400001928E-02 0.  1.
        1   -1    0    0  501    0  0.00000000000E+00  0.00000000000E+00 -0.29983598145E+04  0.29983598145E+04  0.50400001928E-02 0. -1.
    10030    2    1    2    0    0  0.00000000000E+00  0.00000000000E+00 -0.22941520941E+04  0.37025675349E+04  0.29061783359E+04 0.  0.
        4    1    3    3  502    0  0.23607938173E+03 -0.70555022342E+02  0.67739770901E+03  0.72081950218E+03  0.12699999809E+01 0.  1.
       -4    1    3    3    0  502 -0.23607938173E+03  0.70555022342E+02 -0.29715498031E+04  0.29817480328E+04  0.12699999809E+01 0. -1.
</event>
<event>
 5   0  0.9232963E-07  0.3332696E+04  0.7818609E-02  0.8154625E-01
        1   -1    0    0  501    0  0.00000000000E+00  0.00000000000E+00  0.21686251789E+04  0.21686251789E+04  0.50400001928E-02 0.  1.
       -1   -1    0    0    0  501  0.00000000000E+00  0.00000000000E+00 -0.12804035797E+04  0.12804035797E+04  0.50400001928E-02 0. -1.
    10030    2    1    2    0    0  0.00000000000E+00  0.00000000000E+00  0.88822159921E+03  0.34490287586E+04  0.33326958710E+04 0.  0.
        3    1    3    3  502    0  0.10204451503E+04  0.35710938894E+03  0.17563951519E+04  0.20624643900E+04  0.10100000352E+00 0.  1.
       -3    1    3    3    0  502 -0.10204451503E+04 -0.35710938894E+03 -0.86817355266E+03  0.13865643686E+04  0.10100000352E+00 0. -1.
</event>
<event>
 5   0  0.2856440E-06  0.3224818E+04  0.7818609E-02  0.8182293E-01
        2   -1    0    0  501    0  0.00000000000E+00  0.00000000000E+00  0.16411873048E+04  0.16411873048E+04  0.25500000920E-02 0.  1.
       -2   -1    0    0    0  501  0.00000000000E+00  0.00000000000E+00 -0.15841351300E+04  0.15841351300E+04  0.25500000920E-02 0. -1.
    10030    2    1    2    0    0  0.00000000000E+00  0.00000000000E+00  0.57052174830E+02  0.32253224348E+04  0.32248178023E+04 0.  0.
        4    1    3    3  502    0  0.12433348858E+03 -0.15728418357E+04  0.36109969234E+03  0.16185440548E+04  0.12699999809E+01 0. -1.
       -4    1    3    3    0  502 -0.12433348858E+03  0.15728418357E+04 -0.30404751751E+03  0.16067783800E+04  0.12699999809E+01 0.  1.
</event>
<event>
 5   0  0.2906701E-06  0.2231121E+04  0.7818609E-02  0.8505585E-01
        2   -1    0    0  501    0  0.00000000000E+00  0.00000000000E+00  0.99921212620E+03  0.99921212620E+03  0.25500000920E-02 0. -1.
       -2   -1    0    0    0  501  0.00000000000E+00  0.00000000000E+00 -0.12454568414E+04  0.12454568414E+04  0.25500000920E-02 0.  1.
    10030    2    1    2    0    0  0.00000000000E+00  0.00000000000E+00 -0.24624471523E+03  0.22446689676E+04  0.22311213133E+04 0.  0.
        5    1    3    3  502    0 -0.20006517331E+03 -0.88270777192E+03  0.53295270083E+03  0.10503617260E+04  0.46999998093E+01 0. -1.
       -5    1    3    3    0  502  0.20006517331E+03  0.88270777192E+03 -0.77919741606E+03  0.11943072416E+04  0.46999998093E+01 0.  1.
</event>
<event>
 5   0  0.1003191E-06  0.3390051E+04  0.7818609E-02  0.8140352E-01
        1   -1    0    0  501    0  0.00000000000E+00  0.00000000000E+00  0.26462252949E+04  0.26462252949E+04  0.50400001928E-02 0.  1.
       -1   -1    0    0    0  501  0.00000000000E+00  0.00000000000E+00 -0.10857396313E+04  0.10857396313E+04  0.50400001928E-02 0. -1.
    10030    2    1    2    0    0  0.00000000000E+00  0.00000000000E+00  0.15604856636E+04  0.37319649262E+04  0.33900511359E+04 0.  0.
        5    1    3    3  502    0  0.12237765228E+04  0.67403820260E+03  0.18367987837E+04  0.23077712924E+04  0.46999998093E+01 0.  1.
       -5    1    3    3    0  502 -0.12237765228E+04 -0.67403820260E+03 -0.27631312004E+03  0.14241936338E+04  0.46999998093E+01 0. -1.
</event>
<event>
 5   0  0.2767014E-06  0.3358606E+04  0.7818609E-02  0.8148141E-01
        2   -1    0    0  501    0  0.00000000000E+00  0.00000000000E+00  0.19123601678E+04  0.19123601678E+04  0.25500000920E-02 0.  1.
       -2   -1    0    0    0  501  0.00000000000E+00  0.00000000000E+00 -0.14746480632E+04  0.14746480632E+04  0.25500000920E-02 0. -1.
    10030    2    1    2    0    0  0.00000000000E+00  0.00000000000E+00  0.43771210461E+03  0.33870082310E+04  0.33586057927E+04 0.  0.
        1    1    3    3  502    0 -0.13088392500E+04 -0.10495304436E+04  0.14417656779E+03  0.16838530866E+04  0.50400001928E-02 0. -1.
       -1    1    3    3    0  502  0.13088392500E+04  0.10495304436E+04  0.29353553682E+03  0.17031551444E+04  0.50400001928E-02 0.  1.
</event>
<event>
 5   0  0.2664083E-06  0.3553625E+04  0.7818609E-02  0.8101198E-01
       -2   -1    0    0    0  501  0.00000000000E+00  0.00000000000E+00  0.15048326471E+04  0.15048326471E+04  0.25500000920E-02 0.  1.
        2   -1    0    0  501    0  0.00000000000E+00  0.00000000000E+00 -0.20979491229E+04  0.20979491229E+04  0.25500000920E-02 0. -1.
    10030    2    1    2    0    0  0.00000000000E+00  0.00000000000E+00 -0.59311647584E+03  0.36027817701E+04  0.35536248154E+04 0.  0.
        2    1    3    3  502    0 -0.19927689166E+02  0.21756556753E+03 -0.20842795688E+04  0.20956987402E+04  0.25500000920E-02 0. -1.
       -2    1    3    3    0  502  0.19927689166E+02 -0.21756556753E+03  0.14911630930E+04  0.15070830298E+04  0.25500000920E-02 0.  1.
</event>
<event>
 5   0  0.2664083E-06  0.3353689E+04  0.7818609E-02  0.8149367E-01
        2   -1    0    0  501    0  0.00000000000E+00  0.00000000000E+00  0.18951956875E+04  0.18951956875E+04  0.25500000920E-02 0.  1.
       -2   -1    0    0    0  501  0.00000000000E+00  0.00000000000E+00 -0.14836506422E+04  0.14836506422E+04  0.25500000920E-02 0. -1.
    10030    2    1    2    0    0  0.00000000000E+00  0.00000000000E+00  0.41154504535E+03  0.33788463297E+04  0.33536894900E+04 0.  0.
        2    1    3    3  502    0 -0.76066612106E+03  0.81767601019E+03  0.14659956142E+04  0.18429189201E+04  0.25500000920E-02 0.  1.
       -2    1    3    3    0  502  0.76066612106E+03 -0.81767601019E+03 -0.10544505688E+04  0.15359274096E+04  0.25500000920E-02 0. -1.
</event>
<event>
 5   0  0.9714317E-07  0.3393242E+04  0.7818609E-02  0.8139567E-01
       -1   -1    0    0    0  501  0.00000000000E+00  0.00000000000E+00  0.13704224123E+04  0.13704224123E+04  0.50400001928E-02 0.  1.
        1   -1    0    0  501    0  0.00000000000E+00  0.00000000000E+00 -0.21004641952E+04  0.21004641952E+04  0.50400001928E-02 0. -1.
    10030    2    1    2    0    0  0.00000000000E+00  0.00000000000E+00 -0.73004178288E+03  0.34708866076E+04  0.33932422309E+04 0.  0.
        4    1    3    3  502    0 -0.15016457804E+04 -0.45736872718E+03  0.29344460378E+03  0.15969463206E+04  0.12699999809E+01 0.  1.
       -4    1    3    3    0  502  0.15016457804E+04  0.45736872718E+03 -0.10234863867E+04  0.18739402870E+04  0.12699999809E+01 0. -1.
</event>
<event>
 5   0  0.1010855E-06  0.3412507E+04  0.7818609E-02  0.8134844E-01
       -1   -1    0    0    0  501  0.00000000000E+00  0.00000000000E+00  0.12481624789E+04  0.12481624789E+04  0.50400001928E-02 0. -1.
        1   -1    0    0  501    0  0.00000000000E+00  0.00000000000E+00 -0.23324689941E+04  0.23324689941E+04  0.50400001928E-02 0.  1.
    10030    2    1    2    0    0  0.00000000000E+00  0.00000000000E+00 -0.10843065152E+04  0.35806314731E+04  0.34125065754E+04 0.  0.
        1    1    3    3  502    0 -0.98537575142E+03  0.13139585754E+04 -0.10273730337E+04  0.19372526577E+04  0.50400001928E-02 0.  1.
       -1    1    3    3    0  502  0.98537575142E+03 -0.13139585754E+04 -0.56933481540E+02  0.16433788154E+04  0.50400001928E-02 0. -1.
</event>
<event>
 5   0  0.2906701E-06  0.2534485E+04  0.7818609E-02  0.8390802E-01
       -2   -1    0    0    0  501  0.00000000000E+00  0.00000000000E+00  0.72115283620E+03  0.72115283620E+03  0.25500000920E-02 0. -1.
        2   -1    0    0  501    0  0.00000000000E+00  0.00000000000E+00 -0.22268559269E+04  0.22268559269E+04  0.25500000920E-02 0.  1.
    10030    2    1    2    0    0  0.00000000000E+00  0.00000000000E+00 -0.15057030907E+04  0.29480087631E+04  0.25344849319E+04 0.  0.
        5    1    3    3  502    0  0.12123117771E+04 -0.36510681853E+03 -0.69044567145E+03  0.14421304203E+04  0.46999998093E+01 0.  1.
       -5    1    3    3    0  502 -0.12123117771E+04  0.36510681853E+03 -0.81525741927E+03  0.15058783429E+04  0.46999998093E+01 0. -1.
</event>
<event>
 5   0  0.1003191E-06  0.3359823E+04  0.7818609E-02  0.8147838E-01
        1   -1    0    0  501    0  0.00000000000E+00  0.00000000000E+00  0.13978424466E+04  0.13978424466E+04  0.50400001928E-02 0. -1.
       -1   -1    0    0    0  501  0.00000000000E+00  0.00000000000E+00 -0.20188985263E+04  0.20188985263E+04  0.50400001928E-02 0.  1.
    10030    2    1    2    0    0  0.00000000000E+00  0.00000000000E+00 -0.62105607973E+03  0.34167409729E+04  0.33598226473E+04 0.  0.
        5    1    3    3  502    0  0.58525962191E+03 -0.72678598198E+03  0.11100379990E+04  0.14501562460E+04  0.46999998093E+01 0. -1.
       -5    1    3    3    0  502 -0.58525962191E+03  0.72678598198E+03 -0.17310940787E+04  0.19665847269E+04  0.46999998093E+01 0.  1.
</event>
<event>
 5   0  0.2664083E-06  0.3405483E+04  0.7818609E-02  0.8136562E-01
        2   -1    0    0  501    0  0.00000000000E+00  0.00000000000E+00  0.12396167646E+04  0.12396167646E+04  0.25500000920E-02 0. -1.
       -2   -1    0    0    0  501  0.00000000000E+00  0.00000000000E+00 -0.23388913635E+04  0.23388913636E+04  0.25500000920E-02 0.  1.
    10030    2    1    2    0    0  0.00000000000E+00  0.00000000000E+00 -0.10992745990E+04  0.35785081281E+04  0.34054831932E+04 0.  0.
        2    1    3    3  502    0  0.12750413003E+04  0.97570515168E+03 -0.11455463663E+04  0.19723101525E+04  0.25500000920E-02 0.  1.
       -2    1    3    3    0  502 -0.12750413003E+04 -0.97570515168E+03  0.46271767390E+02  0.16061979756E+04  0.25500000920E-02 0. -1.
</event>
<event>
 5   0  0.2856440E-06  0.3355052E+04  0.7818609E-02  0.8149027E-01
        2   -1    0    0  501    0  0.00000000000E+00  0.00000000000E+00  0.20914292781E+04  0.20914292781E+04  0.25500000920E-02 0. -1.
       -2   -1    0    0    0  501  0.00000000000E+00  0.00000000000E+00 -0.13455359006E+04  0.13455359006E+04  0.25500000920E-02 0.  1.
    10030    2    1    2    0    0  0.00000000000E+00  0.00000000000E+00  0.74589337746E+03  0.34369651787E+04  0.33550518191E+04 0.  0.
        4    1    3    3  502    0 -0.82834992040E+03  0.58873916874E+03 -0.99429773429E+03  0.14217619339E+04  0.12699999809E+01 0.  1.
       -4    1    3    3    0  502  0.82834992040E+03 -0.58873916874E+03  0.17401911118E+04  0.20152032448E+04  0.12699999809E+01 0. -1.
</event>
<event>
 5   0  0.9714317E-07  0.2338522E+04  0.7818609E-02  0.8462886E-01
       -1   -1    0    0    0  501  0.00000000000E+00  0.00000000000E+00  0.11738384331E+04  0.11738384331E+04  0.50400001928E-02 0.  1.
        1   -1    0    0  501    0  0.00000000000E+00  0.00000000000E+00 -0.11647012034E+04  0.11647012034E+04  0.50400001928E-02 0. -1.
    10030    2    1    2    0    0  0.00000000000E+00  0.00000000000E+00  0.91372296737E+01  0.23385396365E+04  0.23385217857E+04 0.  0.
        4    1    3    3  502    0 -0.77304287264E+03 -0.85246047130E+03 -0.20252059137E+03  0.11684606715E+04  0.12699999809E+01 0. -1.
       -4    1    3    3    0  502  0.77304287264E+03  0.85246047130E+03  0.21165782105E+03  0.11700789649E+04  0.12699999809E+01 0.  1.
</event>
<event>
 5   0  0.2906701E-06  0.3402200E+04  0.7818609E-02  0.8137366E-01
        2   -1    0    0  501    0  0.00000000000E+00  0.00000000000E+00  0.16582166022E+04  0.16582166022E+04  0.25500000920E-02 0.  1.
       -2   -1    0    0    0  501  0.00000000000E+00  0.00000000000E+00 -0.17450928060E+04  0.17450928060E+04  0.25500000920E-02 0. -1.
    10030    2    1    2    0    0  0.00000000000E+00  0.00000000000E+00 -0.86876203795E+02  0.34033094082E+04  0.34022003841E+04 0.  0.
        5    1    3    3  502    0  0.53904813477E+03 -0.13957688063E+02  0.15704544978E+04  0.16604569035E+04  0.46999998093E+01 0.  1.
       -5    1    3    3    0  502 -0.53904813477E+03  0.13957688063E+02 -0.16573307016E+04  0.17428525047E+04  0.46999998093E+01 0. -1.
</event>
<event>
 5   0  0.2848685E-06  0.3228664E+04  0.7818609E-02  0.8181288E-01
        2   -1    0    0  501    0  0.00000000000E+00  0.00000000000E+00  0.19462172754E+04  0.19462172754E+04  0.25500000920E-02 0. -1.
       -2   -1    0    0    0  501  0.00000000000E+00  0.00000000000E+00 -0.13390428958E+04  0.13390428958E+04  0.25500000920E-02 0.  1.
    10030    2    1    2    0    0  0.00000000000E+00  0.00000000000E+00  0.60717437962E+03  0.32852601712E+04  0.32286643779E+04 0.  0.
        3    1    3    3  502    0 -0.10325377783E+04  0.75065618482E+03  0.13090632751E+04  0.18284599093E+04  0.10100000352E+00 0. -1.
       -3    1    3    3    0  502  0.10325377783E+04 -0.75065618482E+03 -0.70188889552E+03  0.14568002619E+04  0.10100000352E+00 0.  1.
</event>
<event>
 5   0  0.2856440E-06  0.3364072E+04  0.7818609E-02  0.8146781E-01
        2   -1    0    0  501    0  0.00000000000E+00  0.00000000000E+00  0.26751906286E+04  0.26751906286E+04  0.25500000920E-02 0.  1.
       -2   -1    0    0    0  501  0.00000000000E+00  0.00000000000E+00 -0.10575866432E+04  0.10575866432E+04  0.25500000920E-02 0. -1.
    10030    2    1    2    0    0  0.00000000000E+00  0.00000000000E+00  0.16176039854E+04  0.37327772718E+04  0.33640724586E+04 0.  0.
        4    1    3    3  502    0  0.47625606888E+03 -0.12326174995E+04 -0.34597123649E+03  0.13659661242E+04  0.12699999809E+01 0. -1.
       -4    1    3    3    0  502 -0.47625606888E+03  0.12326174995E+04  0.19635752219E+04  0.23668111475E+04  0.12699999809E+01 0.  1.
</event>
<event>
 5   0  0.1010551E-06  0.3667895E+04  0.7818609E-02  0.8075114E-01
       -1   -1    0    0    0  501  0.00000000000E+00  0.00000000000E+00  0.21814503627E+04  0.21814503627E+04  0.50400001928E-02 0. -1.
        1   -1    0    0  501    0  0.00000000000E+00  0.00000000000E+00 -0.15418014833E+04  0.15418014834E+04  0.50400001928E-02 0.  1.
    10030    2    1    2    0    0  0.00000000000E+00  0.00000000000E+00  0.63964887938E+03  0.37232518461E+04  0.36678949849E+04 0.  0.
        2    1    3    3  502    0  0.67202254026E+03  0.36466466180E+03 -0.13722977754E+04  0.15709219569E+04  0.25500000920E-02 0.  1.
       -2    1    3    3    0  502 -0.67202254026E+03 -0.36466466180E+03  0.20119466548E+04  0.21523298892E+04  0.25500000920E-02 0. -1.
</event>
<event>
 5   0  0.2848685E-06  0.2548191E+04  0.7818609E-02  0.8386016E-01
        2   -1    0    0  501    0  0.00000000000E+00  0.00000000000E+00  0.25358859532E+04  0.25358859532E+04  0.25500000920E-02 0.  1.
       -2   -1    0    0    0  501  0.00000000000E+00  0.00000000000E+00 -0.64013907065E+03  0.64013907066E+03  0.25500000920E-02 0. -1.
    10030    2    1    2    0    0  0.00000000000E+00  0.00000000000E+00  0.18957468826E+04  0.31760250239E+04  0.25481912624E+04 0.  0.
        3    1    3    3  502    0 -0.10140801550E+04  0.55490650036E+03  0.16156374614E+04  0.19865961345E+04  0.10100000352E+00 0.  1.
       -3    1    3    3    0  502  0.10140801550E+04 -0.55490650036E+03  0.28010942121E+03  0.11894288894E+04  0.10100000352E+00 0. -1.
</event>
<event>
 5   0  0.1003191E-06  0.3265364E+04  0.7818609E-02  0.8171765E-01
        1   -1    0    0  501    0  0.00000000000E+00  0.00000000000E+00  0.15475196137E+04  0.15475196137E+04  0.50400001928E-02 0. -1.
       -1   -1    0    0    0  501  0.00000000000E+00  0.00000000000E+00 -0.17225315082E+04  0.17225315083E+04  0.50400001928E-02 0.  1.
    10030    2    1    2    0    0  0.00000000000E+00  0.00000000000E+00 -0.17501189455E+03  0.32700511220E+04  0.32653644784E+04 0.  0.
        5    1    3    3  502    0  0.12528555778E+04 -0.11254762806E+03 -0.11298240580E+04  0.16908100305E+04  0.46999998093E+01 0.  1.
       -5    1    3    3    0  502 -0.12528555778E+04  0.11254762806E+03  0.95481216341E+03  0.15792410914E+04  0.46999998093E+01 0. -1.
</event>
<event>
 5   0  0.2856440E-06  0.3386145E+04  0.7818609E-02  0.8141315E-01
       -2   -1    0    0    0  501  0.00000000000E+00  0.00000000000E+00  0.12149656983E+04  0.12149656983E+04  0.25500000920E-02 0.  1.
        2   -1    0    0  501    0  0.00000000000E+00  0.00000000000E+00 -0.23593210826E+04  0.23593210826E+04  0.25500000920E-02 0. -1.
    10030    2    1    2    0    0  0.00000000000E+00  0.00000000000E+00 -0.11443553843E+04  0.35742867808E+04  0.33861448206E+04 0.  0.
        4    1    3    3  502    0 -0.19601336579E+03 -0.13590388716E+03  0.11971416578E+04  0.12206723015E+04  0.12699999809E+01 0.  1.
       -4    1    3    3    0  502  0.19601336579E+03  0.13590388716E+03 -0.23414970421E+04  0.23536144793E+04  0.12699999809E+01 0. -1.
</event>
<event>
 5   0  0.1010855E-06  0.3353900E+04  0.7818609E-02  0.8149314E-01
       -1   -1    0    0    0  501  0.00000000000E+00  0.00000000000E+00  0.11687855414E+04  0.11687855414E+04  0.50400001928E-02 0.  1.
        1   -1    0    0  501    0  0.00000000000E+00  0.00000000000E+00 -0.24060547021E+04  0.24060547021E+04  0.50400001928E-02 0. -1.
    10030    2    1    2    0    0  0.00000000000E+00  0.00000000000E+00 -0.12372691608E+04  0.35748402435E+04  0.33539003847E+04 0.  0.
        1    1    3    3  502    0  0.85198672677E+03 -0.12415229428E+04 -0.14054365165E+04  0.20597360030E+04  0.50400001928E-02 0. -1.
       -1    1    3    3    0  502 -0.85198672677E+03  0.12415229428E+04  0.16816735573E+03  0.15151042405E+04  0.50400001928E-02 0.  1.
</event>
<event>
 5   0  0.2906701E-06  0.3386230E+04  0.7818609E-02  0.8141294E-01
       -2   -1    0    0    0  501  0.00000000000E+00  0.00000000000E+00  0.12180697134E+04  0.12180697134E+04  0.25500000920E-02 0. -1.
        2   -1    0    0  501    0  0.00000000000E+00  0.00000000000E+00 -0.23534265948E+04  0.23534265948E+04  0.25500000920E-02 0.  1.
    10030    2    1    2    0    0  0.00000000000E+00  0.00000000000E+00 -0.11353568814E+04  0.35714963082E+04  0.33862295598E+04 0.  0.
        5    1    3    3  502    0  0.35656490636E+02  0.70529857893E+03  0.10553095761E+04  0.12698101678E+04  0.46999998093E+01 0. -1.
       -5    1    3    3    0  502 -0.35656490636E+02 -0.70529857893E+03 -0.21906664575E+04  0.23016861404E+04  0.46999998093E+01 0.  1.
</event>
<event>
 5   0  0.1003191E-06  0.3392798E+04  0.7818609E-02  0.8139676E-01
        1   -1    0    0  501    0  0.00000000000E+00  0.00000000000E+00  0.19577437266E+04  0.19577437266E+04  0.50400001928E-02 0. -1.
       -1   -1    0    0    0  501  0.00000000000E+00  0.00000000000E+00 -0.14699422949E+04  0.14699422949E+04  0.50400001928E-02 0.  1.
    10030    2    1    2    0    0  0.00000000000E+00  0.00000000000E+00  0.48780143170E+03  0.34276860216E+04  0.33927984358E+04 0.  0.
        5    1    3    3  502    0 -0.15634746037E+04 -0.24156716909E+03 -0.37471971219E+03  0.16258057960E+04  0.46999998093E+01 0.  1.
       -5    1    3    3    0  502  0.15634746037E+04  0.24156716909E+03  0.86252114389E+03  0.18018802256E+04  0.46999998093E+01 0. -1.
</event>
<event>
 5   0  0.1003191E-06  0.3330051E+04  0.7818609E-02  0.8155291E-01
        1   -1    0    0  501    0  0.00000000000E+00  0.00000000000E+00  0.23091209056E+04  0.23091209056E+04  0.50400001928E-02 0.  1.
       -1   -1    0    0    0  501  0.00000000000E+00  0.00000000000E+00 -0.12005911329E+04  0.12005911329E+04  0.50400001928E-02 0. -1.
    10030    2    1    2    0    0  0.00000000000E+00  0.00000000000E+00  0.11085297727E+04  0.35097120385E+04  0.33300511011E+04 0.  0.
        5    1    3    3  502    0 -0.15366530273E+04 -0.31748886335E+03  0.11412564859E+04  0.19402551794E+04  0.46999998093E+01 0.  1.
       -5    1    3    3    0  502  0.15366530273E+04  0.31748886335E+03 -0.32726713143E+02  0.15694568591E+04  0.46999998093E+01 0. -1.
</event>
<event>
 5   0  0.2906701E-06  0.3371416E+04  0.7818609E-02  0.8144958E-01
       -2   -1    0    0    0  501  0.00000000000E+00  0.00000000000E+00  0.11062447348E+04  0.11062447348E+04  0.25500000920E-02 0.  1.
        2   -1    0    0  501    0  0.00000000000E+00  0.00000000000E+00 -0.25687002844E+04  0.25687002844E+04  0.25500000920E-02 0. -1.
    10030    2    1    2    0    0  0.00000000000E+00  0.00000000000E+00 -0.14624555496E+04  0.36749450192E+04  0.33714158242E+04 0.  0.
        5    1    3    3  502    0  0.14417673710E+04  0.51736755871E+03 -0.14983076074E+04  0.21427342625E+04  0.46999998093E+01 0. -1.
       -5    1    3    3    0  502 -0.14417673710E+04 -0.51736755871E+03  0.35852057838E+02  0.15322107567E+04  0.46999998093E+01 0.  1.
</event>
<event>
 5   0  0.1010855E-06  0.3227824E+04  0.7818609E-02  0.8181507E-01
        1   -1    0    0  501    0  0.00000000000E+00  0.00000000000E+00  0.20111665604E+04  0.20111665604E+04  0.50400001928E-02 0. -1.
       -1   -1    0    0    0  501  0.00000000000E+00  0.00000000000E+00 -0.12951247360E+04  0.12951247360E+04  0.50400001928E-02 0.  1.
    10030    2    1    2    0    0  0.00000000000E+00  0.00000000000E+00  0.71604182442E+03  0.33062912965E+04  0.32278237627E+04 0.  0.
        1    1    3    3  502    0  0.92871719511E+03  0.13026643112E+04  0.14010127445E+03  0.16059509031E+04  0.50400001928E-02 0.  1.
       -1    1    3    3    0  502 -0.92871719511E+03 -0.13026643112E+04  0.57594054997E+03  0.17003403933E+04  0.50400001928E-02 0. -1.
</event>
<event>
 5   0  0.9714317E-07  0.3483126E+04  0.7818609E-02  0.8117800E-01
       -1   -1    0    0    0  501  0.00000000000E+00  0.00000000000E+00  0.13315021249E+04  0.13315021249E+04  0.50400001928E-02 0. -1.
        1   -1    0    0  501    0  0.00000000000E+00  0.00000000000E+00 -0.22779101452E+04  0.22779101452E+04  0.50400001928E-02 0.  1.
    10030    2    1    2    0    0  0.00000000000E+00  0.00000000000E+00 -0.94640802032E+03  0.36094122701E+04  0.34831262961E+04 0.  0.
        4    1    3    3  502    0  0.63614861709E+03 -0.11933306172E+04 -0.16104064373E+04  0.21028869515E+04  0.12699999809E+01 0.  1.
       -4    1    3    3    0  502 -0.63614861709E+03  0.11933306172E+04  0.66399841695E+03  0.15065253186E+04  0.12699999809E+01 0. -1.
</event>
<event>
 5   0  0.1003191E-06  0.2606818E+04  0.7818609E-02  0.8365889E-01
       -1   -1    0    0    0  501  0.00000000000E+00  0.00000000000E+00  0.80331494534E+03  0.80331494536E+03  0.50400001928E-02 0. -1.
        1   -1    0    0  501    0  0.00000000000E+00  0.00000000000E+00 -0.21148304117E+04  0.21148304117E+04  0.50400001928E-02 0.  1.
    10030    2    1    2    0    0  0.00000000000E+00  0.00000000000E+00 -0.13115154664E+04  0.29181453571E+04  0.26068178890E+04 0.  0.
        5    1    3    3  502    0 -0.12493521514E+04  0.96917472374E+02 -0.25435415776E+03  0.12786680266E+04  0.46999998093E+01 0. -1.
       -5    1    3    3    0  502  0.12493521514E+04 -0.96917472374E+02 -0.10571613086E+04  0.16394773305E+04  0.46999998093E+01 0.  1.
</event>
<event>
 5   0  0.9714317E-07  0.3426094E+04  0.7818609E-02  0.8131531E-01
        1   -1    0    0  501    0  0.00000000000E+00  0.00000000000E+00  0.19431032589E+04  0.19431032589E+04  0.50400001928E-02 0.  1.
       -1   -1    0    0    0  501  0.00000000000E+00  0.00000000000E+00 -0.15102287110E+04  0.15102287110E+04  0.50400001928E-02 0. -1.
    10030    2    1    2    0    0  0.00000000000E+00  0.00000000000E+00  0.43287454785E+03  0.34533319699E+04  0.34260941786E+04 0.  0.
        4    1    3    3  502    0  0.43515913293E+03 -0.13516490873E+04  0.11822880637E+04  0.18477352096E+04  0.12699999809E+01 0.  1.
       -4    1    3    3    0  502 -0.43515913293E+03  0.13516490873E+04 -0.74941351590E+03  0.16055967604E+04  0.12699999809E+01 0. -1.
</event>
<event>
 5   0  0.9714317E-07  0.3236267E+04  0.7818609E-02  0.8179304E-01
       -1   -1    0    0    0  501  0.00000000000E+00  0.00000000000E+00  0.10720503862E+04  0.10720503862E+04  0.50400001928E-02 0.  1.
        1   -1    0    0  501    0  0.00000000000E+00  0.00000000000E+00 -0.24423822155E+04  0.24423822155E+04  0.50400001928E-02 0. -1.
    10030    2    1    2    0    0  0.00000000000E+00  0.00000000000E+00 -0.13703318293E+04  0.35144326018E+04  0.32362674782E+04 0.  0.
        4    1    3    3  502    0  0.11341052433E+04 -0.72888566992E+03 -0.16570091253E+04  0.21361530556E+04  0.12699999809E+01 0. -1.
       -4    1    3    3    0  502 -0.11341052433E+04  0.72888566992E+03  0.28667729596E+03  0.13782795462E+04  0.12699999809E+01 0.  1.
</event>
<event>
 5   0  0.9714317E-07  0.3437627E+04  0.7818609E-02  0.8128733E-01
       -1   -1    0    0    0  501  0.00000000000E+00  0.00000000000E+00  0.13929656659E+04  0.13929656659E+04  0.50400001928E-02 0.  1.
        1   -1    0    0  501    0  0.00000000000E+00  0.00000000000E+00 -0.21208850096E+04  0.21208850097E+04  0.50400001928E-02 0. -1.
    10030    2    1    2    0    0  0.00000000000E+00  0.00000000000E+00 -0.72791934372E+03  0.35138506756E+04  0.34376270885E+04 0.  0.
        4    1    3    3  502    0  0.11906383526E+04  0.10067905128E+04  0.37531375222E+03  0.16037795512E+04  0.12699999809E+01 0.  1.
       -4    1    3    3    0  502 -0.11906383526E+04 -0.10067905128E+04 -0.11032330959E+04  0.19100711244E+04  0.12699999809E+01 0. -1.
</event>
<event>
 5   0  0.9232963E-07  0.3263374E+04  0.7818609E-02  0.8172278E-01
        1   -1    0    0  501    0  0.00000000000E+00  0.00000000000E+00  0.90473881050E+03  0.90473881052E+03  0.50400001928E-02 0. -1.
       -1   -1    0    0    0  501  0.00000000000E+00  0.00000000000E+00 -0.29427310125E+04  0.29427310125E+04  0.50400001928E-02 0.  1.
    10030    2    1    2    0    0  0.00000000000E+00  0.00000000000E+00 -0.20379922020E+04  0.38474698230E+04  0.32633743003E+04 0.  0.
        3    1    3    3  502    0 -0.10087589452E+04  0.41274229173E+03  0.41261043577E+03  0.11654176037E+04  0.10100000352E+00 0. -1.
       -3    1    3    3    0  502  0.10087589452E+04 -0.41274229173E+03 -0.24506026378E+04  0.26820522194E+04  0.10100000352E+00 0.  1.
</event>
<event>
 5   0  0.2664083E-06  0.2727927E+04  0.7818609E-02  0.8326000E-01
        2   -1    0    0  501    0  0.00000000000E+00  0.00000000000E+00  0.21491269586E+04  0.21491269586E+04  0.25500000920E-02 0.  1.
       -2   -1    0    0    0  501  0.00000000000E+00  0.00000000000E+00 -0.86565247306E+03  0.86565247306E+03  0.25500000920E-02 0. -1.
    10030    2    1    2    0    0  0.00000000000E+00  0.00000000000E+00  0.12834744856E+04  0.30147794317E+04  0.27279274673E+04 0.  0.
        2    1    3    3  502    0  0.12035302299E+04  0.96091873672E+01 -0.67475111480E+02  0.12054585192E+04  0.25500000920E-02 0. -1.
       -2    1    3    3    0  502 -0.12035302299E+04 -0.96091873672E+01  0.13509495970E+04  0.18093209125E+04  0.25500000920E-02 0.  1.
</event>
<event>
 5   0  0.9232963E-07  0.3367163E+04  0.7818609E-02  0.8146013E-01
        1   -1    0    0  501    0  0.00000000000E+00  0.00000000000E+00  0.14621142122E+04  0.14621142122E+04  0.50400001928E-02 0.  1.
       -1   -1    0    0    0  501  0.00000000000E+00  0.00000000000E+00 -0.19385944369E+04  0.19385944369E+04  0.50400001928E-02 0. -1.
    10030    2    1    2    0    0  0.00000000000E+00  0.00000000000E+00 -0.47648022472E+03  0.34007086492E+04  0.33671628876E+04 0.  0.
        3    1    3    3  502    0  0.12730116679E+04  0.10684365574E+04  0.33383666025E+02  0.16622965630E+04  0.10100000352E+00 0. -1.
       -3    1    3    3    0  502 -0.12730116679E+04 -0.10684365574E+04 -0.50986389074E+03  0.17384120862E+04  0.10100000352E+00 0.  1.
</event>
<event>
 5   0  0.1010855E-06  0.3413481E+04  0.7818609E-02  0.8134605E-01
       -1   -1    0    0    0  501  0.00000000000E+00  0.00000000000E+00  0.24582802470E+04  0.24582802470E+04  0.50400001928E-02 0.  1.
        1   -1    0    0  501    0  0.00000000000E+00  0.00000000000E+00 -0.11849600530E+04  0.11849600530E+04  0.50400001928E-02 0. -1.
    10030    2    1    2    0    0  0.00000000000E+00  0.00000000000E+00  0.12733201940E+04  0.36432403000E+04  0.34134814438E+04 0.  0.
        1    1    3    3  502    0 -0.52706566189E+03 -0.15474562071E+04  0.11319418212E+03  0.16386677051E+04  0.50400001928E-02 0. -1.
       -1    1    3    3    0  502  0.52706566189E+03  0.15474562071E+04  0.11601260118E+04  0.20045725949E+04  0.50400001928E-02 0.  1.
</event>
<event>
 5   0  0.2906701E-06  0.2142915E+04  0.7818609E-02  0.8542571E-01
        2   -1    0    0  501    0  0.00000000000E+00  0.00000000000E+00  0.18093512901E+04  0.18093512901E+04  0.25500000920E-02 0.  1.
       -2   -1    0    0    0  501  0.00000000000E+00  0.00000000000E+00 -0.63449316156E+03  0.63449316156E+03  0.25500000920E-02 0. -1.
    10030    2    1    2    0    0  0.00000000000E+00  0.00000000000E+00  0.11748581286E+04  0.24438444517E+04  0.21429148564E+04 0.  0.
        5    1    3    3  502    0  0.29889549645E+03 -0.96840466078E+03  0.19097118930E+03  0.10313283618E+04  0.46999998093E+01 0. -1.
       -5    1    3    3    0  502 -0.29889549645E+03  0.96840466078E+03  0.98388693925E+03  0.14125160898E+04  0.46999998093E+01 0.  1.
</event>
<event>
 5   0  0.1010551E-06  0.3410248E+04  0.7818609E-02  0.8135396E-01
       -1   -1    0    0    0  501  0.00000000000E+00  0.00000000000E+00  0.13412259141E+04  0.13412259141E+04  0.50400001928E-02 0. -1.
        1   -1    0    0  501    0  0.00000000000E+00  0.00000000000E+00 -0.21677546220E+04  0.21677546220E+04  0.50400001928E-02 0.  1.
    10030    2    1    2    0    0  0.00000000000E+00  0.00000000000E+00 -0.82652870787E+03  0.35089805361E+04  0.34102484804E+04 0.  0.
        2    1    3    3  502    0 -0.17022679826E+04  0.82294164055E+02 -0.46924594520E+03  0.17676765459E+04  0.25500000920E-02 0.  1.
       -2    1    3    3    0  502  0.17022679826E+04 -0.82294164055E+02 -0.35728276266E+03  0.17413039902E+04  0.25500000920E-02 0. -1.
</event>
<event>
 5   0  0.9232963E-07  0.3402121E+04  0.7818609E-02  0.8137386E-01
       -1   -1    0    0    0  501  0.00000000000E+00  0.00000000000E+00  0.22494472693E+04  0.22494472693E+04  0.50400001928E-02 0. -1.
        1   -1    0    0  501    0  0.00000000000E+00  0.00000000000E+00 -0.12863635655E+04  0.12863635655E+04  0.50400001928E-02 0.  1.
    10030    2    1    2    0    0  0.00000000000E+00  0.00000000000E+00  0.96308370378E+03  0.35358108349E+04  0.34021211089E+04 0.  0.
        3    1    3    3  502    0 -0.12294120351E+04 -0.82053029255E+03  0.13565791399E+04  0.20062479622E+04  0.10100000352E+00 0. -1.
       -3    1    3    3    0  502  0.12294120351E+04  0.82053029255E+03 -0.39349543607E+03  0.15295628726E+04  0.10100000352E+00 0.  1.
</event>
<event>
 5   0  0.9714317E-07  0.3344427E+04  0.7818609E-02  0.8151682E-01
       -1   -1    0    0    0  501  0.00000000000E+00  0.00000000000E+00  0.14803921887E+04  0.14803921888E+04  0.50400001928E-02 0.  1.
        1   -1    0    0  501    0  0.00000000000E+00  0.00000000000E+00 -0.18888897340E+04  0.18888897340E+04  0.50400001928E-02 0. -1.
    10030    2    1    2    0    0  0.00000000000E+00  0.00000000000E+00 -0.40849754530E+03  0.33692819228E+04  0.33444267716E+04 0.  0.
        4    1    3    3  502    0  0.62169002582E+03 -0.49487929253E+03  0.12780432715E+04  0.15049253201E+04  0.12699999809E+01 0.  1.
       -4    1    3    3    0  502 -0.62169002582E+03  0.49487929253E+03 -0.16865408168E+04  0.18643566027E+04  0.12699999809E+01 0. -1.
</event>
<event>
 5   0  0.9714317E-07  0.3729566E+04  0.7818609E-02  0.8061441E-01
        1   -1    0    0  501    0  0.00000000000E+00  0.00000000000E+00  0.22366597302E+04  0.22366597302E+04  0.50400001928E-02 0.  1.
       -1   -1    0    0    0  501  0.00000000000E+00  0.00000000000E+00 -0.15547359498E+04  0.15547359498E+04  0.50400001928E-02 0. -1.
    10030    2    1    2    0    0  0.00000000000E+00  0.00000000000E+00  0.68192378042E+03  0.37913956800E+04  0.37295658139E+04 0.  0.
        4    1    3    3  502    0 -0.16225276325E+04 -0.42774994065E+03  0.11679892611E+04  0.20444477144E+04  0.12699999809E+01 0.  1.
       -4    1    3    3    0  502  0.16225276325E+04  0.42774994065E+03 -0.48606548066E+03  0.17469479656E+04  0.12699999809E+01 0. -1.
</event>
<event>
 5   0  0.2856440E-06  0.3053390E+04  0.7818609E-02  0.8228647E-01
        2   -1    0    0  501    0  0.00000000000E+00  0.00000000000E+00  0.28228585473E+04  0.28228585473E+04  0.25500000920E-02 0. -1.
       -2   -1    0    0    0  501  0.00000000000E+00  0.00000000000E+00 -0.82568704719E+03  0.82568704719E+03  0.25500000920E-02 0.  1.
    10030    2    1    2    0    0  0.00000000000E+00  0.00000000000E+00  0.19971715002E+04  0.36485455945E+04  0.30533900757E+04 0.  0.
        4    1    3    3  502    0  0.93662428582E+03 -0.98388393474E+03  0.16599101576E+03  0.13685201058E+04  0.12699999809E+01 0.  1.
       -4    1    3    3    0  502 -0.93662428582E+03  0.98388393474E+03  0.18311804844E+04  0.22800254887E+04  0.12699999809E+01 0. -1.
</event>
<event>
 5   0  0.9232963E-07  0.3443012E+04  0.7818609E-02  0.8127430E-01
        1   -1    0    0  501    0  0.00000000000E+00  0.00000000000E+00  0.12238005721E+04  0.12238005721E+04  0.50400001928E-02 0. -1.
       -1   -1    0    0    0  501  0.00000000000E+00  0.00000000000E+00 -0.24216227262E+04  0.24216227262E+04  0.50400001928E-02 0.  1.
    10030    2    1    2    0    0  0.00000000000E+00  0.00000000000E+00 -0.11978221541E+04  0.36454232983E+04  0.34430122148E+04 0.  0.
        3    1    3    3  502    0 -0.34606031346E+03 -0.26635765273E+03 -0.23620026546E+04  0.24020326164E+04  0.10100000352E+00 0.  1.
       -3    1    3    3    0  502  0.34606031346E+03  0.26635765273E+03  0.11641805006E+04  0.12433906819E+04  0.10100000352E+00 0. -1.
</event>
<event>
 5   0  0.2664083E-06  0.3545005E+04  0.7818609E-02  0.8103206E-01
        2   -1    0    0  501    0  0.00000000000E+00  0.00000000000E+00  0.19351374600E+04  0.19351374600E+04  0.25500000920E-02 0. -1.
       -2   -1    0    0    0  501  0.00000000000E+00  0.00000000000E+00 -0.16235355039E+04  0.16235355039E+04  0.25500000920E-02 0.  1.
    10030    2    1    2    0    0  0.00000000000E+00  0.00000000000E+00  0.31160195609E+03  0.35586729639E+04  0.35450045818E+04 0.  0.
        2    1    3    3  502    0  0.14515401154E+04  0.76624937529E+03 -0.51585090920E+03  0.17205257837E+04  0.25500000920E-02 0. -1.
       -2    1    3    3    0  502 -0.14515401154E+04 -0.76624937529E+03  0.82745286529E+03  0.18381471802E+04  0.25500000920E-02 0.  1.
</event>
<event>
 5   0  0.2906701E-06  0.3416464E+04  0.7818609E-02  0.8133877E-01
       -2   -1    0    0    0  501  0.00000000000E+00  0.00000000000E+00  0.13903614613E+04  0.13903614613E+04  0.25500000920E-02 0.  1.
        2   -1    0    0  501    0  0.00000000000E+00  0.00000000000E+00 -0.20987748848E+04  0.20987748848E+04  0.25500000920E-02 0. -1.
    10030    2    1    2    0    0  0.00000000000E+00  0.00000000000E+00 -0.70841342346E+03  0.34891363461E+04  0.34164635024E+04 0.  0.
        5    1    3    3  502    0  0.47581834855E+03  0.14609383621E+04  0.40819108946E+03  0.15897754729E+04  0.46999998093E+01 0.  1.
       -5    1    3    3    0  502 -0.47581834855E+03 -0.14609383621E+04 -0.11166045129E+04  0.18993608733E+04  0.46999998093E+01 0. -1.
</event>
<event>
 5   0  0.2848685E-06  0.2867736E+04  0.7818609E-02  0.8282542E-01
       -2   -1    0    0    0  501  0.00000000000E+00  0.00000000000E+00  0.11630811883E+04  0.11630811883E+04  0.25500000920E-02 0. -1.
        2   -1    0    0  501    0  0.00000000000E+00  0.00000000000E+00 -0.17676994965E+04  0.17676994965E+04  0.25500000920E-02 0.  1.
    10030    2    1    2    0    0  0.00000000000E+00  0.00000000000E+00 -0.60461830821E+03  0.29307806847E+04  0.28677364111E+04 0.  0.
        3    1    3    3  502    0  0.56944818038E+03  0.12658001949E+04  0.65401560121E+02  0.13895318412E+04  0.10100000352E+00 0. -1.
       -3    1    3    3    0  502 -0.56944818038E+03 -0.12658001949E+04 -0.67001986833E+03  0.15412488435E+04  0.10100000352E+00 0.  1.
</event>
<event>
 5   0  0.1010551E-06  0.3429878E+04  0.7818609E-02  0.8130612E-01
       -1   -1    0    0    0  501  0.00000000000E+00  0.00000000000E+00  0.20186499406E+04  0.20186499406E+04  0.50400001928E-02 0.  1.
        1   -1    0    0  501    0  0.00000000000E+00  0.00000000000E+00 -0.14569222378E+04  0.14569222378E+04  0.50400001928E-02 0. -1.
    10030    2    1    2    0    0  0.00000000000E+00  0.00000000000E+00  0.56172770278E+03  0.34755721784E+04  0.34298781254E+04 0.  0.
        2    1    3    3  502    0  0.45100345504E+03  0.97273731256E+03 -0.10753968578E+04  0.15185849984E+04  0.25500000920E-02 0. -1.
       -2    1    3    3    0  502 -0.45100345504E+03 -0.97273731256E+03  0.16371245606E+04  0.19569871800E+04  0.25500000920E-02 0.  1.
</event>
<event>
 5   0  0.2848685E-06  0.3420054E+04  0.7818609E-02  0.8133002E-01
       -2   -1    0    0    0  501  0.00000000000E+00  0.00000000000E+00  0.14408047603E+04  0.14408047603E+04  0.25500000920E-02 0. -1.
        2   -1    0    0  501    0  0.00000000000E+00  0.00000000000E+00 -0.20295553320E+04  0.20295553320E+04  0.25500000920E-02 0.  1.
    10030    2    1    2    0    0  0.00000000000E+00  0.00000000000E+00 -0.58875057174E+03  0.34703600923E+04  0.34200543759E+04 0.  0.
        3    1    3    3  502    0  0.89391591085E+03 -0.84248163260E+03 -0.15015515705E+04  0.19399788880E+04  0.10100000352E+00 0.  1.
       -3    1    3    3    0  502 -0.89391591085E+03  0.84248163260E+03  0.91280099872E+03  0.15303812043E+04  0.10100000352E+00 0. -1.
</event>
<event>
 5   0  0.1003191E-06  0.2903569E+04  0.7818609E-02  0.8271816E-01
        1   -1    0    0  501    0  0.00000000000E+00  0.00000000000E+00  0.13052193137E+04  0.13052193137E+04  0.50400001928E-02 0.  1.
       -1   -1    0    0    0  501  0.00000000000E+00  0.00000000000E+00 -0.16148080634E+04  0.16148080634E+04  0.50400001928E-02 0. -1.
    10030    2    1    2    0    0  0.00000000000E+00  0.00000000000E+00 -0.30958874967E+03  0.29200273771E+04  0.29035693016E+04 0.  0.
        5    1    3    3  502    0 -0.79728687931E+03  0.18440850089E+03 -0.13607510663E+04  0.15878722926E+04  0.46999998093E+01 0. -1.
       -5    1    3    3    0  502  0.79728687931E+03 -0.18440850089E+03  0.10511623167E+04  0.13321550845E+04  0.46999998093E+01 0.  1.
</event>
<event>
 5   0  0.9232963E-07  0.3445478E+04  0.7818609E-02  0.8126834E-01
        1   -1    0    0  501    0  0.00000000000E+00  0.00000000000E+00  0.12998610800E+04  0.12998610800E+04  0.50400001928E-02 0. -1.
       -1   -1    0    0    0  501  0.00000000000E+00  0.00000000000E+00 -0.22831902617E+04  0.22831902617E+04  0.50400001928E-02 0.  1.
    10030    2    1    2    0    0  0.00000000000E+00  0.00000000000E+00 -0.98332918167E+03  0.35830513417E+04  0.34454782887E+04 0.  0.
        3    1    3    3  502    0 -0.53826855926E+03  0.13358402867E+04 -0.14747287386E+04  0.20613168549E+04  0.10100000352E+00 0.  1.
       -3    1    3    3    0  502  0.53826855926E+03 -0.13358402867E+04  0.49139955696E+03  0.15217344868E+04  0.10100000352E+00 0. -1.
</event>
<event>
 5   0  0.1010855E-06  0.3388107E+04  0.7818609E-02  0.8140832E-01
       -1   -1    0    0    0  501  0.00000000000E+00  0.00000000000E+00  0.19496636190E+04  0.19496636190E+04  0.50400001928E-02 0. -1.
        1   -1    0    0  501    0  0.00000000000E+00  0.00000000000E+00 -0.14719546892E+04  0.14719546892E+04  0.50400001928E-02 0.  1.
    10030    2    1    2    0    0  0.00000000000E+00  0.00000000000E+00  0.47770892982E+03  0.34216183082E+04  0.33881065547E+04 0.  0.
        1    1    3    3  502    0 -0.16378322861E+04  0.27354306146E+03 -0.99867405678E+02  0.16635185309E+04  0.50400001928E-02 0.  1.
       -1    1    3    3    0  502  0.16378322861E+04 -0.27354306146E+03  0.57757633550E+03  0.17580997774E+04  0.50400001928E-02 0. -1.
</event>
<event>
 5   0  0.2856440E-06  0.3399530E+04  0.7818609E-02  0.8138022E-01
        2   -1    0    0  501    0  0.00000000000E+00  0.00000000000E+00  0.15636021819E+04  0.15636021819E+04  0.25500000920E-02 0. -1.
       -2   -1    0    0    0  501  0.00000000000E+00  0.00000000000E+00 -0.18477856454E+04  0.18477856454E+04  0.25500000920E-02 0.  1.
    10030    2    1    2    0    0  0.00000000000E+00  0.00000000000E+00 -0.28418346346E+03  0.34113878274E+04  0.33995303599E+04 0.  0.
        4    1    3    3  502    0  0.16671514725E+04  0.32118996526E+03 -0.60302673547E+02  0.16988805289E+04  0.12699999809E+01 0.  1.
       -4    1    3    3    0  502 -0.16671514725E+04 -0.32118996526E+03 -0.22388078991E+03  0.17125072984E+04  0.12699999809E+01 0. -1.
</event>
<event>
 5   0  0.9714317E-07  0.3416436E+04  0.7818609E-02  0.8133884E-01
        1   -1    0    0  501    0  0.00000000000E+00  0.00000000000E+00  0.20097916009E+04  0.20097916009E+04  0.50400001928E-02 0. -1.
       -1   -1    0    0    0  501  0.00000000000E+00  0.00000000000E+00 -0.14518963591E+04  0.14518963591E+04  0.50400001928E-02 0.  1.
    10030    2    1    2    0    0  0.00000000000E+00  0.00000000000E+00  0.55789524187E+03  0.34616879600E+04  0.34164362180E+04 0.  0.
        4    1    3    3  502    0  0.13825524326E+04 -0.71216021292E+03  0.99497883412E+03  0.18462415582E+04  0.12699999809E+01 0. -1.
       -4    1    3    3    0  502 -0.13825524326E+04  0.71216021292E+03 -0.43708359225E+03  0.16154464019E+04  0.12699999809E+01 0.  1.
</event>
<event>
 5   0  0.2906701E-06  0.2711203E+04  0.7818609E-02  0.8331379E-01
        2   -1    0    0  501    0  0.00000000000E+00  0.00000000000E+00  0.18307956667E+04  0.18307956667E+04  0.25500000920E-02 0.  1.
       -2   -1    0    0    0  501  0.00000000000E+00  0.00000000000E+00 -0.10037466119E+04  0.10037466119E+04  0.25500000920E-02 0. -1.
    10030    2    1    2    0    0  0.00000000000E+00  0.00000000000E+00  0.82704905477E+03  0.28345422786E+04  0.27112026465E+04 0.  0.
        5    1    3    3  502    0 -0.18892296853E+03  0.33439874054E+02  0.18165205599E+04  0.18266305450E+04  0.46999998093E+01 0.  1.
       -5    1    3    3    0  502  0.18892296853E+03 -0.33439874054E+02 -0.98947150517E+03  0.10079117336E+04  0.46999998093E+01 0. -1.
</event>
<event>
 5   0  0.1003191E-06  0.3186290E+04  0.7818609E-02  0.8192447E-01
       -1   -1    0    0    0  501  0.00000000000E+00  0.00000000000E+00  0.31737015151E+04  0.31737015151E+04  0.50400001928E-02 0.  1.
        1   -1    0    0  501    0  0.00000000000E+00  0.00000000000E+00 -0.79973191842E+03  0.79973191843E+03  0.50400001928E-02 0. -1.
    10030    2    1    2    0    0  0.00000000000E+00  0.00000000000E+00  0.23739695967E+04  0.39734334335E+04  0.31862896298E+04 0.  0.
        5    1    3    3  502    0  0.15342006629E+04 -0.17433228910E+03  0.16762396240E+04  0.22790271582E+04  0.46999998093E+01 0.  1.
       -5    1    3    3    0  502 -0.15342006629E+04  0.17433228910E+03  0.69772997265E+03  0.16944062753E+04  0.46999998093E+01 0. -1.
</event>
<event>
 5   0  0.2664083E-06  0.3461601E+04  0.7818609E-02  0.8122951E-01
       -2   -1    0    0    0  501  0.00000000000E+00  0.00000000000E+00  0.11710766483E+04  0.11710766483E+04  0.25500000920E-02 0. -1.
        2   -1    0    0  501    0  0.00000000000E+00  0.00000000000E+00 -0.25580484860E+04  0.25580484860E+04  0.25500000920E-02 0.  1.
    10030    2    1    2    0    0  0.00000000000E+00  0.00000000000E+00 -0.13869718376E+04  0.37291251343E+04  0.34616012753E+04 0.  0.
        2    1    3    3  502    0  0.68227246018E+02  0.38537818573E+03 -0.25097546927E+04  0.25400865971E+04  0.25500000920E-02 0.  1.
       -2    1    3    3    0  502 -0.68227246018E+02 -0.38537818573E+03  0.11227828551E+04  0.11890385372E+04  0.25500000920E-02 0. -1.
</event>
<event>
 5   0  0.2856440E-06  0.3379058E+04  0.7818609E-02  0.8143065E-01
       -2   -1    0    0    0  501  0.00000000000E+00  0.00000000000E+00  0.24898783622E+04  0.24898783622E+04  0.25500000920E-02 0.  1.
        2   -1    0    0  501    0  0.00000000000E+00  0.00000000000E+00 -0.11464449106E+04  0.11464449106E+04  0.25500000920E-02 0. -1.
    10030    2    1    2    0    0  0.00000000000E+00  0.00000000000E+00  0.13434334517E+04  0.36363232728E+04  0.33790580796E+04 0.  0.
        4    1    3    3  502    0  0.46538085648E+02 -0.16885041409E+04  0.63299475467E+03  0.18038558700E+04  0.12699999809E+01 0. -1.
       -4    1    3    3    0  502 -0.46538085648E+02  0.16885041409E+04  0.71043869699E+03  0.18324674028E+04  0.12699999809E+01 0.  1.
</event>
<event>
 5   0  0.2664083E-06  0.3192739E+04  0.7818609E-02  0.8190737E-01
       -2   -1    0    0    0  501  0.00000000000E+00  0.00000000000E+00  0.13917932350E+04  0.13917932350E+04  0.25500000920E-02 0.  1.
        2   -1    0    0  501    0  0.00000000000E+00  0.00000000000E+00 -0.18310158647E+04  0.18310158647E+04  0.25500000920E-02 0. -1.
    10030    2    1    2    0    0  0.00000000000E+00  0.00000000000E+00 -0.43922262969E+03  0.32228090997E+04  0.31927389456E+04 0.  0.
        2    1    3    3  502    0 -0.74819221301E+03  0.13457717094E+04 -0.64488969097E+03  0.16693638893E+04  0.25500000920E-02 0. -1.
       -2    1    3    3    0  502  0.74819221301E+03 -0.13457717094E+04  0.20566706129E+03  0.15534452103E+04  0.25500000920E-02 0.  1.
</event>
<event>
 5   0  0.9714317E-07  0.3384269E+04  0.7818609E-02  0.8141778E-01
        1   -1    0    0  501    0  0.00000000000E+00  0.00000000000E+00  0.33023130813E+04  0.33023130813E+04  0.50400001928E-02 0.  1.
       -1   -1    0    0    0  501  0.00000000000E+00  0.00000000000E+00 -0.86706467641E+03  0.86706467642E+03  0.50400001928E-02 0. -1.
    10030    2    1    2    0    0  0.00000000000E+00  0.00000000000E+00  0.24352484049E+04  0.41693777577E+04  0.33842689156E+04 0.  0.
        4    1    3    3  502    0 -0.72605847906E+03 -0.13186853586E+04  0.21697087634E+04  0.26407820283E+04  0.12699999809E+01 0.  1.
       -4    1    3    3    0  502  0.72605847906E+03  0.13186853586E+04  0.26553964153E+03  0.15285957295E+04  0.12699999809E+01 0. -1.
</event>
<event>
 5   0  0.2906701E-06  0.3343174E+04  0.7818609E-02  0.8151996E-01
        2   -1    0    0  501    0  0.00000000000E+00  0.00000000000E+00  0.15925520504E+04  0.15925520504E+04  0.25500000920E-02 0. -1.
       -2   -1    0    0    0  501  0.00000000000E+00  0.00000000000E+00 -0.17545443904E+04  0.17545443904E+04  0.25500000920E-02 0.  1.
    10030    2    1    2    0    0  0.00000000000E+00  0.00000000000E+00 -0.16199233992E+03  0.33470964408E+04  0.33431741004E+04 0.  0.
        5    1    3    3  502    0  0.60171113357E+03  0.10386862815E+04  0.10836638417E+04  0.16171811560E+04  0.46999998093E+01 0. -1.
       -5    1    3    3    0  502 -0.60171113357E+03 -0.10386862815E+04 -0.12456561816E+04  0.17299152848E+04  0.46999998093E+01 0.  1.
</event>
<event>
 5   0  0.1010551E-06  0.3397228E+04  0.7818609E-02  0.8138587E-01
       -1   -1    0    0    0  501  0.00000000000E+00  0.00000000000E+00  0.17484924975E+04  0.17484924975E+04  0.50400001928E-02 0. -1.
        1   -1    0    0  501    0  0.00000000000E+00  0.00000000000E+00 -0.16501586451E+04  0.16501586451E+04  0.50400001928E-02 0.  1.
    10030    2    1    2    0    0  0.00000000000E+00  0.00000000000E+00  0.98333852339E+02  0.33986511426E+04  0.33972282882E+04 0.  0.
        2    1    3    3  502    0  0.14538802115E+04  0.74462939385E+03 -0.41691381553E+03  0.16858403641E+04  0.25500000920E-02 0.  1.
       -2    1    3    3    0  502 -0.14538802115E+04 -0.74462939385E+03  0.51524766787E+03  0.17128107785E+04  0.25500000920E-02 0. -1.
</event>
<event>
 5   0  0.1010855E-06  0.2463631E+04  0.7818609E-02  0.8416058E-01
       -1   -1    0    0    0  501  0.00000000000E+00  0.00000000000E+00  0.14058386457E+04  0.14058386458E+04  0.50400001928E-02 0.  1.
        1   -1    0    0  501    0  0.00000000000E+00  0.00000000000E+00 -0.10793339152E+04  0.10793339152E+04  0.50400001928E-02 0. -1.
    10030    2    1    2    0    0  0.00000000000E+00  0.00000000000E+00  0.32650473057E+03  0.24851725609E+04  0.24636309217E+04 0.  0.
        1    1    3    3  502    0 -0.41730103489E+03 -0.40492188566E+03 -0.93218375687E+03  0.10986666664E+04  0.50400001928E-02 0. -1.
       -1    1    3    3    0  502  0.41730103489E+03  0.40492188566E+03  0.12586884874E+04  0.13865058946E+04  0.50400001928E-02 0.  1.
</event>
<event>
 5   0  0.1003191E-06  0.3528862E+04  0.7818609E-02  0.8106984E-01
        1   -1    0    0  501    0  0.00000000000E+00  0.00000000000E+00  0.29519472264E+04  0.29519472264E+04  0.50400001928E-02 0.  1.
       -1   -1    0    0    0  501  0.00000000000E+00  0.00000000000E+00 -0.10546318648E+04  0.10546318648E+04  0.50400001928E-02 0. -1.
    10030    2    1    2    0    0  0.00000000000E+00  0.00000000000E+00  0.18973153616E+04  0.40065790912E+04  0.35288624842E+04 0.  0.
        5    1    3    3  502    0  0.21384515937E+03 -0.87989668613E+03 -0.77069297341E+03  0.11890911150E+04  0.46999998093E+01 0. -1.
       -5    1    3    3    0  502 -0.21384515937E+03  0.87989668613E+03  0.26680083350E+04  0.28174879762E+04  0.46999998093E+01 0.  1.
</event>
<event>
 5   0  0.9714317E-07  0.3399072E+04  0.7818609E-02  0.8138134E-01
       -1   -1    0    0    0  501  0.00000000000E+00  0.00000000000E+00  0.25598397768E+04  0.25598397769E+04  0.50400001928E-02 0.  1.
        1   -1    0    0  501    0  0.00000000000E+00  0.00000000000E+00 -0.11283604348E+04  0.11283604348E+04  0.50400001928E-02 0. -1.
    10030    2    1    2    0    0  0.00000000000E+00  0.00000000000E+00  0.14314793420E+04  0.36882002117E+04  0.33990715930E+04 0.  0.
        4    1    3    3  502    0  0.11305806306E+04 -0.12380088029E+04  0.10178896316E+04  0.19613717836E+04  0.12699999809E+01 0.  1.
       -4    1    3    3    0  502 -0.11305806306E+04  0.12380088029E+04  0.41358971042E+03  0.17268284281E+04  0.12699999809E+01 0. -1.
</event>
<event>
 5   0  0.2767014E-06  0.3122359E+04  0.7818609E-02  0.8209628E-01
        2   -1    0    0  501    0  0.00000000000E+00  0.00000000000E+00  0.12424259679E+04  0.12424259679E+04  0.25500000920E-02 0.  1.
       -2   -1    0    0    0  501  0.00000000000E+00  0.00000000000E+00 -0.19617119267E+04  0.19617119267E+04  0.25500000920E-02 0. -1.
    10030    2    1    2    0    0  0.00000000000E+00  0.00000000000E+00 -0.71928595876E+03  0.32041378946E+04  0.31223592614E+04 0.  0.
        1    1    3    3  502    0 -0.87338337113E+03  0.65706789100E+03  0.78433946122E+03  0.13452602413E+04  0.50400001928E-02 0.  1.
       -1    1    3    3    0  502  0.87338337113E+03 -0.65706789100E+03 -0.15036254200E+04  0.18588776533E+04  0.50400001928E-02 0. -1.
</event>
<event>
 5   0  0.1010855E-06  0.3378505E+04  0.7818609E-02  0.8143202E-01
       -1   -1    0    0    0  501  0.00000000000E+00  0.00000000000E+00  0.23439857668E+04  0.23439857668E+04  0.50400001928E-02 0.  1.
        1   -1    0    0  501    0  0.00000000000E+00  0.00000000000E+00 -0.12174021991E+04  0.12174021991E+04  0.50400001928E-02 0. -1.
    10030    2    1    2    0    0  0.00000000000E+00  0.00000000000E+00  0.11265835677E+04  0.35613879658E+04  0.33785046556E+04 0.  0.
        1    1    3    3  502    0 -0.15375305207E+04 -0.67515552439E+03  0.36966892079E+03  0.17194447346E+04  0.50400001928E-02 0. -1.
       -1    1    3    3    0  502  0.15375305207E+04  0.67515552439E+03  0.75691464691E+03  0.18419432312E+04  0.50400001928E-02 0.  1.
</event>
<event>
 5   0  0.2848685E-06  0.3767785E+04  0.7818609E-02  0.8053104E-01
        2   -1    0    0  501    0  0.00000000000E+00  0.00000000000E+00  0.20882744318E+04  0.20882744318E+04  0.25500000920E-02 0. -1.
       -2   -1    0    0    0  501  0.00000000000E+00  0.00000000000E+00 -0.16995135108E+04  0.16995135108E+04  0.25500000920E-02 0.  1.
    10030    2    1    2    0    0  0.00000000000E+00  0.00000000000E+00  0.38876092103E+03  0.37877879425E+04  0.37677848192E+04 0.  0.
        3    1    3    3  502    0  0.18300630994E+04  0.24916891735E+03 -0.17885125298E+03  0.18555872057E+04  0.10100000352E+00 0.  1.
       -3    1    3    3    0  502 -0.18300630994E+04 -0.24916891735E+03  0.56761217401E+03  0.19322007368E+04  0.10100000352E+00 0. -1.
</event>
<event>
 5   0  0.2767014E-06  0.2237180E+04  0.7818609E-02  0.8503110E-01
       -2   -1    0    0    0  501  0.00000000000E+00  0.00000000000E+00  0.63213008964E+03  0.63213008965E+03  0.25500000920E-02 0. -1.
        2   -1    0    0  501    0  0.00000000000E+00  0.00000000000E+00 -0.19794081219E+04  0.19794081219E+04  0.25500000920E-02 0.  1.
    10030    2    1    2    0    0  0.00000000000E+00  0.00000000000E+00 -0.13472780322E+04  0.26115382115E+04  0.22371798618E+04 0.  0.
        1    1    3    3  502    0 -0.94971551068E+03 -0.52021696771E+03 -0.10010305574E+04  0.14746685802E+04  0.50400001928E-02 0.  1.
       -1    1    3    3    0  502  0.94971551068E+03  0.52021696771E+03 -0.34624747488E+03  0.11368696313E+04  0.50400001928E-02 0. -1.
</event>
<event>
 5   0  0.2767014E-06  0.3275831E+04  0.7818609E-02  0.8169072E-01
        2   -1    0    0  501    0  0.00000000000E+00  0.00000000000E+00  0.21032197323E+04  0.21032197323E+04  0.25500000920E-02 0.  1.
       -2   -1    0    0    0  501  0.00000000000E+00  0.00000000000E+00 -0.12755526477E+04  0.12755526477E+04  0.25500000920E-02 0. -1.
    10030    2    1    2    0    0  0.00000000000E+00  0.00000000000E+00  0.82766708463E+03  0.33787723800E+04  0.32758311911E+04 0.  0.
        1    1    3    3  502    0 -0.15081634987E+04  0.21550860882E+03 -0.20653752481E+03  0.15374195421E+04  0.50400001928E-02 0. -1.
       -1    1    3    3    0  502  0.15081634987E+04 -0.21550860882E+03  0.10342046094E+04  0.18413528379E+04  0.50400001928E-02 0.  1.
</event>
<event>
 5   0  0.2906701E-06  0.3379042E+04  0.7818609E-02  0.8143069E-01
        2   -1    0    0  501    0  0.00000000000E+00  0.00000000000E+00  0.17983653312E+04  0.17983653312E+04  0.25500000920E-02 0. -1.
       -2   -1    0    0    0  501  0.00000000000E+00  0.00000000000E+00 -0.15872639074E+04  0.15872639074E+04  0.25500000920E-02 0.  1.
    10030    2    1    2    0    0  0.00000000000E+00  0.00000000000E+00  0.21110142374E+03  0.33856292386E+04  0.33790415105E+04 0.  0.
        5    1    3    3  502    0 -0.97304538634E+03  0.12817015840E+04 -0.41011957525E+03  0.16606614436E+04  0.46999998093E+01 0.  1.
       -5    1    3    3    0  502  0.97304538634E+03 -0.12817015840E+04  0.62122099899E+03  0.17249677950E+04  0.46999998093E+01 0. -1.
</event>
<event>
 5   0  0.1003191E-06  0.3392015E+04  0.7818609E-02  0.8139869E-01
       -1   -1    0    0    0  501  0.00000000000E+00  0.00000000000E+00  0.17914153054E+04  0.17914153054E+04  0.50400001928E-02 0. -1.
        1   -1    0    0  501    0  0.00000000000E+00  0.00000000000E+00 -0.16056806810E+04  0.16056806810E+04  0.50400001928E-02 0.  1.
    10030    2    1    2    0    0  0.00000000000E+00  0.00000000000E+00  0.18573462444E+03  0.33970959864E+04  0.33920147096E+04 0.  0.
        5    1    3    3  502    0 -0.98283927116E+03 -0.13624183273E+04 -0.14042396137E+03  0.16857929026E+04  0.46999998093E+01 0.  1.
       -5    1    3    3    0  502  0.98283927116E+03  0.13624183273E+04  0.32615858581E+03  0.17113030838E+04  0.46999998093E+01 0. -1.
</event>
<event>
 5   0  0.2848685E-06  0.3465436E+04  0.7818609E-02  0.8122030E-01
        2   -1    0    0  501    0  0.00000000000E+00  0.00000000000E+00  0.29324284866E+04  0.29324284866E+04  0.25500000920E-02 0.  1.
       -2   -1    0    0    0  501  0.00000000000E+00  0.00000000000E+00 -0.10238313776E+04  0.10238313776E+04  0.25500000920E-02 0. -1.
    10030    2    1    2    0    0  0.00000000000E+00  0.00000000000E+00  0.19085971090E+04  0.39562598643E+04  0.34654363635E+04 0.  0.
        3    1    3    3  502    0 -0.15470738349E+04  0.64065008268E+03  0.44573642526E+03  0.17327870470E+04  0.10100000352E+00 0. -1.
       -3    1    3    3    0  502  0.15470738349E+04 -0.64065008268E+03  0.14628606837E+04  0.22234728173E+04  0.10100000352E+00 0.  1.
</event>
<event>
 5   0  0.9714317E-07  0.3437138E+04  0.7818609E-02  0.8128851E-01
       -1   -1    0    0    0  501  0.00000000000E+00  0.00000000000E+00  0.17036354633E+04  0.17036354633E+04  0.50400001928E-02 0. -1.
        1   -1    0    0  501    0  0.00000000000E+00  0.00000000000E+00 -0.17336331363E+04  0.17336331363E+04  0.50400001928E-02 0.  1.
    10030    2    1    2    0    0  0.00000000000E+00  0.00000000000E+00 -0.29997673047E+02  0.34372685996E+04  0.34371376995E+04 0.  0.
        4    1    3    3  502    0 -0.46030954893E+03 -0.11053155780E+04  0.12178781397E+04  0.17078747565E+04  0.12699999809E+01 0. -1.
       -4    1    3    3    0  502  0.46030954893E+03  0.11053155780E+04 -0.12478758127E+04  0.17293938431E+04  0.12699999809E+01 0.  1.
</event>
<event>
 5   0  0.1010855E-06  0.3444991E+04  0.7818609E-02  0.8126951E-01
       -1   -1    0    0    0  501  0.00000000000E+00  0.00000000000E+00  0.17566828567E+04  0.17566828567E+04  0.50400001928E-02 0. -1.
        1   -1    0    0  501    0  0.00000000000E+00  0.00000000000E+00 -0.16889739191E+04  0.16889739191E+04  0.50400001928E-02 0.  1.
    10030    2    1    2    0    0  0.00000000000E+00  0.00000000000E+00  0.67708937582E+02  0.34456567758E+04  0.34449914538E+04 0.  0.
        1    1    3    3  502    0 -0.14882484826E+04 -0.10384411946E+03  0.89502271576E+03  0.17397507893E+04  0.50400001928E-02 0. -1.
       -1    1    3    3    0  502  0.14882484826E+04  0.10384411946E+03 -0.82731377818E+03  0.17059059865E+04  0.50400001928E-02 0.  1.
</event>
<event>
 5   0  0.9232963E-07  0.3424572E+04  0.7818609E-02  0.8131902E-01
       -1   -1    0    0    0  501  0.00000000000E+00  0.00000000000E+00  0.94132365025E+03  0.94132365026E+03  0.50400001928E-02 0. -1.
        1   -1    0    0  501    0  0.00000000000E+00  0.00000000000E+00 -0.31146812807E+04  0.31146812807E+04  0.50400001928E-02 0.  1.
    10030    2    1    2    0    0  0.00000000000E+00  0.00000000000E+00 -0.21733576304E+04  0.40560049310E+04  0.34245718871E+04 0.  0.
        3    1    3    3  502    0  0.42992050039E+03  0.14940710175E+04 -0.23685339050E+03  0.15726345350E+04  0.10100000352E+00 0. -1.
       -3    1    3    3    0  502 -0.42992050039E+03 -0.14940710175E+04 -0.19365042399E+04  0.24833703959E+04  0.10100000352E+00 0.  1.
</event>
<event>
 5   0  0.9232963E-07  0.3409003E+04  0.7818609E-02  0.8135700E-01
       -1   -1    0    0    0  501  0.00000000000E+00  0.00000000000E+00  0.10757590163E+04  0.10757590163E+04  0.50400001928E-02 0. -1.
        1   -1    0    0  501    0  0.00000000000E+00  0.00000000000E+00 -0.27007219139E+04  0.27007219139E+04  0.50400001928E-02 0.  1.
    10030    2    1    2    0    0  0.00000000000E+00  0.00000000000E+00 -0.16249628976E+04  0.37764809302E+04  0.34090033438E+04 0.  0.
        3    1    3    3  502    0 -0.16000469536E+04  0.48918357338E+03 -0.45202166258E+03  0.17331400450E+04  0.10100000352E+00 0.  1.
       -3    1    3    3    0  502  0.16000469536E+04 -0.48918357338E+03 -0.11729412350E+04  0.20433408852E+04  0.10100000352E+00 0. -1.
</event>
<event>
 5   0  0.2664083E-06  0.3314980E+04  0.7818609E-02  0.8159094E-01
        2   -1    0    0  501    0  0.00000000000E+00  0.00000000000E+00  0.22807522083E+04  0.22807522083E+04  0.25500000920E-02 0.  1.
       -2   -1    0    0    0  501  0.00000000000E+00  0.00000000000E+00 -0.12045468145E+04  0.12045468145E+04  0.25500000920E-02 0. -1.
    10030    2    1    2    0    0  0.00000000000E+00  0.00000000000E+00  0.10762053938E+04  0.34852990228E+04  0.33149798233E+04 0.  0.
        2    1    3    3  502    0 -0.11208270117E+04  0.87857341525E+03  0.14296869029E+04  0.20179566587E+04  0.25500000920E-02 0.  1.
       -2    1    3    3    0  502  0.11208270117E+04 -0.87857341525E+03 -0.35348150911E+03  0.14673423641E+04  0.25500000920E-02 0. -1.
</event>
<event>
 5   0  0.1003191E-06  0.3476250E+04  0.7818609E-02  0.8119441E-01
        1   -1    0    0  501    0  0.00000000000E+00  0.00000000000E+00  0.15241752466E+04  0.15241752466E+04  0.50400001928E-02 0. -1.
       -1   -1    0    0    0  501  0.00000000000E+00  0.00000000000E+00 -0.19821076167E+04  0.19821076167E+04  0.50400001928E-02 0.  1.
    10030    2    1    2    0    0  0.00000000000E+00  0.00000000000E+00 -0.45793237010E+03  0.35062828634E+04  0.34762504890E+04 0.  0.
        5    1    3    3  502    0 -0.10263860690E+04  0.10073205488E+04 -0.12135625626E+04  0.18817330400E+04  0.46999998093E+01 0.  1.
       -5    1    3    3    0  502  0.10263860690E+04 -0.10073205488E+04  0.75563019251E+03  0.16245498233E+04  0.46999998093E+01 0. -1.
</event>
<event>
 5   0  0.2906701E-06  0.2769995E+04  0.7818609E-02  0.8312645E-01
       -2   -1    0    0    0  501  0.00000000000E+00  0.00000000000E+00  0.13212139533E+04  0.13212139533E+04  0.25500000920E-02 0.  1.
        2   -1    0    0  501    0  0.00000000000E+00  0.00000000000E+00 -0.14518606391E+04  0.14518606391E+04  0.25500000920E-02 0. -1.
    10030    2    1    2    0    0  0.00000000000E+00  0.00000000000E+00 -0.13064668578E+03  0.27730745924E+04  0.27699953318E+04 0.  0.
        5    1    3    3  502    0 -0.11777640014E+04 -0.27189999840E+03 -0.74219534878E+03  0.14184264796E+04  0.46999998093E+01 0. -1.
       -5    1    3    3    0  502  0.11777640014E+04  0.27189999840E+03  0.61154866301E+03  0.13546481128E+04  0.46999998093E+01 0.  1.
</event>
<event>
 5   0  0.1010551E-06  0.3531752E+04  0.7818609E-02  0.8106306E-01
       -1   -1    0    0    0  501  0.00000000000E+00  0.00000000000E+00  0.20898773042E+04  0.20898773042E+04  0.50400001928E-02 0.  1.
        1   -1    0    0  501    0  0.00000000000E+00  0.00000000000E+00 -0.14921057302E+04  0.14921057302E+04  0.50400001928E-02 0. -1.
    10030    2    1    2    0    0  0.00000000000E+00  0.00000000000E+00  0.59777157398E+03  0.35819830345E+04  0.35317519172E+04 0.  0.
        2    1    3    3  502    0 -0.10416709058E+03 -0.16889137012E+04 -0.21330936714E+03  0.17055149249E+04  0.25500000920E-02 0.  1.
       -2    1    3    3    0  502  0.10416709058E+03  0.16889137012E+04  0.81108094112E+03  0.18764681095E+04  0.25500000920E-02 0. -1.
</event>
<event>
 5   0  0.1010551E-06  0.3433488E+04  0.7818609E-02  0.8129736E-01
        1   -1    0    0  501    0  0.00000000000E+00  0.00000000000E+00  0.16537962695E+04  0.16537962695E+04  0.50400001928E-02 0.  1.
       -1   -1    0    0    0  501  0.00000000000E+00  0.00000000000E+00 -0.17820880455E+04  0.17820880455E+04  0.50400001928E-02 0. -1.
    10030    2    1    2    0    0  0.00000000000E+00  0.00000000000E+00 -0.12829177595E+03  0.34358843150E+04  0.34334883495E+04 0.  0.
        2    1    3    3  502    0  0.13758369418E+04 -0.66386625332E+03  0.71970453553E+03  0.16886741282E+04  0.25500000920E-02 0.  1.
       -2    1    3    3    0  502 -0.13758369418E+04  0.66386625332E+03 -0.84799631149E+03  0.17472101868E+04  0.25500000920E-02 0. -1.
</event>
<event>
 5   0  0.1010855E-06  0.3656144E+04  0.7818609E-02  0.8077751E-01
        1   -1    0    0  501    0  0.00000000000E+00  0.00000000000E+00  0.15992257295E+04  0.15992257295E+04  0.50400001928E-02 0. -1.
       -1   -1    0    0    0  501  0.00000000000E+00  0.00000000000E+00 -0.20896652391E+04  0.20896652391E+04  0.50400001928E-02 0.  1.
    10030    2    1    2    0    0  0.00000000000E+00  0.00000000000E+00 -0.49043950952E+03  0.36888909686E+04  0.36561435510E+04 0.  0.
        1    1    3    3  502    0 -0.15362529886E+04  0.43164860234E+03  0.65465019253E+03  0.17248074198E+04  0.50400001928E-02 0. -1.
       -1    1    3    3    0  502  0.15362529886E+04 -0.43164860234E+03 -0.11450897021E+04  0.19640835488E+04  0.50400001928E-02 0.  1.
</event>
<event>
 5   0  0.1010551E-06  0.3466748E+04  0.7818609E-02  0.8121716E-01
       -1   -1    0    0    0  501  0.00000000000E+00  0.00000000000E+00  0.14050391275E+04  0.14050391275E+04  0.50400001928E-02 0.  1.
        1   -1    0    0  501    0  0.00000000000E+00  0.00000000000E+00 -0.21384352466E+04  0.21384352466E+04  0.50400001928E-02 0. -1.
    10030    2    1    2    0    0  0.00000000000E+00  0.00000000000E+00 -0.73339611917E+03  0.35434743741E+04  0.34667478668E+04 0.  0.
        2    1    3    3  502    0  0.66455732523E+03  0.28291054352E+03 -0.19772975647E+04  0.21050844338E+04  0.25500000920E-02 0. -1.
       -2    1    3    3    0  502 -0.66455732523E+03 -0.28291054352E+03  0.12439014455E+04  0.14383899403E+04  0.25500000920E-02 0.  1.
</event>
<event>
 5   0  0.2767014E-06  0.3270057E+04  0.7818609E-02  0.8170556E-01
        2   -1    0    0  501    0  0.00000000000E+00  0.00000000000E+00  0.20177662611E+04  0.20177662611E+04  0.25500000920E-02 0.  1.
       -2   -1    0    0    0  501  0.00000000000E+00  0.00000000000E+00 -0.13248903298E+04  0.13248903298E+04  0.25500000920E-02 0. -1.
    10030    2    1    2    0    0  0.00000000000E+00  0.00000000000E+00  0.69287593131E+03  0.33426565910E+04  0.32700574963E+04 0.  0.
        1    1    3    3  502    0  0.10178827982E+03  0.11569019045E+04  0.15228738914E+04  0.19151834794E+04  0.50400001928E-02 0.  1.
       -1    1    3    3    0  502 -0.10178827982E+03 -0.11569019045E+04 -0.82999796008E+03  0.14274731116E+04  0.50400001928E-02 0. -1.
</event>
<event>
 5   0  0.2767014E-06  0.3182024E+04  0.7818609E-02  0.8193581E-01
        2   -1    0    0  501    0  0.00000000000E+00  0.00000000000E+00  0.18987358112E+04  0.18987358112E+04  0.25500000920E-02 0. -1.
       -2   -1    0    0    0  501  0.00000000000E+00  0.00000000000E+00 -0.13331602757E+04  0.13331602757E+04  0.25500000920E-02 0.  1.
    10030    2    1    2    0    0  0.00000000000E+00  0.00000000000E+00  0.56557553550E+03  0.32318960869E+04  0.31820239833E+04 0.  0.
        1    1    3    3  502    0  0.55525605046E+03 -0.90824899777E+02 -0.12287442316E+04  0.13514328805E+04  0.50400001928E-02 0.  1.
       -1    1    3    3    0  502 -0.55525605046E+03  0.90824899777E+02  0.17943197671E+04  0.18804632064E+04  0.50400001928E-02 0. -1.
</event>
<event>
 5   0  0.9714317E-07  0.3314884E+04  0.7818609E-02  0.8159119E-01
       -1   -1    0    0    0  501  0.00000000000E+00  0.00000000000E+00  0.15357827322E+04  0.15357827322E+04  0.50400001928E-02 0. -1.
        1   -1    0    0  501    0  0.00000000000E+00  0.00000000000E+00 -0.17887381881E+04  0.17887381881E+04  0.50400001928E-02 0.  1.
    10030    2    1    2    0    0  0.00000000000E+00  0.00000000000E+00 -0.25295545592E+03  0.33245209202E+04  0.33148835404E+04 0.  0.
        4    1    3    3  502    0  0.33055763898E+03 -0.96977685617E+03 -0.14330993391E+04  0.17616784133E+04  0.12699999809E+01 0.  1.
       -4    1    3    3    0  502 -0.33055763898E+03  0.96977685617E+03  0.11801438832E+04  0.15628425069E+04  0.12699999809E+01 0. -1.
</event>
<event>
 5   0  0.2906701E-06  0.3025515E+04  0.7818609E-02  0.8236482E-01
       -2   -1    0    0    0  501  0.00000000000E+00  0.00000000000E+00  0.13752823860E+04  0.13752823860E+04  0.25500000920E-02 0.  1.
        2   -1    0    0  501    0  0.00000000000E+00  0.00000000000E+00 -0.16639748348E+04  0.16639748348E+04  0.25500000920E-02 0. -1.
    10030    2    1    2    0    0  0.00000000000E+00  0.00000000000E+00 -0.28869244872E+03  0.30392572208E+04  0.30255150180E+04 0.  0.
        5    1    3    3  502    0  0.66067237438E+03 -0.10042684829E+04 -0.10668692682E+04  0.16072570726E+04  0.46999998093E+01 0. -1.
       -5    1    3    3    0  502 -0.66067237438E+03  0.10042684829E+04  0.77817681953E+03  0.14320001482E+04  0.46999998093E+01 0.  1.
</event>
<event>
 5   0  0.1003191E-06  0.3434947E+04  0.7818609E-02  0.8129382E-01
        1   -1    0    0  501    0  0.00000000000E+00  0.00000000000E+00  0.12825817158E+04  0.12825817158E+04  0.50400001928E-02 0. -1.
       -1   -1    0    0    0  501  0.00000000000E+00  0.00000000000E+00 -0.22998258813E+04  0.22998258813E+04  0.50400001928E-02 0.  1.
    10030    2    1    2    0    0  0.00000000000E+00  0.00000000000E+00 -0.10172441655E+04  0.35824075971E+04  0.34349466516E+04 0.  0.
        5    1    3    3  502    0  0.12362969022E+04  0.11476002842E+04 -0.84540292153E+03  0.18868345536E+04  0.46999998093E+01 0.  1.
       -5    1    3    3    0  502 -0.12362969022E+04 -0.11476002842E+04 -0.17184124394E+03  0.16955730435E+04  0.46999998093E+01 0. -1.
</event>
<event>
 5   0  0.1010551E-06  0.3345859E+04  0.7818609E-02  0.8151324E-01
        1   -1    0    0  501    0  0.00000000000E+00  0.00000000000E+00  0.21550648464E+04  0.21550648464E+04  0.50400001928E-02 0.  1.
       -1   -1    0    0    0  501  0.00000000000E+00  0.00000000000E+00 -0.12986585498E+04  0.12986585498E+04  0.50400001928E-02 0. -1.
    10030    2    1    2    0    0  0.00000000000E+00  0.00000000000E+00  0.85640629659E+03  0.34537233962E+04  0.33458591651E+04 0.  0.
        2    1    3    3  502    0 -0.13831095575E+04  0.93978791878E+03  0.47981513556E+03  0.17396597209E+04  0.25500000920E-02 0.  1.
       -2    1    3    3    0  502  0.13831095575E+04 -0.93978791878E+03  0.37659116103E+03  0.17140636753E+04  0.25500000920E-02 0. -1.
</event>
<event>
 5   0  0.2906701E-06  0.3428767E+04  0.7818609E-02  0.8130882E-01
       -2   -1    0    0    0  501  0.00000000000E+00  0.00000000000E+00  0.13510641154E+04  0.13510641154E+04  0.25500000920E-02 0. -1.
        2   -1    0    0  501    0  0.00000000000E+00  0.00000000000E+00 -0.21754043624E+04  0.21754043624E+04  0.25500000920E-02 0.  1.
    10030    2    1    2    0    0  0.00000000000E+00  0.00000000000E+00 -0.82434024704E+03  0.35264684778E+04  0.34287669915E+04 0.  0.
        5    1    3    3  502    0  0.15042418878E+03  0.46197295021E+03  0.12787708562E+04  0.13679632436E+04  0.46999998093E+01 0. -1.
       -5    1    3    3    0  502 -0.15042418878E+03 -0.46197295021E+03 -0.21031111032E+04  0.21585052341E+04  0.46999998093E+01 0.  1.
</event>
<event>
 5   0  0.2767014E-06  0.3432701E+04  0.7818609E-02  0.8129927E-01
        2   -1    0    0  501    0  0.00000000000E+00  0.00000000000E+00  0.23985208737E+04  0.23985208737E+04  0.25500000920E-02 0. -1.
       -2   -1    0    0    0  501  0.00000000000E+00  0.00000000000E+00 -0.12281980151E+04  0.12281980151E+04  0.25500000920E-02 0.  1.
    10030    2    1    2    0    0  0.00000000000E+00  0.00000000000E+00  0.11703228587E+04  0.36267188888E+04  0.34327007304E+04 0.  0.
        1    1    3    3  502    0  0.70710842197E+03 -0.37358762243E+03 -0.10193202875E+04  0.12956017446E+04  0.50400001928E-02 0.  1.
       -1    1    3    3    0  502 -0.70710842197E+03  0.37358762243E+03  0.21896431462E+04  0.23311171442E+04  0.50400001928E-02 0. -1.
</event>
<event>
 5   0  0.9714317E-07  0.3252974E+04  0.7818609E-02  0.8174965E-01
        1   -1    0    0  501    0  0.00000000000E+00  0.00000000000E+00  0.13685735909E+04  0.13685735909E+04  0.50400001928E-02 0. -1.
       -1   -1    0    0    0  501  0.00000000000E+00  0.00000000000E+00 -0.19330051456E+04  0.19330051456E+04  0.50400001928E-02 0.  1.
    10030    2    1    2    0    0  0.00000000000E+00  0.00000000000E+00 -0.56443155470E+03  0.33015787365E+04  0.32529738969E+04 0.  0.
        4    1    3    3  502    0 -0.12805137514E+04 -0.10025872694E+04 -0.30626540385E+03  0.16549008462E+04  0.12699999809E+01 0. -1.
       -4    1    3    3    0  502  0.12805137514E+04  0.10025872694E+04 -0.25816615085E+03  0.16466778903E+04  0.12699999809E+01 0.  1.
</event>
<event>
 5   0  0.9070500E-07  0.3373718E+04  0.7818609E-02  0.8144387E-01
       -3   -1    0    0    0  501  0.00000000000E+00  0.00000000000E+00  0.15018800338E+04  0.15018800372E+04  0.10100000352E+00 0.  1.
        3   -1    0    0  501    0  0.00000000000E+00  0.00000000000E+00 -0.18946204566E+04  0.18946204593E+04  0.10100000352E+00 0. -1.
    10030    2    1    2    0    0  0.00000000000E+00  0.00000000000E+00 -0.39274042285E+03  0.33965004965E+04  0.33737176206E+04 0.  0.
        4    1    3    3  502    0 -0.50342297034E+02 -0.13410432728E+04 -0.12253090747E+04  0.18172273792E+04  0.12699999809E+01 0. -1.
       -4    1    3    3    0  502  0.50342297034E+02  0.13410432728E+04  0.83256865183E+03  0.15792731174E+04  0.12699999809E+01 0.  1.
</event>
<event>
 5   0  0.9232963E-07  0.3393547E+04  0.7818609E-02  0.8139492E-01
       -1   -1    0    0    0  501  0.00000000000E+00  0.00000000000E+00  0.12319865023E+04  0.12319865023E+04  0.50400001928E-02 0. -1.
        1   -1    0    0  501    0  0.00000000000E+00  0.00000000000E+00 -0.23369091584E+04  0.23369091584E+04  0.50400001928E-02 0.  1.
    10030    2    1    2    0    0  0.00000000000E+00  0.00000000000E+00 -0.11049226561E+04  0.35688956607E+04  0.33935471356E+04 0.  0.
        3    1    3    3  502    0 -0.40745318067E+03  0.64740914636E+03  0.10403549144E+04  0.12913152424E+04  0.10100000352E+00 0. -1.
       -3    1    3    3    0  502  0.40745318067E+03 -0.64740914636E+03 -0.21452775705E+04  0.22775804183E+04  0.10100000352E+00 0.  1.
</event>
<event>
 5   0  0.9232963E-07  0.2193938E+04  0.7818609E-02  0.8520956E-01
        1   -1    0    0  501    0  0.00000000000E+00  0.00000000000E+00  0.13198208217E+04  0.13198208217E+04  0.50400001928E-02 0.  1.
       -1   -1    0    0    0  501  0.00000000000E+00  0.00000000000E+00 -0.91174545553E+03  0.91174545554E+03  0.50400001928E-02 0. -1.
    10030    2    1    2    0    0  0.00000000000E+00  0.00000000000E+00  0.40807536618E+03  0.22315662773E+04  0.21939376804E+04 0.  0.
        3    1    3    3  502    0  0.84179532006E+03 -0.63535809228E+03  0.51094332391E+03  0.11719054385E+04  0.10100000352E+00 0.  1.
       -3    1    3    3    0  502 -0.84179532006E+03  0.63535809228E+03 -0.10286795773E+03  0.10596608388E+04  0.10100000352E+00 0. -1.
</event>
<event>
 5   0  0.1003191E-06  0.3406193E+04  0.7818609E-02  0.8136388E-01
        1   -1    0    0  501    0  0.00000000000E+00  0.00000000000E+00  0.11294335404E+04  0.11294335404E+04  0.50400001928E-02 0.  1.
       -1   -1    0    0    0  501  0.00000000000E+00  0.00000000000E+00 -0.25681344740E+04  0.25681344740E+04  0.50400001928E-02 0. -1.
    10030    2    1    2    0    0  0.00000000000E+00  0.00000000000E+00 -0.14387009336E+04  0.36975680144E+04  0.34061927198E+04 0.  0.
        5    1    3    3  502    0 -0.75818157023E+03  0.14275797299E+04 -0.13016022191E+04  0.20753345767E+04  0.46999998093E+01 0. -1.
       -5    1    3    3    0  502  0.75818157023E+03 -0.14275797299E+04 -0.13709871453E+03  0.16222334376E+04  0.46999998093E+01 0.  1.
</event>
<event>
 5   0  0.9714317E-07  0.2307345E+04  0.7818609E-02  0.8475031E-01
        1   -1    0    0  501    0  0.00000000000E+00  0.00000000000E+00  0.26583343387E+04  0.26583343388E+04  0.50400001928E-02 0. -1.
       -1   -1    0    0    0  501  0.00000000000E+00  0.00000000000E+00 -0.50067453585E+03  0.50067453588E+03  0.50400001928E-02 0.  1.
    10030    2    1    2    0    0  0.00000000000E+00  0.00000000000E+00  0.21576598029E+04  0.31590088746E+04  0.23073450641E+04 0.  0.
        4    1    3    3  502    0 -0.14762762783E+03  0.22233868730E+03 -0.45782761188E+03  0.52993975456E+03  0.12699999809E+01 0.  1.
       -4    1    3    3    0  502  0.14762762783E+03 -0.22233868730E+03  0.26154874148E+04  0.26290691201E+04  0.12699999809E+01 0. -1.
</event>
<event>
 5   0  0.1003191E-06  0.3360690E+04  0.7818609E-02  0.8147622E-01
        1   -1    0    0  501    0  0.00000000000E+00  0.00000000000E+00  0.17968557267E+04  0.17968557267E+04  0.50400001928E-02 0.  1.
       -1   -1    0    0    0  501  0.00000000000E+00  0.00000000000E+00 -0.15713885791E+04  0.15713885791E+04  0.50400001928E-02 0. -1.
    10030    2    1    2    0    0  0.00000000000E+00  0.00000000000E+00  0.22546714760E+03  0.33682443057E+04  0.33606895525E+04 0.  0.
        5    1    3    3  502    0  0.13485157763E+04 -0.98147185991E+03 -0.92065362922E+02  0.16704131021E+04  0.46999998093E+01 0. -1.
       -5    1    3    3    0  502 -0.13485157763E+04  0.98147185991E+03  0.31753251053E+03  0.16978312036E+04  0.46999998093E+01 0.  1.
</event>
<event>
 5   0  0.2856440E-06  0.3171455E+04  0.7818609E-02  0.8196397E-01
       -2   -1    0    0    0  501  0.00000000000E+00  0.00000000000E+00  0.16230176911E+04  0.16230176911E+04  0.25500000920E-02 0.  1.
        2   -1    0    0  501    0  0.00000000000E+00  0.00000000000E+00 -0.15492939310E+04  0.15492939310E+04  0.25500000920E-02 0. -1.
    10030    2    1    2    0    0  0.00000000000E+00  0.00000000000E+00  0.73723760102E+02  0.31723116222E+04  0.31714548452E+04 0.  0.
        4    1    3    3  502    0  0.33738115764E+03 -0.32893986728E+02  0.15863516314E+04  0.16221655807E+04  0.12699999809E+01 0.  1.
       -4    1    3    3    0  502 -0.33738115764E+03  0.32893986728E+02 -0.15126278713E+04  0.15501460415E+04  0.12699999809E+01 0. -1.
</event>
<event>
 5   0  0.1003191E-06  0.3164024E+04  0.7818609E-02  0.8198384E-01
        1   -1    0    0  501    0  0.00000000000E+00  0.00000000000E+00  0.88943323879E+03  0.88943323880E+03  0.50400001928E-02 0. -1.
       -1   -1    0    0    0  501  0.00000000000E+00  0.00000000000E+00 -0.28138832750E+04  0.28138832750E+04  0.50400001928E-02 0.  1.
    10030    2    1    2    0    0  0.00000000000E+00  0.00000000000E+00 -0.19244500362E+04  0.37033165138E+04  0.31640235871E+04 0.  0.
        5    1    3    3  502    0  0.11598322252E+04  0.58498909841E+03  0.94626930023E+02  0.13024589750E+04  0.46999998093E+01 0. -1.
       -5    1    3    3    0  502 -0.11598322252E+04 -0.58498909841E+03 -0.20190769662E+04  0.24008575387E+04  0.46999998093E+01 0.  1.
</event>
<event>
 5   0  0.2848685E-06  0.3253189E+04  0.7818609E-02  0.8174910E-01
       -2   -1    0    0    0  501  0.00000000000E+00  0.00000000000E+00  0.14671560837E+04  0.14671560837E+04  0.25500000920E-02 0. -1.
        2   -1    0    0  501    0  0.00000000000E+00  0.00000000000E+00 -0.18033591988E+04  0.18033591988E+04  0.25500000920E-02 0.  1.
    10030    2    1    2    0    0  0.00000000000E+00  0.00000000000E+00 -0.33620311515E+03  0.32705152825E+04  0.32531888476E+04 0.  0.
        3    1    3    3  502    0  0.60883934219E+03 -0.14028570019E+04  0.38903074470E+03  0.15779854381E+04  0.10100000352E+00 0. -1.
       -3    1    3    3    0  502 -0.60883934219E+03  0.14028570019E+04 -0.72523385985E+03  0.16925298444E+04  0.10100000352E+00 0.  1.
</event>
<event>
 5   0  0.2848685E-06  0.3330600E+04  0.7818609E-02  0.8155153E-01
       -2   -1    0    0    0  501  0.00000000000E+00  0.00000000000E+00  0.12882733874E+04  0.12882733874E+04  0.25500000920E-02 0.  1.
        2   -1    0    0  501    0  0.00000000000E+00  0.00000000000E+00 -0.21526670434E+04  0.21526670434E+04  0.25500000920E-02 0. -1.
    10030    2    1    2    0    0  0.00000000000E+00  0.00000000000E+00 -0.86439365597E+03  0.34409404308E+04  0.33305997442E+04 0.  0.
        3    1    3    3  502    0 -0.25530051875E+03 -0.13107577686E+04 -0.14601264832E+04  0.19786949335E+04  0.10100000352E+00 0. -1.
       -3    1    3    3    0  502  0.25530051875E+03  0.13107577686E+04  0.59573282720E+03  0.14622454973E+04  0.10100000352E+00 0.  1.
</event>
<event>
 5   0  0.1010551E-06  0.3354089E+04  0.7818609E-02  0.8149267E-01
       -1   -1    0    0    0  501  0.00000000000E+00  0.00000000000E+00  0.24520369895E+04  0.24520369895E+04  0.50400001928E-02 0. -1.
        1   -1    0    0  501    0  0.00000000000E+00  0.00000000000E+00 -0.11469965404E+04  0.11469965404E+04  0.50400001928E-02 0.  1.
    10030    2    1    2    0    0  0.00000000000E+00  0.00000000000E+00  0.13050404491E+04  0.35990335300E+04  0.33540888146E+04 0.  0.
        2    1    3    3  502    0 -0.13013444886E+04 -0.10173731091E+04  0.34165208483E+03  0.16867933093E+04  0.25500000920E-02 0. -1.
       -2    1    3    3    0  502  0.13013444886E+04  0.10173731091E+04  0.96338836430E+03  0.19122402207E+04  0.25500000920E-02 0.  1.
</event>
<event>
 5   0  0.2906701E-06  0.3607922E+04  0.7818609E-02  0.8088680E-01
        2   -1    0    0  501    0  0.00000000000E+00  0.00000000000E+00  0.18009154922E+04  0.18009154922E+04  0.25500000920E-02 0. -1.
       -2   -1    0    0    0  501  0.00000000000E+00  0.00000000000E+00 -0.18070114641E+04  0.18070114641E+04  0.25500000920E-02 0.  1.
    10030    2    1    2    0    0  0.00000000000E+00  0.00000000000E+00 -0.60959718873E+01  0.36079269562E+04  0.36079218063E+04 0.  0.
        5    1    3    3  502    0  0.75322960380E+03  0.15603862378E+04  0.49904117208E+03  0.18031151457E+04  0.46999998093E+01 0. -1.
       -5    1    3    3    0  502 -0.75322960380E+03 -0.15603862378E+04 -0.50513714397E+03  0.18048118105E+04  0.46999998093E+01 0.  1.
</event>
<event>
 5   0  0.1003191E-06  0.3545204E+04  0.7818609E-02  0.8103160E-01
       -1   -1    0    0    0  501  0.00000000000E+00  0.00000000000E+00  0.27672004373E+04  0.27672004374E+04  0.50400001928E-02 0.  1.
        1   -1    0    0  501    0  0.00000000000E+00  0.00000000000E+00 -0.11354861270E+04  0.11354861270E+04  0.50400001928E-02 0. -1.
    10030    2    1    2    0    0  0.00000000000E+00  0.00000000000E+00  0.16317143104E+04  0.39026865643E+04  0.35452039192E+04 0.  0.
        5    1    3    3  502    0 -0.77652880702E+03 -0.33637716156E+03 -0.89874469840E+03  0.12344677824E+04  0.46999998093E+01 0. -1.
       -5    1    3    3    0  502  0.77652880702E+03  0.33637716156E+03  0.25304590088E+04  0.26682187819E+04  0.46999998093E+01 0.  1.
</event>
<event>
 5   0  0.1010551E-06  0.3360757E+04  0.7818609E-02  0.8147606E-01
       -1   -1    0    0    0  501  0.00000000000E+00  0.00000000000E+00  0.13539244994E+04  0.13539244994E+04  0.50400001928E-02 0.  1.
        1   -1    0    0  501    0  0.00000000000E+00  0.00000000000E+00 -0.20855454929E+04  0.20855454930E+04  0.50400001928E-02 0. -1.
    10030    2    1    2    0    0  0.00000000000E+00  0.00000000000E+00 -0.73162099353E+03  0.34394699924E+04  0.33607565443E+04 0.  0.
        2    1    3    3  502    0 -0.49696478642E+03  0.15577450988E+04  0.30727104371E+02  0.16353861766E+04  0.25500000920E-02 0.  1.
       -2    1    3    3    0  502  0.49696478642E+03 -0.15577450988E+04 -0.76234809790E+03  0.18040838157E+04  0.25500000920E-02 0. -1.
</event>
<event>
 5   0  0.2906701E-06  0.2292992E+04  0.7818609E-02  0.8480690E-01
        2   -1    0    0  501    0  0.00000000000E+00  0.00000000000E+00  0.14050125478E+04  0.14050125478E+04  0.25500000920E-02 0. -1.
       -2   -1    0    0    0  501  0.00000000000E+00  0.00000000000E+00 -0.93554518542E+03  0.93554518543E+03  0.25500000920E-02 0.  1.
    10030    2    1    2    0    0  0.00000000000E+00  0.00000000000E+00  0.46946736234E+03  0.23405577332E+04  0.22929916917E+04 0.  0.
        5    1    3    3  502    0  0.11266210349E+04  0.13984779538E+03  0.71420136284E+02  0.11375215549E+04  0.46999998093E+01 0.  1.
       -5    1    3    3    0  502 -0.11266210349E+04 -0.13984779538E+03  0.39804722605E+03  0.12030361783E+04  0.46999998093E+01 0. -1.
</event>
<event>
 5   0  0.2767014E-06  0.3456334E+04  0.7818609E-02  0.8124217E-01
        2   -1    0    0  501    0  0.00000000000E+00  0.00000000000E+00  0.26694054348E+04  0.26694054348E+04  0.25500000920E-02 0.  1.
       -2   -1    0    0    0  501  0.00000000000E+00  0.00000000000E+00 -0.11188111565E+04  0.11188111565E+04  0.25500000920E-02 0. -1.
    10030    2    1    2    0    0  0.00000000000E+00  0.00000000000E+00  0.15505942783E+04  0.37882165912E+04  0.34563336538E+04 0.  0.
        1    1    3    3  502    0 -0.97989628588E+03  0.80080553856E+03  0.20651960723E+04  0.24220902251E+04  0.50400001928E-02 0.  1.
       -1    1    3    3    0  502  0.97989628588E+03 -0.80080553856E+03 -0.51460179400E+03  0.13661263661E+04  0.50400001928E-02 0. -1.
</event>
<event>
 5   0  0.1010551E-06  0.2756302E+04  0.7818609E-02  0.8316965E-01
       -1   -1    0    0    0  501  0.00000000000E+00  0.00000000000E+00  0.13388579109E+04  0.13388579109E+04  0.50400001928E-02 0. -1.
        1   -1    0    0  501    0  0.00000000000E+00  0.00000000000E+00 -0.14185977597E+04  0.14185977597E+04  0.50400001928E-02 0.  1.
    10030    2    1    2    0    0  0.00000000000E+00  0.00000000000E+00 -0.79739848746E+02  0.27574556706E+04  0.27563024747E+04 0.  0.
        2    1    3    3  502    0  0.10408917683E+04 -0.41829094444E+03  0.76101347854E+03  0.13555679629E+04  0.25500000920E-02 0. -1.
       -2    1    3    3    0  502 -0.10408917683E+04  0.41829094444E+03 -0.84075332728E+03  0.14018877077E+04  0.25500000920E-02 0.  1.
</event>
<event>
 5   0  0.2767014E-06  0.2291350E+04  0.7818609E-02  0.8481339E-01
       -2   -1    0    0    0  501  0.00000000000E+00  0.00000000000E+00  0.50795154322E+03  0.50795154323E+03  0.25500000920E-02 0.  1.
        2   -1    0    0  501    0  0.00000000000E+00  0.00000000000E+00 -0.25840485015E+04  0.25840485015E+04  0.25500000920E-02 0. -1.
    10030    2    1    2    0    0  0.00000000000E+00  0.00000000000E+00 -0.20760969583E+04  0.30920000447E+04  0.22913501907E+04 0.  0.
        1    1    3    3  502    0 -0.57237108463E+03  0.98029567083E+03 -0.12470268098E+04  0.16863167334E+04  0.50400001928E-02 0.  1.
       -1    1    3    3    0  502  0.57237108463E+03 -0.98029567083E+03 -0.82907014845E+03  0.14056833114E+04  0.50400001928E-02 0. -1.
</event>
<event>
 5   0  0.9714317E-07  0.3392458E+04  0.7818609E-02  0.8139760E-01
       -1   -1    0    0    0  501  0.00000000000E+00  0.00000000000E+00  0.16100119182E+04  0.16100119182E+04  0.50400001928E-02 0.  1.
        1   -1    0    0  501    0  0.00000000000E+00  0.00000000000E+00 -0.17870627143E+04  0.17870627143E+04  0.50400001928E-02 0. -1.
    10030    2    1    2    0    0  0.00000000000E+00  0.00000000000E+00 -0.17705079607E+03  0.33970746325E+04  0.33924576747E+04 0.  0.
        4    1    3    3  502    0 -0.13999632091E+04 -0.91356671342E+03  0.19942382375E+03  0.16835298041E+04  0.12699999809E+01 0. -1.
       -4    1    3    3    0  502  0.13999632091E+04  0.91356671342E+03 -0.37647461982E+03  0.17135448284E+04  0.12699999809E+01 0.  1.
</event>
<event>
 5   0  0.2848685E-06  0.3414588E+04  0.7818609E-02  0.8134335E-01
       -2   -1    0    0    0  501  0.00000000000E+00  0.00000000000E+00  0.12605906768E+04  0.12605906768E+04  0.25500000920E-02 0.  1.
        2   -1    0    0  501    0  0.00000000000E+00  0.00000000000E+00 -0.23122918167E+04  0.23122918167E+04  0.25500000920E-02 0. -1.
    10030    2    1    2    0    0  0.00000000000E+00  0.00000000000E+00 -0.10517011399E+04  0.35728824936E+04  0.34145884123E+04 0.  0.
        3    1    3    3  502    0  0.12936731445E+04 -0.64585933393E+03 -0.14757507555E+04  0.20660505286E+04  0.10100000352E+00 0. -1.
       -3    1    3    3    0  502 -0.12936731445E+04  0.64585933393E+03  0.42404961561E+03  0.15068319650E+04  0.10100000352E+00 0.  1.
</event>
<event>
 5   0  0.9714317E-07  0.3520668E+04  0.7818609E-02  0.8108909E-01
        1   -1    0    0  501    0  0.00000000000E+00  0.00000000000E+00  0.18980970481E+04  0.18980970481E+04  0.50400001928E-02 0.  1.
       -1   -1    0    0    0  501  0.00000000000E+00  0.00000000000E+00 -0.16325699207E+04  0.16325699207E+04  0.50400001928E-02 0. -1.
    10030    2    1    2    0    0  0.00000000000E+00  0.00000000000E+00  0.26552712737E+03  0.35306669688E+04  0.35206682021E+04 0.  0.
        4    1    3    3  502    0  0.93911395409E+03  0.66126964540E+03  0.14705543944E+04  0.18659433010E+04  0.12699999809E+01 0.  1.
       -4    1    3    3    0  502 -0.93911395409E+03 -0.66126964540E+03 -0.12050272671E+04  0.16647236678E+04  0.12699999809E+01 0. -1.
</event>
<event>
 5   0  0.2848685E-06  0.3308400E+04  0.7818609E-02  0.8160761E-01
       -2   -1    0    0    0  501  0.00000000000E+00  0.00000000000E+00  0.17141928171E+04  0.17141928172E+04  0.25500000920E-02 0.  1.
        2   -1    0    0  501    0  0.00000000000E+00  0.00000000000E+00 -0.15963066344E+04  0.15963066344E+04  0.25500000920E-02 0. -1.
    10030    2    1    2    0    0  0.00000000000E+00  0.00000000000E+00  0.11788618275E+03  0.33104994516E+04  0.33083998348E+04 0.  0.
        3    1    3    3  502    0 -0.12242983016E+04 -0.10957996751E+04 -0.13273551032E+03  0.16484240915E+04  0.10100000352E+00 0. -1.
       -3    1    3    3    0  502  0.12242983016E+04  0.10957996751E+04  0.25062169307E+03  0.16620753601E+04  0.10100000352E+00 0.  1.
</event>
<event>
 5   0  0.2856440E-06  0.2372096E+04  0.7818609E-02  0.8450025E-01
       -2   -1    0    0    0  501  0.00000000000E+00  0.00000000000E+00  0.87711974663E+03  0.87711974664E+03  0.25500000920E-02 0. -1.
        2   -1    0    0  501    0  0.00000000000E+00  0.00000000000E+00 -0.16037832043E+04  0.16037832043E+04  0.25500000920E-02 0.  1.
    10030    2    1    2    0    0  0.00000000000E+00  0.00000000000E+00 -0.72666345767E+03  0.24809029509E+04  0.23720960502E+04 0.  0.
        4    1    3    3  502    0 -0.50409664504E+03 -0.67201253038E+02 -0.14839646252E+04  0.15686880052E+04  0.12699999809E+01 0.  1.
       -4    1    3    3    0  502  0.50409664504E+03  0.67201253038E+02  0.75730116754E+03  0.91221494573E+03  0.12699999809E+01 0. -1.
</event>
<event>
 5   0  0.2664083E-06  0.2238665E+04  0.7818609E-02  0.8502505E-01
        2   -1    0    0  501    0  0.00000000000E+00  0.00000000000E+00  0.11208798475E+04  0.11208798475E+04  0.25500000920E-02 0. -1.
       -2   -1    0    0    0  501  0.00000000000E+00  0.00000000000E+00 -0.11177872388E+04  0.11177872388E+04  0.25500000920E-02 0.  1.
    10030    2    1    2    0    0  0.00000000000E+00  0.00000000000E+00  0.30926086732E+01  0.22386670864E+04  0.22386649502E+04 0.  0.
        2    1    3    3  502    0  0.49407038858E+03  0.87297589152E+03  0.49824863432E+03  0.11200197131E+04  0.25500000920E-02 0. -1.
       -2    1    3    3    0  502 -0.49407038858E+03 -0.87297589152E+03 -0.49515602564E+03  0.11186473733E+04  0.25500000920E-02 0.  1.
</event>
<event>
 5   0  0.2664083E-06  0.3370250E+04  0.7818609E-02  0.8145247E-01
       -2   -1    0    0    0  501  0.00000000000E+00  0.00000000000E+00  0.14853089967E+04  0.14853089967E+04  0.25500000920E-02 0. -1.
        2   -1    0    0  501    0  0.00000000000E+00  0.00000000000E+00 -0.19118215304E+04  0.19118215304E+04  0.25500000920E-02 0.  1.
    10030    2    1    2    0    0  0.00000000000E+00  0.00000000000E+00 -0.42651253361E+03  0.33971305271E+04  0.33702496757E+04 0.  0.
        2    1    3    3  502    0  0.97682316599E+03  0.13677298326E+04 -0.33578786377E+03  0.17139492064E+04  0.25500000920E-02 0. -1.
       -2    1    3    3    0  502 -0.97682316599E+03 -0.13677298326E+04 -0.90724669834E+02  0.16831813207E+04  0.25500000920E-02 0.  1.
</event>
<event>
 5   0  0.9714317E-07  0.3314645E+04  0.7818609E-02  0.8159179E-01
       -1   -1    0    0    0  501  0.00000000000E+00  0.00000000000E+00  0.12198498931E+04  0.12198498931E+04  0.50400001928E-02 0. -1.
        1   -1    0    0  501    0  0.00000000000E+00  0.00000000000E+00 -0.22516846633E+04  0.22516846633E+04  0.50400001928E-02 0.  1.
    10030    2    1    2    0    0  0.00000000000E+00  0.00000000000E+00 -0.10318347702E+04  0.34715345564E+04  0.33146446542E+04 0.  0.
        4    1    3    3  502    0  0.67466685097E+03  0.23847901388E+03  0.10497194445E+04  0.12704173034E+04  0.12699999809E+01 0. -1.
       -4    1    3    3    0  502 -0.67466685097E+03 -0.23847901388E+03 -0.20815542147E+04  0.22011172530E+04  0.12699999809E+01 0.  1.
</event>
<event>
 5   0  0.2664083E-06  0.3518881E+04  0.7818609E-02  0.8109330E-01
        2   -1    0    0  501    0  0.00000000000E+00  0.00000000000E+00  0.17123826381E+04  0.17123826381E+04  0.25500000920E-02 0.  1.
       -2   -1    0    0    0  501  0.00000000000E+00  0.00000000000E+00 -0.18077920641E+04  0.18077920641E+04  0.25500000920E-02 0. -1.
    10030    2    1    2    0    0  0.00000000000E+00  0.00000000000E+00 -0.95409425982E+02  0.35201747022E+04  0.35188814949E+04 0.  0.
        2    1    3    3  502    0  0.87940670212E+03 -0.90854155148E+02  0.14740450236E+04  0.17188424468E+04  0.25500000920E-02 0.  1.
       -2    1    3    3    0  502 -0.87940670212E+03  0.90854155148E+02 -0.15694544496E+04  0.18013322554E+04  0.25500000920E-02 0. -1.
</event>
<event>
 5   0  0.2906701E-06  0.3470147E+04  0.7818609E-02  0.8120901E-01
        2   -1    0    0  501    0  0.00000000000E+00  0.00000000000E+00  0.23501175351E+04  0.23501175351E+04  0.25500000920E-02 0.  1.
       -2   -1    0    0    0  501  0.00000000000E+00  0.00000000000E+00 -0.12809910695E+04  0.12809910695E+04  0.25500000920E-02 0. -1.
    10030    2    1    2    0    0  0.00000000000E+00  0.00000000000E+00  0.10691264656E+04  0.36311086045E+04  0.34701467258E+04 0.  0.
        5    1    3    3  502    0 -0.90363922620E+03  0.30057497418E+03 -0.98307286025E+03  0.13687086998E+04  0.46999998093E+01 0. -1.
       -5    1    3    3    0  502  0.90363922620E+03 -0.30057497418E+03  0.20521993258E+04  0.22623999048E+04  0.46999998093E+01 0.  1.
</event>
<event>
 5   0  0.2906701E-06  0.3401972E+04  0.7818609E-02  0.8137422E-01
        2   -1    0    0  501    0  0.00000000000E+00  0.00000000000E+00  0.24827940406E+04  0.24827940406E+04  0.25500000920E-02 0. -1.
       -2   -1    0    0    0  501  0.00000000000E+00  0.00000000000E+00 -0.11653619908E+04  0.11653619908E+04  0.25500000920E-02 0.  1.
    10030    2    1    2    0    0  0.00000000000E+00  0.00000000000E+00  0.13174320497E+04  0.36481560314E+04  0.34019722550E+04 0.  0.
        5    1    3    3  502    0 -0.60537914709E+02 -0.14120775625E+04  0.16736197676E+04  0.21905828216E+04  0.46999998093E+01 0. -1.
       -5    1    3    3    0  502  0.60537914709E+02  0.14120775625E+04 -0.35618771790E+03  0.14575732098E+04  0.46999998093E+01 0.  1.
</event>
<event>
 5   0  0.2848685E-06  0.3228519E+04  0.7818609E-02  0.8181326E-01
       -2   -1    0    0    0  501  0.00000000000E+00  0.00000000000E+00  0.93715072501E+03  0.93715072501E+03  0.25500000920E-02 0. -1.
        2   -1    0    0  501    0  0.00000000000E+00  0.00000000000E+00 -0.27805920536E+04  0.27805920536E+04  0.25500000920E-02 0.  1.
    10030    2    1    2    0    0  0.00000000000E+00  0.00000000000E+00 -0.18434413286E+04  0.37177427786E+04  0.32285190778E+04 0.  0.
        3    1    3    3  502    0 -0.80473210686E+03 -0.19444279878E+03  0.67406830237E+03  0.10676000432E+04  0.10100000352E+00 0. -1.
       -3    1    3    3    0  502  0.80473210686E+03  0.19444279878E+03 -0.25175096310E+04  0.26501427354E+04  0.10100000352E+00 0.  1.
</event>
<event>
 5   0  0.1003191E-06  0.3321932E+04  0.7818609E-02  0.8157337E-01
       -1   -1    0    0    0  501  0.00000000000E+00  0.00000000000E+00  0.19307305036E+04  0.19307305036E+04  0.50400001928E-02 0.  1.
        1   -1    0    0  501    0  0.00000000000E+00  0.00000000000E+00 -0.14288933508E+04  0.14288933508E+04  0.50400001928E-02 0. -1.
    10030    2    1    2    0    0  0.00000000000E+00  0.00000000000E+00  0.50183715277E+03  0.33596238544E+04  0.33219319552E+04 0.  0.
        5    1    3    3  502    0  0.15293197203E+03  0.15221409633E+04  0.90516244067E+03  0.17775383074E+04  0.46999998093E+01 0.  1.
       -5    1    3    3    0  502 -0.15293197203E+03 -0.15221409633E+04 -0.40332528790E+03  0.15820855470E+04  0.46999998093E+01 0. -1.
</event>
<event>
 5   0  0.1010855E-06  0.3407748E+04  0.7818609E-02  0.8136007E-01
       -1   -1    0    0    0  501  0.00000000000E+00  0.00000000000E+00  0.16755122229E+04  0.16755122229E+04  0.50400001928E-02 0. -1.
        1   -1    0    0  501    0  0.00000000000E+00  0.00000000000E+00 -0.17327159752E+04  0.17327159752E+04  0.50400001928E-02 0.  1.
    10030    2    1    2    0    0  0.00000000000E+00  0.00000000000E+00 -0.57203752310E+02  0.34082281981E+04  0.34077481100E+04 0.  0.
        1    1    3    3  502    0  0.94823785733E+03  0.21835695208E+03 -0.14274954634E+04  0.17275931496E+04  0.50400001928E-02 0.  1.
       -1    1    3    3    0  502 -0.94823785733E+03 -0.21835695208E+03  0.13702917111E+04  0.16806350485E+04  0.50400001928E-02 0. -1.
</event>
<event>
 5   0  0.2848685E-06  0.3386858E+04  0.7818609E-02  0.8141139E-01
        2   -1    0    0  501    0  0.00000000000E+00  0.00000000000E+00  0.21666571889E+04  0.21666571889E+04  0.25500000920E-02 0. -1.
       -2   -1    0    0    0  501  0.00000000000E+00  0.00000000000E+00 -0.13235603665E+04  0.13235603665E+04  0.25500000920E-02 0.  1.
    10030    2    1    2    0    0  0.00000000000E+00  0.00000000000E+00  0.84309682237E+03  0.34902175554E+04  0.33868578849E+04 0.  0.
        3    1    3    3  502    0  0.87446370422E+03  0.14210628046E+04  0.12359629316E+03  0.16731354752E+04  0.10100000352E+00 0.  1.
       -3    1    3    3    0  502 -0.87446370422E+03 -0.14210628046E+04  0.71950052921E+03  0.18170820802E+04  0.10100000352E+00 0. -1.
</event>
<event>
 5   0  0.1010551E-06  0.3335170E+04  0.7818609E-02  0.8154004E-01
       -1   -1    0    0    0  501  0.00000000000E+00  0.00000000000E+00  0.15421850079E+04  0.15421850080E+04  0.50400001928E-02 0. -1.
        1   -1    0    0  501    0  0.00000000000E+00  0.00000000000E+00 -0.18031811968E+04  0.18031811968E+04  0.50400001928E-02 0.  1.
    10030    2    1    2    0    0  0.00000000000E+00  0.00000000000E+00 -0.26099618886E+03  0.33453662048E+04  0.33351695659E+04 0.  0.
        2    1    3    3  502    0  0.12740110187E+03  0.12685989209E+04  0.94762042550E+03  0.15885712869E+04  0.25500000920E-02 0. -1.
       -2    1    3    3    0  502 -0.12740110187E+03 -0.12685989209E+04 -0.12086166144E+04  0.17567949178E+04  0.25500000920E-02 0.  1.
</event>
<event>
 5   0  0.2856440E-06  0.2144062E+04  0.7818609E-02  0.8542078E-01
        2   -1    0    0  501    0  0.00000000000E+00  0.00000000000E+00  0.17717635227E+04  0.17717635227E+04  0.25500000920E-02 0.  1.
       -2   -1    0    0    0  501  0.00000000000E+00  0.00000000000E+00 -0.64864791034E+03  0.64864791034E+03  0.25500000920E-02 0. -1.
    10030    2    1    2    0    0  0.00000000000E+00  0.00000000000E+00  0.11231156123E+04  0.24204114330E+04  0.21440622254E+04 0.  0.
        4    1    3    3  502    0 -0.24650573479E+02 -0.45332079785E+03  0.16578852437E+04  0.17189218978E+04  0.12699999809E+01 0.  1.
       -4    1    3    3    0  502  0.24650573479E+02  0.45332079785E+03 -0.53476963135E+03  0.70148953524E+03  0.12699999809E+01 0. -1.
</event>
<event>
 5   0  0.9714317E-07  0.3407495E+04  0.7818609E-02  0.8136069E-01
        1   -1    0    0  501    0  0.00000000000E+00  0.00000000000E+00  0.20493094702E+04  0.20493094702E+04  0.50400001928E-02 0. -1.
       -1   -1    0    0    0  501  0.00000000000E+00  0.00000000000E+00 -0.14164551955E+04  0.14164551955E+04  0.50400001928E-02 0.  1.
    10030    2    1    2    0    0  0.00000000000E+00  0.00000000000E+00  0.63285427469E+03  0.34657646656E+04  0.34074947079E+04 0.  0.
        4    1    3    3  502    0  0.10171088366E+04  0.38877937358E+03  0.16492145127E+04  0.19762514790E+04  0.12699999809E+01 0. -1.
       -4    1    3    3    0  502 -0.10171088366E+04 -0.38877937358E+03 -0.10163602380E+04  0.14895131866E+04  0.12699999809E+01 0.  1.
</event>
<event>
 5   0  0.2856440E-06  0.2496878E+04  0.7818609E-02  0.8404099E-01
        2   -1    0    0  501    0  0.00000000000E+00  0.00000000000E+00  0.87617043238E+03  0.87617043238E+03  0.25500000920E-02 0.  1.
       -2   -1    0    0    0  501  0.00000000000E+00  0.00000000000E+00 -0.17788768743E+04  0.17788768743E+04  0.25500000920E-02 0. -1.
    10030    2    1    2    0    0  0.00000000000E+00  0.00000000000E+00 -0.90270644191E+03  0.26550473067E+04  0.24968775061E+04 0.  0.
        4    1    3    3  502    0  0.11282051124E+04 -0.56613557042E+02  0.11386933266E+03  0.11353500378E+04  0.12699999809E+01 0.  1.
       -4    1    3    3    0  502 -0.11282051124E+04  0.56613557042E+02 -0.10165757746E+04  0.15196972688E+04  0.12699999809E+01 0. -1.
</event>
<event>
 5   0  0.2767014E-06  0.3357980E+04  0.7818609E-02  0.8148297E-01
       -2   -1    0    0    0  501  0.00000000000E+00  0.00000000000E+00  0.10152063751E+04  0.10152063751E+04  0.25500000920E-02 0. -1.
        2   -1    0    0  501    0  0.00000000000E+00  0.00000000000E+00 -0.27767830588E+04  0.27767830588E+04  0.25500000920E-02 0.  1.
    10030    2    1    2    0    0  0.00000000000E+00  0.00000000000E+00 -0.17615766838E+04  0.37919894339E+04  0.33579802641E+04 0.  0.
        1    1    3    3  502    0  0.10528619027E+04 -0.11247841224E+04 -0.12719009275E+03  0.15459090620E+04  0.50400001928E-02 0. -1.
       -1    1    3    3    0  502 -0.10528619027E+04  0.11247841224E+04 -0.16343865910E+04  0.22460803719E+04  0.50400001928E-02 0.  1.
</event>
<event>
 5   0  0.2664083E-06  0.3371741E+04  0.7818609E-02  0.8144877E-01
        2   -1    0    0  501    0  0.00000000000E+00  0.00000000000E+00  0.15526843101E+04  0.15526843101E+04  0.25500000920E-02 0.  1.
       -2   -1    0    0    0  501  0.00000000000E+00  0.00000000000E+00 -0.18304812172E+04  0.18304812172E+04  0.25500000920E-02 0. -1.
    10030    2    1    2    0    0  0.00000000000E+00  0.00000000000E+00 -0.27779690707E+03  0.33831655273E+04  0.33717410730E+04 0.  0.
        2    1    3    3  502    0  0.40702846117E+03  0.50654962143E+03 -0.16997703882E+04  0.18197483507E+04  0.25500000920E-02 0. -1.
       -2    1    3    3    0  502 -0.40702846117E+03 -0.50654962143E+03  0.14219734811E+04  0.15634171766E+04  0.25500000920E-02 0.  1.
</event>
<event>
 5   0  0.9232963E-07  0.2528127E+04  0.7818609E-02  0.8393033E-01
        1   -1    0    0  501    0  0.00000000000E+00  0.00000000000E+00  0.16489130650E+04  0.16489130650E+04  0.50400001928E-02 0. -1.
       -1   -1    0    0    0  501  0.00000000000E+00  0.00000000000E+00 -0.96903653447E+03  0.96903653448E+03  0.50400001928E-02 0.  1.
    10030    2    1    2    0    0  0.00000000000E+00  0.00000000000E+00  0.67987653056E+03  0.26179495995E+04  0.25281273719E+04 0.  0.
        3    1    3    3  502    0  0.10082074284E+04 -0.42245868841E+03 -0.31736049446E+03  0.11382755623E+04  0.10100000352E+00 0.  1.
       -3    1    3    3    0  502 -0.10082074284E+04  0.42245868841E+03  0.99723702502E+03  0.14796740372E+04  0.10100000352E+00 0. -1.
</event>
<event>
 5   0  0.1010855E-06  0.3636221E+04  0.7818609E-02  0.8082245E-01
        1   -1    0    0  501    0  0.00000000000E+00  0.00000000000E+00  0.14451666124E+04  0.14451666125E+04  0.50400001928E-02 0.  1.
       -1   -1    0    0    0  501  0.00000000000E+00  0.00000000000E+00 -0.22872976456E+04  0.22872976456E+04  0.50400001928E-02 0. -1.
    10030    2    1    2    0    0  0.00000000000E+00  0.00000000000E+00 -0.84213103320E+03  0.37324642581E+04  0.36362212200E+04 0.  0.
        1    1    3    3  502    0 -0.60320830381E+03 -0.31056640369E+03 -0.21524872431E+04  0.22568812731E+04  0.50400001928E-02 0. -1.
       -1    1    3    3    0  502  0.60320830381E+03  0.31056640369E+03  0.13103562099E+04  0.14755829850E+04  0.50400001928E-02 0.  1.
</event>
<event>
 5   0  0.1010551E-06  0.3277424E+04  0.7818609E-02  0.8168664E-01
        1   -1    0    0  501    0  0.00000000000E+00  0.00000000000E+00  0.21850795527E+04  0.21850795527E+04  0.50400001928E-02 0.  1.
       -1   -1    0    0    0  501  0.00000000000E+00  0.00000000000E+00 -0.12289608015E+04  0.12289608015E+04  0.50400001928E-02 0. -1.
    10030    2    1    2    0    0  0.00000000000E+00  0.00000000000E+00  0.95611875122E+03  0.34140403541E+04  0.32774240606E+04 0.  0.
        2    1    3    3  502    0 -0.10785089887E+04 -0.72583866569E+03  0.15173206209E+04  0.19980703877E+04  0.25500000920E-02 0.  1.
       -2    1    3    3    0  502  0.10785089887E+04  0.72583866569E+03 -0.56120186970E+03  0.14159699665E+04  0.25500000920E-02 0. -1.
</event>
<event>
 5   0  0.2664083E-06  0.2302626E+04  0.7818609E-02  0.8476886E-01
        2   -1    0    0  501    0  0.00000000000E+00  0.00000000000E+00  0.15101323364E+04  0.15101323365E+04  0.25500000920E-02 0. -1.
       -2   -1    0    0    0  501  0.00000000000E+00  0.00000000000E+00 -0.87775199240E+03  0.87775199241E+03  0.25500000920E-02 0.  1.
    10030    2    1    2    0    0  0.00000000000E+00  0.00000000000E+00  0.63238034405E+03  0.23878843289E+04  0.23026260375E+04 0.  0.
        2    1    3    3  502    0  0.10489306199E+04 -0.46921736986E+03  0.39025798580E+03  0.12135574486E+04  0.25500000920E-02 0. -1.
       -2    1    3    3    0  502 -0.10489306199E+04  0.46921736986E+03  0.24212235824E+03  0.11743268803E+04  0.25500000920E-02 0.  1.
</event>
<event>
 5   0  0.2906701E-06  0.2162699E+04  0.7818609E-02  0.8534116E-01
       -2   -1    0    0    0  501  0.00000000000E+00  0.00000000000E+00  0.68765495492E+03  0.68765495493E+03  0.25500000920E-02 0.  1.
        2   -1    0    0  501    0  0.00000000000E+00  0.00000000000E+00 -0.17004415849E+04  0.17004415849E+04  0.25500000920E-02 0. -1.
    10030    2    1    2    0    0  0.00000000000E+00  0.00000000000E+00 -0.10127866300E+04  0.23880965398E+04  0.21626993147E+04 0.  0.
        5    1    3    3  502    0  0.66671268274E+03  0.29184779851E+03  0.37671654788E+03  0.81952326768E+03  0.46999998093E+01 0.  1.
       -5    1    3    3    0  502 -0.66671268274E+03 -0.29184779851E+03 -0.13895031779E+04  0.15685732722E+04  0.46999998093E+01 0. -1.
</event>
<event>
 5   0  0.1010855E-06  0.3472797E+04  0.7818609E-02  0.8120267E-01
       -1   -1    0    0    0  501  0.00000000000E+00  0.00000000000E+00  0.11162094784E+04  0.11162094784E+04  0.50400001928E-02 0. -1.
        1   -1    0    0  501    0  0.00000000000E+00  0.00000000000E+00 -0.27011776458E+04  0.27011776458E+04  0.50400001928E-02 0.  1.
    10030    2    1    2    0    0  0.00000000000E+00  0.00000000000E+00 -0.15849681673E+04  0.38173871242E+04  0.34727971960E+04 0.  0.
        1    1    3    3  502    0  0.67611478907E+03 -0.15970423094E+04 -0.69789482122E+03  0.18694203721E+04  0.50400001928E-02 0.  1.
       -1    1    3    3    0  502 -0.67611478907E+03  0.15970423094E+04 -0.88707334613E+03  0.19479667521E+04  0.50400001928E-02 0. -1.
</event>
<event>
 5   0  0.2767014E-06  0.3467533E+04  0.7818609E-02  0.8121528E-01
       -2   -1    0    0    0  501  0.00000000000E+00  0.00000000000E+00  0.11976237954E+04  0.11976237954E+04  0.25500000920E-02 0.  1.
        2   -1    0    0  501    0  0.00000000000E+00  0.00000000000E+00 -0.25099252871E+04  0.25099252871E+04  0.25500000920E-02 0. -1.
    10030    2    1    2    0    0  0.00000000000E+00  0.00000000000E+00 -0.13123014917E+04  0.37075490824E+04  0.34675329838E+04 0.  0.
        1    1    3    3  502    0 -0.14513514650E+04 -0.90334918929E+03 -0.96508894822E+03  0.19631244257E+04  0.50400001928E-02 0.  1.
       -1    1    3    3    0  502  0.14513514650E+04  0.90334918929E+03 -0.34721254352E+03  0.17444246568E+04  0.50400001928E-02 0. -1.
</event>
<event>
 5   0  0.1010855E-06  0.3454331E+04  0.7818609E-02  0.8124699E-01
        1   -1    0    0  501    0  0.00000000000E+00  0.00000000000E+00  0.23375407166E+04  0.23375407166E+04  0.50400001928E-02 0. -1.
       -1   -1    0    0    0  501  0.00000000000E+00  0.00000000000E+00 -0.12761703039E+04  0.12761703039E+04  0.50400001928E-02 0.  1.
    10030    2    1    2    0    0  0.00000000000E+00  0.00000000000E+00  0.10613704128E+04  0.36137110205E+04  0.34543306424E+04 0.  0.
        1    1    3    3  502    0 -0.13615162353E+04  0.34918093178E+03  0.15807121919E+04  0.21152552602E+04  0.50400001928E-02 0. -1.
       -1    1    3    3    0  502  0.13615162353E+04 -0.34918093178E+03 -0.51934177918E+03  0.14984557603E+04  0.50400001928E-02 0.  1.
</event>
<event>
 5   0  0.2906701E-06  0.3378009E+04  0.7818609E-02  0.8143325E-01
        2   -1    0    0  501    0  0.00000000000E+00  0.00000000000E+00  0.20437174947E+04  0.20437174947E+04  0.25500000920E-02 0.  1.
       -2   -1    0    0    0  501  0.00000000000E+00  0.00000000000E+00 -0.13958560657E+04  0.13958560657E+04  0.25500000920E-02 0. -1.
    10030    2    1    2    0    0  0.00000000000E+00  0.00000000000E+00  0.64786142904E+03  0.34395735604E+04  0.33780085622E+04 0.  0.
        5    1    3    3  502    0 -0.10257618431E+04 -0.86589521872E+03  0.13676744015E+04  0.19163812896E+04  0.46999998093E+01 0. -1.
       -5    1    3    3    0  502  0.10257618431E+04  0.86589521872E+03 -0.71981297243E+03  0.15231922708E+04  0.46999998093E+01 0.  1.
</event>
<event>
 5   0  0.2856440E-06  0.3424866E+04  0.7818609E-02  0.8131830E-01
        2   -1    0    0  501    0  0.00000000000E+00  0.00000000000E+00  0.15294147286E+04  0.15294147286E+04  0.25500000920E-02 0. -1.
       -2   -1    0    0    0  501  0.00000000000E+00  0.00000000000E+00 -0.19173520262E+04  0.19173520262E+04  0.25500000920E-02 0.  1.
    10030    2    1    2    0    0  0.00000000000E+00  0.00000000000E+00 -0.38793729757E+03  0.34467667549E+04  0.34248657953E+04 0.  0.
        4    1    3    3  502    0  0.27917454205E+03  0.65835304127E+03 -0.17598934551E+04  0.18996298950E+04  0.12699999809E+01 0.  1.
       -4    1    3    3    0  502 -0.27917454205E+03 -0.65835304127E+03  0.13719561575E+04  0.15471368598E+04  0.12699999809E+01 0. -1.
</event>
<event>
 5   0  0.2906701E-06  0.3442874E+04  0.7818609E-02  0.8127463E-01
        2   -1    0    0  501    0  0.00000000000E+00  0.00000000000E+00  0.17653457388E+04  0.17653457388E+04  0.25500000920E-02 0.  1.
       -2   -1    0    0    0  501  0.00000000000E+00  0.00000000000E+00 -0.16786205082E+04  0.16786205082E+04  0.25500000920E-02 0. -1.
    10030    2    1    2    0    0  0.00000000000E+00  0.00000000000E+00  0.86725230580E+02  0.34439662470E+04  0.34428741256E+04 0.  0.
        5    1    3    3  502    0 -0.22650825200E+03 -0.16670338744E+04  0.40819126842E+03  0.17311701616E+04  0.46999998093E+01 0.  1.
       -5    1    3    3    0  502  0.22650825200E+03  0.16670338744E+04 -0.32146603784E+03  0.17127960854E+04  0.46999998093E+01 0. -1.
</event>
<event>
 5   0  0.2906701E-06  0.3372875E+04  0.7818609E-02  0.8144596E-01
       -2   -1    0    0    0  501  0.00000000000E+00  0.00000000000E+00  0.13617242701E+04  0.13617242701E+04  0.25500000920E-02 0.  1.
        2   -1    0    0  501    0  0.00000000000E+00  0.00000000000E+00 -0.20885815803E+04  0.20885815803E+04  0.25500000920E-02 0. -1.
    10030    2    1    2    0    0  0.00000000000E+00  0.00000000000E+00 -0.72685731019E+03  0.34503058505E+04  0.33728754665E+04 0.  0.
        5    1    3    3  502    0  0.61691413077E+03 -0.14936693250E+04 -0.85659466970E+03  0.18290455476E+04  0.46999998093E+01 0. -1.
       -5    1    3    3    0  502 -0.61691413077E+03  0.14936693250E+04  0.12973735951E+03  0.16212603029E+04  0.46999998093E+01 0.  1.
</event>
<event>
 5   0  0.1010551E-06  0.3331721E+04  0.7818609E-02  0.8154870E-01
        1   -1    0    0  501    0  0.00000000000E+00  0.00000000000E+00  0.14569990899E+04  0.14569990899E+04  0.50400001928E-02 0. -1.
       -1   -1    0    0    0  501  0.00000000000E+00  0.00000000000E+00 -0.19046626783E+04  0.19046626783E+04  0.50400001928E-02 0.  1.
    10030    2    1    2    0    0  0.00000000000E+00  0.00000000000E+00 -0.44766358839E+03  0.33616617682E+04  0.33317213502E+04 0.  0.
        2    1    3    3  502    0 -0.86653570949E+03 -0.60107286892E+03 -0.15249624178E+04  0.18540990009E+04  0.25500000920E-02 0.  1.
       -2    1    3    3    0  502  0.86653570949E+03  0.60107286892E+03  0.10772988294E+04  0.15075627673E+04  0.25500000920E-02 0. -1.
</event>
<event>
 5   0  0.2767014E-06  0.3337433E+04  0.7818609E-02  0.8153435E-01
        2   -1    0    0  501    0  0.00000000000E+00  0.00000000000E+00  0.22574920655E+04  0.22574920655E+04  0.25500000920E-02 0.  1.
       -2   -1    0    0    0  501  0.00000000000E+00  0.00000000000E+00 -0.12334991908E+04  0.12334991908E+04  0.25500000920E-02 0. -1.
    10030    2    1    2    0    0  0.00000000000E+00  0.00000000000E+00  0.10239928748E+04  0.34909912563E+04  0.33374329273E+04 0.  0.
        1    1    3    3  502    0 -0.23809922646E+03  0.16021219755E+04  0.92119045372E+02  0.16223353490E+04  0.50400001928E-02 0. -1.
       -1    1    3    3    0  502  0.23809922646E+03 -0.16021219755E+04  0.93187382938E+03  0.18686559073E+04  0.50400001928E-02 0.  1.
</event>
<event>
 5   0  0.1010551E-06  0.3352937E+04  0.7818609E-02  0.8149555E-01
       -1   -1    0    0    0  501  0.00000000000E+00  0.00000000000E+00  0.13209615620E+04  0.13209615620E+04  0.50400001928E-02 0.  1.
        1   -1    0    0  501    0  0.00000000000E+00  0.00000000000E+00 -0.21276525645E+04  0.21276525645E+04  0.50400001928E-02 0. -1.
    10030    2    1    2    0    0  0.00000000000E+00  0.00000000000E+00 -0.80669100251E+03  0.34486141265E+04  0.33529373719E+04 0.  0.
        2    1    3    3  502    0  0.83927383501E+03  0.11592164836E+04  0.49471583493E+03  0.15142348508E+04  0.25500000920E-02 0.  1.
       -2    1    3    3    0  502 -0.83927383501E+03 -0.11592164836E+04 -0.13014068374E+04  0.19343792758E+04  0.25500000920E-02 0. -1.
</event>
<event>
 5   0  0.2856440E-06  0.3002274E+04  0.7818609E-02  0.8243082E-01
       -2   -1    0    0    0  501  0.00000000000E+00  0.00000000000E+00  0.12625961635E+04  0.12625961635E+04  0.25500000920E-02 0.  1.
        2   -1    0    0  501    0  0.00000000000E+00  0.00000000000E+00 -0.17847452505E+04  0.17847452505E+04  0.25500000920E-02 0. -1.
    10030    2    1    2    0    0  0.00000000000E+00  0.00000000000E+00 -0.52214908705E+03  0.30473414140E+04  0.30022741421E+04 0.  0.
        4    1    3    3  502    0 -0.98606052576E+03 -0.79347693907E+03  0.55819084005E+03  0.13832930420E+04  0.12699999809E+01 0.  1.
       -4    1    3    3    0  502  0.98606052576E+03  0.79347693907E+03 -0.10803399271E+04  0.16640483720E+04  0.12699999809E+01 0. -1.
</event>
<event>
 5   0  0.9232963E-07  0.3398370E+04  0.7818609E-02  0.8138306E-01
       -1   -1    0    0    0  501  0.00000000000E+00  0.00000000000E+00  0.22344129461E+04  0.22344129461E+04  0.50400001928E-02 0.  1.
        1   -1    0    0  501    0  0.00000000000E+00  0.00000000000E+00 -0.12921649267E+04  0.12921649267E+04  0.50400001928E-02 0. -1.
    10030    2    1    2    0    0  0.00000000000E+00  0.00000000000E+00  0.94224801938E+03  0.35265778728E+04  0.33983702216E+04 0.  0.
        3    1    3    3  502    0  0.15063980093E+04 -0.12964057372E+03  0.12757389291E+04  0.19782698163E+04  0.10100000352E+00 0.  1.
       -3    1    3    3    0  502 -0.15063980093E+04  0.12964057372E+03 -0.33349090975E+03  0.15483080565E+04  0.10100000352E+00 0. -1.
</event>
<event>
 5   0  0.2848685E-06  0.3412620E+04  0.7818609E-02  0.8134816E-01
        2   -1    0    0  501    0  0.00000000000E+00  0.00000000000E+00  0.21912431514E+04  0.21912431514E+04  0.25500000920E-02 0.  1.
       -2   -1    0    0    0  501  0.00000000000E+00  0.00000000000E+00 -0.13286953361E+04  0.13286953361E+04  0.25500000920E-02 0. -1.
    10030    2    1    2    0    0  0.00000000000E+00  0.00000000000E+00  0.86254781529E+03  0.35199384875E+04  0.34126204333E+04 0.  0.
        3    1    3    3  502    0  0.77277424438E+03 -0.13860575387E+04 -0.21546829982E+03  0.16014874748E+04  0.10100000352E+00 0. -1.
       -3    1    3    3    0  502 -0.77277424438E+03  0.13860575387E+04  0.10780161151E+04  0.19184510127E+04  0.10100000352E+00 0.  1.
</event>
<event>
 5   0  0.9714317E-07  0.3374944E+04  0.7818609E-02  0.8144083E-01
       -1   -1    0    0    0  501  0.00000000000E+00  0.00000000000E+00  0.17322892714E+04  0.17322892714E+04  0.50400001928E-02 0. -1.
        1   -1    0    0  501    0  0.00000000000E+00  0.00000000000E+00 -0.16438145020E+04  0.16438145021E+04  0.50400001928E-02 0.  1.
    10030    2    1    2    0    0  0.00000000000E+00  0.00000000000E+00  0.88474769318E+02  0.33761037734E+04  0.33749442816E+04 0.  0.
        4    1    3    3  502    0  0.10019976163E+04 -0.10655889350E+04  0.88600233438E+03  0.17101113270E+04  0.12699999809E+01 0. -1.
       -4    1    3    3    0  502 -0.10019976163E+04  0.10655889350E+04 -0.79752756507E+03  0.16659924464E+04  0.12699999809E+01 0.  1.
</event>
<event>
 5   0  0.2767014E-06  0.2983251E+04  0.7818609E-02  0.8248530E-01
       -2   -1    0    0    0  501  0.00000000000E+00  0.00000000000E+00  0.14374815268E+04  0.14374815268E+04  0.25500000920E-02 0. -1.
        2   -1    0    0  501    0  0.00000000000E+00  0.00000000000E+00 -0.15478087773E+04  0.15478087773E+04  0.25500000920E-02 0.  1.
    10030    2    1    2    0    0  0.00000000000E+00  0.00000000000E+00 -0.11032725043E+03  0.29852903041E+04  0.29832509277E+04 0.  0.
        1    1    3    3  502    0  0.12921586146E+04 -0.60259757127E+03 -0.49381109764E+03  0.15088562286E+04  0.50400001928E-02 0.  1.
       -1    1    3    3    0  502 -0.12921586146E+04  0.60259757127E+03  0.38348384721E+03  0.14764340755E+04  0.50400001928E-02 0. -1.
</event>
<event>
 5   0  0.1003191E-06  0.3449718E+04  0.7818609E-02  0.8125811E-01
        1   -1    0    0  501    0  0.00000000000E+00  0.00000000000E+00  0.22225981831E+04  0.22225981831E+04  0.50400001928E-02 0. -1.
       -1   -1    0    0    0  501  0.00000000000E+00  0.00000000000E+00 -0.13385860907E+04  0.13385860908E+04  0.50400001928E-02 0.  1.
    10030    2    1    2    0    0  0.00000000000E+00  0.00000000000E+00  0.88401209233E+03  0.35611842738E+04  0.34497182570E+04 0.  0.
        5    1    3    3  502    0 -0.46136459578E+03  0.11105588286E+04  0.17184537282E+04  0.20974516700E+04  0.46999998093E+01 0. -1.
       -5    1    3    3    0  502  0.46136459578E+03 -0.11105588286E+04 -0.83444163585E+03  0.14637326039E+04  0.46999998093E+01 0.  1.
</event>
<event>
 5   0  0.9714317E-07  0.3416780E+04  0.7818609E-02  0.8133800E-01
        1   -1    0    0  501    0  0.00000000000E+00  0.00000000000E+00  0.15639284900E+04  0.15639284900E+04  0.50400001928E-02 0. -1.
       -1   -1    0    0    0  501  0.00000000000E+00  0.00000000000E+00 -0.18661954350E+04  0.18661954350E+04  0.50400001928E-02 0.  1.
    10030    2    1    2    0    0  0.00000000000E+00  0.00000000000E+00 -0.30226694497E+03  0.34301239250E+04  0.34167798927E+04 0.  0.
        4    1    3    3  502    0 -0.14820169783E+04 -0.49143961829E+03 -0.84717187240E+03  0.17763977642E+04  0.12699999809E+01 0.  1.
       -4    1    3    3    0  502  0.14820169783E+04  0.49143961829E+03  0.54490492743E+03  0.16537261609E+04  0.12699999809E+01 0. -1.
</event>
<event>
 5   0  0.2848685E-06  0.3326120E+04  0.7818609E-02  0.8156281E-01
       -2   -1    0    0    0  501  0.00000000000E+00  0.00000000000E+00  0.19422563392E+04  0.19422563392E+04  0.25500000920E-02 0.  1.
        2   -1    0    0  501    0  0.00000000000E+00  0.00000000000E+00 -0.14239979828E+04  0.14239979828E+04  0.25500000920E-02 0. -1.
    10030    2    1    2    0    0  0.00000000000E+00  0.00000000000E+00  0.51825835635E+03  0.33662543220E+04  0.33261203280E+04 0.  0.
        3    1    3    3  502    0  0.88512679480E+03 -0.33827004274E+03  0.16423291416E+04  0.18960804530E+04  0.10100000352E+00 0.  1.
       -3    1    3    3    0  502 -0.88512679480E+03  0.33827004274E+03 -0.11240707852E+04  0.14701738690E+04  0.10100000352E+00 0. -1.
</event>
<event>
 5   0  0.1003191E-06  0.2287105E+04  0.7818609E-02  0.8483023E-01
        1   -1    0    0  501    0  0.00000000000E+00  0.00000000000E+00  0.13980209028E+04  0.13980209028E+04  0.50400001928E-02 0.  1.
       -1   -1    0    0    0  501  0.00000000000E+00  0.00000000000E+00 -0.93540254046E+03  0.93540254047E+03  0.50400001928E-02 0. -1.
    10030    2    1    2    0    0  0.00000000000E+00  0.00000000000E+00  0.46261836230E+03  0.23334234432E+04  0.22871049858E+04 0.  0.
        5    1    3    3  502    0  0.12625209979E+03  0.10231632960E+04 -0.27357382972E+03  0.10666149508E+04  0.46999998093E+01 0. -1.
       -5    1    3    3    0  502 -0.12625209979E+03 -0.10231632960E+04  0.73619219202E+03  0.12668084924E+04  0.46999998093E+01 0.  1.
</event>
<event>
 5   0  0.9232963E-07  0.2837209E+04  0.7818609E-02  0.8291809E-01
       -1   -1    0    0    0  501  0.00000000000E+00  0.00000000000E+00  0.10886282899E+04  0.10886282899E+04  0.50400001928E-02 0. -1.
        1   -1    0    0  501    0  0.00000000000E+00  0.00000000000E+00 -0.18486006468E+04  0.18486006468E+04  0.50400001928E-02 0.  1.
    10030    2    1    2    0    0  0.00000000000E+00  0.00000000000E+00 -0.75997235689E+03  0.29372289366E+04  0.28372091645E+04 0.  0.
        3    1    3    3  502    0  0.66064039030E+03 -0.11866877600E+04 -0.80401719366E+03  0.15783273497E+04  0.10100000352E+00 0.  1.
       -3    1    3    3    0  502 -0.66064039030E+03  0.11866877600E+04  0.44044836762E+02  0.13589015869E+04  0.10100000352E+00 0. -1.
</event>
<event>
 5   0  0.1010551E-06  0.2238140E+04  0.7818609E-02  0.8502719E-01
        1   -1    0    0  501    0  0.00000000000E+00  0.00000000000E+00  0.12029977884E+04  0.12029977884E+04  0.50400001928E-02 0.  1.
       -1   -1    0    0    0  501  0.00000000000E+00  0.00000000000E+00 -0.10409977351E+04  0.10409977352E+04  0.50400001928E-02 0. -1.
    10030    2    1    2    0    0  0.00000000000E+00  0.00000000000E+00  0.16200005324E+03  0.22439955236E+04  0.22381402754E+04 0.  0.
        2    1    3    3  502    0  0.23110470581E+02 -0.93049383184E+03  0.70388622282E+03  0.11669655863E+04  0.25500000920E-02 0.  1.
       -2    1    3    3    0  502 -0.23110470581E+02  0.93049383184E+03 -0.54188616958E+03  0.10770299372E+04  0.25500000920E-02 0. -1.
</event>
<event>
 5   0  0.2664083E-06  0.3458958E+04  0.7818609E-02  0.8123586E-01
        2   -1    0    0  501    0  0.00000000000E+00  0.00000000000E+00  0.22709151663E+04  0.22709151663E+04  0.25500000920E-02 0.  1.
       -2   -1    0    0    0  501  0.00000000000E+00  0.00000000000E+00 -0.13171333886E+04  0.13171333886E+04  0.25500000920E-02 0. -1.
    10030    2    1    2    0    0  0.00000000000E+00  0.00000000000E+00  0.95378177776E+03  0.35880485549E+04  0.34589583335E+04 0.  0.
        2    1    3    3  502    0  0.52380780461E+03 -0.12895375478E+03  0.21814123085E+04  0.22471233493E+04  0.25500000920E-02 0.  1.
       -2    1    3    3    0  502 -0.52380780461E+03  0.12895375478E+03 -0.12276305308E+04  0.13409252057E+04  0.25500000920E-02 0. -1.
</event>
<event>
 5   0  0.9714317E-07  0.3439700E+04  0.7818609E-02  0.8128231E-01
       -1   -1    0    0    0  501  0.00000000000E+00  0.00000000000E+00  0.24707422158E+04  0.24707422158E+04  0.50400001928E-02 0.  1.
        1   -1    0    0  501    0  0.00000000000E+00  0.00000000000E+00 -0.11971641013E+04  0.11971641013E+04  0.50400001928E-02 0. -1.
    10030    2    1    2    0    0  0.00000000000E+00  0.00000000000E+00  0.12735781144E+04  0.36679063171E+04  0.34396999197E+04 0.  0.
        4    1    3    3  502    0  0.63620954591E+03  0.46055557532E+03 -0.99475629458E+03  0.12674445640E+04  0.12699999809E+01 0. -1.
       -4    1    3    3    0  502 -0.63620954591E+03 -0.46055557532E+03  0.22683344090E+04  0.24004617532E+04  0.12699999809E+01 0.  1.
</event>
<event>
 5   0  0.1010551E-06  0.3299022E+04  0.7818609E-02  0.8163144E-01
       -1   -1    0    0    0  501  0.00000000000E+00  0.00000000000E+00  0.15467225074E+04  0.15467225074E+04  0.50400001928E-02 0.  1.
        1   -1    0    0  501    0  0.00000000000E+00  0.00000000000E+00 -0.17591306193E+04  0.17591306193E+04  0.50400001928E-02 0. -1.
    10030    2    1    2    0    0  0.00000000000E+00  0.00000000000E+00 -0.21240811188E+03  0.33058531268E+04  0.32990222324E+04 0.  0.
        2    1    3    3  502    0 -0.49581150190E+03  0.15724605338E+04 -0.56850207248E+02  0.16497554734E+04  0.25500000920E-02 0.  1.
       -2    1    3    3    0  502  0.49581150190E+03 -0.15724605338E+04 -0.15555790463E+03  0.16560976534E+04  0.25500000920E-02 0. -1.
</event>
<event>
 5   0  0.9232963E-07  0.3432958E+04  0.7818609E-02  0.8129864E-01
        1   -1    0    0  501    0  0.00000000000E+00  0.00000000000E+00  0.19297228498E+04  0.19297228499E+04  0.50400001928E-02 0.  1.
       -1   -1    0    0    0  501  0.00000000000E+00  0.00000000000E+00 -0.15268000218E+04  0.15268000218E+04  0.50400001928E-02 0. -1.
    10030    2    1    2    0    0  0.00000000000E+00  0.00000000000E+00  0.40292282803E+03  0.34565228717E+04  0.34329584264E+04 0.  0.
        3    1    3    3  502    0 -0.13540235464E+04 -0.35005241911E+03  0.12034731090E+04  0.18450647671E+04  0.10100000352E+00 0.  1.
       -3    1    3    3    0  502  0.13540235464E+04  0.35005241911E+03 -0.80055028101E+03  0.16114581046E+04  0.10100000352E+00 0. -1.
</event>
<event>
 5   0  0.2767014E-06  0.3453161E+04  0.7818609E-02  0.8124981E-01
        2   -1    0    0  501    0  0.00000000000E+00  0.00000000000E+00  0.16901148187E+04  0.16901148187E+04  0.25500000920E-02 0. -1.
       -2   -1    0    0    0  501  0.00000000000E+00  0.00000000000E+00 -0.17638331720E+04  0.17638331720E+04  0.25500000920E-02 0.  1.
    10030    2    1    2    0    0  0.00000000000E+00  0.00000000000E+00 -0.73718353287E+02  0.34539479908E+04  0.34531612078E+04 0.  0.
        1    1    3    3  502    0  0.11571385851E+04  0.11668670476E+04 -0.56663273186E+03  0.17382810661E+04  0.50400001928E-02 0. -1.
       -1    1    3    3    0  502 -0.11571385851E+04 -0.11668670476E+04  0.49291437858E+03  0.17156669247E+04  0.50400001928E-02 0.  1.
</event>
<event>
 5   0  0.2856440E-06  0.2542124E+04  0.7818609E-02  0.8388130E-01
       -2   -1    0    0    0  501  0.00000000000E+00  0.00000000000E+00  0.12496508452E+04  0.12496508452E+04  0.25500000920E-02 0. -1.
        2   -1    0    0  501    0  0.00000000000E+00  0.00000000000E+00 -0.12928401480E+04  0.12928401480E+04  0.25500000920E-02 0.  1.
    10030    2    1    2    0    0  0.00000000000E+00  0.00000000000E+00 -0.43189302856E+02  0.25424909932E+04  0.25421241383E+04 0.  0.
        4    1    3    3  502    0 -0.84293854419E+03  0.83151327663E+03 -0.48387066953E+03  0.12790981808E+04  0.12699999809E+01 0.  1.
       -4    1    3    3    0  502  0.84293854419E+03 -0.83151327663E+03  0.44068136667E+03  0.12633928124E+04  0.12699999809E+01 0. -1.
</event>
<event>
 5   0  0.1010855E-06  0.3213743E+04  0.7818609E-02  0.8185197E-01
       -1   -1    0    0    0  501  0.00000000000E+00  0.00000000000E+00  0.13629395724E+04  0.13629395724E+04  0.50400001928E-02 0.  1.
        1   -1    0    0  501    0  0.00000000000E+00  0.00000000000E+00 -0.18944606379E+04  0.18944606379E+04  0.50400001928E-02 0. -1.
    10030    2    1    2    0    0  0.00000000000E+00  0.00000000000E+00 -0.53152106555E+03  0.32574002103E+04  0.32137425981E+04 0.  0.
        1    1    3    3  502    0 -0.10613476966E+04 -0.12011789961E+04 -0.38018996804E+03  0.16473719451E+04  0.50400001928E-02 0. -1.
       -1    1    3    3    0  502  0.10613476966E+04  0.12011789961E+04 -0.15133109751E+03  0.16100282652E+04  0.50400001928E-02 0.  1.
</event>
<event>
 5   0  0.2767014E-06  0.3379841E+04  0.7818609E-02  0.8142872E-01
       -2   -1    0    0    0  501  0.00000000000E+00  0.00000000000E+00  0.26213361273E+04  0.26213361273E+04  0.25500000920E-02 0.  1.
        2   -1    0    0  501    0  0.00000000000E+00  0.00000000000E+00 -0.10894560574E+04  0.10894560574E+04  0.25500000920E-02 0. -1.
    10030    2    1    2    0    0  0.00000000000E+00  0.00000000000E+00  0.15318800699E+04  0.37107921847E+04  0.33798405420E+04 0.  0.
        1    1    3    3  502    0  0.14800525346E+04 -0.74824525957E+02  0.16576751430E+04  0.22235199785E+04  0.50400001928E-02 0.  1.
       -1    1    3    3    0  502 -0.14800525346E+04  0.74824525957E+02 -0.12579507317E+03  0.14872722062E+04  0.50400001928E-02 0. -1.
</event>
<event>
 5   0  0.2856440E-06  0.3401325E+04  0.7818609E-02  0.8137581E-01
        2   -1    0    0  501    0  0.00000000000E+00  0.00000000000E+00  0.22385650437E+04  0.22385650437E+04  0.25500000920E-02 0. -1.
       -2   -1    0    0    0  501  0.00000000000E+00  0.00000000000E+00 -0.12920121182E+04  0.12920121182E+04  0.25500000920E-02 0.  1.
    10030    2    1    2    0    0  0.00000000000E+00  0.00000000000E+00  0.94655292550E+03  0.35305771620E+04  0.34013251324E+04 0.  0.
        4    1    3    3  502    0  0.11950820986E+04  0.11284931964E+04  0.20187839546E+02  0.16438148553E+04  0.12699999809E+01 0.  1.
       -4    1    3    3    0  502 -0.11950820986E+04 -0.11284931964E+04  0.92636508596E+03  0.18867623067E+04  0.12699999809E+01 0. -1.
</event>
<event>
 5   0  0.2906701E-06  0.3309855E+04  0.7818609E-02  0.8160392E-01
        2   -1    0    0  501    0  0.00000000000E+00  0.00000000000E+00  0.19951607610E+04  0.19951607610E+04  0.25500000920E-02 0. -1.
       -2   -1    0    0    0  501  0.00000000000E+00  0.00000000000E+00 -0.13727141287E+04  0.13727141287E+04  0.25500000920E-02 0.  1.
    10030    2    1    2    0    0  0.00000000000E+00  0.00000000000E+00  0.62244663228E+03  0.33678748897E+04  0.33098552026E+04 0.  0.
        5    1    3    3  502    0 -0.20256333937E+03  0.48012761617E+03 -0.12870458138E+04  0.13885472448E+04  0.46999998093E+01 0.  1.
       -5    1    3    3    0  502  0.20256333937E+03 -0.48012761617E+03  0.19094924460E+04  0.19793276449E+04  0.46999998093E+01 0. -1.
</event>
<event>
 5   0  0.2767014E-06  0.3337635E+04  0.7818609E-02  0.8153385E-01
       -2   -1    0    0    0  501  0.00000000000E+00  0.00000000000E+00  0.13769536860E+04  0.13769536860E+04  0.25500000920E-02 0. -1.
        2   -1    0    0  501    0  0.00000000000E+00  0.00000000000E+00 -0.20225458645E+04  0.20225458645E+04  0.25500000920E-02 0.  1.
    10030    2    1    2    0    0  0.00000000000E+00  0.00000000000E+00 -0.64559217851E+03  0.33994995504E+04  0.33376350808E+04 0.  0.
        1    1    3    3  502    0 -0.98862878222E+03  0.12687805127E+04 -0.77574226611E+03  0.17857678802E+04  0.50400001928E-02 0. -1.
       -1    1    3    3    0  502  0.98862878222E+03 -0.12687805127E+04  0.13015008760E+03  0.16137316703E+04  0.50400001928E-02 0.  1.
</event>
<event>
 5   0  0.2906701E-06  0.2202026E+04  0.7818609E-02  0.8517585E-01
       -2   -1    0    0    0  501  0.00000000000E+00  0.00000000000E+00  0.92679105363E+03  0.92679105363E+03  0.25500000920E-02 0. -1.
        2   -1    0    0  501    0  0.00000000000E+00  0.00000000000E+00 -0.13079858900E+04  0.13079858900E+04  0.25500000920E-02 0.  1.
    10030    2    1    2    0    0  0.00000000000E+00  0.00000000000E+00 -0.38119483640E+03  0.22347769437E+04  0.22020259955E+04 0.  0.
        5    1    3    3  502    0 -0.86487281285E+03 -0.94370874518E+02  0.49419506638E+03  0.10005806804E+04  0.46999998093E+01 0. -1.
       -5    1    3    3    0  502  0.86487281285E+03  0.94370874518E+02 -0.87538990278E+03  0.12341962633E+04  0.46999998093E+01 0.  1.
</event>
<event>
 5   0  0.2767014E-06  0.3351328E+04  0.7818609E-02  0.8149956E-01
        2   -1    0    0  501    0  0.00000000000E+00  0.00000000000E+00  0.16311531743E+04  0.16311531743E+04  0.25500000920E-02 0.  1.
       -2   -1    0    0    0  501  0.00000000000E+00  0.00000000000E+00 -0.17213893352E+04  0.17213893352E+04  0.25500000920E-02 0. -1.
    10030    2    1    2    0    0  0.00000000000E+00  0.00000000000E+00 -0.90236160877E+02  0.33525425095E+04  0.33513279030E+04 0.  0.
        1    1    3    3  502    0 -0.10359217129E+04 -0.11838921404E+04 -0.62248865959E+03  0.16918116109E+04  0.50400001928E-02 0. -1.
       -1    1    3    3    0  502  0.10359217129E+04  0.11838921404E+04  0.53225249871E+03  0.16607308987E+04  0.50400001928E-02 0.  1.
</event>
<event>
 5   0  0.9714317E-07  0.3141660E+04  0.7818609E-02  0.8204397E-01
        1   -1    0    0  501    0  0.00000000000E+00  0.00000000000E+00  0.15023302964E+04  0.15023302964E+04  0.50400001928E-02 0. -1.
       -1   -1    0    0    0  501  0.00000000000E+00  0.00000000000E+00 -0.16424527633E+04  0.16424527633E+04  0.50400001928E-02 0.  1.
    10030    2    1    2    0    0  0.00000000000E+00  0.00000000000E+00 -0.14012246692E+03  0.31447830597E+04  0.31416597822E+04 0.  0.
        4    1    3    3  502    0  0.61038498966E+03 -0.13560217541E+04  0.43654476399E+03  0.15498186271E+04  0.12699999809E+01 0. -1.
       -4    1    3    3    0  502 -0.61038498966E+03  0.13560217541E+04 -0.57666723091E+03  0.15949644326E+04  0.12699999809E+01 0.  1.
</event>
<event>
 5   0  0.9232963E-07  0.3322035E+04  0.7818609E-02  0.8157311E-01
       -1   -1    0    0    0  501  0.00000000000E+00  0.00000000000E+00  0.14750105261E+04  0.14750105261E+04  0.50400001928E-02 0. -1.
        1   -1    0    0  501    0  0.00000000000E+00  0.00000000000E+00 -0.18704809919E+04  0.18704809919E+04  0.50400001928E-02 0.  1.
    10030    2    1    2    0    0  0.00000000000E+00  0.00000000000E+00 -0.39547046581E+03  0.33454915181E+04  0.33220350101E+04 0.  0.
        3    1    3    3  502    0 -0.12196293778E+04  0.41732220128E+03  0.85719433357E+03  0.15480425623E+04  0.10100000352E+00 0. -1.
       -3    1    3    3    0  502  0.12196293778E+04 -0.41732220128E+03 -0.12526647994E+04  0.17974489558E+04  0.10100000352E+00 0.  1.
</event>
<event>
 5   0  0.2767014E-06  0.3441767E+04  0.7818609E-02  0.8127731E-01
        2   -1    0    0  501    0  0.00000000000E+00  0.00000000000E+00  0.15697600237E+04  0.15697600237E+04  0.25500000920E-02 0. -1.
       -2   -1    0    0    0  501  0.00000000000E+00  0.00000000000E+00 -0.18865556798E+04  0.18865556798E+04  0.25500000920E-02 0.  1.
    10030    2    1    2    0    0  0.00000000000E+00  0.00000000000E+00 -0.31679565606E+03  0.34563157035E+04  0.34417668071E+04 0.  0.
        1    1    3    3  502    0  0.40427234532E+02  0.17057773708E+04 -0.38323908317E+03  0.17487661350E+04  0.50400001928E-02 0.  1.
       -1    1    3    3    0  502 -0.40427234532E+02 -0.17057773708E+04  0.66443427105E+02  0.17075495685E+04  0.50400001928E-02 0. -1.
</event>
<event>
 5   0  0.1010551E-06  0.3585754E+04  0.7818609E-02  0.8093763E-01
        1   -1    0    0  501    0  0.00000000000E+00  0.00000000000E+00  0.14844000309E+04  0.14844000309E+04  0.50400001928E-02 0.  1.
       -1   -1    0    0    0  501  0.00000000000E+00  0.00000000000E+00 -0.21654598396E+04  0.21654598396E+04  0.50400001928E-02 0. -1.
    10030    2    1    2    0    0  0.00000000000E+00  0.00000000000E+00 -0.68105980870E+03  0.36498598705E+04  0.35857543992E+04 0.  0.
        2    1    3    3  502    0  0.11226973833E+03 -0.17878587776E+04 -0.26597321946E+03  0.18110177404E+04  0.25500000920E-02 0. -1.
       -2    1    3    3    0  502 -0.11226973833E+03  0.17878587776E+04 -0.41508658925E+03  0.18388421301E+04  0.25500000920E-02 0.  1.
</event>
<event>
 5   0  0.2664083E-06  0.3092793E+04  0.7818609E-02  0.8217719E-01
       -2   -1    0    0    0  501  0.00000000000E+00  0.00000000000E+00  0.12868425586E+04  0.12868425586E+04  0.25500000920E-02 0.  1.
        2   -1    0    0  501    0  0.00000000000E+00  0.00000000000E+00 -0.18583020394E+04  0.18583020394E+04  0.25500000920E-02 0. -1.
    10030    2    1    2    0    0  0.00000000000E+00  0.00000000000E+00 -0.57145948074E+03  0.31451445980E+04  0.30927930102E+04 0.  0.
        2    1    3    3  502    0  0.41632643262E+03 -0.56449909444E+03  0.11157694773E+04  0.13179258145E+04  0.25500000920E-02 0.  1.
       -2    1    3    3    0  502 -0.41632643262E+03  0.56449909444E+03 -0.16872289580E+04  0.18272187835E+04  0.25500000920E-02 0. -1.
</event>
<event>
 5   0  0.9714317E-07  0.3216474E+04  0.7818609E-02  0.8184480E-01
        1   -1    0    0  501    0  0.00000000000E+00  0.00000000000E+00  0.25393436191E+04  0.25393436191E+04  0.50400001928E-02 0.  1.
       -1   -1    0    0    0  501  0.00000000000E+00  0.00000000000E+00 -0.10185411890E+04  0.10185411890E+04  0.50400001928E-02 0. -1.
    10030    2    1    2    0    0  0.00000000000E+00  0.00000000000E+00  0.15208024301E+04  0.35578848081E+04  0.32164738886E+04 0.  0.
        4    1    3    3  502    0  0.58838749627E+03  0.51466746857E+03  0.23150525446E+04  0.24434713721E+04  0.12699999809E+01 0.  1.
       -4    1    3    3    0  502 -0.58838749627E+03 -0.51466746857E+03 -0.79425011453E+03  0.11144134360E+04  0.12699999809E+01 0. -1.
</event>
<event>
 5   0  0.2906701E-06  0.3364906E+04  0.7818609E-02  0.8146574E-01
        2   -1    0    0  501    0  0.00000000000E+00  0.00000000000E+00  0.19960351521E+04  0.19960351521E+04  0.25500000920E-02 0.  1.
       -2   -1    0    0    0  501  0.00000000000E+00  0.00000000000E+00 -0.14181352254E+04  0.14181352254E+04  0.25500000920E-02 0. -1.
    10030    2    1    2    0    0  0.00000000000E+00  0.00000000000E+00  0.57789992667E+03  0.34141703775E+04  0.33649057997E+04 0.  0.
        5    1    3    3  502    0 -0.37587225250E+03 -0.18281130960E+03 -0.13646111240E+04  0.14271949883E+04  0.46999998093E+01 0. -1.
       -5    1    3    3    0  502  0.37587225250E+03  0.18281130960E+03  0.19425110506E+04  0.19869753891E+04  0.46999998093E+01 0.  1.
</event>
<event>
 5   0  0.1010855E-06  0.3361561E+04  0.7818609E-02  0.8147405E-01
        1   -1    0    0  501    0  0.00000000000E+00  0.00000000000E+00  0.20847852078E+04  0.20847852078E+04  0.50400001928E-02 0. -1.
       -1   -1    0    0    0  501  0.00000000000E+00  0.00000000000E+00 -0.13550669516E+04  0.13550669516E+04  0.50400001928E-02 0.  1.
    10030    2    1    2    0    0  0.00000000000E+00  0.00000000000E+00  0.72971825614E+03  0.34398521594E+04  0.33615612660E+04 0.  0.
        1    1    3    3  502    0  0.12281966097E+04 -0.86692235809E+03 -0.40431352488E+03  0.15567564721E+04  0.50400001928E-02 0. -1.
       -1    1    3    3    0  502 -0.12281966097E+04  0.86692235809E+03  0.11340317810E+04  0.18830956873E+04  0.50400001928E-02 0.  1.
</event>
<event>
 5   0  0.2767014E-06  0.3458805E+04  0.7818609E-02  0.8123623E-01
       -2   -1    0    0    0  501  0.00000000000E+00  0.00000000000E+00  0.14231284717E+04  0.14231284717E+04  0.25500000920E-02 0. -1.
        2   -1    0    0  501    0  0.00000000000E+00  0.00000000000E+00 -0.21015906061E+04  0.21015906061E+04  0.25500000920E-02 0.  1.
    10030    2    1    2    0    0  0.00000000000E+00  0.00000000000E+00 -0.67846213443E+03  0.35247190778E+04  0.34588052431E+04 0.  0.
        1    1    3    3  502    0 -0.72066262902E+03  0.15085673641E+04  0.11158302843E+03  0.16755837458E+04  0.50400001928E-02 0. -1.
       -1    1    3    3    0  502  0.72066262902E+03 -0.15085673641E+04 -0.79004516286E+03  0.18491353320E+04  0.50400001928E-02 0.  1.
</event>
<event>
 5   0  0.1010551E-06  0.3494353E+04  0.7818609E-02  0.8115129E-01
        1   -1    0    0  501    0  0.00000000000E+00  0.00000000000E+00  0.27952437862E+04  0.27952437862E+04  0.50400001928E-02 0. -1.
       -1   -1    0    0    0  501  0.00000000000E+00  0.00000000000E+00 -0.10920786447E+04  0.10920786447E+04  0.50400001928E-02 0.  1.
    10030    2    1    2    0    0  0.00000000000E+00  0.00000000000E+00  0.17031651415E+04  0.38873224309E+04  0.34943531852E+04 0.  0.
        2    1    3    3  502    0 -0.21710990625E+02  0.13495401465E+04 -0.38264276944E+03  0.14029060778E+04  0.25500000920E-02 0.  1.
       -2    1    3    3    0  502  0.21710990625E+02 -0.13495401465E+04  0.20858079109E+04  0.24844163531E+04  0.25500000920E-02 0. -1.
</event>
<event>
 5   0  0.1010551E-06  0.3390137E+04  0.7818609E-02  0.8140331E-01
        1   -1    0    0  501    0  0.00000000000E+00  0.00000000000E+00  0.21495191235E+04  0.21495191235E+04  0.50400001928E-02 0. -1.
       -1   -1    0    0    0  501  0.00000000000E+00  0.00000000000E+00 -0.13366979123E+04  0.13366979123E+04  0.50400001928E-02 0.  1.
    10030    2    1    2    0    0  0.00000000000E+00  0.00000000000E+00  0.81282121120E+03  0.34862170359E+04  0.33901372981E+04 0.  0.
        2    1    3    3  502    0 -0.13939345603E+03 -0.15113098686E+04  0.11826341246E+04  0.19240871932E+04  0.25500000920E-02 0.  1.
       -2    1    3    3    0  502  0.13939345603E+03  0.15113098686E+04 -0.36981291339E+03  0.15621298427E+04  0.25500000920E-02 0. -1.
</event>
<event>
 5   0  0.1003191E-06  0.3396939E+04  0.7818609E-02  0.8138658E-01
       -1   -1    0    0    0  501  0.00000000000E+00  0.00000000000E+00  0.13520043110E+04  0.13520043110E+04  0.50400001928E-02 0. -1.
        1   -1    0    0  501    0  0.00000000000E+00  0.00000000000E+00 -0.21337194092E+04  0.21337194092E+04  0.50400001928E-02 0.  1.
    10030    2    1    2    0    0  0.00000000000E+00  0.00000000000E+00 -0.78171509824E+03  0.34857237202E+04  0.33969385274E+04 0.  0.
        5    1    3    3  502    0 -0.23503826534E+03 -0.74246934103E+02  0.13335470406E+04  0.13561435739E+04  0.46999998093E+01 0. -1.
       -5    1    3    3    0  502  0.23503826534E+03  0.74246934103E+02 -0.21152621389E+04  0.21295801463E+04  0.46999998093E+01 0.  1.
</event>
<event>
 5   0  0.1003191E-06  0.3469466E+04  0.7818609E-02  0.8121065E-01
       -1   -1    0    0    0  501  0.00000000000E+00  0.00000000000E+00  0.22264082766E+04  0.22264082766E+04  0.50400001928E-02 0. -1.
        1   -1    0    0  501    0  0.00000000000E+00  0.00000000000E+00 -0.13516379930E+04  0.13516379930E+04  0.50400001928E-02 0.  1.
    10030    2    1    2    0    0  0.00000000000E+00  0.00000000000E+00  0.87477028361E+03  0.35780462696E+04  0.34694656734E+04 0.  0.
        5    1    3    3  502    0  0.78685375646E+03 -0.61461803070E+03  0.19003656647E+04  0.21466965103E+04  0.46999998093E+01 0. -1.
       -5    1    3    3    0  502 -0.78685375646E+03  0.61461803070E+03 -0.10255953811E+04  0.14313497593E+04  0.46999998093E+01 0.  1.
</event>
<event>
 5   0  0.9714317E-07  0.3475050E+04  0.7818609E-02  0.8119728E-01
       -1   -1    0    0    0  501  0.00000000000E+00  0.00000000000E+00  0.10643840743E+04  0.10643840744E+04  0.50400001928E-02 0.  1.
        1   -1    0    0  501    0  0.00000000000E+00  0.00000000000E+00 -0.28363764751E+04  0.28363764751E+04  0.50400001928E-02 0. -1.
    10030    2    1    2    0    0  0.00000000000E+00  0.00000000000E+00 -0.17719924007E+04  0.39007605494E+04  0.34750504739E+04 0.  0.
        4    1    3    3  502    0 -0.66085999397E+03 -0.15554793714E+04 -0.13388268044E+04  0.21560869258E+04  0.12699999809E+01 0.  1.
       -4    1    3    3    0  502  0.66085999397E+03  0.15554793714E+04 -0.43316559633E+03  0.17446736237E+04  0.12699999809E+01 0. -1.
</event>
<event>
 5   0  0.2856440E-06  0.3368948E+04  0.7818609E-02  0.8145570E-01
        2   -1    0    0  501    0  0.00000000000E+00  0.00000000000E+00  0.22031247649E+04  0.22031247649E+04  0.25500000920E-02 0. -1.
       -2   -1    0    0    0  501  0.00000000000E+00  0.00000000000E+00 -0.12879221687E+04  0.12879221687E+04  0.25500000920E-02 0.  1.
    10030    2    1    2    0    0  0.00000000000E+00  0.00000000000E+00  0.91520259619E+03  0.34910469336E+04  0.33689483374E+04 0.  0.
        4    1    3    3  502    0 -0.14406864679E+04  0.39649440543E+03 -0.34818377623E+03  0.15342812217E+04  0.12699999809E+01 0.  1.
       -4    1    3    3    0  502  0.14406864679E+04 -0.39649440543E+03  0.12633863724E+04  0.19567657119E+04  0.12699999809E+01 0. -1.
</event>
<event>
 5   0  0.2767014E-06  0.3377661E+04  0.7818609E-02  0.8143411E-01
        2   -1    0    0  501    0  0.00000000000E+00  0.00000000000E+00  0.18827908829E+04  0.18827908829E+04  0.25500000920E-02 0.  1.
       -2   -1    0    0    0  501  0.00000000000E+00  0.00000000000E+00 -0.15148512018E+04  0.15148512018E+04  0.25500000920E-02 0. -1.
    10030    2    1    2    0    0  0.00000000000E+00  0.00000000000E+00  0.36793968109E+03  0.33976420847E+04  0.33776607477E+04 0.  0.
        1    1    3    3  502    0  0.11308480793E+04 -0.90740066844E+03 -0.68715241705E+03  0.16044849005E+04  0.50400001928E-02 0. -1.
       -1    1    3    3    0  502 -0.11308480793E+04  0.90740066844E+03  0.10550920981E+04  0.17931571842E+04  0.50400001928E-02 0.  1.
</event>
<event>
 5   0  0.2906701E-06  0.2893820E+04  0.7818609E-02  0.8274719E-01
        2   -1    0    0  501    0  0.00000000000E+00  0.00000000000E+00  0.85410567869E+03  0.85410567870E+03  0.25500000920E-02 0. -1.
       -2   -1    0    0    0  501  0.00000000000E+00  0.00000000000E+00 -0.24511590894E+04  0.24511590894E+04  0.25500000920E-02 0.  1.
    10030    2    1    2    0    0  0.00000000000E+00  0.00000000000E+00 -0.15970534107E+04  0.33052647681E+04  0.28938202416E+04 0.  0.
        5    1    3    3  502    0  0.90037447453E+03 -0.86784639759E+03 -0.16298074882E+04  0.20542945511E+04  0.46999998093E+01 0.  1.
       -5    1    3    3    0  502 -0.90037447453E+03  0.86784639759E+03  0.32754077475E+02  0.12509702170E+04  0.46999998093E+01 0. -1.
</event>
<event>
 5   0  0.2664083E-06  0.3424519E+04  0.7818609E-02  0.8131915E-01
       -2   -1    0    0    0  501  0.00000000000E+00  0.00000000000E+00  0.15906612801E+04  0.15906612801E+04  0.25500000920E-02 0. -1.
        2   -1    0    0  501    0  0.00000000000E+00  0.00000000000E+00 -0.18431530495E+04  0.18431530495E+04  0.25500000920E-02 0.  1.
    10030    2    1    2    0    0  0.00000000000E+00  0.00000000000E+00 -0.25249176947E+03  0.34338143296E+04  0.34245187627E+04 0.  0.
        2    1    3    3  502    0 -0.12219125415E+03 -0.15705352275E+04  0.54663495012E+03  0.16674295704E+04  0.25500000920E-02 0. -1.
       -2    1    3    3    0  502  0.12219125415E+03  0.15705352275E+04 -0.79912671958E+03  0.17663847592E+04  0.25500000920E-02 0.  1.
</event>
<event>
 5   0  0.1010551E-06  0.3095932E+04  0.7818609E-02  0.8216855E-01
        1   -1    0    0  501    0  0.00000000000E+00  0.00000000000E+00  0.14686669414E+04  0.14686669414E+04  0.50400001928E-02 0.  1.
       -1   -1    0    0    0  501  0.00000000000E+00  0.00000000000E+00 -0.16315462533E+04  0.16315462534E+04  0.50400001928E-02 0. -1.
    10030    2    1    2    0    0  0.00000000000E+00  0.00000000000E+00 -0.16287931198E+03  0.31002131947E+04  0.30959315533E+04 0.  0.
        2    1    3    3  502    0  0.45646134217E+03  0.64515326850E+03 -0.14143019884E+04  0.16201326524E+04  0.25500000920E-02 0. -1.
       -2    1    3    3    0  502 -0.45646134217E+03 -0.64515326850E+03  0.12514226765E+04  0.14800805424E+04  0.25500000920E-02 0.  1.
</event>
<event>
 5   0  0.1010855E-06  0.3441975E+04  0.7818609E-02  0.8127680E-01
       -1   -1    0    0    0  501  0.00000000000E+00  0.00000000000E+00  0.11201130166E+04  0.11201130166E+04  0.50400001928E-02 0.  1.
        1   -1    0    0  501    0  0.00000000000E+00  0.00000000000E+00 -0.26441957091E+04  0.26441957091E+04  0.50400001928E-02 0. -1.
    10030    2    1    2    0    0  0.00000000000E+00  0.00000000000E+00 -0.15240826924E+04  0.37643087257E+04  0.34419750332E+04 0.  0.
        1    1    3    3  502    0  0.11156674262E+04  0.73832305540E+02  0.66877155134E+03  0.13028508752E+04  0.50400001928E-02 0.  1.
       -1    1    3    3    0  502 -0.11156674262E+04 -0.73832305540E+02 -0.21928542438E+04  0.24614578505E+04  0.50400001928E-02 0. -1.
</event>
<event>
 5   0  0.2906701E-06  0.3387498E+04  0.7818609E-02  0.8140981E-01
        2   -1    0    0  501    0  0.00000000000E+00  0.00000000000E+00  0.14727974607E+04  0.14727974607E+04  0.25500000920E-02 0. -1.
       -2   -1    0    0    0  501  0.00000000000E+00  0.00000000000E+00 -0.19478485008E+04  0.19478485008E+04  0.25500000920E-02 0.  1.
    10030    2    1    2    0    0  0.00000000000E+00  0.00000000000E+00 -0.47505104017E+03  0.34206459615E+04  0.33874983842E+04 0.  0.
        5    1    3    3  502    0 -0.67442750076E+03  0.12009962719E+04 -0.12328274451E+04  0.18485481055E+04  0.46999998093E+01 0.  1.
       -5    1    3    3    0  502  0.67442750076E+03 -0.12009962719E+04  0.75777640497E+03  0.15720978560E+04  0.46999998093E+01 0. -1.
</event>
<event>
 5   0  0.2767014E-06  0.2302136E+04  0.7818609E-02  0.8477080E-01
       -2   -1    0    0    0  501  0.00000000000E+00  0.00000000000E+00  0.12428504101E+04  0.12428504101E+04  0.25500000920E-02 0.  1.
        2   -1    0    0  501    0  0.00000000000E+00  0.00000000000E+00 -0.10660631789E+04  0.10660631789E+04  0.25500000920E-02 0. -1.
    10030    2    1    2    0    0  0.00000000000E+00  0.00000000000E+00  0.17678723123E+03  0.23089135890E+04  0.23021355817E+04 0.  0.
        1    1    3    3  502    0 -0.21487354286E+03  0.30110265764E+03  0.11816136837E+04  0.12381616806E+04  0.50400001928E-02 0.  1.
       -1    1    3    3    0  502  0.21487354286E+03 -0.30110265764E+03 -0.10048264524E+04  0.10707519084E+04  0.50400001928E-02 0. -1.
</event>
<event>
 5   0  0.9070500E-07  0.3426590E+04  0.7818609E-02  0.8131411E-01
        3   -1    0    0  501    0  0.00000000000E+00  0.00000000000E+00  0.17310552360E+04  0.17310552390E+04  0.10100000352E+00 0. -1.
       -3   -1    0    0    0  501  0.00000000000E+00  0.00000000000E+00 -0.16957165755E+04  0.16957165785E+04  0.10100000352E+00 0.  1.
    10030    2    1    2    0    0  0.00000000000E+00  0.00000000000E+00  0.35338660552E+02  0.34267718175E+04  0.34265895973E+04 0.  0.
        2    1    3    3  502    0  0.60184380054E+03  0.68305377453E+03 -0.14338211811E+04  0.16984173806E+04  0.25500000920E-02 0.  1.
       -2    1    3    3    0  502 -0.60184380054E+03 -0.68305377453E+03  0.14691598417E+04  0.17283544369E+04  0.25500000920E-02 0. -1.
</event>
<event>
 5   0  0.9232963E-07  0.3396982E+04  0.7818609E-02  0.8138647E-01
       -1   -1    0    0    0  501  0.00000000000E+00  0.00000000000E+00  0.16584157280E+04  0.16584157280E+04  0.50400001928E-02 0. -1.
        1   -1    0    0  501    0  0.00000000000E+00  0.00000000000E+00 -0.17395351192E+04  0.17395351192E+04  0.50400001928E-02 0.  1.
    10030    2    1    2    0    0  0.00000000000E+00  0.00000000000E+00 -0.81119391250E+02  0.33979508472E+04  0.33969824263E+04 0.  0.
        3    1    3    3  502    0  0.13522132194E+03 -0.15674596810E+04  0.59966787291E+03  0.16836912500E+04  0.10100000352E+00 0. -1.
       -3    1    3    3    0  502 -0.13522132194E+03  0.15674596810E+04 -0.68078726416E+03  0.17142595972E+04  0.10100000352E+00 0.  1.
</event>
<event>
 5   0  0.2906701E-06  0.3412957E+04  0.7818609E-02  0.8134734E-01
        2   -1    0    0  501    0  0.00000000000E+00  0.00000000000E+00  0.12511413114E+04  0.12511413114E+04  0.25500000920E-02 0. -1.
       -2   -1    0    0    0  501  0.00000000000E+00  0.00000000000E+00 -0.23275302393E+04  0.23275302393E+04  0.25500000920E-02 0.  1.
    10030    2    1    2    0    0  0.00000000000E+00  0.00000000000E+00 -0.10763889280E+04  0.35786715507E+04  0.34129572138E+04 0.  0.
        5    1    3    3  502    0 -0.13689233664E+04 -0.64482143853E+03 -0.13653579264E+04  0.20381290999E+04  0.46999998093E+01 0.  1.
       -5    1    3    3    0  502  0.13689233664E+04  0.64482143853E+03  0.28896899841E+03  0.15405424508E+04  0.46999998093E+01 0. -1.
</event>
<event>
 5   0  0.9232963E-07  0.3447187E+04  0.7818609E-02  0.8126421E-01
        1   -1    0    0  501    0  0.00000000000E+00  0.00000000000E+00  0.17609511656E+04  0.17609511656E+04  0.50400001928E-02 0.  1.
       -1   -1    0    0    0  501  0.00000000000E+00  0.00000000000E+00 -0.16870285073E+04  0.16870285073E+04  0.50400001928E-02 0. -1.
    10030    2    1    2    0    0  0.00000000000E+00  0.00000000000E+00  0.73922658299E+02  0.34479796729E+04  0.34471871526E+04 0.  0.
        3    1    3    3  502    0  0.26766448186E+03 -0.57035179407E+03  0.16416460218E+04  0.17583933334E+04  0.10100000352E+00 0.  1.
       -3    1    3    3    0  502 -0.26766448186E+03  0.57035179407E+03 -0.15677233635E+04  0.16895863395E+04  0.10100000352E+00 0. -1.
</event>
<event>
 5   0  0.2906701E-06  0.3420081E+04  0.7818609E-02  0.8132995E-01
       -2   -1    0    0    0  501  0.00000000000E+00  0.00000000000E+00  0.13420972366E+04  0.13420972366E+04  0.25500000920E-02 0. -1.
        2   -1    0    0  501    0  0.00000000000E+00  0.00000000000E+00 -0.21788571606E+04  0.21788571606E+04  0.25500000920E-02 0.  1.
    10030    2    1    2    0    0  0.00000000000E+00  0.00000000000E+00 -0.83675992396E+03  0.35209543972E+04  0.34200808027E+04 0.  0.
        5    1    3    3  502    0 -0.14767825590E+04  0.65297456801E+03 -0.99797126235E+03  0.18982179125E+04  0.46999998093E+01 0. -1.
       -5    1    3    3    0  502  0.14767825590E+04 -0.65297456801E+03  0.16121133839E+03  0.16227364846E+04  0.46999998093E+01 0.  1.
</event>
<event>
 5   0  0.1010551E-06  0.3327087E+04  0.7818609E-02  0.8156037E-01
        1   -1    0    0  501    0  0.00000000000E+00  0.00000000000E+00  0.26487208901E+04  0.26487208901E+04  0.50400001928E-02 0.  1.
       -1   -1    0    0    0  501  0.00000000000E+00  0.00000000000E+00 -0.10447975684E+04  0.10447975684E+04  0.50400001928E-02 0. -1.
    10030    2    1    2    0    0  0.00000000000E+00  0.00000000000E+00  0.16039233217E+04  0.36935184586E+04  0.33270871016E+04 0.  0.
        2    1    3    3  502    0 -0.37805166281E+03  0.16042618062E+04  0.55175433507E+03  0.17381058221E+04  0.25500000920E-02 0. -1.
       -2    1    3    3    0  502  0.37805166281E+03 -0.16042618062E+04  0.10521689867E+04  0.19554126365E+04  0.25500000920E-02 0.  1.
</event>
<event>
 5   0  0.2767014E-06  0.3327162E+04  0.7818609E-02  0.8156018E-01
        2   -1    0    0  501    0  0.00000000000E+00  0.00000000000E+00  0.19832507261E+04  0.19832507261E+04  0.25500000920E-02 0. -1.
       -2   -1    0    0    0  501  0.00000000000E+00  0.00000000000E+00 -0.13954372871E+04  0.13954372871E+04  0.25500000920E-02 0.  1.
    10030    2    1    2    0    0  0.00000000000E+00  0.00000000000E+00  0.58781343907E+03  0.33786880132E+04  0.33271621619E+04 0.  0.
        1    1    3    3  502    0 -0.67811211492E+03 -0.99974056489E+03  0.14553785145E+04  0.18914131907E+04  0.50400001928E-02 0. -1.
       -1    1    3    3    0  502  0.67811211492E+03  0.99974056489E+03 -0.86756507544E+03  0.14872748225E+04  0.50400001928E-02 0.  1.
</event>
<event>
 5   0  0.1010551E-06  0.3094237E+04  0.7818609E-02  0.8217321E-01
       -1   -1    0    0    0  501  0.00000000000E+00  0.00000000000E+00  0.12477522652E+04  0.12477522652E+04  0.50400001928E-02 0.  1.
        1   -1    0    0  501    0  0.00000000000E+00  0.00000000000E+00 -0.19183101291E+04  0.19183101291E+04  0.50400001928E-02 0. -1.
    10030    2    1    2    0    0  0.00000000000E+00  0.00000000000E+00 -0.67055786391E+03  0.31660623944E+04  0.30942371008E+04 0.  0.
        2    1    3    3  502    0 -0.11072386729E+04 -0.10780427158E+04 -0.41062402644E+03  0.15989889514E+04  0.25500000920E-02 0. -1.
       -2    1    3    3    0  502  0.11072386729E+04  0.10780427158E+04 -0.25993383747E+03  0.15670734429E+04  0.25500000920E-02 0.  1.
</event>
<event>
 5   0  0.2856440E-06  0.3128893E+04  0.7818609E-02  0.8207853E-01
        2   -1    0    0  501    0  0.00000000000E+00  0.00000000000E+00  0.19007089846E+04  0.19007089846E+04  0.25500000920E-02 0.  1.
       -2   -1    0    0    0  501  0.00000000000E+00  0.00000000000E+00 -0.12876734443E+04  0.12876734443E+04  0.25500000920E-02 0. -1.
    10030    2    1    2    0    0  0.00000000000E+00  0.00000000000E+00  0.61303554034E+03  0.31883824289E+04  0.31288927657E+04 0.  0.
        4    1    3    3  502    0  0.15302457783E+04 -0.10558016290E+01  0.63803014968E+03  0.16579316456E+04  0.12699999809E+01 0. -1.
       -4    1    3    3    0  502 -0.15302457783E+04  0.10558016290E+01 -0.24994609339E+02  0.15304507833E+04  0.12699999809E+01 0.  1.
</event>
<event>
 5   0  0.9714317E-07  0.3046835E+04  0.7818609E-02  0.8230482E-01
       -1   -1    0    0    0  501  0.00000000000E+00  0.00000000000E+00  0.15607388405E+04  0.15607388405E+04  0.50400001928E-02 0. -1.
        1   -1    0    0  501    0  0.00000000000E+00  0.00000000000E+00 -0.14869888916E+04  0.14869888916E+04  0.50400001928E-02 0.  1.
    10030    2    1    2    0    0  0.00000000000E+00  0.00000000000E+00  0.73749948905E+02  0.30477277320E+04  0.30468352882E+04 0.  0.
        4    1    3    3  502    0  0.11130048018E+04  0.10293226706E+04  0.18696843869E+03  0.15274958785E+04  0.12699999809E+01 0.  1.
       -4    1    3    3    0  502 -0.11130048018E+04 -0.10293226706E+04 -0.11321848979E+03  0.15202318535E+04  0.12699999809E+01 0. -1.
</event>
<event>
 5   0  0.1010551E-06  0.3363745E+04  0.7818609E-02  0.8146862E-01
        1   -1    0    0  501    0  0.00000000000E+00  0.00000000000E+00  0.20102623752E+04  0.20102623752E+04  0.50400001928E-02 0. -1.
       -1   -1    0    0    0  501  0.00000000000E+00  0.00000000000E+00 -0.14071272296E+04  0.14071272296E+04  0.50400001928E-02 0.  1.
    10030    2    1    2    0    0  0.00000000000E+00  0.00000000000E+00  0.60313514562E+03  0.34173896047E+04  0.33637448932E+04 0.  0.
        2    1    3    3  502    0 -0.11117388759E+04 -0.75481492652E+03  0.13291254504E+04  0.18900485085E+04  0.25500000920E-02 0. -1.
       -2    1    3    3    0  502  0.11117388759E+04  0.75481492652E+03 -0.72599030482E+03  0.15273410962E+04  0.25500000920E-02 0.  1.
</event>
<event>
 5   0  0.1003191E-06  0.3522232E+04  0.7818609E-02  0.8108541E-01
        1   -1    0    0  501    0  0.00000000000E+00  0.00000000000E+00  0.15831519949E+04  0.15831519950E+04  0.50400001928E-02 0. -1.
       -1   -1    0    0    0  501  0.00000000000E+00  0.00000000000E+00 -0.19590855971E+04  0.19590855971E+04  0.50400001928E-02 0.  1.
    10030    2    1    2    0    0  0.00000000000E+00  0.00000000000E+00 -0.37593360211E+03  0.35422375920E+04  0.35222324008E+04 0.  0.
        5    1    3    3  502    0 -0.29342323875E+03 -0.94450410028E+03 -0.16534056846E+04  0.19266441395E+04  0.46999998093E+01 0.  1.
       -5    1    3    3    0  502  0.29342323875E+03  0.94450410028E+03  0.12774720824E+04  0.16155934525E+04  0.46999998093E+01 0. -1.
</event>
<event>
 5   0  0.1010551E-06  0.3307617E+04  0.7818609E-02  0.8160960E-01
        1   -1    0    0  501    0  0.00000000000E+00  0.00000000000E+00  0.15803152237E+04  0.15803152237E+04  0.50400001928E-02 0. -1.
       -1   -1    0    0    0  501  0.00000000000E+00  0.00000000000E+00 -0.17307192557E+04  0.17307192557E+04  0.50400001928E-02 0.  1.
    10030    2    1    2    0    0  0.00000000000E+00  0.00000000000E+00 -0.15040403193E+03  0.33110344794E+04  0.33076166572E+04 0.  0.
        2    1    3    3  502    0  0.83716720055E+03  0.11349650465E+04 -0.93985807362E+03  0.16947943170E+04  0.25500000920E-02 0.  1.
       -2    1    3    3    0  502 -0.83716720055E+03 -0.11349650465E+04  0.78945404169E+03  0.16162401624E+04  0.25500000920E-02 0. -1.
</event>
<event>
 5   0  0.9232963E-07  0.3216992E+04  0.7818609E-02  0.8184344E-01
        1   -1    0    0  501    0  0.00000000000E+00  0.00000000000E+00  0.17671207761E+04  0.17671207761E+04  0.50400001928E-02 0.  1.
       -1   -1    0    0    0  501  0.00000000000E+00  0.00000000000E+00 -0.14641101701E+04  0.14641101701E+04  0.50400001928E-02 0. -1.
    10030    2    1    2    0    0  0.00000000000E+00  0.00000000000E+00  0.30301060603E+03  0.32312309462E+04  0.32169920734E+04 0.  0.
        3    1    3    3  502    0  0.43089343495E+03  0.15480233357E+04  0.78977042811E+02  0.16088140923E+04  0.10100000352E+00 0. -1.
       -3    1    3    3    0  502 -0.43089343495E+03 -0.15480233357E+04  0.22403356322E+03  0.16224168539E+04  0.10100000352E+00 0.  1.
</event>
<event>
 5   0  0.1003191E-06  0.3248185E+04  0.7818609E-02  0.8176206E-01
        1   -1    0    0  501    0  0.00000000000E+00  0.00000000000E+00  0.78112331980E+03  0.78112331982E+03  0.50400001928E-02 0. -1.
       -1   -1    0    0    0  501  0.00000000000E+00  0.00000000000E+00 -0.33767738845E+04  0.33767738845E+04  0.50400001928E-02 0.  1.
    10030    2    1    2    0    0  0.00000000000E+00  0.00000000000E+00 -0.25956505647E+04  0.41578972043E+04  0.32481852330E+04 0.  0.
        5    1    3    3  502    0  0.14209909661E+04  0.78581003929E+03 -0.13371130059E+04  0.21034747501E+04  0.46999998093E+01 0. -1.
       -5    1    3    3    0  502 -0.14209909661E+04 -0.78581003929E+03 -0.12585375588E+04  0.20544224543E+04  0.46999998093E+01 0.  1.
</event>
<event>
 5   0  0.1003191E-06  0.3407890E+04  0.7818609E-02  0.8135973E-01
       -1   -1    0    0    0  501  0.00000000000E+00  0.00000000000E+00  0.11655265988E+04  0.11655265988E+04  0.50400001928E-02 0. -1.
        1   -1    0    0  501    0  0.00000000000E+00  0.00000000000E+00 -0.24910872368E+04  0.24910872368E+04  0.50400001928E-02 0.  1.
    10030    2    1    2    0    0  0.00000000000E+00  0.00000000000E+00 -0.13255606380E+04  0.36566138355E+04  0.34078899245E+04 0.  0.
        5    1    3    3  502    0 -0.42479971268E+03  0.53702609378E+03  0.10114040864E+04  0.12213976163E+04  0.46999998093E+01 0. -1.
       -5    1    3    3    0  502  0.42479971268E+03 -0.53702609378E+03 -0.23369647244E+04  0.24352162192E+04  0.46999998093E+01 0.  1.
</event>
<event>
 5   0  0.1003191E-06  0.3397877E+04  0.7818609E-02  0.8138427E-01
       -1   -1    0    0    0  501  0.00000000000E+00  0.00000000000E+00  0.14998334181E+04  0.14998334181E+04  0.50400001928E-02 0. -1.
        1   -1    0    0  501    0  0.00000000000E+00  0.00000000000E+00 -0.19244756141E+04  0.19244756141E+04  0.50400001928E-02 0.  1.
    10030    2    1    2    0    0  0.00000000000E+00  0.00000000000E+00 -0.42464219600E+03  0.34243090323E+04  0.33978774777E+04 0.  0.
        5    1    3    3  502    0  0.11710227891E+04 -0.81894669275E+03 -0.11383830488E+04  0.18269937367E+04  0.46999998093E+01 0.  1.
       -5    1    3    3    0  502 -0.11710227891E+04  0.81894669275E+03  0.71374085283E+03  0.15973152955E+04  0.46999998093E+01 0. -1.
</event>
<event>
 5   0  0.2856440E-06  0.3368569E+04  0.7818609E-02  0.8145664E-01
       -2   -1    0    0    0  501  0.00000000000E+00  0.00000000000E+00  0.20675567214E+04  0.20675567214E+04  0.25500000920E-02 0.  1.
        2   -1    0    0  501    0  0.00000000000E+00  0.00000000000E+00 -0.13720607715E+04  0.13720607715E+04  0.25500000920E-02 0. -1.
    10030    2    1    2    0    0  0.00000000000E+00  0.00000000000E+00  0.69549594986E+03  0.34396174929E+04  0.33685685211E+04 0.  0.
        4    1    3    3  502    0  0.13236107093E+04 -0.97327486488E+03  0.72652014252E+03  0.17963970616E+04  0.12699999809E+01 0.  1.
       -4    1    3    3    0  502 -0.13236107093E+04  0.97327486488E+03 -0.31024192664E+02  0.16432204313E+04  0.12699999809E+01 0. -1.
</event>
<event>
 5   0  0.9714317E-07  0.3351118E+04  0.7818609E-02  0.8150009E-01
       -1   -1    0    0    0  501  0.00000000000E+00  0.00000000000E+00  0.28919339374E+04  0.28919339374E+04  0.50400001928E-02 0. -1.
        1   -1    0    0  501    0  0.00000000000E+00  0.00000000000E+00 -0.97080297090E+03  0.97080297092E+03  0.50400001928E-02 0.  1.
    10030    2    1    2    0    0  0.00000000000E+00  0.00000000000E+00  0.19211309665E+04  0.38627369083E+04  0.33511180571E+04 0.  0.
        4    1    3    3  502    0  0.88306312429E+03  0.71457098890E+03 -0.45917920786E+03  0.12252588859E+04  0.12699999809E+01 0.  1.
       -4    1    3    3    0  502 -0.88306312429E+03 -0.71457098890E+03  0.23803101743E+04  0.26374780224E+04  0.12699999809E+01 0. -1.
</event>
<event>
 5   0  0.2848685E-06  0.3425391E+04  0.7818609E-02  0.8131702E-01
        2   -1    0    0  501    0  0.00000000000E+00  0.00000000000E+00  0.24992440387E+04  0.24992440388E+04  0.25500000920E-02 0.  1.
       -2   -1    0    0    0  501  0.00000000000E+00  0.00000000000E+00 -0.11736854544E+04  0.11736854544E+04  0.25500000920E-02 0. -1.
    10030    2    1    2    0    0  0.00000000000E+00  0.00000000000E+00  0.13255585844E+04  0.36729294931E+04  0.34253912916E+04 0.  0.
        3    1    3    3  502    0  0.10768096301E+04  0.11439485004E+03 -0.76003329768E+03  0.13229723297E+04  0.10100000352E+00 0. -1.
       -3    1    3    3    0  502 -0.10768096301E+04 -0.11439485004E+03  0.20855918821E+04  0.23499571634E+04  0.10100000352E+00 0.  1.
</event>
<event>
 5   0  0.2767014E-06  0.3392099E+04  0.7818609E-02  0.8139848E-01
       -2   -1    0    0    0  501  0.00000000000E+00  0.00000000000E+00  0.15030454354E+04  0.15030454354E+04  0.25500000920E-02 0.  1.
        2   -1    0    0  501    0  0.00000000000E+00  0.00000000000E+00 -0.19138367293E+04  0.19138367293E+04  0.25500000920E-02 0. -1.
    10030    2    1    2    0    0  0.00000000000E+00  0.00000000000E+00 -0.41079129390E+03  0.34168821647E+04  0.33920987958E+04 0.  0.
        1    1    3    3  502    0  0.49208334002E+03 -0.16216446640E+04 -0.13629319049E+03  0.17001333076E+04  0.50400001928E-02 0. -1.
       -1    1    3    3    0  502 -0.49208334002E+03  0.16216446640E+04 -0.27449810341E+03  0.17167488571E+04  0.50400001928E-02 0.  1.
</event>
<event>
 5   0  0.9714317E-07  0.3446609E+04  0.7818609E-02  0.8126561E-01
        1   -1    0    0  501    0  0.00000000000E+00  0.00000000000E+00  0.16554319210E+04  0.16554319211E+04  0.50400001928E-02 0.  1.
       -1   -1    0    0    0  501  0.00000000000E+00  0.00000000000E+00 -0.17939603464E+04  0.17939603464E+04  0.50400001928E-02 0. -1.
    10030    2    1    2    0    0  0.00000000000E+00  0.00000000000E+00 -0.13852842537E+03  0.34493922675E+04  0.34466094775E+04 0.  0.
        4    1    3    3  502    0 -0.14535687761E+04  0.55868506797E+03  0.66942820851E+03  0.16950300679E+04  0.12699999809E+01 0.  1.
       -4    1    3    3    0  502  0.14535687761E+04 -0.55868506797E+03 -0.80795663387E+03  0.17543621995E+04  0.12699999809E+01 0. -1.
</event>
<event>
 5   0  0.2767014E-06  0.3135216E+04  0.7818609E-02  0.8206139E-01
       -2   -1    0    0    0  501  0.00000000000E+00  0.00000000000E+00  0.22114205249E+04  0.22114205250E+04  0.25500000920E-02 0. -1.
        2   -1    0    0  501    0  0.00000000000E+00  0.00000000000E+00 -0.11112292924E+04  0.11112292924E+04  0.25500000920E-02 0.  1.
    10030    2    1    2    0    0  0.00000000000E+00  0.00000000000E+00  0.11001912326E+04  0.33226498173E+04  0.31352162701E+04 0.  0.
        1    1    3    3  502    0 -0.30762348880E+03  0.15326531826E+04  0.42588252247E+03  0.16201956401E+04  0.50400001928E-02 0. -1.
       -1    1    3    3    0  502  0.30762348880E+03 -0.15326531826E+04  0.67430871009E+03  0.17024541773E+04  0.50400001928E-02 0.  1.
</event>
<event>
 5   0  0.2767014E-06  0.3333728E+04  0.7818609E-02  0.8154366E-01
        2   -1    0    0  501    0  0.00000000000E+00  0.00000000000E+00  0.32297078577E+04  0.32297078577E+04  0.25500000920E-02 0.  1.
       -2   -1    0    0    0  501  0.00000000000E+00  0.00000000000E+00 -0.86027467571E+03  0.86027467571E+03  0.25500000920E-02 0. -1.
    10030    2    1    2    0    0  0.00000000000E+00  0.00000000000E+00  0.23694331820E+04  0.40899825334E+04  0.33337281712E+04 0.  0.
        1    1    3    3  502    0 -0.10173310630E+04 -0.12197706149E+04  0.18050136992E+04  0.24043455033E+04  0.50400001928E-02 0. -1.
       -1    1    3    3    0  502  0.10173310630E+04  0.12197706149E+04  0.56441948276E+03  0.16856370301E+04  0.50400001928E-02 0.  1.
</event>
<event>
 5   0  0.1010551E-06  0.3410132E+04  0.7818609E-02  0.8135424E-01
       -1   -1    0    0    0  501  0.00000000000E+00  0.00000000000E+00  0.20174199857E+04  0.20174199857E+04  0.50400001928E-02 0.  1.
        1   -1    0    0  501    0  0.00000000000E+00  0.00000000000E+00 -0.14410731621E+04  0.14410731621E+04  0.50400001928E-02 0. -1.
    10030    2    1    2    0    0  0.00000000000E+00  0.00000000000E+00  0.57634682363E+03  0.34584931478E+04  0.34101318438E+04 0.  0.
        2    1    3    3  502    0  0.16545564407E+04  0.38098421848E+03  0.44705981027E+03  0.17557244841E+04  0.25500000920E-02 0. -1.
       -2    1    3    3    0  502 -0.16545564407E+04 -0.38098421848E+03  0.12928701336E+03  0.17027686637E+04  0.25500000920E-02 0.  1.
</event>
<event>
 5   0  0.2767014E-06  0.3410017E+04  0.7818609E-02  0.8135452E-01
        2   -1    0    0  501    0  0.00000000000E+00  0.00000000000E+00  0.24786626665E+04  0.24786626665E+04  0.25500000920E-02 0.  1.
       -2   -1    0    0    0  501  0.00000000000E+00  0.00000000000E+00 -0.11728316045E+04  0.11728316045E+04  0.25500000920E-02 0. -1.
    10030    2    1    2    0    0  0.00000000000E+00  0.00000000000E+00  0.13058310620E+04  0.36514942710E+04  0.34100169573E+04 0.  0.
        1    1    3    3  502    0 -0.69983493137E+03 -0.13324684999E+04  0.15107791113E+04  0.21325324752E+04  0.50400001928E-02 0.  1.
       -1    1    3    3    0  502  0.69983493137E+03  0.13324684999E+04 -0.20494804935E+03  0.15189617959E+04  0.50400001928E-02 0. -1.
</event>
<event>
 5   0  0.1010855E-06  0.3363241E+04  0.7818609E-02  0.8146988E-01
        1   -1    0    0  501    0  0.00000000000E+00  0.00000000000E+00  0.17573580722E+04  0.17573580722E+04  0.50400001928E-02 0.  1.
       -1   -1    0    0    0  501  0.00000000000E+00  0.00000000000E+00 -0.16091469523E+04  0.16091469524E+04  0.50400001928E-02 0. -1.
    10030    2    1    2    0    0  0.00000000000E+00  0.00000000000E+00  0.14821111981E+03  0.33665050245E+04  0.33632409286E+04 0.  0.
        1    1    3    3  502    0  0.16599039384E+04 -0.72488848896E+02  0.33380227955E+03  0.16946857171E+04  0.50400001928E-02 0.  1.
       -1    1    3    3    0  502 -0.16599039384E+04  0.72488848896E+02 -0.18559115974E+03  0.16718193074E+04  0.50400001928E-02 0. -1.
</event>
<event>
 5   0  0.1010551E-06  0.3537212E+04  0.7818609E-02  0.8105027E-01
        1   -1    0    0  501    0  0.00000000000E+00  0.00000000000E+00  0.21150884073E+04  0.21150884073E+04  0.50400001928E-02 0.  1.
       -1   -1    0    0    0  501  0.00000000000E+00  0.00000000000E+00 -0.14788822753E+04  0.14788822754E+04  0.50400001928E-02 0. -1.
    10030    2    1    2    0    0  0.00000000000E+00  0.00000000000E+00  0.63620613198E+03  0.35939706827E+04  0.35372117587E+04 0.  0.
        2    1    3    3  502    0 -0.17364517110E+04  0.23565669392E+03  0.75167847353E+02  0.17539808515E+04  0.25500000920E-02 0. -1.
       -2    1    3    3    0  502  0.17364517110E+04 -0.23565669392E+03  0.56103828462E+03  0.18399898312E+04  0.25500000920E-02 0.  1.
</event>
<event>
 5   0  0.1010855E-06  0.3390170E+04  0.7818609E-02  0.8140323E-01
        1   -1    0    0  501    0  0.00000000000E+00  0.00000000000E+00  0.18267708759E+04  0.18267708759E+04  0.50400001928E-02 0. -1.
       -1   -1    0    0    0  501  0.00000000000E+00  0.00000000000E+00 -0.15728920630E+04  0.15728920630E+04  0.50400001928E-02 0.  1.
    10030    2    1    2    0    0  0.00000000000E+00  0.00000000000E+00  0.25387881296E+03  0.33996629389E+04  0.33901701501E+04 0.  0.
        1    1    3    3  502    0  0.27271429585E+03 -0.13834666912E+04 -0.81641795833E+03  0.16293837656E+04  0.50400001928E-02 0.  1.
       -1    1    3    3    0  502 -0.27271429585E+03  0.13834666912E+04  0.10702967713E+04  0.17702791733E+04  0.50400001928E-02 0. -1.
</event>
<event>
 5   0  0.2767014E-06  0.3401011E+04  0.7818609E-02  0.8137658E-01
        2   -1    0    0  501    0  0.00000000000E+00  0.00000000000E+00  0.17597469785E+04  0.17597469785E+04  0.25500000920E-02 0.  1.
       -2   -1    0    0    0  501  0.00000000000E+00  0.00000000000E+00 -0.16432583188E+04  0.16432583188E+04  0.25500000920E-02 0. -1.
    10030    2    1    2    0    0  0.00000000000E+00  0.00000000000E+00  0.11648865977E+03  0.34030052973E+04  0.34010109446E+04 0.  0.
        1    1    3    3  502    0  0.16113860696E+04 -0.28012705783E+03 -0.40752044719E+03  0.16855590018E+04  0.50400001928E-02 0. -1.
       -1    1    3    3    0  502 -0.16113860696E+04  0.28012705783E+03  0.52400910696E+03  0.17174462955E+04  0.50400001928E-02 0.  1.
</event>
<event>
 5   0  0.1010855E-06  0.3406833E+04  0.7818609E-02  0.8136231E-01
        1   -1    0    0  501    0  0.00000000000E+00  0.00000000000E+00  0.19671404588E+04  0.19671404588E+04  0.50400001928E-02 0.  1.
       -1   -1    0    0    0  501  0.00000000000E+00  0.00000000000E+00 -0.14750483493E+04  0.14750483493E+04  0.50400001928E-02 0. -1.
    10030    2    1    2    0    0  0.00000000000E+00  0.00000000000E+00  0.49209210953E+03  0.34421888081E+04  0.34068327147E+04 0.  0.
        1    1    3    3  502    0 -0.14562027157E+04 -0.25790585587E+03 -0.60805838810E+03  0.15989924275E+04  0.50400001928E-02 0.  1.
       -1    1    3    3    0  502  0.14562027157E+04  0.25790585587E+03  0.11001504976E+04  0.18431963806E+04  0.50400001928E-02 0. -1.
</event>
<event>
 5   0  0.9714317E-07  0.3387670E+04  0.7818609E-02  0.8140939E-01
       -1   -1    0    0    0  501  0.00000000000E+00  0.00000000000E+00  0.19762468713E+04  0.19762468713E+04  0.50400001928E-02 0.  1.
        1   -1    0    0  501    0  0.00000000000E+00  0.00000000000E+00 -0.14517806335E+04  0.14517806335E+04  0.50400001928E-02 0. -1.
    10030    2    1    2    0    0  0.00000000000E+00  0.00000000000E+00  0.52446623778E+03  0.34280275048E+04  0.33876699573E+04 0.  0.
        4    1    3    3  502    0 -0.74126819305E+03  0.94401412251E+03 -0.94717620780E+03  0.15289818766E+04  0.12699999809E+01 0. -1.
       -4    1    3    3    0  502  0.74126819305E+03 -0.94401412251E+03  0.14716424456E+04  0.18990456282E+04  0.12699999809E+01 0.  1.
</event>
<event>
 5   0  0.2664083E-06  0.3391320E+04  0.7818609E-02  0.8140040E-01
        2   -1    0    0  501    0  0.00000000000E+00  0.00000000000E+00  0.11836552751E+04  0.11836552751E+04  0.25500000920E-02 0. -1.
       -2   -1    0    0    0  501  0.00000000000E+00  0.00000000000E+00 -0.24291391825E+04  0.24291391825E+04  0.25500000920E-02 0.  1.
    10030    2    1    2    0    0  0.00000000000E+00  0.00000000000E+00 -0.12454839074E+04  0.36127944576E+04  0.33913203371E+04 0.  0.
        2    1    3    3  502    0 -0.10374315453E+04  0.10058232339E+04  0.32251472745E+03  0.14805270475E+04  0.25500000920E-02 0. -1.
       -2    1    3    3    0  502  0.10374315453E+04 -0.10058232339E+04 -0.15679986348E+04  0.21322674100E+04  0.25500000920E-02 0.  1.
</event>
<event>
 5   0  0.2664083E-06  0.3276071E+04  0.7818609E-02  0.8169011E-01
        2   -1    0    0  501    0  0.00000000000E+00  0.00000000000E+00  0.17753173977E+04  0.17753173977E+04  0.25500000920E-02 0. -1.
       -2   -1    0    0    0  501  0.00000000000E+00  0.00000000000E+00 -0.15113689736E+04  0.15113689736E+04  0.25500000920E-02 0.  1.
    10030    2    1    2    0    0  0.00000000000E+00  0.00000000000E+00  0.26394842406E+03  0.32866863713E+04  0.32760705933E+04 0.  0.
        2    1    3    3  502    0 -0.50232428392E+03 -0.11001022047E+04  0.12403642152E+04  0.17323561797E+04  0.25500000920E-02 0. -1.
       -2    1    3    3    0  502  0.50232428392E+03  0.11001022047E+04 -0.97641579116E+03  0.15543301915E+04  0.25500000920E-02 0.  1.
</event>
<event>
 5   0  0.9070500E-07  0.2167729E+04  0.7818609E-02  0.8531981E-01
        4   -1    0    0  501    0  0.00000000000E+00  0.00000000000E+00  0.16056202391E+04  0.16056207414E+04  0.12699999809E+01 0.  1.
       -4   -1    0    0    0  501  0.00000000000E+00  0.00000000000E+00 -0.73165528883E+03  0.73165639106E+03  0.12699999809E+01 0. -1.
    10030    2    1    2    0    0  0.00000000000E+00  0.00000000000E+00  0.87396495032E+03  0.23372771325E+04  0.21677291481E+04 0.  0.
        2    1    3    3  502    0  0.15484666689E+03 -0.32633414587E+02 -0.71913304919E+03  0.73633876201E+03  0.25500000920E-02 0. -1.
       -2    1    3    3    0  502 -0.15484666689E+03  0.32633414587E+02  0.15930979995E+04  0.16009383705E+04  0.25500000920E-02 0.  1.
</event>
<event>
 5   0  0.2767014E-06  0.3546859E+04  0.7818609E-02  0.8102774E-01
       -2   -1    0    0    0  501  0.00000000000E+00  0.00000000000E+00  0.12707422272E+04  0.12707422272E+04  0.25500000920E-02 0. -1.
        2   -1    0    0  501    0  0.00000000000E+00  0.00000000000E+00 -0.24749732082E+04  0.24749732082E+04  0.25500000920E-02 0.  1.
    10030    2    1    2    0    0  0.00000000000E+00  0.00000000000E+00 -0.12042309811E+04  0.37457154354E+04  0.35468594372E+04 0.  0.
        1    1    3    3  502    0  0.60742086757E+03 -0.35187332930E+03  0.11177731411E+04  0.13199211132E+04  0.50400001928E-02 0. -1.
       -1    1    3    3    0  502 -0.60742086757E+03  0.35187332930E+03 -0.23220041221E+04  0.24257943222E+04  0.50400001928E-02 0.  1.
</event>
<event>
 5   0  0.9232963E-07  0.2956523E+04  0.7818609E-02  0.8256256E-01
       -1   -1    0    0    0  501  0.00000000000E+00  0.00000000000E+00  0.11312282512E+04  0.11312282512E+04  0.50400001928E-02 0.  1.
        1   -1    0    0  501    0  0.00000000000E+00  0.00000000000E+00 -0.19317555626E+04  0.19317555626E+04  0.50400001928E-02 0. -1.
    10030    2    1    2    0    0  0.00000000000E+00  0.00000000000E+00 -0.80052731141E+03  0.30629838137E+04  0.29565225970E+04 0.  0.
        3    1    3    3  502    0  0.13079271507E+04 -0.72001864056E+02  0.30953384608E+03  0.13459825081E+04  0.10100000352E+00 0.  1.
       -3    1    3    3    0  502 -0.13079271507E+04  0.72001864056E+02 -0.11100611575E+04  0.17170013056E+04  0.10100000352E+00 0. -1.
</event>
<event>
 5   0  0.2856440E-06  0.2928813E+04  0.7818609E-02  0.8264356E-01
       -2   -1    0    0    0  501  0.00000000000E+00  0.00000000000E+00  0.97433539949E+03  0.97433539949E+03  0.25500000920E-02 0. -1.
        2   -1    0    0  501    0  0.00000000000E+00  0.00000000000E+00 -0.22009736882E+04  0.22009736882E+04  0.25500000920E-02 0.  1.
    10030    2    1    2    0    0  0.00000000000E+00  0.00000000000E+00 -0.12266382888E+04  0.31753090877E+04  0.29288131233E+04 0.  0.
        4    1    3    3  502    0  0.74790393563E+03  0.87086514979E+03 -0.15990836763E+04  0.19684604702E+04  0.12699999809E+01 0.  1.
       -4    1    3    3    0  502 -0.74790393563E+03 -0.87086514979E+03  0.37244538754E+03  0.12068486175E+04  0.12699999809E+01 0. -1.
</event>
<event>
 5   0  0.2906701E-06  0.3452551E+04  0.7818609E-02  0.8125128E-01
        2   -1    0    0  501    0  0.00000000000E+00  0.00000000000E+00  0.21354688765E+04  0.21354688765E+04  0.25500000920E-02 0. -1.
       -2   -1    0    0    0  501  0.00000000000E+00  0.00000000000E+00 -0.13954909949E+04  0.13954909949E+04  0.25500000920E-02 0.  1.
    10030    2    1    2    0    0  0.00000000000E+00  0.00000000000E+00  0.73997788160E+03  0.35309598715E+04  0.34525512811E+04 0.  0.
        5    1    3    3  502    0 -0.10894761373E+04 -0.12854983775E+04  0.75339097999E+03  0.18458289171E+04  0.46999998093E+01 0. -1.
       -5    1    3    3    0  502  0.10894761373E+04  0.12854983775E+04 -0.13413098388E+02  0.16851309544E+04  0.46999998093E+01 0.  1.
</event>
<event>
 5   0  0.2767014E-06  0.3235569E+04  0.7818609E-02  0.8179486E-01
        2   -1    0    0  501    0  0.00000000000E+00  0.00000000000E+00  0.16554264795E+04  0.16554264795E+04  0.25500000920E-02 0. -1.
       -2   -1    0    0    0  501  0.00000000000E+00  0.00000000000E+00 -0.15809985330E+04  0.15809985330E+04  0.25500000920E-02 0.  1.
    10030    2    1    2    0    0  0.00000000000E+00  0.00000000000E+00  0.74427946498E+02  0.32364250124E+04  0.32355690909E+04 0.  0.
        1    1    3    3  502    0  0.78428124459E+03  0.13985134116E+04 -0.17799405721E+03  0.16132633751E+04  0.50400001928E-02 0. -1.
       -1    1    3    3    0  502 -0.78428124459E+03 -0.13985134116E+04  0.25242200371E+03  0.16231616373E+04  0.50400001928E-02 0.  1.
</event>
<event>
 5   0  0.1010855E-06  0.3393205E+04  0.7818609E-02  0.8139576E-01
        1   -1    0    0  501    0  0.00000000000E+00  0.00000000000E+00  0.13142768935E+04  0.13142768935E+04  0.50400001928E-02 0. -1.
       -1   -1    0    0    0  501  0.00000000000E+00  0.00000000000E+00 -0.21901474239E+04  0.21901474239E+04  0.50400001928E-02 0.  1.
    10030    2    1    2    0    0  0.00000000000E+00  0.00000000000E+00 -0.87587053038E+03  0.35044243175E+04  0.33932050647E+04 0.  0.
        1    1    3    3  502    0  0.10414138563E+04  0.90884822619E+03  0.57813693308E+03  0.14982624042E+04  0.50400001928E-02 0. -1.
       -1    1    3    3    0  502 -0.10414138563E+04 -0.90884822619E+03 -0.14540074635E+04  0.20061619133E+04  0.50400001928E-02 0.  1.
</event>
<event>
 5   0  0.1010551E-06  0.3403736E+04  0.7818609E-02  0.8136990E-01
       -1   -1    0    0    0  501  0.00000000000E+00  0.00000000000E+00  0.13798460393E+04  0.13798460393E+04  0.50400001928E-02 0. -1.
        1   -1    0    0  501    0  0.00000000000E+00  0.00000000000E+00 -0.20990421102E+04  0.20990421103E+04  0.50400001928E-02 0.  1.
    10030    2    1    2    0    0  0.00000000000E+00  0.00000000000E+00 -0.71919607091E+03  0.34788881496E+04  0.34037361486E+04 0.  0.
        2    1    3    3  502    0  0.72316688979E+03 -0.13124138980E+04 -0.11842293949E+04  0.19099214251E+04  0.25500000920E-02 0.  1.
       -2    1    3    3    0  502 -0.72316688979E+03  0.13124138980E+04  0.46503332401E+03  0.15689667245E+04  0.25500000920E-02 0. -1.
</event>
<event>
 5   0  0.1010551E-06  0.2468558E+04  0.7818609E-02  0.8414273E-01
       -1   -1    0    0    0  501  0.00000000000E+00  0.00000000000E+00  0.12731075054E+04  0.12731075054E+04  0.50400001928E-02 0.  1.
        1   -1    0    0  501    0  0.00000000000E+00  0.00000000000E+00 -0.11966346949E+04  0.11966346949E+04  0.50400001928E-02 0. -1.
    10030    2    1    2    0    0  0.00000000000E+00  0.00000000000E+00  0.76472810477E+02  0.24697422003E+04  0.24685579687E+04 0.  0.
        2    1    3    3  502    0  0.26090929743E+02  0.11153916139E+04  0.56637734527E+03  0.12512243948E+04  0.25500000920E-02 0.  1.
       -2    1    3    3    0  502 -0.26090929743E+02 -0.11153916139E+04 -0.48990453479E+03  0.12185178054E+04  0.25500000920E-02 0. -1.
</event>
<event>
 5   0  0.2664083E-06  0.3414151E+04  0.7818609E-02  0.8134442E-01
        2   -1    0    0  501    0  0.00000000000E+00  0.00000000000E+00  0.25783670249E+04  0.25783670249E+04  0.25500000920E-02 0. -1.
       -2   -1    0    0    0  501  0.00000000000E+00  0.00000000000E+00 -0.11302142156E+04  0.11302142156E+04  0.25500000920E-02 0.  1.
    10030    2    1    2    0    0  0.00000000000E+00  0.00000000000E+00  0.14481528093E+04  0.37085812404E+04  0.34141511768E+04 0.  0.
        2    1    3    3  502    0  0.91960097448E+03 -0.35828855140E+03  0.22370585304E+04  0.24450904905E+04  0.25500000920E-02 0. -1.
       -2    1    3    3    0  502 -0.91960097448E+03  0.35828855140E+03 -0.78890572112E+03  0.12634907499E+04  0.25500000920E-02 0.  1.
</event>
<event>
 5   0  0.2856440E-06  0.3063725E+04  0.7818609E-02  0.8225764E-01
        2   -1    0    0  501    0  0.00000000000E+00  0.00000000000E+00  0.21071891880E+04  0.21071891880E+04  0.25500000920E-02 0.  1.
       -2   -1    0    0    0  501  0.00000000000E+00  0.00000000000E+00 -0.11136171389E+04  0.11136171389E+04  0.25500000920E-02 0. -1.
    10030    2    1    2    0    0  0.00000000000E+00  0.00000000000E+00  0.99357204911E+03  0.32208063269E+04  0.30637245272E+04 0.  0.
        4    1    3    3  502    0  0.11202829364E+04 -0.10255178992E+04  0.28684849096E+03  0.15456404785E+04  0.12699999809E+01 0. -1.
       -4    1    3    3    0  502 -0.11202829364E+04  0.10255178992E+04  0.70672355815E+03  0.16751658484E+04  0.12699999809E+01 0.  1.
</event>
<event>
 5   0  0.2906701E-06  0.3381433E+04  0.7818609E-02  0.8142478E-01
        2   -1    0    0  501    0  0.00000000000E+00  0.00000000000E+00  0.26739647288E+04  0.26739647288E+04  0.25500000920E-02 0.  1.
       -2   -1    0    0    0  501  0.00000000000E+00  0.00000000000E+00 -0.10690202790E+04  0.10690202790E+04  0.25500000920E-02 0. -1.
    10030    2    1    2    0    0  0.00000000000E+00  0.00000000000E+00  0.16049444498E+04  0.37429850078E+04  0.33814331402E+04 0.  0.
        5    1    3    3  502    0 -0.53730308311E+02 -0.48501062406E+03  0.25943124010E+04  0.26398108219E+04  0.46999998093E+01 0.  1.
       -5    1    3    3    0  502  0.53730308311E+02  0.48501062406E+03 -0.98936795121E+03  0.11031741859E+04  0.46999998093E+01 0. -1.
</event>
<event>
 5   0  0.1010855E-06  0.3114826E+04  0.7818609E-02  0.8211681E-01
        1   -1    0    0  501    0  0.00000000000E+00  0.00000000000E+00  0.16753011445E+04  0.16753011445E+04  0.50400001928E-02 0. -1.
       -1   -1    0    0    0  501  0.00000000000E+00  0.00000000000E+00 -0.14478201513E+04  0.14478201513E+04  0.50400001928E-02 0.  1.
    10030    2    1    2    0    0  0.00000000000E+00  0.00000000000E+00  0.22748099318E+03  0.31231212958E+04  0.31148256815E+04 0.  0.
        1    1    3    3  502    0 -0.52631070843E+03 -0.42249369687E+03 -0.12935754889E+04  0.14590549788E+04  0.50400001928E-02 0.  1.
       -1    1    3    3    0  502  0.52631070843E+03  0.42249369687E+03  0.15210564821E+04  0.16640663170E+04  0.50400001928E-02 0. -1.
</event>
<event>
 5   0  0.9714317E-07  0.3410691E+04  0.7818609E-02  0.8135287E-01
        1   -1    0    0  501    0  0.00000000000E+00  0.00000000000E+00  0.25217808062E+04  0.25217808062E+04  0.50400001928E-02 0.  1.
       -1   -1    0    0    0  501  0.00000000000E+00  0.00000000000E+00 -0.11532336527E+04  0.11532336528E+04  0.50400001928E-02 0. -1.
    10030    2    1    2    0    0  0.00000000000E+00  0.00000000000E+00  0.13685471535E+04  0.36750144590E+04  0.34106905404E+04 0.  0.
        4    1    3    3  502    0  0.91909187423E+02  0.12537678868E+04 -0.55733951606E+03  0.13751400517E+04  0.12699999809E+01 0. -1.
       -4    1    3    3    0  502 -0.91909187423E+02 -0.12537678868E+04  0.19258866695E+04  0.22998744073E+04  0.12699999809E+01 0.  1.
</event>
<event>
 5   0  0.2664083E-06  0.3417796E+04  0.7818609E-02  0.8133552E-01
        2   -1    0    0  501    0  0.00000000000E+00  0.00000000000E+00  0.22723688102E+04  0.22723688102E+04  0.25500000920E-02 0.  1.
       -2   -1    0    0    0  501  0.00000000000E+00  0.00000000000E+00 -0.12851491223E+04  0.12851491223E+04  0.25500000920E-02 0. -1.
    10030    2    1    2    0    0  0.00000000000E+00  0.00000000000E+00  0.98721968784E+03  0.35575179325E+04  0.34177962385E+04 0.  0.
        2    1    3    3  502    0  0.11749374343E+04 -0.10656530610E+04  0.11553990701E+04  0.19624070506E+04  0.25500000920E-02 0.  1.
       -2    1    3    3    0  502 -0.11749374343E+04  0.10656530610E+04 -0.16817938231E+03  0.15951108819E+04  0.25500000920E-02 0. -1.
</event>
<event>
 5   0  0.2767014E-06  0.3504937E+04  0.7818609E-02  0.8112621E-01
       -2   -1    0    0    0  501  0.00000000000E+00  0.00000000000E+00  0.17806440371E+04  0.17806440371E+04  0.25500000920E-02 0.  1.
        2   -1    0    0  501    0  0.00000000000E+00  0.00000000000E+00 -0.17247383505E+04  0.17247383505E+04  0.25500000920E-02 0. -1.
    10030    2    1    2    0    0  0.00000000000E+00  0.00000000000E+00  0.55905686612E+02  0.35053823877E+04  0.35049365526E+04 0.  0.
        1    1    3    3  502    0 -0.37747768724E+03 -0.54320406446E+03  0.16509916712E+04  0.17785762728E+04  0.50400001928E-02 0.  1.
       -1    1    3    3    0  502  0.37747768724E+03  0.54320406446E+03 -0.15950859846E+04  0.17268061148E+04  0.50400001928E-02 0. -1.
</event>
<event>
 5   0  0.2767014E-06  0.3424142E+04  0.7818609E-02  0.8132006E-01
        2   -1    0    0  501    0  0.00000000000E+00  0.00000000000E+00  0.19760723239E+04  0.19760723239E+04  0.25500000920E-02 0. -1.
       -2   -1    0    0    0  501  0.00000000000E+00  0.00000000000E+00 -0.14833401438E+04  0.14833401438E+04  0.25500000920E-02 0.  1.
    10030    2    1    2    0    0  0.00000000000E+00  0.00000000000E+00  0.49273218008E+03  0.34594124677E+04  0.34241421729E+04 0.  0.
        1    1    3    3  502    0  0.13831507016E+04  0.88231183939E+03 -0.24817301051E+03  0.16592678772E+04  0.50400001928E-02 0.  1.
       -1    1    3    3    0  502 -0.13831507016E+04 -0.88231183939E+03  0.74090519059E+03  0.18001445905E+04  0.50400001928E-02 0. -1.
</event>
<event>
 5   0  0.1010551E-06  0.2736211E+04  0.7818609E-02  0.8323350E-01
       -1   -1    0    0    0  501  0.00000000000E+00  0.00000000000E+00  0.22173079724E+04  0.22173079724E+04  0.50400001928E-02 0. -1.
        1   -1    0    0  501    0  0.00000000000E+00  0.00000000000E+00 -0.84413755789E+03  0.84413755791E+03  0.50400001928E-02 0.  1.
    10030    2    1    2    0    0  0.00000000000E+00  0.00000000000E+00  0.13731704145E+04  0.30614455303E+04  0.27362112030E+04 0.  0.
        2    1    3    3  502    0 -0.12835659821E+04  0.46657541054E+03  0.59652755737E+03  0.14903286117E+04  0.25500000920E-02 0.  1.
       -2    1    3    3    0  502  0.12835659821E+04 -0.46657541054E+03  0.77664285712E+03  0.15711169186E+04  0.25500000920E-02 0. -1.
</event>
<event>
 5   0  0.2906701E-06  0.3252341E+04  0.7818609E-02  0.8175129E-01
       -2   -1    0    0    0  501  0.00000000000E+00  0.00000000000E+00  0.16817766097E+04  0.16817766097E+04  0.25500000920E-02 0. -1.
        2   -1    0    0  501    0  0.00000000000E+00  0.00000000000E+00 -0.15724026057E+04  0.15724026057E+04  0.25500000920E-02 0.  1.
    10030    2    1    2    0    0  0.00000000000E+00  0.00000000000E+00  0.10937400406E+03  0.32541792154E+04  0.32523406484E+04 0.  0.
        5    1    3    3  502    0  0.40214194494E+03  0.78347542465E+02 -0.15199088703E+04  0.15741669369E+04  0.46999998093E+01 0.  1.
       -5    1    3    3    0  502 -0.40214194494E+03 -0.78347542465E+02  0.16292828743E+04  0.16800122785E+04  0.46999998093E+01 0. -1.
</event>
<event>
 5   0  0.9714317E-07  0.3625569E+04  0.7818609E-02  0.8084660E-01
       -1   -1    0    0    0  501  0.00000000000E+00  0.00000000000E+00  0.14621125185E+04  0.14621125185E+04  0.50400001928E-02 0.  1.
        1   -1    0    0  501    0  0.00000000000E+00  0.00000000000E+00 -0.22475612211E+04  0.22475612211E+04  0.50400001928E-02 0. -1.
    10030    2    1    2    0    0  0.00000000000E+00  0.00000000000E+00 -0.78544870260E+03  0.37096737395E+04  0.36255688643E+04 0.  0.
        4    1    3    3  502    0 -0.94031461809E+03  0.86759919717E+03 -0.17067531656E+04  0.21330560070E+04  0.12699999809E+01 0. -1.
       -4    1    3    3    0  502  0.94031461809E+03 -0.86759919717E+03  0.92130446304E+03  0.15766177325E+04  0.12699999809E+01 0.  1.
</event>
<event>
 5   0  0.1010855E-06  0.3448102E+04  0.7818609E-02  0.8126200E-01
        1   -1    0    0  501    0  0.00000000000E+00  0.00000000000E+00  0.23794839119E+04  0.23794839119E+04  0.50400001928E-02 0. -1.
       -1   -1    0    0    0  501  0.00000000000E+00  0.00000000000E+00 -0.12491582904E+04  0.12491582904E+04  0.50400001928E-02 0.  1.
    10030    2    1    2    0    0  0.00000000000E+00  0.00000000000E+00  0.11303256215E+04  0.36286422023E+04  0.34481021188E+04 0.  0.
        1    1    3    3  502    0  0.60187097525E+03 -0.12571583080E+04  0.16330126432E+04  0.21469573762E+04  0.50400001928E-02 0. -1.
       -1    1    3    3    0  502 -0.60187097525E+03  0.12571583080E+04 -0.50268702165E+03  0.14816848261E+04  0.50400001928E-02 0.  1.
</event>
<event>
 5   0  0.1010855E-06  0.3383874E+04  0.7818609E-02  0.8141876E-01
       -1   -1    0    0    0  501  0.00000000000E+00  0.00000000000E+00  0.21444071069E+04  0.21444071069E+04  0.50400001928E-02 0. -1.
        1   -1    0    0  501    0  0.00000000000E+00  0.00000000000E+00 -0.13349377951E+04  0.13349377951E+04  0.50400001928E-02 0.  1.
    10030    2    1    2    0    0  0.00000000000E+00  0.00000000000E+00  0.80946931172E+03  0.34793449020E+04  0.33838735763E+04 0.  0.
        1    1    3    3  502    0  0.49782034693E+03  0.17350964205E+02  0.20673036012E+04  0.21264689825E+04  0.50400001928E-02 0. -1.
       -1    1    3    3    0  502 -0.49782034693E+03 -0.17350964205E+02 -0.12578342895E+04  0.13528759195E+04  0.50400001928E-02 0.  1.
</event>
<event>
 5   0  0.1010551E-06  0.3218720E+04  0.7818609E-02  0.8183891E-01
        1   -1    0    0  501    0  0.00000000000E+00  0.00000000000E+00  0.15259159725E+04  0.15259159725E+04  0.50400001928E-02 0.  1.
       -1   -1    0    0    0  501  0.00000000000E+00  0.00000000000E+00 -0.16973666180E+04  0.16973666180E+04  0.50400001928E-02 0. -1.
    10030    2    1    2    0    0  0.00000000000E+00  0.00000000000E+00 -0.17145064550E+03  0.32232825905E+04  0.32187195178E+04 0.  0.
        2    1    3    3  502    0  0.12744747438E+04 -0.65563056664E+03 -0.81881607977E+03  0.16506353580E+04  0.25500000920E-02 0. -1.
       -2    1    3    3    0  502 -0.12744747438E+04  0.65563056664E+03  0.64736543427E+03  0.15726472325E+04  0.25500000920E-02 0.  1.
</event>
<event>
 5   0  0.9232963E-07  0.3380297E+04  0.7818609E-02  0.8142759E-01
        1   -1    0    0  501    0  0.00000000000E+00  0.00000000000E+00  0.18051175078E+04  0.18051175078E+04  0.50400001928E-02 0.  1.
       -1   -1    0    0    0  501  0.00000000000E+00  0.00000000000E+00 -0.15825017157E+04  0.15825017158E+04  0.50400001928E-02 0. -1.
    10030    2    1    2    0    0  0.00000000000E+00  0.00000000000E+00  0.22261579203E+03  0.33876192235E+04  0.33802967640E+04 0.  0.
        3    1    3    3  502    0  0.54423721701E+03  0.62674420986E+02 -0.14910550749E+04  0.15885110884E+04  0.10100000352E+00 0. -1.
       -3    1    3    3    0  502 -0.54423721701E+03 -0.62674420986E+02  0.17136708669E+04  0.17991081351E+04  0.10100000352E+00 0.  1.
</event>
<event>
 5   0  0.2848685E-06  0.3444156E+04  0.7818609E-02  0.8127153E-01
       -2   -1    0    0    0  501  0.00000000000E+00  0.00000000000E+00  0.10827581641E+04  0.10827581641E+04  0.25500000920E-02 0. -1.
        2   -1    0    0  501    0  0.00000000000E+00  0.00000000000E+00 -0.27388870730E+04  0.27388870730E+04  0.25500000920E-02 0.  1.
    10030    2    1    2    0    0  0.00000000000E+00  0.00000000000E+00 -0.16561289089E+04  0.38216452371E+04  0.34441558262E+04 0.  0.
        3    1    3    3  502    0  0.53326020138E+03 -0.16313829636E+04 -0.67202606917E+03  0.18432026107E+04  0.10100000352E+00 0.  1.
       -3    1    3    3    0  502 -0.53326020138E+03  0.16313829636E+04 -0.98410283978E+03  0.19784426264E+04  0.10100000352E+00 0. -1.
</event>
<event>
 5   0  0.9232963E-07  0.3442846E+04  0.7818609E-02  0.8127470E-01
        1   -1    0    0  501    0  0.00000000000E+00  0.00000000000E+00  0.23969844253E+04  0.23969844253E+04  0.50400001928E-02 0.  1.
       -1   -1    0    0    0  501  0.00000000000E+00  0.00000000000E+00 -0.12362608305E+04  0.12362608305E+04  0.50400001928E-02 0. -1.
    10030    2    1    2    0    0  0.00000000000E+00  0.00000000000E+00  0.11607235948E+04  0.36332452558E+04  0.34428464713E+04 0.  0.
        3    1    3    3  502    0  0.11847379124E+03 -0.32154704226E+02  0.23923592827E+04  0.23955068173E+04  0.10100000352E+00 0.  1.
       -3    1    3    3    0  502 -0.11847379124E+03  0.32154704226E+02 -0.12316356878E+04  0.12377384384E+04  0.10100000352E+00 0. -1.
</event>
<event>
 5   0  0.2856440E-06  0.3335696E+04  0.7818609E-02  0.8153871E-01
        2   -1    0    0  501    0  0.00000000000E+00  0.00000000000E+00  0.16202794787E+04  0.16202794787E+04  0.25500000920E-02 0.  1.
       -2   -1    0    0    0  501  0.00000000000E+00  0.00000000000E+00 -0.17168135094E+04  0.17168135094E+04  0.25500000920E-02 0. -1.
    10030    2    1    2    0    0  0.00000000000E+00  0.00000000000E+00 -0.96534030683E+02  0.33370929882E+04  0.33356964479E+04 0.  0.
        4    1    3    3  502    0  0.13920647839E+04  0.78980144526E+03 -0.51759602835E+03  0.16821230475E+04  0.12699999809E+01 0.  1.
       -4    1    3    3    0  502 -0.13920647839E+04 -0.78980144526E+03  0.42106199767E+03  0.16549699406E+04  0.12699999809E+01 0. -1.
</event>
<event>
 5   0  0.2848685E-06  0.3468878E+04  0.7818609E-02  0.8121205E-01
       -2   -1    0    0    0  501  0.00000000000E+00  0.00000000000E+00  0.17222521353E+04  0.17222521353E+04  0.25500000920E-02 0.  1.
        2   -1    0    0  501    0  0.00000000000E+00  0.00000000000E+00 -0.17467121110E+04  0.17467121110E+04  0.25500000920E-02 0. -1.
    10030    2    1    2    0    0  0.00000000000E+00  0.00000000000E+00 -0.24459975669E+02  0.34689642463E+04  0.34688780105E+04 0.  0.
        3    1    3    3  502    0 -0.92909948756E+03 -0.92018942183E+03 -0.11516898489E+04  0.17425165561E+04  0.10100000352E+00 0. -1.
       -3    1    3    3    0  502  0.92909948756E+03  0.92018942183E+03  0.11272298733E+04  0.17264476903E+04  0.10100000352E+00 0.  1.
</event>
<event>
 5   0  0.2664083E-06  0.3441329E+04  0.7818609E-02  0.8127837E-01
       -2   -1    0    0    0  501  0.00000000000E+00  0.00000000000E+00  0.11757912387E+04  0.11757912387E+04  0.25500000920E-02 0.  1.
        2   -1    0    0  501    0  0.00000000000E+00  0.00000000000E+00 -0.25180370618E+04  0.25180370618E+04  0.25500000920E-02 0. -1.
    10030    2    1    2    0    0  0.00000000000E+00  0.00000000000E+00 -0.13422458231E+04  0.36938283006E+04  0.34413287643E+04 0.  0.
        2    1    3    3  502    0  0.12852261158E+04  0.11202358620E+04 -0.42180599836E+03  0.17563185518E+04  0.25500000920E-02 0.  1.
       -2    1    3    3    0  502 -0.12852261158E+04 -0.11202358620E+04 -0.92043982477E+03  0.19375097487E+04  0.25500000920E-02 0. -1.
</event>
<event>
 5   0  0.1003191E-06  0.3402664E+04  0.7818609E-02  0.8137253E-01
       -1   -1    0    0    0  501  0.00000000000E+00  0.00000000000E+00  0.18038799224E+04  0.18038799224E+04  0.50400001928E-02 0. -1.
        1   -1    0    0  501    0  0.00000000000E+00  0.00000000000E+00 -0.16046141966E+04  0.16046141966E+04  0.50400001928E-02 0.  1.
    10030    2    1    2    0    0  0.00000000000E+00  0.00000000000E+00  0.19926572587E+03  0.34084941190E+04  0.34026644457E+04 0.  0.
        5    1    3    3  502    0  0.13468589063E+04  0.64902260463E+03  0.91296604528E+03  0.17517957485E+04  0.46999998093E+01 0. -1.
       -5    1    3    3    0  502 -0.13468589063E+04 -0.64902260463E+03 -0.71370031941E+03  0.16566983705E+04  0.46999998093E+01 0.  1.
</event>
<event>
 5   0  0.1010855E-06  0.3462229E+04  0.7818609E-02  0.8122800E-01
       -1   -1    0    0    0  501  0.00000000000E+00  0.00000000000E+00  0.16092224244E+04  0.16092224245E+04  0.50400001928E-02 0.  1.
        1   -1    0    0  501    0  0.00000000000E+00  0.00000000000E+00 -0.18622398955E+04  0.18622398955E+04  0.50400001928E-02 0. -1.
    10030    2    1    2    0    0  0.00000000000E+00  0.00000000000E+00 -0.25301747109E+03  0.34714623200E+04  0.34622294549E+04 0.  0.
        1    1    3    3  502    0  0.52002106213E+03  0.63727925164E+03 -0.16537948091E+04  0.18470473790E+04  0.50400001928E-02 0. -1.
       -1    1    3    3    0  502 -0.52002106213E+03 -0.63727925164E+03  0.14007773380E+04  0.16244149410E+04  0.50400001928E-02 0.  1.
</event>
<event>
 5   0  0.2856440E-06  0.3434179E+04  0.7818609E-02  0.8129568E-01
       -2   -1    0    0    0  501  0.00000000000E+00  0.00000000000E+00  0.12362086460E+04  0.12362086460E+04  0.25500000920E-02 0.  1.
        2   -1    0    0  501    0  0.00000000000E+00  0.00000000000E+00 -0.23850316787E+04  0.23850316787E+04  0.25500000920E-02 0. -1.
    10030    2    1    2    0    0  0.00000000000E+00  0.00000000000E+00 -0.11488230327E+04  0.36212403247E+04  0.34341792511E+04 0.  0.
        4    1    3    3  502    0 -0.12699262523E+03  0.58251491127E+03  0.11235623114E+04  0.12719452147E+04  0.12699999809E+01 0.  1.
       -4    1    3    3    0  502  0.12699262523E+03 -0.58251491127E+03 -0.22723853441E+04  0.23492951100E+04  0.12699999809E+01 0. -1.
</event>
<event>
 5   0  0.2856440E-06  0.3139045E+04  0.7818609E-02  0.8205103E-01
        2   -1    0    0  501    0  0.00000000000E+00  0.00000000000E+00  0.20512277147E+04  0.20512277147E+04  0.25500000920E-02 0. -1.
       -2   -1    0    0    0  501  0.00000000000E+00  0.00000000000E+00 -0.12009395537E+04  0.12009395538E+04  0.25500000920E-02 0.  1.
    10030    2    1    2    0    0  0.00000000000E+00  0.00000000000E+00  0.85028816092E+03  0.32521672684E+04  0.31390447568E+04 0.  0.
        4    1    3    3  502    0 -0.51325566655E+03  0.31700110780E+03 -0.10760298373E+04  0.12335975459E+04  0.12699999809E+01 0.  1.
       -4    1    3    3    0  502  0.51325566655E+03 -0.31700110780E+03  0.19263179982E+04  0.20185697225E+04  0.12699999809E+01 0. -1.
</event>
<event>
 5   0  0.2906701E-06  0.2686122E+04  0.7818609E-02  0.8339522E-01
       -2   -1    0    0    0  501  0.00000000000E+00  0.00000000000E+00  0.14784151004E+04  0.14784151004E+04  0.25500000920E-02 0.  1.
        2   -1    0    0  501    0  0.00000000000E+00  0.00000000000E+00 -0.12200987384E+04  0.12200987384E+04  0.25500000920E-02 0. -1.
    10030    2    1    2    0    0  0.00000000000E+00  0.00000000000E+00  0.25831636198E+03  0.26985138388E+04  0.26861216643E+04 0.  0.
        5    1    3    3  502    0  0.66542951068E+03 -0.97368684593E+02  0.12970674850E+04  0.14610555243E+04  0.46999998093E+01 0.  1.
       -5    1    3    3    0  502 -0.66542951068E+03  0.97368684593E+02 -0.10387511231E+04  0.12374583145E+04  0.46999998093E+01 0. -1.
</event>
<event>
 5   0  0.2848685E-06  0.3443541E+04  0.7818609E-02  0.8127302E-01
       -2   -1    0    0    0  501  0.00000000000E+00  0.00000000000E+00  0.15877908112E+04  0.15877908112E+04  0.25500000920E-02 0.  1.
        2   -1    0    0  501    0  0.00000000000E+00  0.00000000000E+00 -0.18670553038E+04  0.18670553038E+04  0.25500000920E-02 0. -1.
    10030    2    1    2    0    0  0.00000000000E+00  0.00000000000E+00 -0.27926449262E+03  0.34548461151E+04  0.34435407682E+04 0.  0.
        3    1    3    3  502    0  0.14548656408E+03  0.62622252235E+03  0.14628505313E+04  0.15978900697E+04  0.10100000352E+00 0.  1.
       -3    1    3    3    0  502 -0.14548656408E+03 -0.62622252235E+03 -0.17421150239E+04  0.18569560454E+04  0.10100000352E+00 0. -1.
</event>
<event>
 5   0  0.2856440E-06  0.3379123E+04  0.7818609E-02  0.8143049E-01
        2   -1    0    0  501    0  0.00000000000E+00  0.00000000000E+00  0.15356595789E+04  0.15356595789E+04  0.25500000920E-02 0.  1.
       -2   -1    0    0    0  501  0.00000000000E+00  0.00000000000E+00 -0.18588868223E+04  0.18588868223E+04  0.25500000920E-02 0. -1.
    10030    2    1    2    0    0  0.00000000000E+00  0.00000000000E+00 -0.32322724341E+03  0.33945464012E+04  0.33791225812E+04 0.  0.
        4    1    3    3  502    0 -0.10603962108E+04 -0.12906161696E+04 -0.41671271146E+03  0.17215636258E+04  0.12699999809E+01 0. -1.
       -4    1    3    3    0  502  0.10603962108E+04  0.12906161696E+04  0.93485468047E+02  0.16729827754E+04  0.12699999809E+01 0.  1.
</event>
<event>
 5   0  0.1003191E-06  0.3308469E+04  0.7818609E-02  0.8160744E-01
        1   -1    0    0  501    0  0.00000000000E+00  0.00000000000E+00  0.13159629612E+04  0.13159629612E+04  0.50400001928E-02 0.  1.
       -1   -1    0    0    0  501  0.00000000000E+00  0.00000000000E+00 -0.20794589828E+04  0.20794589828E+04  0.50400001928E-02 0. -1.
    10030    2    1    2    0    0  0.00000000000E+00  0.00000000000E+00 -0.76349602153E+03  0.33954219440E+04  0.33084685283E+04 0.  0.
        5    1    3    3  502    0 -0.87367028494E+03 -0.74971024299E+03  0.83737129271E+03  0.14235792872E+04  0.46999998093E+01 0.  1.
       -5    1    3    3    0  502  0.87367028494E+03  0.74971024299E+03 -0.16008673142E+04  0.19718426568E+04  0.46999998093E+01 0. -1.
</event>
<event>
 5   0  0.1010551E-06  0.3408223E+04  0.7818609E-02  0.8135891E-01
       -1   -1    0    0    0  501  0.00000000000E+00  0.00000000000E+00  0.14098844128E+04  0.14098844128E+04  0.50400001928E-02 0. -1.
        1   -1    0    0  501    0  0.00000000000E+00  0.00000000000E+00 -0.20597407078E+04  0.20597407078E+04  0.50400001928E-02 0.  1.
    10030    2    1    2    0    0  0.00000000000E+00  0.00000000000E+00 -0.64985629504E+03  0.34696251206E+04  0.34082231842E+04 0.  0.
        2    1    3    3  502    0 -0.83966672745E+03  0.41258127155E+03  0.11250683476E+04  0.14632300932E+04  0.25500000920E-02 0. -1.
       -2    1    3    3    0  502  0.83966672745E+03 -0.41258127155E+03 -0.17749246427E+04  0.20063950274E+04  0.25500000920E-02 0.  1.
</event>
<event>
 5   0  0.2856440E-06  0.3397997E+04  0.7818609E-02  0.8138398E-01
       -2   -1    0    0    0  501  0.00000000000E+00  0.00000000000E+00  0.16093208522E+04  0.16093208522E+04  0.25500000920E-02 0.  1.
        2   -1    0    0  501    0  0.00000000000E+00  0.00000000000E+00 -0.17936729942E+04  0.17936729942E+04  0.25500000920E-02 0. -1.
    10030    2    1    2    0    0  0.00000000000E+00  0.00000000000E+00 -0.18435214197E+03  0.34029938464E+04  0.33979966754E+04 0.  0.
        4    1    3    3  502    0 -0.44167987350E+03  0.16226360333E+04  0.15018174675E+03  0.16883675481E+04  0.12699999809E+01 0. -1.
       -4    1    3    3    0  502  0.44167987350E+03 -0.16226360333E+04 -0.33453388871E+03  0.17146262983E+04  0.12699999809E+01 0.  1.
</event>
<event>
 5   0  0.2848685E-06  0.3430315E+04  0.7818609E-02  0.8130506E-01
        2   -1    0    0  501    0  0.00000000000E+00  0.00000000000E+00  0.27738929485E+04  0.27738929485E+04  0.25500000920E-02 0.  1.
       -2   -1    0    0    0  501  0.00000000000E+00  0.00000000000E+00 -0.10605186401E+04  0.10605186401E+04  0.25500000920E-02 0. -1.
    10030    2    1    2    0    0  0.00000000000E+00  0.00000000000E+00  0.17133743084E+04  0.38344115887E+04  0.34303149579E+04 0.  0.
        3    1    3    3  502    0 -0.47563825891E+02 -0.58843845401E+03  0.26567445026E+04  0.27215461587E+04  0.10100000352E+00 0.  1.
       -3    1    3    3    0  502  0.47563825891E+02  0.58843845401E+03 -0.94337019417E+03  0.11128654299E+04  0.10100000352E+00 0. -1.
</event>
<event>
 5   0  0.2664083E-06  0.2602684E+04  0.7818609E-02  0.8367290E-01
        2   -1    0    0  501    0  0.00000000000E+00  0.00000000000E+00  0.12352508399E+04  0.12352508399E+04  0.25500000920E-02 0.  1.
       -2   -1    0    0    0  501  0.00000000000E+00  0.00000000000E+00 -0.13709692728E+04  0.13709692728E+04  0.25500000920E-02 0. -1.
    10030    2    1    2    0    0  0.00000000000E+00  0.00000000000E+00 -0.13571843289E+03  0.26062201127E+04  0.26026839576E+04 0.  0.
        2    1    3    3  502    0  0.11721157560E+04 -0.46618259905E+03  0.25243374358E+03  0.12864308594E+04  0.25500000920E-02 0.  1.
       -2    1    3    3    0  502 -0.11721157560E+04  0.46618259905E+03 -0.38815217647E+03  0.13197892533E+04  0.25500000920E-02 0. -1.
</event>
<event>
 5   0  0.2856440E-06  0.2953259E+04  0.7818609E-02  0.8257206E-01
        2   -1    0    0  501    0  0.00000000000E+00  0.00000000000E+00  0.24085545589E+04  0.24085545589E+04  0.25500000920E-02 0.  1.
       -2   -1    0    0    0  501  0.00000000000E+00  0.00000000000E+00 -0.90528743764E+03  0.90528743765E+03  0.25500000920E-02 0. -1.
    10030    2    1    2    0    0  0.00000000000E+00  0.00000000000E+00  0.15032671213E+04  0.33138419966E+04  0.29532586646E+04 0.  0.
        4    1    3    3  502    0 -0.12596645962E+04  0.32478161809E+03 -0.32385798353E+02  0.13012641728E+04  0.12699999809E+01 0. -1.
       -4    1    3    3    0  502  0.12596645962E+04 -0.32478161809E+03  0.15356529196E+04  0.20125778238E+04  0.12699999809E+01 0.  1.
</event>
<event>
 5   0  0.1010855E-06  0.3266948E+04  0.7818609E-02  0.8171357E-01
       -1   -1    0    0    0  501  0.00000000000E+00  0.00000000000E+00  0.12918986013E+04  0.12918986013E+04  0.50400001928E-02 0.  1.
        1   -1    0    0  501    0  0.00000000000E+00  0.00000000000E+00 -0.20653609870E+04  0.20653609870E+04  0.50400001928E-02 0. -1.
    10030    2    1    2    0    0  0.00000000000E+00  0.00000000000E+00 -0.77346238570E+03  0.33572595884E+04  0.32669477929E+04 0.  0.
        1    1    3    3  502    0  0.51724624175E+03  0.15109756759E+04 -0.34254060172E+02  0.15974243357E+04  0.50400001928E-02 0.  1.
       -1    1    3    3    0  502 -0.51724624175E+03 -0.15109756759E+04 -0.73920832553E+03  0.17598352526E+04  0.50400001928E-02 0. -1.
</event>
<event>
 5   0  0.2664083E-06  0.3429278E+04  0.7818609E-02  0.8130758E-01
       -2   -1    0    0    0  501  0.00000000000E+00  0.00000000000E+00  0.18103453384E+04  0.18103453384E+04  0.25500000920E-02 0.  1.
        2   -1    0    0  501    0  0.00000000000E+00  0.00000000000E+00 -0.16239922986E+04  0.16239922986E+04  0.25500000920E-02 0. -1.
    10030    2    1    2    0    0  0.00000000000E+00  0.00000000000E+00  0.18635303985E+03  0.34343376370E+04  0.34292779924E+04 0.  0.
        2    1    3    3  502    0  0.98142312940E+03  0.13316544526E+04  0.54494290283E+03  0.17416824359E+04  0.25500000920E-02 0.  1.
       -2    1    3    3    0  502 -0.98142312940E+03 -0.13316544526E+04 -0.35858986298E+03  0.16926552011E+04  0.25500000920E-02 0. -1.
</event>
<event>
 5   0  0.1003191E-06  0.3541920E+04  0.7818609E-02  0.8103927E-01
       -1   -1    0    0    0  501  0.00000000000E+00  0.00000000000E+00  0.21257874500E+04  0.21257874500E+04  0.50400001928E-02 0. -1.
        1   -1    0    0  501    0  0.00000000000E+00  0.00000000000E+00 -0.14753587909E+04  0.14753587909E+04  0.50400001928E-02 0.  1.
    10030    2    1    2    0    0  0.00000000000E+00  0.00000000000E+00  0.65042865913E+03  0.36011462409E+04  0.35419199324E+04 0.  0.
        5    1    3    3  502    0  0.26768414562E+02  0.29693541514E+03  0.21000822192E+04  0.21211446453E+04  0.46999998093E+01 0. -1.
       -5    1    3    3    0  502 -0.26768414562E+02 -0.29693541514E+03 -0.14496535601E+04  0.14800015956E+04  0.46999998093E+01 0.  1.
</event>
<event>
 5   0  0.9232963E-07  0.3448142E+04  0.7818609E-02  0.8126191E-01
       -1   -1    0    0    0  501  0.00000000000E+00  0.00000000000E+00  0.27279623874E+04  0.27279623874E+04  0.50400001928E-02 0. -1.
        1   -1    0    0  501    0  0.00000000000E+00  0.00000000000E+00 -0.10896121323E+04  0.10896121324E+04  0.50400001928E-02 0.  1.
    10030    2    1    2    0    0  0.00000000000E+00  0.00000000000E+00  0.16383502550E+04  0.38175745197E+04  0.34481420585E+04 0.  0.
        3    1    3    3  502    0 -0.28862031900E+03 -0.11521648445E+04  0.22027166391E+04  0.25025479256E+04  0.10100000352E+00 0. -1.
       -3    1    3    3    0  502  0.28862031900E+03  0.11521648445E+04 -0.56436638411E+03  0.13150265941E+04  0.10100000352E+00 0.  1.
</event>
<event>
 5   0  0.2906701E-06  0.3351876E+04  0.7818609E-02  0.8149820E-01
        2   -1    0    0  501    0  0.00000000000E+00  0.00000000000E+00  0.15497118959E+04  0.15497118959E+04  0.25500000920E-02 0. -1.
       -2   -1    0    0    0  501  0.00000000000E+00  0.00000000000E+00 -0.18124451512E+04  0.18124451512E+04  0.25500000920E-02 0.  1.
    10030    2    1    2    0    0  0.00000000000E+00  0.00000000000E+00 -0.26273325531E+03  0.33621570472E+04  0.33518757803E+04 0.  0.
        5    1    3    3  502    0 -0.14246984730E+04  0.17059521439E+03 -0.99997731934E+03  0.17489554584E+04  0.46999998093E+01 0.  1.
       -5    1    3    3    0  502  0.14246984730E+04 -0.17059521439E+03  0.73724406403E+03  0.16132015888E+04  0.46999998093E+01 0. -1.
</event>
<event>
 5   0  0.1003191E-06  0.3437392E+04  0.7818609E-02  0.8128790E-01
       -1   -1    0    0    0  501  0.00000000000E+00  0.00000000000E+00  0.11035627893E+04  0.11035627893E+04  0.50400001928E-02 0. -1.
        1   -1    0    0  501    0  0.00000000000E+00  0.00000000000E+00 -0.26767091024E+04  0.26767091024E+04  0.50400001928E-02 0.  1.
    10030    2    1    2    0    0  0.00000000000E+00  0.00000000000E+00 -0.15731463132E+04  0.37802718917E+04  0.34373923623E+04 0.  0.
        5    1    3    3  502    0 -0.14791975304E+04  0.84030094555E+03 -0.51772206980E+03  0.17782545500E+04  0.46999998093E+01 0. -1.
       -5    1    3    3    0  502  0.14791975304E+04 -0.84030094555E+03 -0.10554242434E+04  0.20020173417E+04  0.46999998093E+01 0.  1.
</event>
<event>
 5   0  0.2848685E-06  0.3378632E+04  0.7818609E-02  0.8143171E-01
       -2   -1    0    0    0  501  0.00000000000E+00  0.00000000000E+00  0.15877461777E+04  0.15877461777E+04  0.25500000920E-02 0.  1.
        2   -1    0    0  501    0  0.00000000000E+00  0.00000000000E+00 -0.17973828223E+04  0.17973828223E+04  0.25500000920E-02 0. -1.
    10030    2    1    2    0    0  0.00000000000E+00  0.00000000000E+00 -0.20963664466E+03  0.33851290000E+04  0.33786315016E+04 0.  0.
        3    1    3    3  502    0 -0.56786301460E+02  0.14323903992E+04 -0.10003048712E+04  0.17480208195E+04  0.10100000352E+00 0. -1.
       -3    1    3    3    0  502  0.56786301460E+02 -0.14323903992E+04  0.79066822653E+03  0.16371081805E+04  0.10100000352E+00 0.  1.
</event>
<event>
 5   0  0.1010855E-06  0.3379562E+04  0.7818609E-02  0.8142941E-01
       -1   -1    0    0    0  501  0.00000000000E+00  0.00000000000E+00  0.12403337430E+04  0.12403337430E+04  0.50400001928E-02 0. -1.
        1   -1    0    0  501    0  0.00000000000E+00  0.00000000000E+00 -0.23020904588E+04  0.23020904588E+04  0.50400001928E-02 0.  1.
    10030    2    1    2    0    0  0.00000000000E+00  0.00000000000E+00 -0.10617567158E+04  0.35424242018E+04  0.33795623832E+04 0.  0.
        1    1    3    3  502    0  0.14299503106E+04  0.71106993917E+03  0.47986643717E+02  0.15977111964E+04  0.50400001928E-02 0. -1.
       -1    1    3    3    0  502 -0.14299503106E+04 -0.71106993917E+03 -0.11097433595E+04  0.19447130054E+04  0.50400001928E-02 0.  1.
</event>
<event>
 5   0  0.1003191E-06  0.3403245E+04  0.7818609E-02  0.8137110E-01
       -1   -1    0    0    0  501  0.00000000000E+00  0.00000000000E+00  0.10855321319E+04  0.10855321319E+04  0.50400001928E-02 0. -1.
        1   -1    0    0  501    0  0.00000000000E+00  0.00000000000E+00 -0.26673737665E+04  0.26673737665E+04  0.50400001928E-02 0.  1.
    10030    2    1    2    0    0  0.00000000000E+00  0.00000000000E+00 -0.15818416347E+04  0.37529058984E+04  0.34032454694E+04 0.  0.
        5    1    3    3  502    0  0.15287723716E+04 -0.73253898926E+03 -0.95351284154E+03  0.19449851321E+04  0.46999998093E+01 0.  1.
       -5    1    3    3    0  502 -0.15287723716E+04  0.73253898926E+03 -0.62832879312E+03  0.18079207663E+04  0.46999998093E+01 0. -1.
</event>
<event>
 5   0  0.2848685E-06  0.3453913E+04  0.7818609E-02  0.8124800E-01
        2   -1    0    0  501    0  0.00000000000E+00  0.00000000000E+00  0.23726038985E+04  0.23726038985E+04  0.25500000920E-02 0.  1.
       -2   -1    0    0    0  501  0.00000000000E+00  0.00000000000E+00 -0.12570068870E+04  0.12570068870E+04  0.25500000920E-02 0. -1.
    10030    2    1    2    0    0  0.00000000000E+00  0.00000000000E+00  0.11155970115E+04  0.36296107855E+04  0.34539133982E+04 0.  0.
        3    1    3    3  502    0 -0.10113753504E+03 -0.12474873615E+04  0.18082558383E+04  0.21991459035E+04  0.10100000352E+00 0.  1.
       -3    1    3    3    0  502  0.10113753504E+03  0.12474873615E+04 -0.69265882686E+03  0.14304648820E+04  0.10100000352E+00 0. -1.
</event>
<event>
 5   0  0.2906701E-06  0.3379368E+04  0.7818609E-02  0.8142989E-01
       -2   -1    0    0    0  501  0.00000000000E+00  0.00000000000E+00  0.20539850866E+04  0.20539850866E+04  0.25500000920E-02 0.  1.
        2   -1    0    0  501    0  0.00000000000E+00  0.00000000000E+00 -0.13899961883E+04  0.13899961883E+04  0.25500000920E-02 0. -1.
    10030    2    1    2    0    0  0.00000000000E+00  0.00000000000E+00  0.66398889832E+03  0.34439812750E+04  0.33793676576E+04 0.  0.
        5    1    3    3  502    0  0.99206560528E+03 -0.13582228951E+04  0.16752175730E+03  0.16902808131E+04  0.46999998093E+01 0.  1.
       -5    1    3    3    0  502 -0.99206560528E+03  0.13582228951E+04  0.49646714103E+03  0.17537004619E+04  0.46999998093E+01 0. -1.
</event>
<event>
 5   0  0.2906701E-06  0.3109472E+04  0.7818609E-02  0.8213143E-01
       -2   -1    0    0    0  501  0.00000000000E+00  0.00000000000E+00  0.30244717454E+04  0.30244717454E+04  0.25500000920E-02 0. -1.
        2   -1    0    0  501    0  0.00000000000E+00  0.00000000000E+00 -0.79921535969E+03  0.79921535970E+03  0.25500000920E-02 0.  1.
    10030    2    1    2    0    0  0.00000000000E+00  0.00000000000E+00  0.22252563857E+04  0.38236871051E+04  0.31094721571E+04 0.  0.
        5    1    3    3  502    0 -0.17234575588E+03 -0.14033378356E+04  0.19077747926E+04  0.23745919418E+04  0.46999998093E+01 0. -1.
       -5    1    3    3    0  502  0.17234575588E+03  0.14033378356E+04  0.31748159303E+03  0.14490951633E+04  0.46999998093E+01 0.  1.
</event>
<event>
 5   0  0.9714317E-07  0.3296107E+04  0.7818609E-02  0.8163887E-01
        1   -1    0    0  501    0  0.00000000000E+00  0.00000000000E+00  0.23227997825E+04  0.23227997825E+04  0.50400001928E-02 0.  1.
       -1   -1    0    0    0  501  0.00000000000E+00  0.00000000000E+00 -0.11693134779E+04  0.11693134779E+04  0.50400001928E-02 0. -1.
    10030    2    1    2    0    0  0.00000000000E+00  0.00000000000E+00  0.11534863046E+04  0.34921132604E+04  0.32961074570E+04 0.  0.
        4    1    3    3  502    0 -0.98114362200E+03  0.29733916194E+03 -0.79034802709E+03  0.12944902476E+04  0.12699999809E+01 0. -1.
       -4    1    3    3    0  502  0.98114362200E+03 -0.29733916194E+03  0.19438343317E+04  0.21976230128E+04  0.12699999809E+01 0.  1.
</event>
<event>
 5   0  0.9070500E-07  0.3485753E+04  0.7818609E-02  0.8117175E-01
       -3   -1    0    0    0  501  0.00000000000E+00  0.00000000000E+00  0.22978829938E+04  0.22978829961E+04  0.10100000352E+00 0.  1.
        3   -1    0    0  501    0  0.00000000000E+00  0.00000000000E+00 -0.13219201831E+04  0.13219201869E+04  0.10100000352E+00 0. -1.
    10030    2    1    2    0    0  0.00000000000E+00  0.00000000000E+00  0.97596281079E+03  0.36198031830E+04  0.34857526699E+04 0.  0.
        3    1    3    3  502    0  0.14435162096E+04  0.85146688090E+03  0.98479694225E+03  0.19438518267E+04  0.10100000352E+00 0.  1.
       -3    1    3    3    0  502 -0.14435162096E+04 -0.85146688090E+03 -0.88341314588E+01  0.16759513563E+04  0.10100000352E+00 0. -1.
</event>
<event>
 5   0  0.9714317E-07  0.3394428E+04  0.7818609E-02  0.8139275E-01
        1   -1    0    0  501    0  0.00000000000E+00  0.00000000000E+00  0.17467306766E+04  0.17467306766E+04  0.50400001928E-02 0. -1.
       -1   -1    0    0    0  501  0.00000000000E+00  0.00000000000E+00 -0.16491010224E+04  0.16491010224E+04  0.50400001928E-02 0.  1.
    10030    2    1    2    0    0  0.00000000000E+00  0.00000000000E+00  0.97629654245E+02  0.33958316990E+04  0.33944279899E+04 0.  0.
        4    1    3    3  502    0 -0.26573145046E+03 -0.15085935457E+04 -0.68228560482E+03  0.16768968213E+04  0.12699999809E+01 0.  1.
       -4    1    3    3    0  502  0.26573145046E+03  0.15085935457E+04  0.77991525907E+03  0.17189348778E+04  0.12699999809E+01 0. -1.
</event>
<event>
 5   0  0.9232963E-07  0.3414497E+04  0.7818609E-02  0.8134357E-01
        1   -1    0    0  501    0  0.00000000000E+00  0.00000000000E+00  0.21907402771E+04  0.21907402771E+04  0.50400001928E-02 0.  1.
       -1   -1    0    0    0  501  0.00000000000E+00  0.00000000000E+00 -0.13304623553E+04  0.13304623553E+04  0.50400001928E-02 0. -1.
    10030    2    1    2    0    0  0.00000000000E+00  0.00000000000E+00  0.86027792181E+03  0.35212026325E+04  0.34144970166E+04 0.  0.
        3    1    3    3  502    0 -0.16822937387E+03  0.15319039906E+04  0.11877163607E+04  0.19456878276E+04  0.10100000352E+00 0.  1.
       -3    1    3    3    0  502  0.16822937387E+03 -0.15319039906E+04 -0.32743843894E+03  0.15755148048E+04  0.10100000352E+00 0. -1.
</event>
<event>
 5   0  0.1010855E-06  0.2813753E+04  0.7818609E-02  0.8299011E-01
       -1   -1    0    0    0  501  0.00000000000E+00  0.00000000000E+00  0.12516189834E+04  0.12516189834E+04  0.50400001928E-02 0.  1.
        1   -1    0    0  501    0  0.00000000000E+00  0.00000000000E+00 -0.15813931229E+04  0.15813931229E+04  0.50400001928E-02 0. -1.
    10030    2    1    2    0    0  0.00000000000E+00  0.00000000000E+00 -0.32977413951E+03  0.28330121063E+04  0.28137531184E+04 0.  0.
        1    1    3    3  502    0 -0.27550533111E+03 -0.10599487894E+04  0.72428099927E+03  0.13130032710E+04  0.50400001928E-02 0.  1.
       -1    1    3    3    0  502  0.27550533111E+03  0.10599487894E+04 -0.10540551388E+04  0.15200088353E+04  0.50400001928E-02 0. -1.
</event>
<event>
 5   0  0.2848685E-06  0.3465680E+04  0.7818609E-02  0.8121972E-01
        2   -1    0    0  501    0  0.00000000000E+00  0.00000000000E+00  0.25122145005E+04  0.25122145005E+04  0.25500000920E-02 0. -1.
       -2   -1    0    0    0  501  0.00000000000E+00  0.00000000000E+00 -0.11952538898E+04  0.11952538898E+04  0.25500000920E-02 0.  1.
    10030    2    1    2    0    0  0.00000000000E+00  0.00000000000E+00  0.13169606107E+04  0.37074683903E+04  0.34656798200E+04 0.  0.
        3    1    3    3  502    0  0.16511504663E+04  0.36551699885E+03  0.10627807491E+04  0.19973491106E+04  0.10100000352E+00 0. -1.
       -3    1    3    3    0  502 -0.16511504663E+04 -0.36551699885E+03  0.25417986169E+03  0.17101192798E+04  0.10100000352E+00 0.  1.
</event>
<event>
 5   0  0.2906701E-06  0.3887067E+04  0.7818609E-02  0.8027724E-01
        2   -1    0    0  501    0  0.00000000000E+00  0.00000000000E+00  0.21793191956E+04  0.21793191956E+04  0.25500000920E-02 0. -1.
       -2   -1    0    0    0  501  0.00000000000E+00  0.00000000000E+00 -0.17332577282E+04  0.17332577282E+04  0.25500000920E-02 0.  1.
    10030    2    1    2    0    0  0.00000000000E+00  0.00000000000E+00  0.44606146739E+03  0.39125769237E+04  0.38870666770E+04 0.  0.
        5    1    3    3  502    0  0.15819164520E+04  0.51238252301E+03  0.12357671483E+04  0.20717475825E+04  0.46999998093E+01 0. -1.
       -5    1    3    3    0  502 -0.15819164520E+04 -0.51238252301E+03 -0.78970568089E+03  0.18408293412E+04  0.46999998093E+01 0.  1.
</event>
<event>
 5   0  0.2906701E-06  0.3368353E+04  0.7818609E-02  0.8145717E-01
        2   -1    0    0  501    0  0.00000000000E+00  0.00000000000E+00  0.21744996894E+04  0.21744996894E+04  0.25500000920E-02 0.  1.
       -2   -1    0    0    0  501  0.00000000000E+00  0.00000000000E+00 -0.13044152335E+04  0.13044152335E+04  0.25500000920E-02 0. -1.
    10030    2    1    2    0    0  0.00000000000E+00  0.00000000000E+00  0.87008445595E+03  0.34789149229E+04  0.33683530219E+04 0.  0.
        5    1    3    3  502    0  0.13382440986E+04 -0.10163344280E+04  0.55095566847E+03  0.17684476739E+04  0.46999998093E+01 0.  1.
       -5    1    3    3    0  502 -0.13382440986E+04  0.10163344280E+04  0.31912878748E+03  0.17104672490E+04  0.46999998093E+01 0. -1.
</event>
<event>
 5   0  0.1010855E-06  0.3339609E+04  0.7818609E-02  0.8152889E-01
       -1   -1    0    0    0  501  0.00000000000E+00  0.00000000000E+00  0.11587699871E+04  0.11587699871E+04  0.50400001928E-02 0. -1.
        1   -1    0    0  501    0  0.00000000000E+00  0.00000000000E+00 -0.24062126339E+04  0.24062126339E+04  0.50400001928E-02 0.  1.
    10030    2    1    2    0    0  0.00000000000E+00  0.00000000000E+00 -0.12474426468E+04  0.35649826210E+04  0.33396089488E+04 0.  0.
        1    1    3    3  502    0 -0.72879340503E+03 -0.14804631504E+04 -0.89658022406E+03  0.18779688669E+04  0.50400001928E-02 0.  1.
       -1    1    3    3    0  502  0.72879340503E+03  0.14804631504E+04 -0.35086242277E+03  0.16870137541E+04  0.50400001928E-02 0. -1.
</event>
<event>
 5   0  0.2767014E-06  0.3406714E+04  0.7818609E-02  0.8136260E-01
       -2   -1    0    0    0  501  0.00000000000E+00  0.00000000000E+00  0.20708543780E+04  0.20708543780E+04  0.25500000920E-02 0.  1.
        2   -1    0    0  501    0  0.00000000000E+00  0.00000000000E+00 -0.14010762009E+04  0.14010762009E+04  0.25500000920E-02 0. -1.
    10030    2    1    2    0    0  0.00000000000E+00  0.00000000000E+00  0.66977817708E+03  0.34719305789E+04  0.34067138328E+04 0.  0.
        1    1    3    3  502    0 -0.14895645016E+04 -0.13033660072E+02  0.11768105780E+04  0.18983823159E+04  0.50400001928E-02 0.  1.
       -1    1    3    3    0  502  0.14895645016E+04  0.13033660072E+02 -0.50703240093E+03  0.15735482631E+04  0.50400001928E-02 0. -1.
</event>
<event>
 5   0  0.2767014E-06  0.3280966E+04  0.7818609E-02  0.8167756E-01
        2   -1    0    0  501    0  0.00000000000E+00  0.00000000000E+00  0.28191186505E+04  0.28191186505E+04  0.25500000920E-02 0. -1.
       -2   -1    0    0    0  501  0.00000000000E+00  0.00000000000E+00 -0.95461900269E+03  0.95461900270E+03  0.25500000920E-02 0.  1.
    10030    2    1    2    0    0  0.00000000000E+00  0.00000000000E+00  0.18644996478E+04  0.37737376532E+04  0.32809658545E+04 0.  0.
        1    1    3    3  502    0 -0.15458042400E+02  0.48390680066E+03  0.27350727969E+04  0.27775939133E+04  0.50400001928E-02 0. -1.
       -1    1    3    3    0  502  0.15458042400E+02 -0.48390680066E+03 -0.87057314904E+03  0.99614373996E+03  0.50400001928E-02 0.  1.
</event>
<event>
 5   0  0.9232963E-07  0.3400963E+04  0.7818609E-02  0.8137670E-01
       -1   -1    0    0    0  501  0.00000000000E+00  0.00000000000E+00  0.26584037592E+04  0.26584037592E+04  0.50400001928E-02 0.  1.
        1   -1    0    0  501    0  0.00000000000E+00  0.00000000000E+00 -0.10877346764E+04  0.10877346764E+04  0.50400001928E-02 0. -1.
    10030    2    1    2    0    0  0.00000000000E+00  0.00000000000E+00  0.15706690827E+04  0.37461384356E+04  0.34009633652E+04 0.  0.
        3    1    3    3  502    0 -0.28724603859E+03 -0.16695018300E+04  0.94830827032E+03  0.19414003278E+04  0.10100000352E+00 0. -1.
       -3    1    3    3    0  502  0.28724603859E+03  0.16695018300E+04  0.62236081240E+03  0.18047381078E+04  0.10100000352E+00 0.  1.
</event>
<event>
 5   0  0.2856440E-06  0.3265992E+04  0.7818609E-02  0.8171603E-01
        2   -1    0    0  501    0  0.00000000000E+00  0.00000000000E+00  0.11623626940E+04  0.11623626940E+04  0.25500000920E-02 0.  1.
       -2   -1    0    0    0  501  0.00000000000E+00  0.00000000000E+00 -0.22941854936E+04  0.22941854936E+04  0.25500000920E-02 0. -1.
    10030    2    1    2    0    0  0.00000000000E+00  0.00000000000E+00 -0.11318227996E+04  0.34565481876E+04  0.32659918132E+04 0.  0.
        4    1    3    3  502    0  0.35093396850E+03 -0.79158323151E+03 -0.20312196409E+04  0.22080791437E+04  0.12699999809E+01 0. -1.
       -4    1    3    3    0  502 -0.35093396850E+03  0.79158323151E+03  0.89939684123E+03  0.12484690439E+04  0.12699999809E+01 0.  1.
</event>
<event>
 5   0  0.1010551E-06  0.3438784E+04  0.7818609E-02  0.8128453E-01
        1   -1    0    0  501    0  0.00000000000E+00  0.00000000000E+00  0.23372329784E+04  0.23372329784E+04  0.50400001928E-02 0.  1.
       -1   -1    0    0    0  501  0.00000000000E+00  0.00000000000E+00 -0.12648754177E+04  0.12648754178E+04  0.50400001928E-02 0. -1.
    10030    2    1    2    0    0  0.00000000000E+00  0.00000000000E+00  0.10723575606E+04  0.36021083961E+04  0.34387838199E+04 0.  0.
        2    1    3    3  502    0  0.92224629522E+02 -0.12566561291E+04 -0.68926420729E+03  0.14362364557E+04  0.25500000920E-02 0. -1.
       -2    1    3    3    0  502 -0.92224629522E+02  0.12566561291E+04  0.17616217679E+04  0.21658719404E+04  0.25500000920E-02 0.  1.
</event>
<event>
 5   0  0.2664083E-06  0.3255959E+04  0.7818609E-02  0.8174193E-01
       -2   -1    0    0    0  501  0.00000000000E+00  0.00000000000E+00  0.19040126519E+04  0.19040126519E+04  0.25500000920E-02 0. -1.
        2   -1    0    0  501    0  0.00000000000E+00  0.00000000000E+00 -0.13919642851E+04  0.13919642851E+04  0.25500000920E-02 0.  1.
    10030    2    1    2    0    0  0.00000000000E+00  0.00000000000E+00  0.51204836676E+03  0.32959769370E+04  0.32559592196E+04 0.  0.
        2    1    3    3  502    0  0.12124593035E+04 -0.10237628844E+04 -0.11199546113E+03  0.15908145679E+04  0.25500000920E-02 0. -1.
       -2    1    3    3    0  502 -0.12124593035E+04  0.10237628844E+04  0.62404382788E+03  0.17051623691E+04  0.25500000920E-02 0.  1.
</event>
<event>
 5   0  0.9232963E-07  0.3270702E+04  0.7818609E-02  0.8170391E-01
       -1   -1    0    0    0  501  0.00000000000E+00  0.00000000000E+00  0.27806342154E+04  0.27806342154E+04  0.50400001928E-02 0. -1.
        1   -1    0    0  501    0  0.00000000000E+00  0.00000000000E+00 -0.96178501017E+03  0.96178501018E+03  0.50400001928E-02 0.  1.
    10030    2    1    2    0    0  0.00000000000E+00  0.00000000000E+00  0.18188492052E+04  0.37424192256E+04  0.32707016416E+04 0.  0.
        3    1    3    3  502    0 -0.80840814288E+03 -0.12169239919E+04  0.17502118102E+04  0.22798397133E+04  0.10100000352E+00 0. -1.
       -3    1    3    3    0  502  0.80840814288E+03  0.12169239919E+04  0.68637394952E+02  0.14625795122E+04  0.10100000352E+00 0.  1.
</event>
<event>
 5   0  0.2664083E-06  0.3287062E+04  0.7818609E-02  0.8166195E-01
       -2   -1    0    0    0  501  0.00000000000E+00  0.00000000000E+00  0.92781745557E+03  0.92781745557E+03  0.25500000920E-02 0.  1.
        2   -1    0    0  501    0  0.00000000000E+00  0.00000000000E+00 -0.29113426487E+04  0.29113426487E+04  0.25500000920E-02 0. -1.
    10030    2    1    2    0    0  0.00000000000E+00  0.00000000000E+00 -0.19835251931E+04  0.38391601042E+04  0.32870622316E+04 0.  0.
        2    1    3    3  502    0 -0.15131524925E+04 -0.50130186411E+03 -0.14593271179E+04  0.21611500784E+04  0.25500000920E-02 0. -1.
       -2    1    3    3    0  502  0.15131524925E+04  0.50130186411E+03 -0.52419807524E+03  0.16780100258E+04  0.25500000920E-02 0.  1.
</event>
<event>
 5   0  0.2906701E-06  0.3491029E+04  0.7818609E-02  0.8115919E-01
       -2   -1    0    0    0  501  0.00000000000E+00  0.00000000000E+00  0.11908593592E+04  0.11908593592E+04  0.25500000920E-02 0.  1.
        2   -1    0    0  501    0  0.00000000000E+00  0.00000000000E+00 -0.25585065731E+04  0.25585065731E+04  0.25500000920E-02 0. -1.
    10030    2    1    2    0    0  0.00000000000E+00  0.00000000000E+00 -0.13676472140E+04  0.37493659323E+04  0.34910293600E+04 0.  0.
        5    1    3    3  502    0 -0.10959047059E+03 -0.10740295562E+04  0.78926057725E+03  0.13373495831E+04  0.46999998093E+01 0.  1.
       -5    1    3    3    0  502  0.10959047059E+03  0.10740295562E+04 -0.21569077912E+04  0.24120163491E+04  0.46999998093E+01 0. -1.
</event>
<event>
 5   0  0.2906701E-06  0.3399118E+04  0.7818609E-02  0.8138123E-01
       -2   -1    0    0    0  501  0.00000000000E+00  0.00000000000E+00  0.10979820042E+04  0.10979820042E+04  0.25500000920E-02 0.  1.
        2   -1    0    0  501    0  0.00000000000E+00  0.00000000000E+00 -0.26307367609E+04  0.26307367609E+04  0.25500000920E-02 0. -1.
    10030    2    1    2    0    0  0.00000000000E+00  0.00000000000E+00 -0.15327547567E+04  0.37287187652E+04  0.33991184865E+04 0.  0.
        5    1    3    3  502    0  0.53860748323E+03  0.90016601304E+03 -0.22332321590E+04  0.24673355747E+04  0.46999998093E+01 0. -1.
       -5    1    3    3    0  502 -0.53860748323E+03 -0.90016601304E+03  0.70047740235E+03  0.12613831905E+04  0.46999998093E+01 0.  1.
</event>
<event>
 5   0  0.2906701E-06  0.3385406E+04  0.7818609E-02  0.8141497E-01
        2   -1    0    0  501    0  0.00000000000E+00  0.00000000000E+00  0.15216314076E+04  0.15216314076E+04  0.25500000920E-02 0.  1.
       -2   -1    0    0    0  501  0.00000000000E+00  0.00000000000E+00 -0.18830079111E+04  0.18830079111E+04  0.25500000920E-02 0. -1.
    10030    2    1    2    0    0  0.00000000000E+00  0.00000000000E+00 -0.36137650350E+03  0.34046393188E+04  0.33854063144E+04 0.  0.
        5    1    3    3  502    0 -0.27775980155E+03 -0.15507039150E+04  0.44201336354E+03  0.16362246310E+04  0.46999998093E+01 0.  1.
       -5    1    3    3    0  502  0.27775980155E+03  0.15507039150E+04 -0.80338986704E+03  0.17684146878E+04  0.46999998093E+01 0. -1.
</event>
<event>
 5   0  0.9232963E-07  0.3365633E+04  0.7818609E-02  0.8146393E-01
       -1   -1    0    0    0  501  0.00000000000E+00  0.00000000000E+00  0.18645674750E+04  0.18645674750E+04  0.50400001928E-02 0.  1.
        1   -1    0    0  501    0  0.00000000000E+00  0.00000000000E+00 -0.15187817205E+04  0.15187817205E+04  0.50400001928E-02 0. -1.
    10030    2    1    2    0    0  0.00000000000E+00  0.00000000000E+00  0.34578575454E+03  0.33833491955E+04  0.33656327771E+04 0.  0.
        3    1    3    3  502    0 -0.90057808905E+03 -0.61597766970E+03  0.14608088275E+04  0.18233024502E+04  0.10100000352E+00 0.  1.
       -3    1    3    3    0  502  0.90057808905E+03  0.61597766970E+03 -0.11150230730E+04  0.15600467453E+04  0.10100000352E+00 0. -1.
</event>
<event>
 5   0  0.9232963E-07  0.2947742E+04  0.7818609E-02  0.8258813E-01
       -1   -1    0    0    0  501  0.00000000000E+00  0.00000000000E+00  0.99493605705E+03  0.99493605706E+03  0.50400001928E-02 0. -1.
        1   -1    0    0  501    0  0.00000000000E+00  0.00000000000E+00 -0.21833525896E+04  0.21833525896E+04  0.50400001928E-02 0.  1.
    10030    2    1    2    0    0  0.00000000000E+00  0.00000000000E+00 -0.11884165325E+04  0.31782886467E+04  0.29477423338E+04 0.  0.
        3    1    3    3  502    0 -0.13024926661E+03  0.46838136012E+03 -0.20944143170E+04  0.21500970470E+04  0.10100000352E+00 0.  1.
       -3    1    3    3    0  502  0.13024926661E+03 -0.46838136012E+03  0.90599778447E+03  0.10281915997E+04  0.10100000352E+00 0. -1.
</event>
<event>
 5   0  0.1003191E-06  0.2528852E+04  0.7818609E-02  0.8392778E-01
        1   -1    0    0  501    0  0.00000000000E+00  0.00000000000E+00  0.25894226233E+04  0.25894226233E+04  0.50400001928E-02 0.  1.
       -1   -1    0    0    0  501  0.00000000000E+00  0.00000000000E+00 -0.61742462527E+03  0.61742462529E+03  0.50400001928E-02 0. -1.
    10030    2    1    2    0    0  0.00000000000E+00  0.00000000000E+00  0.19719979980E+04  0.32068472486E+04  0.25288521451E+04 0.  0.
        5    1    3    3  502    0  0.12136097907E+04  0.21129347012E+03  0.62451698507E+03  0.13811362022E+04  0.46999998093E+01 0.  1.
       -5    1    3    3    0  502 -0.12136097907E+04 -0.21129347012E+03  0.13474810129E+04  0.18257110463E+04  0.46999998093E+01 0. -1.
</event>
<event>
 5   0  0.2767014E-06  0.3543168E+04  0.7818609E-02  0.8103635E-01
       -2   -1    0    0    0  501  0.00000000000E+00  0.00000000000E+00  0.20597387738E+04  0.20597387739E+04  0.25500000920E-02 0.  1.
        2   -1    0    0  501    0  0.00000000000E+00  0.00000000000E+00 -0.15237412772E+04  0.15237412772E+04  0.25500000920E-02 0. -1.
    10030    2    1    2    0    0  0.00000000000E+00  0.00000000000E+00  0.53599749664E+03  0.35834800511E+04  0.35431675038E+04 0.  0.
        1    1    3    3  502    0 -0.33810818053E+03 -0.11990784008E+04  0.15418538945E+04  0.19822763644E+04  0.50400001928E-02 0.  1.
       -1    1    3    3    0  502  0.33810818053E+03  0.11990784008E+04 -0.10058563978E+04  0.16012036866E+04  0.50400001928E-02 0. -1.
</event>
<event>
 5   0  0.1003191E-06  0.3261113E+04  0.7818609E-02  0.8172861E-01
       -1   -1    0    0    0  501  0.00000000000E+00  0.00000000000E+00  0.12061987564E+04  0.12061987564E+04  0.50400001928E-02 0. -1.
        1   -1    0    0  501    0  0.00000000000E+00  0.00000000000E+00 -0.22042089395E+04  0.22042089395E+04  0.50400001928E-02 0.  1.
    10030    2    1    2    0    0  0.00000000000E+00  0.00000000000E+00 -0.99801018307E+03  0.34104076959E+04  0.32611127437E+04 0.  0.
        5    1    3    3  502    0 -0.41268038450E+03 -0.15711277843E+04 -0.35131521453E+03  0.16619843815E+04  0.46999998093E+01 0.  1.
       -5    1    3    3    0  502  0.41268038450E+03  0.15711277843E+04 -0.64669496853E+03  0.17484233145E+04  0.46999998093E+01 0. -1.
</event>
<event>
 5   0  0.2767014E-06  0.3456357E+04  0.7818609E-02  0.8124211E-01
        2   -1    0    0  501    0  0.00000000000E+00  0.00000000000E+00  0.25417951118E+04  0.25417951118E+04  0.25500000920E-02 0.  1.
       -2   -1    0    0    0  501  0.00000000000E+00  0.00000000000E+00 -0.11749964492E+04  0.11749964492E+04  0.25500000920E-02 0. -1.
    10030    2    1    2    0    0  0.00000000000E+00  0.00000000000E+00  0.13667986626E+04  0.37167915610E+04  0.34563565967E+04 0.  0.
        1    1    3    3  502    0  0.16568829550E+04 -0.42080034274E+03  0.41078989000E+03  0.17581474309E+04  0.50400001928E-02 0. -1.
       -1    1    3    3    0  502 -0.16568829550E+04  0.42080034274E+03  0.95600877260E+03  0.19586441301E+04  0.50400001928E-02 0.  1.
</event>
<event>
 5   0  0.2848685E-06  0.3444609E+04  0.7818609E-02  0.8127044E-01
        2   -1    0    0  501    0  0.00000000000E+00  0.00000000000E+00  0.11630144268E+04  0.11630144268E+04  0.25500000920E-02 0. -1.
       -2   -1    0    0    0  501  0.00000000000E+00  0.00000000000E+00 -0.25505560735E+04  0.25505560735E+04  0.25500000920E-02 0.  1.
    10030    2    1    2    0    0  0.00000000000E+00  0.00000000000E+00 -0.13875416467E+04  0.37135705003E+04  0.34446094175E+04 0.  0.
        3    1    3    3  502    0  0.95932517352E+03  0.14248598695E+04 -0.55824491353E+03  0.18061472337E+04  0.10100000352E+00 0.  1.
       -3    1    3    3    0  502 -0.95932517352E+03 -0.14248598695E+04 -0.82929673316E+03  0.19074232666E+04  0.10100000352E+00 0. -1.
</event>
<event>
 5   0  0.2664083E-06  0.3398944E+04  0.7818609E-02  0.8138165E-01
        2   -1    0    0  501    0  0.00000000000E+00  0.00000000000E+00  0.21688611717E+04  0.21688611717E+04  0.25500000920E-02 0.  1.
       -2   -1    0    0    0  501  0.00000000000E+00  0.00000000000E+00 -0.13316692788E+04  0.13316692788E+04  0.25500000920E-02 0. -1.
    10030    2    1    2    0    0  0.00000000000E+00  0.00000000000E+00  0.83719189290E+03  0.35005304505E+04  0.33989444199E+04 0.  0.
        2    1    3    3  502    0  0.15650185784E+04  0.81473050011E+02  0.10957301808E+04  0.19122096218E+04  0.25500000920E-02 0.  1.
       -2    1    3    3    0  502 -0.15650185784E+04 -0.81473050011E+02 -0.25853828787E+03  0.15883208287E+04  0.25500000920E-02 0. -1.
</event>
<event>
 5   0  0.1010551E-06  0.3383880E+04  0.7818609E-02  0.8141874E-01
       -1   -1    0    0    0  501  0.00000000000E+00  0.00000000000E+00  0.14340743803E+04  0.14340743803E+04  0.50400001928E-02 0. -1.
        1   -1    0    0  501    0  0.00000000000E+00  0.00000000000E+00 -0.19961734254E+04  0.19961734254E+04  0.50400001928E-02 0.  1.
    10030    2    1    2    0    0  0.00000000000E+00  0.00000000000E+00 -0.56209904511E+03  0.34302478057E+04  0.33838801208E+04 0.  0.
        2    1    3    3  502    0 -0.15052891613E+04 -0.11487004226E+02  0.50195530059E+03  0.15868164778E+04  0.25500000920E-02 0. -1.
       -2    1    3    3    0  502  0.15052891613E+04  0.11487004226E+02 -0.10640543457E+04  0.18434313280E+04  0.25500000920E-02 0.  1.
</event>
<event>
 5   0  0.2906701E-06  0.3228899E+04  0.7818609E-02  0.8181227E-01
       -2   -1    0    0    0  501  0.00000000000E+00  0.00000000000E+00  0.16272422537E+04  0.16272422537E+04  0.25500000920E-02 0.  1.
        2   -1    0    0  501    0  0.00000000000E+00  0.00000000000E+00 -0.16017569767E+04  0.16017569767E+04  0.25500000920E-02 0. -1.
    10030    2    1    2    0    0  0.00000000000E+00  0.00000000000E+00  0.25485276959E+02  0.32289992304E+04  0.32288986560E+04 0.  0.
        5    1    3    3  502    0 -0.21101855215E+03  0.17008953505E+03  0.16043214334E+04  0.16270613483E+04  0.46999998093E+01 0.  1.
       -5    1    3    3    0  502  0.21101855215E+03 -0.17008953505E+03 -0.15788361565E+04  0.16019378822E+04  0.46999998093E+01 0. -1.
</event>
<event>
 5   0  0.2906701E-06  0.2077943E+04  0.7818609E-02  0.8571022E-01
        2   -1    0    0  501    0  0.00000000000E+00  0.00000000000E+00  0.21637567433E+04  0.21637567433E+04  0.25500000920E-02 0. -1.
       -2   -1    0    0    0  501  0.00000000000E+00  0.00000000000E+00 -0.49888327928E+03  0.49888327928E+03  0.25500000920E-02 0.  1.
    10030    2    1    2    0    0  0.00000000000E+00  0.00000000000E+00  0.16648734640E+04  0.26626400226E+04  0.20779432713E+04 0.  0.
        5    1    3    3  502    0 -0.27655115108E+03  0.75048066747E+03  0.16821567801E+04  0.18626259137E+04  0.46999998093E+01 0. -1.
       -5    1    3    3    0  502  0.27655115108E+03 -0.75048066747E+03 -0.17283316116E+02  0.80001410889E+03  0.46999998093E+01 0.  1.
</event>
<event>
 5   0  0.2767014E-06  0.3384429E+04  0.7818609E-02  0.8141739E-01
        2   -1    0    0  501    0  0.00000000000E+00  0.00000000000E+00  0.16566698205E+04  0.16566698205E+04  0.25500000920E-02 0. -1.
       -2   -1    0    0    0  501  0.00000000000E+00  0.00000000000E+00 -0.17285215233E+04  0.17285215233E+04  0.25500000920E-02 0.  1.
    10030    2    1    2    0    0  0.00000000000E+00  0.00000000000E+00 -0.71851702816E+02  0.33851913438E+04  0.33844287209E+04 0.  0.
        1    1    3    3  502    0 -0.39867075420E+03  0.17581672364E+02 -0.16807847656E+04  0.17275082963E+04  0.50400001928E-02 0.  1.
       -1    1    3    3    0  502  0.39867075420E+03 -0.17581672364E+02  0.16089330628E+04  0.16576830475E+04  0.50400001928E-02 0. -1.
</event>
<event>
 5   0  0.2856440E-06  0.3399272E+04  0.7818609E-02  0.8138085E-01
       -2   -1    0    0    0  501  0.00000000000E+00  0.00000000000E+00  0.15405856355E+04  0.15405856355E+04  0.25500000920E-02 0.  1.
        2   -1    0    0  501    0  0.00000000000E+00  0.00000000000E+00 -0.18751062627E+04  0.18751062627E+04  0.25500000920E-02 0. -1.
    10030    2    1    2    0    0  0.00000000000E+00  0.00000000000E+00 -0.33452062720E+03  0.34156918982E+04  0.33992715533E+04 0.  0.
        4    1    3    3  502    0  0.87936018392E+02 -0.15704526134E+04  0.47982715936E+03  0.16444725203E+04  0.12699999809E+01 0.  1.
       -4    1    3    3    0  502 -0.87936018392E+02  0.15704526134E+04 -0.81434778656E+03  0.17712193779E+04  0.12699999809E+01 0. -1.
</event>
<event>
 5   0  0.1010551E-06  0.3417820E+04  0.7818609E-02  0.8133547E-01
       -1   -1    0    0    0  501  0.00000000000E+00  0.00000000000E+00  0.99598424950E+03  0.99598424951E+03  0.50400001928E-02 0.  1.
        1   -1    0    0  501    0  0.00000000000E+00  0.00000000000E+00 -0.29321475217E+04  0.29321475217E+04  0.50400001928E-02 0. -1.
    10030    2    1    2    0    0  0.00000000000E+00  0.00000000000E+00 -0.19361632722E+04  0.39281317712E+04  0.34178196259E+04 0.  0.
        2    1    3    3  502    0  0.74731179209E+03 -0.14080080731E+04 -0.16760142577E+04  0.23130035539E+04  0.25500000920E-02 0. -1.
       -2    1    3    3    0  502 -0.74731179209E+03  0.14080080731E+04 -0.26014901451E+03  0.16151282173E+04  0.25500000920E-02 0.  1.
</event>
<event>
 5   0  0.1010551E-06  0.3146312E+04  0.7818609E-02  0.8203142E-01
       -1   -1    0    0    0  501  0.00000000000E+00  0.00000000000E+00  0.96731849415E+03  0.96731849416E+03  0.50400001928E-02 0.  1.
        1   -1    0    0  501    0  0.00000000000E+00  0.00000000000E+00 -0.25584324486E+04  0.25584324486E+04  0.50400001928E-02 0. -1.
    10030    2    1    2    0    0  0.00000000000E+00  0.00000000000E+00 -0.15911139544E+04  0.35257509428E+04  0.31463115062E+04 0.  0.
        2    1    3    3  502    0  0.10801278769E+04 -0.10513547080E+04 -0.13001946637E+04  0.19906102371E+04  0.25500000920E-02 0. -1.
       -2    1    3    3    0  502 -0.10801278769E+04  0.10513547080E+04 -0.29091929070E+03  0.15351407057E+04  0.25500000920E-02 0.  1.
</event>
<event>
 5   0  0.2906701E-06  0.3501636E+04  0.7818609E-02  0.8113402E-01
       -2   -1    0    0    0  501  0.00000000000E+00  0.00000000000E+00  0.12224458200E+04  0.12224458200E+04  0.25500000920E-02 0.  1.
        2   -1    0    0  501    0  0.00000000000E+00  0.00000000000E+00 -0.25075665183E+04  0.25075665183E+04  0.25500000920E-02 0. -1.
    10030    2    1    2    0    0  0.00000000000E+00  0.00000000000E+00 -0.12851206983E+04  0.37300123383E+04  0.35016363082E+04 0.  0.
        5    1    3    3  502    0  0.55617917914E+03 -0.10262077167E+04  0.74750233826E+03  0.13860805867E+04  0.46999998093E+01 0.  1.
       -5    1    3    3    0  502 -0.55617917914E+03  0.10262077167E+04 -0.20326230366E+04  0.23439317516E+04  0.46999998093E+01 0. -1.
</event>
<event>
 5   0  0.2848685E-06  0.3141774E+04  0.7818609E-02  0.8204366E-01
       -2   -1    0    0    0  501  0.00000000000E+00  0.00000000000E+00  0.14082239315E+04  0.14082239315E+04  0.25500000920E-02 0. -1.
        2   -1    0    0  501    0  0.00000000000E+00  0.00000000000E+00 -0.17523391669E+04  0.17523391669E+04  0.25500000920E-02 0.  1.
    10030    2    1    2    0    0  0.00000000000E+00  0.00000000000E+00 -0.34411523542E+03  0.31605630984E+04  0.31417739900E+04 0.  0.
        3    1    3    3  502    0  0.83319573555E+03  0.84922542523E+03  0.85988755660E+03  0.14679256033E+04  0.10100000352E+00 0. -1.
       -3    1    3    3    0  502 -0.83319573555E+03 -0.84922542523E+03 -0.12040027920E+04  0.16926374951E+04  0.10100000352E+00 0.  1.
</event>
<event>
 5   0  0.1010551E-06  0.3330452E+04  0.7818609E-02  0.8155190E-01
       -1   -1    0    0    0  501  0.00000000000E+00  0.00000000000E+00  0.17651773661E+04  0.17651773661E+04  0.50400001928E-02 0.  1.
        1   -1    0    0  501    0  0.00000000000E+00  0.00000000000E+00 -0.15709338373E+04  0.15709338373E+04  0.50400001928E-02 0. -1.
    10030    2    1    2    0    0  0.00000000000E+00  0.00000000000E+00  0.19424352877E+03  0.33361112034E+04  0.33304515329E+04 0.  0.
        2    1    3    3  502    0 -0.12710364639E+04  0.78355737600E+03  0.83558619793E+03  0.17110523511E+04  0.25500000920E-02 0. -1.
       -2    1    3    3    0  502  0.12710364639E+04 -0.78355737600E+03 -0.64134266916E+03  0.16250588523E+04  0.25500000920E-02 0.  1.
</event>
<event>
 5   0  0.2664083E-06  0.3249255E+04  0.7818609E-02  0.8175929E-01
       -2   -1    0    0    0  501  0.00000000000E+00  0.00000000000E+00  0.15126648325E+04  0.15126648325E+04  0.25500000920E-02 0.  1.
        2   -1    0    0  501    0  0.00000000000E+00  0.00000000000E+00 -0.17448778093E+04  0.17448778093E+04  0.25500000920E-02 0. -1.
    10030    2    1    2    0    0  0.00000000000E+00  0.00000000000E+00 -0.23221297682E+03  0.32575426419E+04  0.32492554835E+04 0.  0.
        2    1    3    3  502    0 -0.24381567635E+03 -0.13852917091E+04 -0.93115973981E+03  0.16868721542E+04  0.25500000920E-02 0. -1.
       -2    1    3    3    0  502  0.24381567635E+03  0.13852917091E+04  0.69894676299E+03  0.15706704877E+04  0.25500000920E-02 0.  1.
</event>
<event>
 5   0  0.9714317E-07  0.3459760E+04  0.7818609E-02  0.8123393E-01
       -1   -1    0    0    0  501  0.00000000000E+00  0.00000000000E+00  0.16298980832E+04  0.16298980832E+04  0.50400001928E-02 0.  1.
        1   -1    0    0  501    0  0.00000000000E+00  0.00000000000E+00 -0.18359955568E+04  0.18359955568E+04  0.50400001928E-02 0. -1.
    10030    2    1    2    0    0  0.00000000000E+00  0.00000000000E+00 -0.20609747354E+03  0.34658936400E+04  0.34597604766E+04 0.  0.
        4    1    3    3  502    0 -0.40960906687E+02  0.89058840986E+03 -0.15881268685E+04  0.18212561805E+04  0.12699999809E+01 0. -1.
       -4    1    3    3    0  502  0.40960906687E+02 -0.89058840986E+03  0.13820293950E+04  0.16446374595E+04  0.12699999809E+01 0.  1.
</event>
<event>
 5   0  0.9232963E-07  0.2878656E+04  0.7818609E-02  0.8279256E-01
        1   -1    0    0  501    0  0.00000000000E+00  0.00000000000E+00  0.18795806973E+04  0.18795806973E+04  0.50400001928E-02 0.  1.
       -1   -1    0    0    0  501  0.00000000000E+00  0.00000000000E+00 -0.11021955021E+04  0.11021955021E+04  0.50400001928E-02 0. -1.
    10030    2    1    2    0    0  0.00000000000E+00  0.00000000000E+00  0.77738519514E+03  0.29817761994E+04  0.28786562076E+04 0.  0.
        3    1    3    3  502    0  0.91673966482E+03 -0.64399646067E+03 -0.54729323432E+03  0.12468652489E+04  0.10100000352E+00 0. -1.
       -3    1    3    3    0  502 -0.91673966482E+03  0.64399646067E+03  0.13246784295E+04  0.17349109505E+04  0.10100000352E+00 0.  1.
</event>
<event>
 5   0  0.2767014E-06  0.3019853E+04  0.7818609E-02  0.8238084E-01
        2   -1    0    0  501    0  0.00000000000E+00  0.00000000000E+00  0.17228506019E+04  0.17228506019E+04  0.25500000920E-02 0. -1.
       -2   -1    0    0    0  501  0.00000000000E+00  0.00000000000E+00 -0.13233175145E+04  0.13233175145E+04  0.25500000920E-02 0.  1.
    10030    2    1    2    0    0  0.00000000000E+00  0.00000000000E+00  0.39953308743E+03  0.30461681164E+04  0.30198532258E+04 0.  0.
        1    1    3    3  502    0 -0.59592704585E+03 -0.37624885599E+03  0.15467627468E+04  0.16997550531E+04  0.50400001928E-02 0. -1.
       -1    1    3    3    0  502  0.59592704585E+03  0.37624885599E+03 -0.11472296594E+04  0.13464130633E+04  0.50400001928E-02 0.  1.
</event>
<event>
 5   0  0.1010551E-06  0.3438676E+04  0.7818609E-02  0.8128479E-01
       -1   -1    0    0    0  501  0.00000000000E+00  0.00000000000E+00  0.15125422599E+04  0.15125422599E+04  0.50400001928E-02 0. -1.
        1   -1    0    0  501    0  0.00000000000E+00  0.00000000000E+00 -0.19544067321E+04  0.19544067321E+04  0.50400001928E-02 0.  1.
    10030    2    1    2    0    0  0.00000000000E+00  0.00000000000E+00 -0.44186447216E+03  0.34669489920E+04  0.34386757773E+04 0.  0.
        2    1    3    3  502    0 -0.64092081757E+03  0.64150150321E+03 -0.16937025512E+04  0.19211798471E+04  0.25500000920E-02 0.  1.
       -2    1    3    3    0  502  0.64092081757E+03 -0.64150150321E+03  0.12518380791E+04  0.15457691449E+04  0.25500000920E-02 0. -1.
</event>
<event>
 5   0  0.2767014E-06  0.3358095E+04  0.7818609E-02  0.8148268E-01
       -2   -1    0    0    0  501  0.00000000000E+00  0.00000000000E+00  0.16533223753E+04  0.16533223753E+04  0.25500000920E-02 0. -1.
        2   -1    0    0  501    0  0.00000000000E+00  0.00000000000E+00 -0.17051728404E+04  0.17051728404E+04  0.25500000920E-02 0.  1.
    10030    2    1    2    0    0  0.00000000000E+00  0.00000000000E+00 -0.51850465089E+02  0.33584952156E+04  0.33580949425E+04 0.  0.
        1    1    3    3  502    0  0.13752821203E+04 -0.21280663709E+03 -0.96545875122E+03  0.16937526902E+04  0.50400001928E-02 0.  1.
       -1    1    3    3    0  502 -0.13752821203E+04  0.21280663709E+03  0.91360828613E+03  0.16647425254E+04  0.50400001928E-02 0. -1.
</event>
<event>
 5   0  0.2848685E-06  0.3391895E+04  0.7818609E-02  0.8139898E-01
        2   -1    0    0  501    0  0.00000000000E+00  0.00000000000E+00  0.20542468898E+04  0.20542468898E+04  0.25500000920E-02 0.  1.
       -2   -1    0    0    0  501  0.00000000000E+00  0.00000000000E+00 -0.14001424361E+04  0.14001424361E+04  0.25500000920E-02 0. -1.
    10030    2    1    2    0    0  0.00000000000E+00  0.00000000000E+00  0.65410445366E+03  0.34543893259E+04  0.33918951898E+04 0.  0.
        3    1    3    3  502    0  0.54411734827E+03 -0.14696777611E+04 -0.33313658624E+03  0.16021848849E+04  0.10100000352E+00 0. -1.
       -3    1    3    3    0  502 -0.54411734827E+03  0.14696777611E+04  0.98724103990E+03  0.18522044410E+04  0.10100000352E+00 0.  1.
</event>
<event>
 5   0  0.9232963E-07  0.3347425E+04  0.7818609E-02  0.8150932E-01
        1   -1    0    0  501    0  0.00000000000E+00  0.00000000000E+00  0.22436437594E+04  0.22436437594E+04  0.50400001928E-02 0.  1.
       -1   -1    0    0    0  501  0.00000000000E+00  0.00000000000E+00 -0.12485554763E+04  0.12485554763E+04  0.50400001928E-02 0. -1.
    10030    2    1    2    0    0  0.00000000000E+00  0.00000000000E+00  0.99508828312E+03  0.34921992358E+04  0.33474251016E+04 0.  0.
        3    1    3    3  502    0  0.52957307004E+03 -0.91755271391E+03  0.18493325458E+04  0.21312863474E+04  0.10100000352E+00 0.  1.
       -3    1    3    3    0  502 -0.52957307004E+03  0.91755271391E+03 -0.85424426267E+03  0.13609128884E+04  0.10100000352E+00 0. -1.
</event>
<event>
 5   0  0.1010855E-06  0.2731767E+04  0.7818609E-02  0.8324771E-01
       -1   -1    0    0    0  501  0.00000000000E+00  0.00000000000E+00  0.13586913182E+04  0.13586913182E+04  0.50400001928E-02 0.  1.
        1   -1    0    0  501    0  0.00000000000E+00  0.00000000000E+00 -0.13731137392E+04  0.13731137392E+04  0.50400001928E-02 0. -1.
    10030    2    1    2    0    0  0.00000000000E+00  0.00000000000E+00 -0.14422420986E+02  0.27318050574E+04  0.27317669859E+04 0.  0.
        1    1    3    3  502    0 -0.76992072689E+03  0.69158961154E+03  0.88418418266E+03  0.13611964536E+04  0.50400001928E-02 0.  1.
       -1    1    3    3    0  502  0.76992072689E+03 -0.69158961154E+03 -0.89860660365E+03  0.13706086037E+04  0.50400001928E-02 0. -1.
</event>
<event>
 5   0  0.2767014E-06  0.3376922E+04  0.7818609E-02  0.8143594E-01
       -2   -1    0    0    0  501  0.00000000000E+00  0.00000000000E+00  0.22047638811E+04  0.22047638811E+04  0.25500000920E-02 0. -1.
        2   -1    0    0  501    0  0.00000000000E+00  0.00000000000E+00 -0.12930637455E+04  0.12930637455E+04  0.25500000920E-02 0.  1.
    10030    2    1    2    0    0  0.00000000000E+00  0.00000000000E+00  0.91170013558E+03  0.34978276266E+04  0.33769218185E+04 0.  0.
        1    1    3    3  502    0  0.13709042151E+04  0.80070559508E+03 -0.13952745996E+03  0.15937301306E+04  0.50400001928E-02 0.  1.
       -1    1    3    3    0  502 -0.13709042151E+04 -0.80070559508E+03  0.10512275955E+04  0.19040974961E+04  0.50400001928E-02 0. -1.
</event>
<event>
 5   0  0.1010551E-06  0.3429750E+04  0.7818609E-02  0.8130643E-01
       -1   -1    0    0    0  501  0.00000000000E+00  0.00000000000E+00  0.12754622284E+04  0.12754622284E+04  0.50400001928E-02 0. -1.
        1   -1    0    0  501    0  0.00000000000E+00  0.00000000000E+00 -0.23056714347E+04  0.23056714347E+04  0.50400001928E-02 0.  1.
    10030    2    1    2    0    0  0.00000000000E+00  0.00000000000E+00 -0.10302092062E+04  0.35811336631E+04  0.34297503268E+04 0.  0.
        2    1    3    3  502    0  0.13032335243E+04 -0.62133054311E+03  0.45111976576E+03  0.15126064610E+04  0.25500000920E-02 0. -1.
       -2    1    3    3    0  502 -0.13032335243E+04  0.62133054311E+03 -0.14813289720E+04  0.20685272021E+04  0.25500000920E-02 0.  1.
</event>
<event>
 5   0  0.1010855E-06  0.3431901E+04  0.7818609E-02  0.8130121E-01
        1   -1    0    0  501    0  0.00000000000E+00  0.00000000000E+00  0.23934379087E+04  0.23934379087E+04  0.50400001928E-02 0. -1.
       -1   -1    0    0    0  501  0.00000000000E+00  0.00000000000E+00 -0.12302331646E+04  0.12302331646E+04  0.50400001928E-02 0.  1.
    10030    2    1    2    0    0  0.00000000000E+00  0.00000000000E+00  0.11632047440E+04  0.36236710733E+04  0.34319013347E+04 0.  0.
        1    1    3    3  502    0  0.94412543498E+03 -0.45978173817E+03  0.20145329225E+04  0.22718087463E+04  0.50400001928E-02 0. -1.
       -1    1    3    3    0  502 -0.94412543498E+03  0.45978173817E+03 -0.85132817848E+03  0.13518623270E+04  0.50400001928E-02 0.  1.
</event>
<event>
 5   0  0.2848685E-06  0.3404614E+04  0.7818609E-02  0.8136775E-01
        2   -1    0    0  501    0  0.00000000000E+00  0.00000000000E+00  0.32886492220E+04  0.32886492220E+04  0.25500000920E-02 0.  1.
       -2   -1    0    0    0  501  0.00000000000E+00  0.00000000000E+00 -0.88116708377E+03  0.88116708378E+03  0.25500000920E-02 0. -1.
    10030    2    1    2    0    0  0.00000000000E+00  0.00000000000E+00  0.24074821382E+04  0.41698163058E+04  0.34046141893E+04 0.  0.
        3    1    3    3  502    0  0.12711600789E+04  0.98926190987E+03  0.18783154864E+04  0.24743799524E+04  0.10100000352E+00 0.  1.
       -3    1    3    3    0  502 -0.12711600789E+04 -0.98926190987E+03  0.52916665184E+03  0.16954363533E+04  0.10100000352E+00 0. -1.
</event>
<event>
 5   0  0.9714317E-07  0.3312491E+04  0.7818609E-02  0.8159724E-01
       -1   -1    0    0    0  501  0.00000000000E+00  0.00000000000E+00  0.15335646619E+04  0.15335646619E+04  0.50400001928E-02 0. -1.
        1   -1    0    0  501    0  0.00000000000E+00  0.00000000000E+00 -0.17887401190E+04  0.17887401190E+04  0.50400001928E-02 0.  1.
    10030    2    1    2    0    0  0.00000000000E+00  0.00000000000E+00 -0.25517545710E+03  0.33223047808E+04  0.33124906857E+04 0.  0.
        4    1    3    3  502    0 -0.29178683220E+03 -0.16658999071E+03  0.14990234509E+04  0.15362176603E+04  0.12699999809E+01 0. -1.
       -4    1    3    3    0  502  0.29178683220E+03  0.16658999071E+03 -0.17541989080E+04  0.17860871206E+04  0.12699999809E+01 0.  1.
</event>
<event>
 5   0  0.1010855E-06  0.3312028E+04  0.7818609E-02  0.8159842E-01
       -1   -1    0    0    0  501  0.00000000000E+00  0.00000000000E+00  0.98643198747E+03  0.98643198749E+03  0.50400001928E-02 0. -1.
        1   -1    0    0  501    0  0.00000000000E+00  0.00000000000E+00 -0.27801022080E+04  0.27801022080E+04  0.50400001928E-02 0.  1.
    10030    2    1    2    0    0  0.00000000000E+00  0.00000000000E+00 -0.17936702205E+04  0.37665341955E+04  0.33120276246E+04 0.  0.
        1    1    3    3  502    0  0.73703699404E+03  0.11995407808E+04  0.94747889312E+02  0.14110629957E+04  0.50400001928E-02 0. -1.
       -1    1    3    3    0  502 -0.73703699404E+03 -0.11995407808E+04 -0.18884181099E+04  0.23554711998E+04  0.50400001928E-02 0.  1.
</event>
<event>
 5   0  0.1010855E-06  0.3412525E+04  0.7818609E-02  0.8134839E-01
        1   -1    0    0  501    0  0.00000000000E+00  0.00000000000E+00  0.20363954400E+04  0.20363954400E+04  0.50400001928E-02 0. -1.
       -1   -1    0    0    0  501  0.00000000000E+00  0.00000000000E+00 -0.14296492754E+04  0.14296492754E+04  0.50400001928E-02 0.  1.
    10030    2    1    2    0    0  0.00000000000E+00  0.00000000000E+00  0.60674616462E+03  0.34660447154E+04  0.34125247341E+04 0.  0.
        1    1    3    3  502    0 -0.11508717007E+04  0.85935034280E+03  0.12388735021E+04  0.18967857648E+04  0.50400001928E-02 0. -1.
       -1    1    3    3    0  502  0.11508717007E+04 -0.85935034280E+03 -0.63212733753E+03  0.15692589506E+04  0.50400001928E-02 0.  1.
</event>
<event>
 5   0  0.2664083E-06  0.3219790E+04  0.7818609E-02  0.8183610E-01
       -2   -1    0    0    0  501  0.00000000000E+00  0.00000000000E+00  0.18224969465E+04  0.18224969465E+04  0.25500000920E-02 0.  1.
        2   -1    0    0  501    0  0.00000000000E+00  0.00000000000E+00 -0.14220940005E+04  0.14220940005E+04  0.25500000920E-02 0. -1.
    10030    2    1    2    0    0  0.00000000000E+00  0.00000000000E+00  0.40040294593E+03  0.32445909470E+04  0.32197900388E+04 0.  0.
        2    1    3    3  502    0 -0.38358540375E+03 -0.11516616157E+04  0.12658439185E+04  0.17538024590E+04  0.25500000920E-02 0.  1.
       -2    1    3    3    0  502  0.38358540375E+03  0.11516616157E+04 -0.86544097260E+03  0.14907884880E+04  0.25500000920E-02 0. -1.
</event>
<event>
 5   0  0.2856440E-06  0.3781667E+04  0.7818609E-02  0.8050101E-01
        2   -1    0    0  501    0  0.00000000000E+00  0.00000000000E+00  0.21208673394E+04  0.21208673394E+04  0.25500000920E-02 0.  1.
       -2   -1    0    0    0  501  0.00000000000E+00  0.00000000000E+00 -0.16857498917E+04  0.16857498917E+04  0.25500000920E-02 0. -1.
    10030    2    1    2    0    0  0.00000000000E+00  0.00000000000E+00  0.43511744769E+03  0.38066172310E+04  0.37816672977E+04 0.  0.
        4    1    3    3  502    0 -0.18701931687E+04  0.10223480925E+03  0.47845171492E+03  0.19331301304E+04  0.12699999809E+01 0.  1.
       -4    1    3    3    0  502  0.18701931687E+04 -0.10223480925E+03 -0.43334267232E+02  0.18734871006E+04  0.12699999809E+01 0. -1.
</event>
<event>
 5   0  0.2848685E-06  0.3394813E+04  0.7818609E-02  0.8139180E-01
        2   -1    0    0  501    0  0.00000000000E+00  0.00000000000E+00  0.24324314424E+04  0.24324314424E+04  0.25500000920E-02 0. -1.
       -2   -1    0    0    0  501  0.00000000000E+00  0.00000000000E+00 -0.11844894023E+04  0.11844894023E+04  0.25500000920E-02 0.  1.
    10030    2    1    2    0    0  0.00000000000E+00  0.00000000000E+00  0.12479420401E+04  0.36169208447E+04  0.33948132587E+04 0.  0.
        3    1    3    3  502    0 -0.14443588376E+03 -0.14803146307E+03  0.24189567548E+04  0.24277822865E+04  0.10100000352E+00 0. -1.
       -3    1    3    3    0  502  0.14443588376E+03  0.14803146307E+03 -0.11710147147E+04  0.11891385583E+04  0.10100000352E+00 0.  1.
</event>
<event>
 5   0  0.9232963E-07  0.3392913E+04  0.7818609E-02  0.8139648E-01
        1   -1    0    0  501    0  0.00000000000E+00  0.00000000000E+00  0.18754606150E+04  0.18754606150E+04  0.50400001928E-02 0. -1.
       -1   -1    0    0    0  501  0.00000000000E+00  0.00000000000E+00 -0.15345371028E+04  0.15345371028E+04  0.50400001928E-02 0.  1.
    10030    2    1    2    0    0  0.00000000000E+00  0.00000000000E+00  0.34092351229E+03  0.34099977178E+04  0.33929125533E+04 0.  0.
        3    1    3    3  502    0  0.57855267345E+03 -0.30905327632E+03  0.17428612310E+04  0.18622036420E+04  0.10100000352E+00 0. -1.
       -3    1    3    3    0  502 -0.57855267345E+03  0.30905327632E+03 -0.14019377187E+04  0.15477940758E+04  0.10100000352E+00 0.  1.
</event>
<event>
 5   0  0.2906701E-06  0.3482071E+04  0.7818609E-02  0.8118052E-01
       -2   -1    0    0    0  501  0.00000000000E+00  0.00000000000E+00  0.16935271931E+04  0.16935271931E+04  0.25500000920E-02 0. -1.
        2   -1    0    0  501    0  0.00000000000E+00  0.00000000000E+00 -0.17898764276E+04  0.17898764277E+04  0.25500000920E-02 0.  1.
    10030    2    1    2    0    0  0.00000000000E+00  0.00000000000E+00 -0.96349234547E+02  0.34834036208E+04  0.34820708795E+04 0.  0.
        5    1    3    3  502    0  0.13039946332E+04  0.89080720021E+03  0.68507443505E+03  0.17214205015E+04  0.46999998093E+01 0. -1.
       -5    1    3    3    0  502 -0.13039946332E+04 -0.89080720021E+03 -0.78142366960E+03  0.17619831193E+04  0.46999998093E+01 0.  1.
</event>
<event>
 5   0  0.2664083E-06  0.3399653E+04  0.7818609E-02  0.8137992E-01
       -2   -1    0    0    0  501  0.00000000000E+00  0.00000000000E+00  0.20607352690E+04  0.20607352690E+04  0.25500000920E-02 0. -1.
        2   -1    0    0  501    0  0.00000000000E+00  0.00000000000E+00 -0.14021254103E+04  0.14021254103E+04  0.25500000920E-02 0.  1.
    10030    2    1    2    0    0  0.00000000000E+00  0.00000000000E+00  0.65860985867E+03  0.34628606793E+04  0.33996525026E+04 0.  0.
        2    1    3    3  502    0  0.68814668466E+03  0.15481708690E+04  0.18878941344E+03  0.17047053534E+04  0.25500000920E-02 0.  1.
       -2    1    3    3    0  502 -0.68814668466E+03 -0.15481708690E+04  0.46982044523E+03  0.17581553259E+04  0.25500000920E-02 0. -1.
</event>
<event>
 5   0  0.9232963E-07  0.3486788E+04  0.7818609E-02  0.8116928E-01
        1   -1    0    0  501    0  0.00000000000E+00  0.00000000000E+00  0.21187927339E+04  0.21187927340E+04  0.50400001928E-02 0. -1.
       -1   -1    0    0    0  501  0.00000000000E+00  0.00000000000E+00 -0.14345066821E+04  0.14345066821E+04  0.50400001928E-02 0.  1.
    10030    2    1    2    0    0  0.00000000000E+00  0.00000000000E+00  0.68428605184E+03  0.35532994161E+04  0.34867878254E+04 0.  0.
        3    1    3    3  502    0  0.72802055788E+03 -0.77167811560E+03  0.17519781265E+04  0.20481524388E+04  0.10100000352E+00 0. -1.
       -3    1    3    3    0  502 -0.72802055788E+03  0.77167811560E+03 -0.10676920746E+04  0.15051469773E+04  0.10100000352E+00 0.  1.
</event>
<event>
 5   0  0.2906701E-06  0.2968778E+04  0.7818609E-02  0.8252703E-01
        2   -1    0    0  501    0  0.00000000000E+00  0.00000000000E+00  0.10851027105E+04  0.10851027105E+04  0.25500000920E-02 0. -1.
       -2   -1    0    0    0  501  0.00000000000E+00  0.00000000000E+00 -0.20306012536E+04  0.20306012536E+04  0.25500000920E-02 0.  1.
    10030    2    1    2    0    0  0.00000000000E+00  0.00000000000E+00 -0.94549854310E+03  0.31157039642E+04  0.29687781489E+04 0.  0.
        5    1    3    3  502    0 -0.23718224693E+03  0.14637231784E+04 -0.40119994072E+03  0.15361394610E+04  0.46999998093E+01 0.  1.
       -5    1    3    3    0  502  0.23718224693E+03 -0.14637231784E+04 -0.54429860238E+03  0.15795645032E+04  0.46999998093E+01 0. -1.
</event>
<event>
 5   0  0.9070500E-07  0.3405094E+04  0.7818609E-02  0.8136657E-01
       -3   -1    0    0    0  501  0.00000000000E+00  0.00000000000E+00  0.26244373101E+04  0.26244373120E+04  0.10100000352E+00 0.  1.
        3   -1    0    0  501    0  0.00000000000E+00  0.00000000000E+00 -0.11044904636E+04  0.11044904683E+04  0.10100000352E+00 0. -1.
    10030    2    1    2    0    0  0.00000000000E+00  0.00000000000E+00  0.15199468464E+04  0.37289277803E+04  0.34050938276E+04 0.  0.
        5    1    3    3  502    0 -0.16724395210E+04 -0.31593001504E+03  0.80615220662E+03  0.18832868066E+04  0.46999998093E+01 0.  1.
       -5    1    3    3    0  502  0.16724395210E+04  0.31593001504E+03  0.71379463981E+03  0.18456409736E+04  0.46999998093E+01 0. -1.
</event>
<event>
 5   0  0.2906701E-06  0.3473498E+04  0.7818609E-02  0.8120100E-01
        2   -1    0    0  501    0  0.00000000000E+00  0.00000000000E+00  0.15850587502E+04  0.15850587502E+04  0.25500000920E-02 0. -1.
       -2   -1    0    0    0  501  0.00000000000E+00  0.00000000000E+00 -0.19029554882E+04  0.19029554882E+04  0.25500000920E-02 0.  1.
    10030    2    1    2    0    0  0.00000000000E+00  0.00000000000E+00 -0.31789673807E+03  0.34880142384E+04  0.34734975157E+04 0.  0.
        5    1    3    3  502    0  0.75951833731E+03  0.34579915227E+03  0.13705155742E+04  0.16046121611E+04  0.46999998093E+01 0. -1.
       -5    1    3    3    0  502 -0.75951833731E+03 -0.34579915227E+03 -0.16884123123E+04  0.18834020773E+04  0.46999998093E+01 0.  1.
</event>
<event>
 5   0  0.2767014E-06  0.3308524E+04  0.7818609E-02  0.8160730E-01
        2   -1    0    0  501    0  0.00000000000E+00  0.00000000000E+00  0.23740040089E+04  0.23740040089E+04  0.25500000920E-02 0.  1.
       -2   -1    0    0    0  501  0.00000000000E+00  0.00000000000E+00 -0.11527291007E+04  0.11527291007E+04  0.25500000920E-02 0. -1.
    10030    2    1    2    0    0  0.00000000000E+00  0.00000000000E+00  0.12212749082E+04  0.35267331096E+04  0.33085244483E+04 0.  0.
        1    1    3    3  502    0  0.67186236467E+03  0.15103343328E+04  0.67868063298E+03  0.17869292754E+04  0.50400001928E-02 0. -1.
       -1    1    3    3    0  502 -0.67186236467E+03 -0.15103343328E+04  0.54259427518E+03  0.17398038341E+04  0.50400001928E-02 0.  1.
</event>
<event>
 5   0  0.2856440E-06  0.3490320E+04  0.7818609E-02  0.8116088E-01
        2   -1    0    0  501    0  0.00000000000E+00  0.00000000000E+00  0.12888426381E+04  0.12888426381E+04  0.25500000920E-02 0. -1.
       -2   -1    0    0    0  501  0.00000000000E+00  0.00000000000E+00 -0.23630374568E+04  0.23630374568E+04  0.25500000920E-02 0.  1.
    10030    2    1    2    0    0  0.00000000000E+00  0.00000000000E+00 -0.10741948187E+04  0.36518800949E+04  0.34903200024E+04 0.  0.
        4    1    3    3  502    0 -0.52782197528E+03  0.90988163428E+03 -0.19940703969E+04  0.22545063731E+04  0.12699999809E+01 0.  1.
       -4    1    3    3    0  502  0.52782197528E+03 -0.90988163428E+03  0.91987557819E+03  0.13973737217E+04  0.12699999809E+01 0. -1.
</event>
<event>
 5   0  0.9232963E-07  0.3399290E+04  0.7818609E-02  0.8138080E-01
       -1   -1    0    0    0  501  0.00000000000E+00  0.00000000000E+00  0.98656342831E+03  0.98656342832E+03  0.50400001928E-02 0. -1.
        1   -1    0    0  501    0  0.00000000000E+00  0.00000000000E+00 -0.29281379404E+04  0.29281379405E+04  0.50400001928E-02 0.  1.
    10030    2    1    2    0    0  0.00000000000E+00  0.00000000000E+00 -0.19415745121E+04  0.39147013688E+04  0.33992903996E+04 0.  0.
        3    1    3    3  502    0  0.35332424264E+03  0.77238316070E+03 -0.26662096042E+04  0.27982293386E+04  0.10100000352E+00 0.  1.
       -3    1    3    3    0  502 -0.35332424264E+03 -0.77238316070E+03  0.72463509208E+03  0.11164720302E+04  0.10100000352E+00 0. -1.
</event>
<event>
 5   0  0.9714317E-07  0.2257481E+04  0.7818609E-02  0.8494877E-01
       -1   -1    0    0    0  501  0.00000000000E+00  0.00000000000E+00  0.51607084889E+03  0.51607084892E+03  0.50400001928E-02 0.  1.
        1   -1    0    0  501    0  0.00000000000E+00  0.00000000000E+00 -0.24687608951E+04  0.24687608951E+04  0.50400001928E-02 0. -1.
    10030    2    1    2    0    0  0.00000000000E+00  0.00000000000E+00 -0.19526900462E+04  0.29848317440E+04  0.22574813673E+04 0.  0.
        4    1    3    3  502    0  0.84788263601E+01  0.10905397499E+04 -0.59153142302E+03  0.12406691235E+04  0.12699999809E+01 0.  1.
       -4    1    3    3    0  502 -0.84788263601E+01 -0.10905397499E+04 -0.13611586232E+04  0.17441626206E+04  0.12699999809E+01 0. -1.
</event>
<event>
 5   0  0.2767014E-06  0.3351100E+04  0.7818609E-02  0.8150013E-01
       -2   -1    0    0    0  501  0.00000000000E+00  0.00000000000E+00  0.14180037196E+04  0.14180037196E+04  0.25500000920E-02 0.  1.
        2   -1    0    0  501    0  0.00000000000E+00  0.00000000000E+00 -0.19798737198E+04  0.19798737198E+04  0.25500000920E-02 0. -1.
    10030    2    1    2    0    0  0.00000000000E+00  0.00000000000E+00 -0.56187000017E+03  0.33978774393E+04  0.33511002963E+04 0.  0.
        1    1    3    3  502    0  0.67156751652E+03  0.87778654623E+03 -0.15578614157E+04  0.19100901394E+04  0.50400001928E-02 0. -1.
       -1    1    3    3    0  502 -0.67156751652E+03 -0.87778654623E+03  0.99599141555E+03  0.14877872999E+04  0.50400001928E-02 0.  1.
</event>
<event>
 5   0  0.1010855E-06  0.3311860E+04  0.7818609E-02  0.8159884E-01
       -1   -1    0    0    0  501  0.00000000000E+00  0.00000000000E+00  0.17161223657E+04  0.17161223657E+04  0.50400001928E-02 0.  1.
        1   -1    0    0  501    0  0.00000000000E+00  0.00000000000E+00 -0.15978491059E+04  0.15978491059E+04  0.50400001928E-02 0. -1.
    10030    2    1    2    0    0  0.00000000000E+00  0.00000000000E+00  0.11827325981E+03  0.33139714715E+04  0.33118602552E+04 0.  0.
        1    1    3    3  502    0 -0.52286569290E+03 -0.11484707861E+03  0.16271474260E+04  0.17129469140E+04  0.50400001928E-02 0.  1.
       -1    1    3    3    0  502  0.52286569290E+03  0.11484707861E+03 -0.15088741662E+04  0.16010245575E+04  0.50400001928E-02 0. -1.
</event>
<event>
 5   0  0.2856440E-06  0.3379178E+04  0.7818609E-02  0.8143036E-01
       -2   -1    0    0    0  501  0.00000000000E+00  0.00000000000E+00  0.11305079383E+04  0.11305079383E+04  0.25500000920E-02 0.  1.
        2   -1    0    0  501    0  0.00000000000E+00  0.00000000000E+00 -0.25251585397E+04  0.25251585397E+04  0.25500000920E-02 0. -1.
    10030    2    1    2    0    0  0.00000000000E+00  0.00000000000E+00 -0.13946506015E+04  0.36556664780E+04  0.33791784650E+04 0.  0.
        4    1    3    3  502    0  0.18544359714E+03 -0.85807648980E+03  0.86440831811E+03  0.12320259508E+04  0.12699999809E+01 0.  1.
       -4    1    3    3    0  502 -0.18544359714E+03  0.85807648980E+03 -0.22590589196E+04  0.24236405272E+04  0.12699999809E+01 0. -1.
</event>
<event>
 5   0  0.2906701E-06  0.2167426E+04  0.7818609E-02  0.8532110E-01
       -2   -1    0    0    0  501  0.00000000000E+00  0.00000000000E+00  0.46007636676E+03  0.46007636677E+03  0.25500000920E-02 0. -1.
        2   -1    0    0  501    0  0.00000000000E+00  0.00000000000E+00 -0.25526934580E+04  0.25526934580E+04  0.25500000920E-02 0.  1.
    10030    2    1    2    0    0  0.00000000000E+00  0.00000000000E+00 -0.20926170913E+04  0.30127698248E+04  0.21674260602E+04 0.  0.
        5    1    3    3  502    0  0.42753937836E+03 -0.98863920089E+03 -0.88058404323E+03  0.13912755790E+04  0.46999998093E+01 0.  1.
       -5    1    3    3    0  502 -0.42753937836E+03  0.98863920089E+03 -0.12120330481E+04  0.16214942458E+04  0.46999998093E+01 0. -1.
</event>
<event>
 5   0  0.2906701E-06  0.3366983E+04  0.7818609E-02  0.8146058E-01
        2   -1    0    0  501    0  0.00000000000E+00  0.00000000000E+00  0.19781096849E+04  0.19781096849E+04  0.25500000920E-02 0.  1.
       -2   -1    0    0    0  501  0.00000000000E+00  0.00000000000E+00 -0.14327536497E+04  0.14327536497E+04  0.25500000920E-02 0. -1.
    10030    2    1    2    0    0  0.00000000000E+00  0.00000000000E+00  0.54535603518E+03  0.34108633346E+04  0.33669831425E+04 0.  0.
        5    1    3    3  502    0  0.10586527414E+04  0.16501118555E+03  0.15881183489E+04  0.19157547595E+04  0.46999998093E+01 0.  1.
       -5    1    3    3    0  502 -0.10586527414E+04 -0.16501118555E+03 -0.10427623137E+04  0.14951085751E+04  0.46999998093E+01 0. -1.
</event>
<event>
 5   0  0.9714317E-07  0.3374651E+04  0.7818609E-02  0.8144156E-01
       -1   -1    0    0    0  501  0.00000000000E+00  0.00000000000E+00  0.23498306176E+04  0.23498306176E+04  0.50400001928E-02 0. -1.
        1   -1    0    0  501    0  0.00000000000E+00  0.00000000000E+00 -0.12116054560E+04  0.12116054560E+04  0.50400001928E-02 0.  1.
    10030    2    1    2    0    0  0.00000000000E+00  0.00000000000E+00  0.11382251616E+04  0.35614360736E+04  0.33746511506E+04 0.  0.
        4    1    3    3  502    0 -0.89814250456E+03  0.10627643316E+04 -0.43814530976E+03  0.14588011888E+04  0.12699999809E+01 0.  1.
       -4    1    3    3    0  502  0.89814250456E+03 -0.10627643316E+04  0.15763704714E+04  0.21026348848E+04  0.12699999809E+01 0. -1.
</event>
<event>
 5   0  0.9714317E-07  0.3423623E+04  0.7818609E-02  0.8132133E-01
       -1   -1    0    0    0  501  0.00000000000E+00  0.00000000000E+00  0.22969120961E+04  0.22969120961E+04  0.50400001928E-02 0.  1.
        1   -1    0    0  501    0  0.00000000000E+00  0.00000000000E+00 -0.12757557179E+04  0.12757557180E+04  0.50400001928E-02 0. -1.
    10030    2    1    2    0    0  0.00000000000E+00  0.00000000000E+00  0.10211563781E+04  0.35726678140E+04  0.34236230752E+04 0.  0.
        4    1    3    3  502    0  0.35982175722E+03 -0.16606151060E+04  0.29372660647E+03  0.17243523884E+04  0.12699999809E+01 0. -1.
       -4    1    3    3    0  502 -0.35982175722E+03  0.16606151060E+04  0.72742977167E+03  0.18483154256E+04  0.12699999809E+01 0.  1.
</event>
<event>
 5   0  0.1010855E-06  0.3431585E+04  0.7818609E-02  0.8130197E-01
       -1   -1    0    0    0  501  0.00000000000E+00  0.00000000000E+00  0.17494226239E+04  0.17494226239E+04  0.50400001928E-02 0. -1.
        1   -1    0    0  501    0  0.00000000000E+00  0.00000000000E+00 -0.16828092798E+04  0.16828092798E+04  0.50400001928E-02 0.  1.
    10030    2    1    2    0    0  0.00000000000E+00  0.00000000000E+00  0.66613344034E+02  0.34322319037E+04  0.34315854212E+04 0.  0.
        1    1    3    3  502    0  0.18907519903E+03 -0.13225146857E+04 -0.10435344912E+04  0.16952164343E+04  0.50400001928E-02 0.  1.
       -1    1    3    3    0  502 -0.18907519903E+03  0.13225146857E+04  0.11101478352E+04  0.17370154694E+04  0.50400001928E-02 0. -1.
</event>
<event>
 5   0  0.2906701E-06  0.2951553E+04  0.7818609E-02  0.8257702E-01
        2   -1    0    0  501    0  0.00000000000E+00  0.00000000000E+00  0.18796173447E+04  0.18796173447E+04  0.25500000920E-02 0. -1.
       -2   -1    0    0    0  501  0.00000000000E+00  0.00000000000E+00 -0.11587022742E+04  0.11587022742E+04  0.25500000920E-02 0.  1.
    10030    2    1    2    0    0  0.00000000000E+00  0.00000000000E+00  0.72091507050E+03  0.30383196190E+04  0.29515534161E+04 0.  0.
        5    1    3    3  502    0 -0.71611578921E+03  0.78909823594E+03 -0.69053438464E+03  0.12697864686E+04  0.46999998093E+01 0.  1.
       -5    1    3    3    0  502  0.71611578921E+03 -0.78909823594E+03  0.14114494551E+04  0.17685331504E+04  0.46999998093E+01 0. -1.
</event>
<event>
 5   0  0.2856440E-06  0.3341006E+04  0.7818609E-02  0.8152539E-01
        2   -1    0    0  501    0  0.00000000000E+00  0.00000000000E+00  0.21316528758E+04  0.21316528758E+04  0.25500000920E-02 0.  1.
       -2   -1    0    0    0  501  0.00000000000E+00  0.00000000000E+00 -0.13091155381E+04  0.13091155381E+04  0.25500000920E-02 0. -1.
    10030    2    1    2    0    0  0.00000000000E+00  0.00000000000E+00  0.82253733767E+03  0.34407684139E+04  0.33410057777E+04 0.  0.
        4    1    3    3  502    0  0.11349182109E+03 -0.28677617806E+03  0.21020772598E+04  0.21245826387E+04  0.12699999809E+01 0.  1.
       -4    1    3    3    0  502 -0.11349182109E+03  0.28677617806E+03 -0.12795399221E+04  0.13161857752E+04  0.12699999809E+01 0. -1.
</event>
<event>
 5   0  0.2767014E-06  0.3376332E+04  0.7818609E-02  0.8143740E-01
        2   -1    0    0  501    0  0.00000000000E+00  0.00000000000E+00  0.16917231930E+04  0.16917231930E+04  0.25500000920E-02 0.  1.
       -2   -1    0    0    0  501  0.00000000000E+00  0.00000000000E+00 -0.16846165775E+04  0.16846165775E+04  0.25500000920E-02 0. -1.
    10030    2    1    2    0    0  0.00000000000E+00  0.00000000000E+00  0.71066154874E+01  0.33763397704E+04  0.33763322913E+04 0.  0.
        1    1    3    3  502    0  0.12005531248E+04 -0.70545554975E+03  0.95797126271E+03  0.16901787711E+04  0.50400001928E-02 0.  1.
       -1    1    3    3    0  502 -0.12005531248E+04  0.70545554975E+03 -0.95086464722E+03  0.16861609993E+04  0.50400001928E-02 0. -1.
</event>
<event>
 5   0  0.2767014E-06  0.3371736E+04  0.7818609E-02  0.8144878E-01
        2   -1    0    0  501    0  0.00000000000E+00  0.00000000000E+00  0.14999198599E+04  0.14999198599E+04  0.25500000920E-02 0.  1.
       -2   -1    0    0    0  501  0.00000000000E+00  0.00000000000E+00 -0.18948686440E+04  0.18948686440E+04  0.25500000920E-02 0. -1.
    10030    2    1    2    0    0  0.00000000000E+00  0.00000000000E+00 -0.39494878407E+03  0.33947885039E+04  0.33717361172E+04 0.  0.
        1    1    3    3  502    0 -0.11671398911E+04 -0.47161552264E+03  0.93158197855E+03  0.15660401366E+04  0.50400001928E-02 0.  1.
       -1    1    3    3    0  502  0.11671398911E+04  0.47161552264E+03 -0.13265307626E+04  0.18287483673E+04  0.50400001928E-02 0. -1.
</event>
<event>
 5   0  0.1010551E-06  0.3418463E+04  0.7818609E-02  0.8133390E-01
        1   -1    0    0  501    0  0.00000000000E+00  0.00000000000E+00  0.11181593313E+04  0.11181593313E+04  0.50400001928E-02 0.  1.
       -1   -1    0    0    0  501  0.00000000000E+00  0.00000000000E+00 -0.26127513235E+04  0.26127513235E+04  0.50400001928E-02 0. -1.
    10030    2    1    2    0    0  0.00000000000E+00  0.00000000000E+00 -0.14945919922E+04  0.37309106547E+04  0.34184629720E+04 0.  0.
        2    1    3    3  502    0  0.16057918244E+04 -0.33859923452E+03 -0.12687242318E+04  0.20743379669E+04  0.25500000920E-02 0. -1.
       -2    1    3    3    0  502 -0.16057918244E+04  0.33859923452E+03 -0.22586776043E+03  0.16565726878E+04  0.25500000920E-02 0.  1.
</event>
<event>
 5   0  0.1003191E-06  0.3324312E+04  0.7818609E-02  0.8156737E-01
        1   -1    0    0  501    0  0.00000000000E+00  0.00000000000E+00  0.96765065725E+03  0.96765065727E+03  0.50400001928E-02 0. -1.
       -1   -1    0    0    0  501  0.00000000000E+00  0.00000000000E+00 -0.28551232523E+04  0.28551232523E+04  0.50400001928E-02 0.  1.
    10030    2    1    2    0    0  0.00000000000E+00  0.00000000000E+00 -0.18874725950E+04  0.38227739095E+04  0.33243115929E+04 0.  0.
        5    1    3    3  502    0 -0.15833956829E+04 -0.50552078836E+03 -0.93588247041E+03  0.19075091729E+04  0.46999998093E+01 0. -1.
       -5    1    3    3    0  502  0.15833956829E+04  0.50552078836E+03 -0.95159012462E+03  0.19152647367E+04  0.46999998093E+01 0.  1.
</event>
<event>
 5   0  0.2906701E-06  0.2250123E+04  0.7818609E-02  0.8497851E-01
       -2   -1    0    0    0  501  0.00000000000E+00  0.00000000000E+00  0.80314707589E+03  0.80314707589E+03  0.25500000920E-02 0.  1.
        2   -1    0    0  501    0  0.00000000000E+00  0.00000000000E+00 -0.15760039719E+04  0.15760039719E+04  0.25500000920E-02 0. -1.
    10030    2    1    2    0    0  0.00000000000E+00  0.00000000000E+00 -0.77285689597E+03  0.23791510477E+04  0.22501226470E+04 0.  0.
        5    1    3    3  502    0 -0.30003651580E+03 -0.72093567579E+03  0.46993486965E+03  0.91138961545E+03  0.46999998093E+01 0.  1.
       -5    1    3    3    0  502  0.30003651580E+03  0.72093567579E+03 -0.12427917656E+04  0.14677614323E+04  0.46999998093E+01 0. -1.
</event>
<event>
 5   0  0.9714317E-07  0.3350105E+04  0.7818609E-02  0.8150262E-01
       -1   -1    0    0    0  501  0.00000000000E+00  0.00000000000E+00  0.14199745335E+04  0.14199745335E+04  0.50400001928E-02 0.  1.
        1   -1    0    0  501    0  0.00000000000E+00  0.00000000000E+00 -0.19759518382E+04  0.19759518382E+04  0.50400001928E-02 0. -1.
    10030    2    1    2    0    0  0.00000000000E+00  0.00000000000E+00 -0.55597730476E+03  0.33959263717E+04  0.33501052459E+04 0.  0.
        4    1    3    3  502    0  0.15774054398E+04  0.29218303049E+02 -0.84848114177E+03  0.17913635844E+04  0.12699999809E+01 0.  1.
       -4    1    3    3    0  502 -0.15774054398E+04 -0.29218303049E+02  0.29250383701E+03  0.16045627873E+04  0.12699999809E+01 0. -1.
</event>
<event>
 5   0  0.2664083E-06  0.3393551E+04  0.7818609E-02  0.8139491E-01
       -2   -1    0    0    0  501  0.00000000000E+00  0.00000000000E+00  0.10901260363E+04  0.10901260364E+04  0.25500000920E-02 0.  1.
        2   -1    0    0  501    0  0.00000000000E+00  0.00000000000E+00 -0.26410221399E+04  0.26410221399E+04  0.25500000920E-02 0. -1.
    10030    2    1    2    0    0  0.00000000000E+00  0.00000000000E+00 -0.15508961036E+04  0.37311481763E+04  0.33935509410E+04 0.  0.
        2    1    3    3  502    0  0.13843825857E+04  0.91992909410E+03 -0.11503412907E+04  0.20214029205E+04  0.25500000920E-02 0. -1.
       -2    1    3    3    0  502 -0.13843825857E+04 -0.91992909410E+03 -0.40055481289E+03  0.17097452558E+04  0.25500000920E-02 0.  1.
</event>
<event>
 5   0  0.1010855E-06  0.3403282E+04  0.7818609E-02  0.8137101E-01
       -1   -1    0    0    0  501  0.00000000000E+00  0.00000000000E+00  0.16826914358E+04  0.16826914358E+04  0.50400001928E-02 0.  1.
        1   -1    0    0  501    0  0.00000000000E+00  0.00000000000E+00 -0.17208038295E+04  0.17208038295E+04  0.50400001928E-02 0. -1.
    10030    2    1    2    0    0  0.00000000000E+00  0.00000000000E+00 -0.38112393722E+02  0.34034952653E+04  0.34032818670E+04 0.  0.
        1    1    3    3  502    0  0.82166872074E+03  0.59281238842E+03  0.13481490722E+04  0.16864376464E+04  0.50400001928E-02 0.  1.
       -1    1    3    3    0  502 -0.82166872074E+03 -0.59281238842E+03 -0.13862614659E+04  0.17170576188E+04  0.50400001928E-02 0. -1.
</event>
<event>
 5   0  0.2848685E-06  0.3389032E+04  0.7818609E-02  0.8140603E-01
        2   -1    0    0  501    0  0.00000000000E+00  0.00000000000E+00  0.18969287087E+04  0.18969287087E+04  0.25500000920E-02 0. -1.
       -2   -1    0    0    0  501  0.00000000000E+00  0.00000000000E+00 -0.15137018115E+04  0.15137018115E+04  0.25500000920E-02 0.  1.
    10030    2    1    2    0    0  0.00000000000E+00  0.00000000000E+00  0.38322689720E+03  0.34106305202E+04  0.33890319695E+04 0.  0.
        3    1    3    3  502    0  0.71371869207E+03 -0.93525543699E+03  0.14189295854E+04  0.18432195427E+04  0.10100000352E+00 0. -1.
       -3    1    3    3    0  502 -0.71371869207E+03  0.93525543699E+03 -0.10357026882E+04  0.15674109775E+04  0.10100000352E+00 0.  1.
</event>
<event>
 5   0  0.2906701E-06  0.3445829E+04  0.7818609E-02  0.8126749E-01
        2   -1    0    0  501    0  0.00000000000E+00  0.00000000000E+00  0.18836573848E+04  0.18836573848E+04  0.25500000920E-02 0. -1.
       -2   -1    0    0    0  501  0.00000000000E+00  0.00000000000E+00 -0.15758890000E+04  0.15758890000E+04  0.25500000920E-02 0.  1.
    10030    2    1    2    0    0  0.00000000000E+00  0.00000000000E+00  0.30776838477E+03  0.34595463848E+04  0.34458293356E+04 0.  0.
        5    1    3    3  502    0 -0.10197542832E+04 -0.90998294384E+02 -0.12373569130E+04  0.16060055130E+04  0.46999998093E+01 0.  1.
       -5    1    3    3    0  502  0.10197542832E+04  0.90998294384E+02  0.15451252977E+04  0.18535408718E+04  0.46999998093E+01 0. -1.
</event>
<event>
 5   0  0.1010855E-06  0.3260817E+04  0.7818609E-02  0.8172938E-01
        1   -1    0    0  501    0  0.00000000000E+00  0.00000000000E+00  0.19678735818E+04  0.19678735818E+04  0.50400001928E-02 0.  1.
       -1   -1    0    0    0  501  0.00000000000E+00  0.00000000000E+00 -0.13508143047E+04  0.13508143047E+04  0.50400001928E-02 0. -1.
    10030    2    1    2    0    0  0.00000000000E+00  0.00000000000E+00  0.61705927710E+03  0.33186878866E+04  0.32608169432E+04 0.  0.
        1    1    3    3  502    0 -0.13453530492E+04 -0.13366787480E+03 -0.61890008137E+03  0.14869025652E+04  0.50400001928E-02 0. -1.
       -1    1    3    3    0  502  0.13453530492E+04  0.13366787480E+03  0.12359593585E+04  0.18317853213E+04  0.50400001928E-02 0.  1.
</event>
<event>
 5   0  0.9714317E-07  0.3283290E+04  0.7818609E-02  0.8167160E-01
       -1   -1    0    0    0  501  0.00000000000E+00  0.00000000000E+00  0.12620020010E+04  0.12620020010E+04  0.50400001928E-02 0. -1.
        1   -1    0    0  501    0  0.00000000000E+00  0.00000000000E+00 -0.21354943742E+04  0.21354943742E+04  0.50400001928E-02 0.  1.
    10030    2    1    2    0    0  0.00000000000E+00  0.00000000000E+00 -0.87349237321E+03  0.33974963752E+04  0.32832899192E+04 0.  0.
        4    1    3    3  502    0 -0.10800215967E+04 -0.88422636697E+03 -0.13309180415E+04  0.19286387333E+04  0.12699999809E+01 0.  1.
       -4    1    3    3    0  502  0.10800215967E+04  0.88422636697E+03  0.45742566827E+03  0.14688576419E+04  0.12699999809E+01 0. -1.
</event>
<event>
 5   0  0.9070500E-07  0.3407207E+04  0.7818609E-02  0.8136140E-01
        3   -1    0    0  501    0  0.00000000000E+00  0.00000000000E+00  0.17619318828E+04  0.17619318857E+04  0.10100000352E+00 0.  1.
       -3   -1    0    0    0  501  0.00000000000E+00  0.00000000000E+00 -0.16472056296E+04  0.16472056327E+04  0.10100000352E+00 0. -1.
    10030    2    1    2    0    0  0.00000000000E+00  0.00000000000E+00  0.11472625320E+03  0.34091375183E+04  0.34072065546E+04 0.  0.
        3    1    3    3  502    0 -0.10585989699E+04 -0.56750213915E+03 -0.11514497184E+04  0.16638890952E+04  0.10100000352E+00 0. -1.
       -3    1    3    3    0  502  0.10585989699E+04  0.56750213915E+03  0.12661759716E+04  0.17452484231E+04  0.10100000352E+00 0.  1.
</event>
<event>
 5   0  0.1003191E-06  0.3434249E+04  0.7818609E-02  0.8129551E-01
       -1   -1    0    0    0  501  0.00000000000E+00  0.00000000000E+00  0.12306363271E+04  0.12306363271E+04  0.50400001928E-02 0. -1.
        1   -1    0    0  501    0  0.00000000000E+00  0.00000000000E+00 -0.23959283560E+04  0.23959283560E+04  0.50400001928E-02 0.  1.
    10030    2    1    2    0    0  0.00000000000E+00  0.00000000000E+00 -0.11652920289E+04  0.36265646831E+04  0.34342489554E+04 0.  0.
        5    1    3    3  502    0 -0.74638447371E+02 -0.83773426477E+03  0.99822585822E+03  0.13053147322E+04  0.46999998093E+01 0. -1.
       -5    1    3    3    0  502  0.74638447371E+02  0.83773426477E+03 -0.21635178871E+04  0.23212499508E+04  0.46999998093E+01 0.  1.
</event>
<event>
 5   0  0.2906701E-06  0.3234225E+04  0.7818609E-02  0.8179836E-01
        2   -1    0    0  501    0  0.00000000000E+00  0.00000000000E+00  0.20481677746E+04  0.20481677746E+04  0.25500000920E-02 0. -1.
       -2   -1    0    0    0  501  0.00000000000E+00  0.00000000000E+00 -0.12767769800E+04  0.12767769800E+04  0.25500000920E-02 0.  1.
    10030    2    1    2    0    0  0.00000000000E+00  0.00000000000E+00  0.77139079458E+03  0.33249447546E+04  0.32342253884E+04 0.  0.
        5    1    3    3  502    0 -0.72488753754E+01 -0.15658939904E+04  0.80069509867E+03  0.17587527588E+04  0.46999998093E+01 0. -1.
       -5    1    3    3    0  502  0.72488753754E+01  0.15658939904E+04 -0.29304304090E+02  0.15661919958E+04  0.46999998093E+01 0.  1.
</event>
<event>
 5   0  0.2906701E-06  0.3441111E+04  0.7818609E-02  0.8127889E-01
       -2   -1    0    0    0  501  0.00000000000E+00  0.00000000000E+00  0.14903604130E+04  0.14903604130E+04  0.25500000920E-02 0. -1.
        2   -1    0    0  501    0  0.00000000000E+00  0.00000000000E+00 -0.19863058949E+04  0.19863058949E+04  0.25500000920E-02 0.  1.
    10030    2    1    2    0    0  0.00000000000E+00  0.00000000000E+00 -0.49594548187E+03  0.34766663079E+04  0.34411112588E+04 0.  0.
        5    1    3    3  502    0  0.76895428036E+03  0.15342846278E+04 -0.37158714924E+03  0.17559667149E+04  0.46999998093E+01 0. -1.
       -5    1    3    3    0  502 -0.76895428036E+03 -0.15342846278E+04 -0.12435833264E+03  0.17206995930E+04  0.46999998093E+01 0.  1.
</event>
<event>
 5   0  0.2848685E-06  0.3349866E+04  0.7818609E-02  0.8150322E-01
       -2   -1    0    0    0  501  0.00000000000E+00  0.00000000000E+00  0.13931559140E+04  0.13931559140E+04  0.25500000920E-02 0.  1.
        2   -1    0    0  501    0  0.00000000000E+00  0.00000000000E+00 -0.20137013842E+04  0.20137013842E+04  0.25500000920E-02 0. -1.
    10030    2    1    2    0    0  0.00000000000E+00  0.00000000000E+00 -0.62054547016E+03  0.34068572981E+04  0.33498656644E+04 0.  0.
        3    1    3    3  502    0 -0.15004724813E+04 -0.34009849793E+03 -0.98359020051E+03  0.18260707402E+04  0.10100000352E+00 0. -1.
       -3    1    3    3    0  502  0.15004724813E+04  0.34009849793E+03  0.36304473035E+03  0.15807865580E+04  0.10100000352E+00 0.  1.
</event>
<event>
 5   0  0.2906701E-06  0.3426498E+04  0.7818609E-02  0.8131433E-01
       -2   -1    0    0    0  501  0.00000000000E+00  0.00000000000E+00  0.16692427637E+04  0.16692427637E+04  0.25500000920E-02 0.  1.
        2   -1    0    0  501    0  0.00000000000E+00  0.00000000000E+00 -0.17584150185E+04  0.17584150185E+04  0.25500000920E-02 0. -1.
    10030    2    1    2    0    0  0.00000000000E+00  0.00000000000E+00 -0.89172254836E+02  0.34276577822E+04  0.34264976551E+04 0.  0.
        5    1    3    3  502    0 -0.14495975673E+04 -0.23654785592E+03  0.83770538453E+03  0.16908756301E+04  0.46999998093E+01 0.  1.
       -5    1    3    3    0  502  0.14495975673E+04  0.23654785592E+03 -0.92687763937E+03  0.17367821520E+04  0.46999998093E+01 0. -1.
</event>
<event>
 5   0  0.1010551E-06  0.3403705E+04  0.7818609E-02  0.8136998E-01
        1   -1    0    0  501    0  0.00000000000E+00  0.00000000000E+00  0.15291710843E+04  0.15291710844E+04  0.50400001928E-02 0.  1.
       -1   -1    0    0    0  501  0.00000000000E+00  0.00000000000E+00 -0.18940336659E+04  0.18940336659E+04  0.50400001928E-02 0. -1.
    10030    2    1    2    0    0  0.00000000000E+00  0.00000000000E+00 -0.36486258157E+03  0.34232047503E+04  0.34037047550E+04 0.  0.
        2    1    3    3  502    0 -0.90219979323E+03 -0.81945170030E+03 -0.13770223359E+04  0.18389279675E+04  0.25500000920E-02 0. -1.
       -2    1    3    3    0  502  0.90219979323E+03  0.81945170030E+03  0.10121597544E+04  0.15842767828E+04  0.25500000920E-02 0.  1.
</event>
<event>
 5   0  0.2848685E-06  0.3411748E+04  0.7818609E-02  0.8135029E-01
       -2   -1    0    0    0  501  0.00000000000E+00  0.00000000000E+00  0.11192705956E+04  0.11192705957E+04  0.25500000920E-02 0. -1.
        2   -1    0    0  501    0  0.00000000000E+00  0.00000000000E+00 -0.25999121899E+04  0.25999121899E+04  0.25500000920E-02 0.  1.
    10030    2    1    2    0    0  0.00000000000E+00  0.00000000000E+00 -0.14806415942E+04  0.37191827855E+04  0.34117475085E+04 0.  0.
        3    1    3    3  502    0  0.12666698961E+03 -0.15160946677E+04 -0.15814864012E+04  0.21944673193E+04  0.10100000352E+00 0.  1.
       -3    1    3    3    0  502 -0.12666698961E+03  0.15160946677E+04  0.10084480700E+03  0.15247154663E+04  0.10100000352E+00 0. -1.
</event>
<event>
 5   0  0.2664083E-06  0.3435195E+04  0.7818609E-02  0.8129322E-01
       -2   -1    0    0    0  501  0.00000000000E+00  0.00000000000E+00  0.23750467537E+04  0.23750467537E+04  0.25500000920E-02 0. -1.
        2   -1    0    0  501    0  0.00000000000E+00  0.00000000000E+00 -0.12421404252E+04  0.12421404252E+04  0.25500000920E-02 0.  1.
    10030    2    1    2    0    0  0.00000000000E+00  0.00000000000E+00  0.11329063285E+04  0.36171871789E+04  0.34351952402E+04 0.  0.
        2    1    3    3  502    0 -0.20602738995E+03  0.31715879363E+03 -0.11977510507E+04  0.12560432179E+04  0.25500000920E-02 0.  1.
       -2    1    3    3    0  502  0.20602738995E+03 -0.31715879363E+03  0.23306573792E+04  0.23611439610E+04  0.25500000920E-02 0. -1.
</event>
<event>
 5   0  0.2848685E-06  0.3383893E+04  0.7818609E-02  0.8141871E-01
        2   -1    0    0  501    0  0.00000000000E+00  0.00000000000E+00  0.14567759826E+04  0.14567759826E+04  0.25500000920E-02 0.  1.
       -2   -1    0    0    0  501  0.00000000000E+00  0.00000000000E+00 -0.19650809571E+04  0.19650809571E+04  0.25500000920E-02 0. -1.
    10030    2    1    2    0    0  0.00000000000E+00  0.00000000000E+00 -0.50830497447E+03  0.34218569398E+04  0.33838928720E+04 0.  0.
        3    1    3    3  502    0  0.65945575819E+03  0.15072152106E+04  0.14537905186E+03  0.16515794461E+04  0.10100000352E+00 0.  1.
       -3    1    3    3    0  502 -0.65945575819E+03 -0.15072152106E+04 -0.65368402633E+03  0.17702774936E+04  0.10100000352E+00 0. -1.
</event>
<event>
 5   0  0.1010551E-06  0.3405513E+04  0.7818609E-02  0.8136555E-01
       -1   -1    0    0    0  501  0.00000000000E+00  0.00000000000E+00  0.12696820648E+04  0.12696820649E+04  0.50400001928E-02 0. -1.
        1   -1    0    0  501    0  0.00000000000E+00  0.00000000000E+00 -0.22835472775E+04  0.22835472775E+04  0.50400001928E-02 0.  1.
    10030    2    1    2    0    0  0.00000000000E+00  0.00000000000E+00 -0.10138652126E+04  0.35532293423E+04  0.34055126031E+04 0.  0.
        2    1    3    3  502    0  0.38999894734E+01 -0.15849979741E+04  0.14226619154E+03  0.15913747067E+04  0.25500000920E-02 0. -1.
       -2    1    3    3    0  502 -0.38999894734E+01  0.15849979741E+04 -0.11561314042E+04  0.19618546357E+04  0.25500000920E-02 0.  1.
</event>
<event>
 5   0  0.2664083E-06  0.2142411E+04  0.7818609E-02  0.8542788E-01
       -2   -1    0    0    0  501  0.00000000000E+00  0.00000000000E+00  0.46868899026E+03  0.46868899027E+03  0.25500000920E-02 0. -1.
        2   -1    0    0  501    0  0.00000000000E+00  0.00000000000E+00 -0.24482782903E+04  0.24482782903E+04  0.25500000920E-02 0.  1.
    10030    2    1    2    0    0  0.00000000000E+00  0.00000000000E+00 -0.19795893000E+04  0.29169672805E+04  0.21424108661E+04 0.  0.
        2    1    3    3  502    0 -0.96724166536E+02 -0.10487103320E+04 -0.12563641223E+04  0.16393900490E+04  0.25500000920E-02 0.  1.
       -2    1    3    3    0  502  0.96724166536E+02  0.10487103320E+04 -0.72322517774E+03  0.12775772316E+04  0.25500000920E-02 0. -1.
</event>
<event>
 5   0  0.9714317E-07  0.2141276E+04  0.7818609E-02  0.8543276E-01
       -1   -1    0    0    0  501  0.00000000000E+00  0.00000000000E+00  0.13605353071E+04  0.13605353071E+04  0.50400001928E-02 0.  1.
        1   -1    0    0  501    0  0.00000000000E+00  0.00000000000E+00 -0.84251077876E+03  0.84251077878E+03  0.50400001928E-02 0. -1.
    10030    2    1    2    0    0  0.00000000000E+00  0.00000000000E+00  0.51802452835E+03  0.22030460859E+04  0.21412759385E+04 0.  0.
        4    1    3    3  502    0 -0.44521233601E+03 -0.89690408467E+03 -0.13088299479E+03  0.10098430237E+04  0.12699999809E+01 0. -1.
       -4    1    3    3    0  502  0.44521233601E+03  0.89690408467E+03  0.64890752314E+03  0.11932030622E+04  0.12699999809E+01 0.  1.
</event>
<event>
 5   0  0.9714317E-07  0.3389159E+04  0.7818609E-02  0.8140572E-01
       -1   -1    0    0    0  501  0.00000000000E+00  0.00000000000E+00  0.10989287186E+04  0.10989287186E+04  0.50400001928E-02 0. -1.
        1   -1    0    0  501    0  0.00000000000E+00  0.00000000000E+00 -0.26130901258E+04  0.26130901258E+04  0.50400001928E-02 0.  1.
    10030    2    1    2    0    0  0.00000000000E+00  0.00000000000E+00 -0.15141614072E+04  0.37120188443E+04  0.33891590600E+04 0.  0.
        4    1    3    3  502    0 -0.29417382480E+03  0.15944546289E+04 -0.12967399675E+04  0.20761406404E+04  0.12699999809E+01 0. -1.
       -4    1    3    3    0  502  0.29417382480E+03 -0.15944546289E+04 -0.21742143973E+03  0.16358782039E+04  0.12699999809E+01 0.  1.
</event>
<event>
 5   0  0.2856440E-06  0.3438044E+04  0.7818609E-02  0.8128632E-01
        2   -1    0    0  501    0  0.00000000000E+00  0.00000000000E+00  0.18672805145E+04  0.18672805145E+04  0.25500000920E-02 0.  1.
       -2   -1    0    0    0  501  0.00000000000E+00  0.00000000000E+00 -0.15825345694E+04  0.15825345694E+04  0.25500000920E-02 0. -1.
    10030    2    1    2    0    0  0.00000000000E+00  0.00000000000E+00  0.28474594504E+03  0.34498150839E+04  0.34380436094E+04 0.  0.
        4    1    3    3  502    0 -0.15406579138E+04  0.43160387413E+02  0.90625785376E+03  0.17879582033E+04  0.12699999809E+01 0.  1.
       -4    1    3    3    0  502  0.15406579138E+04 -0.43160387413E+02 -0.62151190871E+03  0.16618568807E+04  0.12699999809E+01 0. -1.
</event>
<event>
 5   0  0.9232963E-07  0.3424698E+04  0.7818609E-02  0.8131871E-01
        1   -1    0    0  501    0  0.00000000000E+00  0.00000000000E+00  0.15121425180E+04  0.15121425180E+04  0.50400001928E-02 0.  1.
       -1   -1    0    0    0  501  0.00000000000E+00  0.00000000000E+00 -0.19390629082E+04  0.19390629082E+04  0.50400001928E-02 0. -1.
    10030    2    1    2    0    0  0.00000000000E+00  0.00000000000E+00 -0.42692039020E+03  0.34512054262E+04  0.34246982165E+04 0.  0.
        3    1    3    3  502    0 -0.84721397666E+03 -0.10950098245E+04  0.80197047640E+03  0.15999920916E+04  0.10100000352E+00 0.  1.
       -3    1    3    3    0  502  0.84721397666E+03  0.10950098245E+04 -0.12288908666E+04  0.18512133346E+04  0.10100000352E+00 0. -1.
</event>
<event>
 5   0  0.1010551E-06  0.3425977E+04  0.7818609E-02  0.8131560E-01
       -1   -1    0    0    0  501  0.00000000000E+00  0.00000000000E+00  0.16352977625E+04  0.16352977625E+04  0.50400001928E-02 0. -1.
        1   -1    0    0  501    0  0.00000000000E+00  0.00000000000E+00 -0.17943701225E+04  0.17943701225E+04  0.50400001928E-02 0.  1.
    10030    2    1    2    0    0  0.00000000000E+00  0.00000000000E+00 -0.15907236005E+03  0.34296678850E+04  0.34259769097E+04 0.  0.
        2    1    3    3  502    0  0.29168414429E+03 -0.16860779876E+04  0.49258974784E+00  0.17111221064E+04  0.25500000920E-02 0. -1.
       -2    1    3    3    0  502 -0.29168414429E+03  0.16860779876E+04 -0.15956494980E+03  0.17185457787E+04  0.25500000920E-02 0.  1.
</event>
<event>
 5   0  0.2767014E-06  0.3736795E+04  0.7818609E-02  0.8059856E-01
       -2   -1    0    0    0  501  0.00000000000E+00  0.00000000000E+00  0.29857776940E+04  0.29857776940E+04  0.25500000920E-02 0. -1.
        2   -1    0    0  501    0  0.00000000000E+00  0.00000000000E+00 -0.11691792529E+04  0.11691792529E+04  0.25500000920E-02 0.  1.
    10030    2    1    2    0    0  0.00000000000E+00  0.00000000000E+00  0.18165984411E+04  0.41549569469E+04  0.37367950618E+04 0.  0.
        1    1    3    3  502    0 -0.16666081755E+04  0.48990363852E+03  0.16732704655E+04  0.24119333399E+04  0.50400001928E-02 0. -1.
       -1    1    3    3    0  502  0.16666081755E+04 -0.48990363852E+03  0.14332797561E+03  0.17430236069E+04  0.50400001928E-02 0.  1.
</event>
<event>
 5   0  0.2848685E-06  0.3410595E+04  0.7818609E-02  0.8135311E-01
       -2   -1    0    0    0  501  0.00000000000E+00  0.00000000000E+00  0.15506899724E+04  0.15506899724E+04  0.25500000920E-02 0.  1.
        2   -1    0    0  501    0  0.00000000000E+00  0.00000000000E+00 -0.18753199107E+04  0.18753199107E+04  0.25500000920E-02 0. -1.
    10030    2    1    2    0    0  0.00000000000E+00  0.00000000000E+00 -0.32462993831E+03  0.34260098830E+04  0.34105951272E+04 0.  0.
        3    1    3    3  502    0 -0.87561516819E+02 -0.11733016196E+04  0.10776611383E+04  0.15955115947E+04  0.10100000352E+00 0.  1.
       -3    1    3    3    0  502  0.87561516819E+02  0.11733016196E+04 -0.14022910766E+04  0.18304982883E+04  0.10100000352E+00 0. -1.
</event>
<event>
 5   0  0.2664083E-06  0.2919251E+04  0.7818609E-02  0.8267173E-01
       -2   -1    0    0    0  501  0.00000000000E+00  0.00000000000E+00  0.11671825761E+04  0.11671825761E+04  0.25500000920E-02 0.  1.
        2   -1    0    0  501    0  0.00000000000E+00  0.00000000000E+00 -0.18253419338E+04  0.18253419338E+04  0.25500000920E-02 0. -1.
    10030    2    1    2    0    0  0.00000000000E+00  0.00000000000E+00 -0.65815935773E+03  0.29925245099E+04  0.29192514797E+04 0.  0.
        2    1    3    3  502    0 -0.53881838071E+02  0.11083165405E+04  0.64300400101E+03  0.12824675247E+04  0.25500000920E-02 0.  1.
       -2    1    3    3    0  502  0.53881838071E+02 -0.11083165405E+04 -0.13011633587E+04  0.17100569852E+04  0.25500000920E-02 0. -1.
</event>
<event>
 5   0  0.1010855E-06  0.3388331E+04  0.7818609E-02  0.8140776E-01
       -1   -1    0    0    0  501  0.00000000000E+00  0.00000000000E+00  0.22634650724E+04  0.22634650724E+04  0.50400001928E-02 0. -1.
        1   -1    0    0  501    0  0.00000000000E+00  0.00000000000E+00 -0.12680547013E+04  0.12680547013E+04  0.50400001928E-02 0.  1.
    10030    2    1    2    0    0  0.00000000000E+00  0.00000000000E+00  0.99541037108E+03  0.35315197738E+04  0.33883314634E+04 0.  0.
        1    1    3    3  502    0  0.19244924704E+03  0.16586912802E+04  0.79598814588E+03  0.18498352910E+04  0.50400001928E-02 0. -1.
       -1    1    3    3    0  502 -0.19244924704E+03 -0.16586912802E+04  0.19942222520E+03  0.16816844827E+04  0.50400001928E-02 0.  1.
</event>
<event>
 5   0  0.2856440E-06  0.3412336E+04  0.7818609E-02  0.8134885E-01
        2   -1    0    0  501    0  0.00000000000E+00  0.00000000000E+00  0.22130483008E+04  0.22130483008E+04  0.25500000920E-02 0. -1.
       -2   -1    0    0    0  501  0.00000000000E+00  0.00000000000E+00 -0.13153845561E+04  0.13153845561E+04  0.25500000920E-02 0.  1.
    10030    2    1    2    0    0  0.00000000000E+00  0.00000000000E+00  0.89766374471E+03  0.35284328570E+04  0.34123361833E+04 0.  0.
        4    1    3    3  502    0 -0.11054125758E+04  0.53635530068E+02 -0.89388313601E+03  0.14226181520E+04  0.12699999809E+01 0.  1.
       -4    1    3    3    0  502  0.11054125758E+04 -0.53635530068E+02  0.17915468807E+04  0.21058147049E+04  0.12699999809E+01 0. -1.
</event>
<event>
 5   0  0.9232963E-07  0.3431532E+04  0.7818609E-02  0.8130210E-01
       -1   -1    0    0    0  501  0.00000000000E+00  0.00000000000E+00  0.13787387806E+04  0.13787387806E+04  0.50400001928E-02 0.  1.
        1   -1    0    0  501    0  0.00000000000E+00  0.00000000000E+00 -0.21351783185E+04  0.21351783185E+04  0.50400001928E-02 0. -1.
    10030    2    1    2    0    0  0.00000000000E+00  0.00000000000E+00 -0.75643953783E+03  0.35139170991E+04  0.34315321075E+04 0.  0.
        3    1    3    3  502    0  0.94073182650E+02  0.14807525046E+04  0.50407809940E+03  0.15670266380E+04  0.10100000352E+00 0.  1.
       -3    1    3    3    0  502 -0.94073182650E+02 -0.14807525046E+04 -0.12605176372E+04  0.19468904611E+04  0.10100000352E+00 0. -1.
</event>
<event>
 5   0  0.2848685E-06  0.3386090E+04  0.7818609E-02  0.8141329E-01
        2   -1    0    0  501    0  0.00000000000E+00  0.00000000000E+00  0.12729743898E+04  0.12729743898E+04  0.25500000920E-02 0. -1.
       -2   -1    0    0    0  501  0.00000000000E+00  0.00000000000E+00 -0.22517352471E+04  0.22517352471E+04  0.25500000920E-02 0.  1.
    10030    2    1    2    0    0  0.00000000000E+00  0.00000000000E+00 -0.97876085727E+03  0.35247096369E+04  0.33860899587E+04 0.  0.
        3    1    3    3  502    0  0.23542819146E+03 -0.11040330550E+04  0.82405309920E+03  0.13976333355E+04  0.10100000352E+00 0. -1.
       -3    1    3    3    0  502 -0.23542819146E+03  0.11040330550E+04 -0.18028139565E+04  0.21270763014E+04  0.10100000352E+00 0.  1.
</event>
<event>
 5   0  0.2848685E-06  0.3410253E+04  0.7818609E-02  0.8135394E-01
       -2   -1    0    0    0  501  0.00000000000E+00  0.00000000000E+00  0.97636157446E+03  0.97636157446E+03  0.25500000920E-02 0. -1.
        2   -1    0    0  501    0  0.00000000000E+00  0.00000000000E+00 -0.29778480301E+04  0.29778480301E+04  0.25500000920E-02 0.  1.
    10030    2    1    2    0    0  0.00000000000E+00  0.00000000000E+00 -0.20014864556E+04  0.39542096045E+04  0.34102530060E+04 0.  0.
        3    1    3    3  502    0  0.72678607942E+03 -0.13640686713E+04 -0.16577391513E+03  0.15544717258E+04  0.10100000352E+00 0. -1.
       -3    1    3    3    0  502 -0.72678607942E+03  0.13640686713E+04 -0.18357125405E+04  0.23997378787E+04  0.10100000352E+00 0.  1.
</event>
<event>
 5   0  0.1010855E-06  0.3378463E+04  0.7818609E-02  0.8143213E-01
       -1   -1    0    0    0  501  0.00000000000E+00  0.00000000000E+00  0.12748783728E+04  0.12748783728E+04  0.50400001928E-02 0. -1.
        1   -1    0    0  501    0  0.00000000000E+00  0.00000000000E+00 -0.22382546701E+04  0.22382546701E+04  0.50400001928E-02 0.  1.
    10030    2    1    2    0    0  0.00000000000E+00  0.00000000000E+00 -0.96337629731E+03  0.35131330429E+04  0.33784626514E+04 0.  0.
        1    1    3    3  502    0  0.75812284149E+02  0.15636116479E+04  0.17833606848E+03  0.15755737499E+04  0.50400001928E-02 0. -1.
       -1    1    3    3    0  502 -0.75812284149E+02 -0.15636116479E+04 -0.11417123658E+04  0.19375592931E+04  0.50400001928E-02 0.  1.
</event>
<event>
 5   0  0.1010855E-06  0.3412665E+04  0.7818609E-02  0.8134805E-01
       -1   -1    0    0    0  501  0.00000000000E+00  0.00000000000E+00  0.14933865998E+04  0.14933865998E+04  0.50400001928E-02 0. -1.
        1   -1    0    0  501    0  0.00000000000E+00  0.00000000000E+00 -0.19496431571E+04  0.19496431571E+04  0.50400001928E-02 0.  1.
    10030    2    1    2    0    0  0.00000000000E+00  0.00000000000E+00 -0.45625655731E+03  0.34430297569E+04  0.34126652137E+04 0.  0.
        1    1    3    3  502    0  0.42828204272E+03  0.13432675650E+04  0.74155705950E+03  0.15930160488E+04  0.50400001928E-02 0. -1.
       -1    1    3    3    0  502 -0.42828204272E+03 -0.13432675650E+04 -0.11978136168E+04  0.18500137080E+04  0.50400001928E-02 0.  1.
</event>
<event>
 5   0  0.2767014E-06  0.3384907E+04  0.7818609E-02  0.8141621E-01
        2   -1    0    0  501    0  0.00000000000E+00  0.00000000000E+00  0.25888865776E+04  0.25888865776E+04  0.25500000920E-02 0.  1.
       -2   -1    0    0    0  501  0.00000000000E+00  0.00000000000E+00 -0.11064212140E+04  0.11064212140E+04  0.25500000920E-02 0. -1.
    10030    2    1    2    0    0  0.00000000000E+00  0.00000000000E+00  0.14824653636E+04  0.36953077916E+04  0.33849071066E+04 0.  0.
        1    1    3    3  502    0  0.89615290632E+03 -0.14304250062E+04  0.87579700219E+03  0.19016377465E+04  0.50400001928E-02 0. -1.
       -1    1    3    3    0  502 -0.89615290632E+03  0.14304250062E+04  0.60666836142E+03  0.17936700451E+04  0.50400001928E-02 0.  1.
</event>
<event>
 5   0  0.9714317E-07  0.3373168E+04  0.7818609E-02  0.8144523E-01
        1   -1    0    0  501    0  0.00000000000E+00  0.00000000000E+00  0.19514407309E+04  0.19514407309E+04  0.50400001928E-02 0. -1.
       -1   -1    0    0    0  501  0.00000000000E+00  0.00000000000E+00 -0.14576744874E+04  0.14576744874E+04  0.50400001928E-02 0.  1.
    10030    2    1    2    0    0  0.00000000000E+00  0.00000000000E+00  0.49376624350E+03  0.34091152184E+04  0.33731678685E+04 0.  0.
        4    1    3    3  502    0  0.19153637064E+03 -0.86465384149E+03 -0.12037708248E+04  0.14944491488E+04  0.12699999809E+01 0.  1.
       -4    1    3    3    0  502 -0.19153637064E+03  0.86465384149E+03  0.16975370683E+04  0.19146660696E+04  0.12699999809E+01 0. -1.
</event>
<event>
 5   0  0.2906701E-06  0.3383234E+04  0.7818609E-02  0.8142034E-01
        2   -1    0    0  501    0  0.00000000000E+00  0.00000000000E+00  0.17703209040E+04  0.17703209040E+04  0.25500000920E-02 0.  1.
       -2   -1    0    0    0  501  0.00000000000E+00  0.00000000000E+00 -0.16164118568E+04  0.16164118568E+04  0.25500000920E-02 0. -1.
    10030    2    1    2    0    0  0.00000000000E+00  0.00000000000E+00  0.15390904713E+03  0.33867327608E+04  0.33832337782E+04 0.  0.
        5    1    3    3  502    0 -0.16496361081E+04  0.30560513468E+03  0.29363119894E+03  0.17032131864E+04  0.46999998093E+01 0.  1.
       -5    1    3    3    0  502  0.16496361081E+04 -0.30560513468E+03 -0.13972215181E+03  0.16835195743E+04  0.46999998093E+01 0. -1.
</event>
<event>
 5   0  0.1010551E-06  0.3296281E+04  0.7818609E-02  0.8163842E-01
        1   -1    0    0  501    0  0.00000000000E+00  0.00000000000E+00  0.13773859752E+04  0.13773859752E+04  0.50400001928E-02 0. -1.
       -1   -1    0    0    0  501  0.00000000000E+00  0.00000000000E+00 -0.19721177094E+04  0.19721177094E+04  0.50400001928E-02 0.  1.
    10030    2    1    2    0    0  0.00000000000E+00  0.00000000000E+00 -0.59473173423E+03  0.33495036846E+04  0.32962811011E+04 0.  0.
        2    1    3    3  502    0  0.97239822291E+03 -0.12459035172E+04  0.17765766753E+03  0.15904075342E+04  0.25500000920E-02 0.  1.
       -2    1    3    3    0  502 -0.97239822291E+03  0.12459035172E+04 -0.77238940175E+03  0.17590961503E+04  0.25500000920E-02 0. -1.
</event>
<event>
 5   0  0.1003191E-06  0.3398257E+04  0.7818609E-02  0.8138334E-01
        1   -1    0    0  501    0  0.00000000000E+00  0.00000000000E+00  0.22562634719E+04  0.22562634719E+04  0.50400001928E-02 0.  1.
       -1   -1    0    0    0  501  0.00000000000E+00  0.00000000000E+00 -0.12795661087E+04  0.12795661087E+04  0.50400001928E-02 0. -1.
    10030    2    1    2    0    0  0.00000000000E+00  0.00000000000E+00  0.97669736326E+03  0.35358295806E+04  0.33982573598E+04 0.  0.
        5    1    3    3  502    0  0.26042693353E+03  0.26331645603E+02  0.22351524789E+04  0.22504320112E+04  0.46999998093E+01 0.  1.
       -5    1    3    3    0  502 -0.26042693353E+03 -0.26331645603E+02 -0.12584551156E+04  0.12853975694E+04  0.46999998093E+01 0. -1.
</event>
<event>
 5   0  0.9232963E-07  0.3416943E+04  0.7818609E-02  0.8133761E-01
        1   -1    0    0  501    0  0.00000000000E+00  0.00000000000E+00  0.20196401110E+04  0.20196401110E+04  0.50400001928E-02 0.  1.
       -1   -1    0    0    0  501  0.00000000000E+00  0.00000000000E+00 -0.14452447800E+04  0.14452447800E+04  0.50400001928E-02 0. -1.
    10030    2    1    2    0    0  0.00000000000E+00  0.00000000000E+00  0.57439533102E+03  0.34648848910E+04  0.34169426849E+04 0.  0.
        3    1    3    3  502    0 -0.35002457308E+03  0.43581465534E+03 -0.13498960525E+04  0.14610513264E+04  0.10100000352E+00 0. -1.
       -3    1    3    3    0  502  0.35002457308E+03 -0.43581465534E+03  0.19242913836E+04  0.20038335646E+04  0.10100000352E+00 0.  1.
</event>
<event>
 5   0  0.2906701E-06  0.3422191E+04  0.7818609E-02  0.8132481E-01
       -2   -1    0    0    0  501  0.00000000000E+00  0.00000000000E+00  0.13134444395E+04  0.13134444395E+04  0.25500000920E-02 0.  1.
        2   -1    0    0  501    0  0.00000000000E+00  0.00000000000E+00 -0.22291368055E+04  0.22291368055E+04  0.25500000920E-02 0. -1.
    10030    2    1    2    0    0  0.00000000000E+00  0.00000000000E+00 -0.91569236606E+03  0.35425812450E+04  0.34221907264E+04 0.  0.
        5    1    3    3  502    0 -0.83714689070E+03  0.82861849382E+02 -0.20002788175E+04  0.21699812074E+04  0.46999998093E+01 0. -1.
       -5    1    3    3    0  502  0.83714689070E+03 -0.82861849382E+02  0.10845864514E+04  0.13726000376E+04  0.46999998093E+01 0.  1.
</event>
<event>
 5   0  0.1010551E-06  0.2123409E+04  0.7818609E-02  0.8551001E-01
       -1   -1    0    0    0  501  0.00000000000E+00  0.00000000000E+00  0.19093982017E+04  0.19093982017E+04  0.50400001928E-02 0.  1.
        1   -1    0    0  501    0  0.00000000000E+00  0.00000000000E+00 -0.59035190203E+03  0.59035190205E+03  0.50400001928E-02 0. -1.
    10030    2    1    2    0    0  0.00000000000E+00  0.00000000000E+00  0.13190462997E+04  0.24997501037E+04  0.21234093907E+04 0.  0.
        2    1    3    3  502    0 -0.36476984629E+02  0.33088789136E+03  0.18463710924E+04  0.18761406072E+04  0.25500000920E-02 0.  1.
       -2    1    3    3    0  502  0.36476984629E+02 -0.33088789136E+03 -0.52732479278E+03  0.62360949652E+03  0.25500000920E-02 0. -1.
</event>
<event>
 5   0  0.9232963E-07  0.3041150E+04  0.7818609E-02  0.8232077E-01
       -1   -1    0    0    0  501  0.00000000000E+00  0.00000000000E+00  0.98132229388E+03  0.98132229389E+03  0.50400001928E-02 0.  1.
        1   -1    0    0  501    0  0.00000000000E+00  0.00000000000E+00 -0.23561552681E+04  0.23561552681E+04  0.50400001928E-02 0. -1.
    10030    2    1    2    0    0  0.00000000000E+00  0.00000000000E+00 -0.13748329743E+04  0.33374775620E+04  0.30411495803E+04 0.  0.
        3    1    3    3  502    0 -0.96060547240E+03 -0.94007233860E+03 -0.14677945750E+04  0.19902059692E+04  0.10100000352E+00 0. -1.
       -3    1    3    3    0  502  0.96060547240E+03  0.94007233860E+03  0.92961600710E+02  0.13472715928E+04  0.10100000352E+00 0.  1.
</event>
<event>
 5   0  0.2848685E-06  0.3285108E+04  0.7818609E-02  0.8166695E-01
        2   -1    0    0  501    0  0.00000000000E+00  0.00000000000E+00  0.17790272214E+04  0.17790272214E+04  0.25500000920E-02 0.  1.
       -2   -1    0    0    0  501  0.00000000000E+00  0.00000000000E+00 -0.15165497056E+04  0.15165497056E+04  0.25500000920E-02 0. -1.
    10030    2    1    2    0    0  0.00000000000E+00  0.00000000000E+00  0.26247751583E+03  0.32955769270E+04  0.32851077357E+04 0.  0.
        3    1    3    3  502    0  0.22001421601E+03 -0.65900614673E+02 -0.15003619651E+04  0.15178389845E+04  0.10100000352E+00 0. -1.
       -3    1    3    3    0  502 -0.22001421601E+03  0.65900614673E+02  0.17628394810E+04  0.17777379425E+04  0.10100000352E+00 0.  1.
</event>
<event>
 5   0  0.2906701E-06  0.3415518E+04  0.7818609E-02  0.8134108E-01
       -2   -1    0    0    0  501  0.00000000000E+00  0.00000000000E+00  0.20447165778E+04  0.20447165778E+04  0.25500000920E-02 0. -1.
        2   -1    0    0  501    0  0.00000000000E+00  0.00000000000E+00 -0.14263302398E+04  0.14263302398E+04  0.25500000920E-02 0.  1.
    10030    2    1    2    0    0  0.00000000000E+00  0.00000000000E+00  0.61838633796E+03  0.34710468176E+04  0.34155181667E+04 0.  0.
        5    1    3    3  502    0  0.69490771706E+03 -0.60992802232E+03 -0.11499456179E+04  0.14755697008E+04  0.46999998093E+01 0.  1.
       -5    1    3    3    0  502 -0.69490771706E+03  0.60992802232E+03  0.17683319559E+04  0.19954771168E+04  0.46999998093E+01 0. -1.
</event>
<event>
 5   0  0.2767014E-06  0.3026231E+04  0.7818609E-02  0.8236280E-01
       -2   -1    0    0    0  501  0.00000000000E+00  0.00000000000E+00  0.12855709569E+04  0.12855709569E+04  0.25500000920E-02 0. -1.
        2   -1    0    0  501    0  0.00000000000E+00  0.00000000000E+00 -0.17809345952E+04  0.17809345952E+04  0.25500000920E-02 0.  1.
    10030    2    1    2    0    0  0.00000000000E+00  0.00000000000E+00 -0.49536363829E+03  0.30665055522E+04  0.30262305212E+04 0.  0.
        1    1    3    3  502    0  0.36797949811E+03  0.47756921258E+03 -0.16539689679E+04  0.17604245541E+04  0.50400001928E-02 0.  1.
       -1    1    3    3    0  502 -0.36797949811E+03 -0.47756921258E+03  0.11586053296E+04  0.13060809981E+04  0.50400001928E-02 0. -1.
</event>
<event>
 5   0  0.9714317E-07  0.3336451E+04  0.7818609E-02  0.8153682E-01
        1   -1    0    0  501    0  0.00000000000E+00  0.00000000000E+00  0.14573736308E+04  0.14573736308E+04  0.50400001928E-02 0. -1.
       -1   -1    0    0    0  501  0.00000000000E+00  0.00000000000E+00 -0.19095835167E+04  0.19095835167E+04  0.50400001928E-02 0.  1.
    10030    2    1    2    0    0  0.00000000000E+00  0.00000000000E+00 -0.45220988594E+03  0.33669571475E+04  0.33364512063E+04 0.  0.
        4    1    3    3  502    0 -0.13078869332E+03  0.38185781067E+03 -0.18595627864E+04  0.19028653235E+04  0.12699999809E+01 0.  1.
       -4    1    3    3    0  502  0.13078869332E+03 -0.38185781067E+03  0.14073529004E+04  0.14640918240E+04  0.12699999809E+01 0. -1.
</event>
<event>
 5   0  0.1003191E-06  0.3378159E+04  0.7818609E-02  0.8143288E-01
       -1   -1    0    0    0  501  0.00000000000E+00  0.00000000000E+00  0.14428319058E+04  0.14428319058E+04  0.50400001928E-02 0. -1.
        1   -1    0    0  501    0  0.00000000000E+00  0.00000000000E+00 -0.19773538270E+04  0.19773538270E+04  0.50400001928E-02 0.  1.
    10030    2    1    2    0    0  0.00000000000E+00  0.00000000000E+00 -0.53452192122E+03  0.34201857329E+04  0.33781587830E+04 0.  0.
        5    1    3    3  502    0  0.75831362719E+02 -0.41746966237E+03 -0.19225120981E+04  0.19687829164E+04  0.46999998093E+01 0.  1.
       -5    1    3    3    0  502 -0.75831362719E+02  0.41746966237E+03  0.13879901769E+04  0.14514028165E+04  0.46999998093E+01 0. -1.
</event>
<event>
 5   0  0.9232963E-07  0.3058696E+04  0.7818609E-02  0.8227166E-01
       -1   -1    0    0    0  501  0.00000000000E+00  0.00000000000E+00  0.16118866287E+04  0.16118866287E+04  0.50400001928E-02 0. -1.
        1   -1    0    0  501    0  0.00000000000E+00  0.00000000000E+00 -0.14510362429E+04  0.14510362429E+04  0.50400001928E-02 0.  1.
    10030    2    1    2    0    0  0.00000000000E+00  0.00000000000E+00  0.16085038580E+03  0.30629228717E+04  0.30586964006E+04 0.  0.
        3    1    3    3  502    0 -0.19372802574E+03  0.32195475874E+03 -0.14040943450E+04  0.14535014119E+04  0.10100000352E+00 0.  1.
       -3    1    3    3    0  502  0.19372802574E+03 -0.32195475874E+03  0.15649447308E+04  0.16094214598E+04  0.10100000352E+00 0. -1.
</event>
<event>
 5   0  0.2664083E-06  0.3317436E+04  0.7818609E-02  0.8158473E-01
        2   -1    0    0  501    0  0.00000000000E+00  0.00000000000E+00  0.29938837886E+04  0.29938837886E+04  0.25500000920E-02 0.  1.
       -2   -1    0    0    0  501  0.00000000000E+00  0.00000000000E+00 -0.91898889871E+03  0.91898889871E+03  0.25500000920E-02 0. -1.
    10030    2    1    2    0    0  0.00000000000E+00  0.00000000000E+00  0.20748948899E+04  0.39128726873E+04  0.33174363390E+04 0.  0.
        2    1    3    3  502    0  0.15301831214E+04  0.50873983472E+03  0.14958861917E+04  0.21995345196E+04  0.25500000920E-02 0. -1.
       -2    1    3    3    0  502 -0.15301831214E+04 -0.50873983472E+03  0.57900869823E+03  0.17133381677E+04  0.25500000920E-02 0.  1.
</event>
<event>
 5   0  0.9232963E-07  0.2192869E+04  0.7818609E-02  0.8521402E-01
       -1   -1    0    0    0  501  0.00000000000E+00  0.00000000000E+00  0.11049389493E+04  0.11049389494E+04  0.50400001928E-02 0. -1.
        1   -1    0    0  501    0  0.00000000000E+00  0.00000000000E+00 -0.10879951074E+04  0.10879951074E+04  0.50400001928E-02 0.  1.
    10030    2    1    2    0    0  0.00000000000E+00  0.00000000000E+00  0.16943841947E+02  0.21929340568E+04  0.21928685970E+04 0.  0.
        3    1    3    3  502    0 -0.70127959366E+03  0.55399215457E+03 -0.62673818068E+03  0.10915590379E+04  0.10100000352E+00 0.  1.
       -3    1    3    3    0  502  0.70127959366E+03 -0.55399215457E+03  0.64368202263E+03  0.11013750189E+04  0.10100000352E+00 0. -1.
</event>
<event>
 5   0  0.1010551E-06  0.3072688E+04  0.7818609E-02  0.8223274E-01
        1   -1    0    0  501    0  0.00000000000E+00  0.00000000000E+00  0.19679539703E+04  0.19679539703E+04  0.50400001928E-02 0.  1.
       -1   -1    0    0    0  501  0.00000000000E+00  0.00000000000E+00 -0.11993943468E+04  0.11993943468E+04  0.50400001928E-02 0. -1.
    10030    2    1    2    0    0  0.00000000000E+00  0.00000000000E+00  0.76855962350E+03  0.31673483172E+04  0.30726879873E+04 0.  0.
        2    1    3    3  502    0  0.11415750590E+04  0.40848353393E+03  0.13569053323E+04  0.18196825255E+04  0.25500000920E-02 0.  1.
       -2    1    3    3    0  502 -0.11415750590E+04 -0.40848353393E+03 -0.58834570879E+03  0.13476657916E+04  0.25500000920E-02 0. -1.
</event>
<event>
 5   0  0.9714317E-07  0.2689629E+04  0.7818609E-02  0.8338378E-01
       -1   -1    0    0    0  501  0.00000000000E+00  0.00000000000E+00  0.14034353409E+04  0.14034353409E+04  0.50400001928E-02 0.  1.
        1   -1    0    0  501    0  0.00000000000E+00  0.00000000000E+00 -0.12886426424E+04  0.12886426425E+04  0.50400001928E-02 0. -1.
    10030    2    1    2    0    0  0.00000000000E+00  0.00000000000E+00  0.11479269841E+03  0.26920779833E+04  0.26896294363E+04 0.  0.
        4    1    3    3  502    0 -0.12371994050E+04  0.81868402223E+02  0.57860086274E+03  0.13682636348E+04  0.12699999809E+01 0.  1.
       -4    1    3    3    0  502  0.12371994050E+04 -0.81868402223E+02 -0.46380816433E+03  0.13238143485E+04  0.12699999809E+01 0. -1.
</event>
<event>
 5   0  0.2767014E-06  0.3437711E+04  0.7818609E-02  0.8128712E-01
        2   -1    0    0  501    0  0.00000000000E+00  0.00000000000E+00  0.24473665607E+04  0.24473665607E+04  0.25500000920E-02 0. -1.
       -2   -1    0    0    0  501  0.00000000000E+00  0.00000000000E+00 -0.12072014732E+04  0.12072014732E+04  0.25500000920E-02 0.  1.
    10030    2    1    2    0    0  0.00000000000E+00  0.00000000000E+00  0.12401650874E+04  0.36545680339E+04  0.34377111674E+04 0.  0.
        1    1    3    3  502    0  0.75397025795E+03 -0.94623381428E+03 -0.67785057444E+03  0.13868348793E+04  0.50400001928E-02 0.  1.
       -1    1    3    3    0  502 -0.75397025795E+03  0.94623381428E+03  0.19180156619E+04  0.22677331546E+04  0.50400001928E-02 0. -1.
</event>
<event>
 5   0  0.2848685E-06  0.3295733E+04  0.7818609E-02  0.8163982E-01
       -2   -1    0    0    0  501  0.00000000000E+00  0.00000000000E+00  0.12935916966E+04  0.12935916966E+04  0.25500000920E-02 0.  1.
        2   -1    0    0  501    0  0.00000000000E+00  0.00000000000E+00 -0.20991660549E+04  0.20991660549E+04  0.25500000920E-02 0. -1.
    10030    2    1    2    0    0  0.00000000000E+00  0.00000000000E+00 -0.80557435829E+03  0.33927577515E+04  0.32957328645E+04 0.  0.
        3    1    3    3  502    0 -0.13424431676E+04  0.78879394325E+03  0.15264695084E+03  0.15644969303E+04  0.10100000352E+00 0.  1.
       -3    1    3    3    0  502  0.13424431676E+04 -0.78879394325E+03 -0.95822130913E+03  0.18282608213E+04  0.10100000352E+00 0. -1.
</event>
<event>
 5   0  0.1010551E-06  0.3462152E+04  0.7818609E-02  0.8122819E-01
       -1   -1    0    0    0  501  0.00000000000E+00  0.00000000000E+00  0.15374727475E+04  0.15374727475E+04  0.50400001928E-02 0. -1.
        1   -1    0    0  501    0  0.00000000000E+00  0.00000000000E+00 -0.19490579757E+04  0.19490579757E+04  0.50400001928E-02 0.  1.
    10030    2    1    2    0    0  0.00000000000E+00  0.00000000000E+00 -0.41158522821E+03  0.34865307232E+04  0.34621516552E+04 0.  0.
        2    1    3    3  502    0  0.88815402249E+03  0.42697299871E+01 -0.17021180752E+04  0.19199067009E+04  0.25500000920E-02 0.  1.
       -2    1    3    3    0  502 -0.88815402249E+03 -0.42697299871E+01  0.12905328470E+04  0.15666240223E+04  0.25500000920E-02 0. -1.
</event>
<event>
 5   0  0.1003191E-06  0.3358529E+04  0.7818609E-02  0.8148160E-01
        1   -1    0    0  501    0  0.00000000000E+00  0.00000000000E+00  0.17925562182E+04  0.17925562182E+04  0.50400001928E-02 0. -1.
       -1   -1    0    0    0  501  0.00000000000E+00  0.00000000000E+00 -0.15731329681E+04  0.15731329681E+04  0.50400001928E-02 0.  1.
    10030    2    1    2    0    0  0.00000000000E+00  0.00000000000E+00  0.21942325005E+03  0.33656891863E+04  0.33585290138E+04 0.  0.
        5    1    3    3  502    0 -0.50969729252E+03  0.11050603836E+04  0.12693118339E+04  0.17584437446E+04  0.46999998093E+01 0. -1.
       -5    1    3    3    0  502  0.50969729252E+03 -0.11050603836E+04 -0.10498885839E+04  0.16072454417E+04  0.46999998093E+01 0.  1.
</event>
<event>
 5   0  0.2906701E-06  0.3447119E+04  0.7818609E-02  0.8126438E-01
        2   -1    0    0  501    0  0.00000000000E+00  0.00000000000E+00  0.24196162593E+04  0.24196162593E+04  0.25500000920E-02 0. -1.
       -2   -1    0    0    0  501  0.00000000000E+00  0.00000000000E+00 -0.12277388107E+04  0.12277388107E+04  0.25500000920E-02 0.  1.
    10030    2    1    2    0    0  0.00000000000E+00  0.00000000000E+00  0.11918774486E+04  0.36473550700E+04  0.34471186742E+04 0.  0.
        5    1    3    3  502    0 -0.99430383794E+03  0.30176166737E+03  0.20509288581E+04  0.22991371201E+04  0.46999998093E+01 0. -1.
       -5    1    3    3    0  502  0.99430383794E+03 -0.30176166737E+03 -0.85905140955E+03  0.13482179498E+04  0.46999998093E+01 0.  1.
</event>
<event>
 5   0  0.2767014E-06  0.3392833E+04  0.7818609E-02  0.8139667E-01
       -2   -1    0    0    0  501  0.00000000000E+00  0.00000000000E+00  0.14713190621E+04  0.14713190621E+04  0.25500000920E-02 0.  1.
        2   -1    0    0  501    0  0.00000000000E+00  0.00000000000E+00 -0.19559521870E+04  0.19559521870E+04  0.25500000920E-02 0. -1.
    10030    2    1    2    0    0  0.00000000000E+00  0.00000000000E+00 -0.48463312496E+03  0.34272712491E+04  0.33928334691E+04 0.  0.
        1    1    3    3  502    0  0.61627869514E+03 -0.14207831141E+04  0.45710256981E+03  0.16147342960E+04  0.50400001928E-02 0.  1.
       -1    1    3    3    0  502 -0.61627869514E+03  0.14207831141E+04 -0.94173569477E+03  0.18125369531E+04  0.50400001928E-02 0. -1.
</event>
<event>
 5   0  0.9070500E-07  0.3466039E+04  0.7818609E-02  0.8121886E-01
       -3   -1    0    0    0  501  0.00000000000E+00  0.00000000000E+00  0.19063183490E+04  0.19063183517E+04  0.10100000352E+00 0. -1.
        3   -1    0    0  501    0  0.00000000000E+00  0.00000000000E+00 -0.15754748349E+04  0.15754748382E+04  0.10100000352E+00 0.  1.
    10030    2    1    2    0    0  0.00000000000E+00  0.00000000000E+00  0.33084351407E+03  0.34817931898E+04  0.34660390052E+04 0.  0.
        3    1    3    3  502    0  0.12405168727E+04 -0.20815426129E+03  0.13629586914E+04  0.18546877669E+04  0.10100000352E+00 0. -1.
       -3    1    3    3    0  502 -0.12405168727E+04  0.20815426129E+03 -0.10321151773E+04  0.16271054229E+04  0.10100000352E+00 0.  1.
</event>
<event>
 5   0  0.9714317E-07  0.3372294E+04  0.7818609E-02  0.8144740E-01
        1   -1    0    0  501    0  0.00000000000E+00  0.00000000000E+00  0.22241159605E+04  0.22241159605E+04  0.50400001928E-02 0. -1.
       -1   -1    0    0    0  501  0.00000000000E+00  0.00000000000E+00 -0.12783022817E+04  0.12783022817E+04  0.50400001928E-02 0.  1.
    10030    2    1    2    0    0  0.00000000000E+00  0.00000000000E+00  0.94581367879E+03  0.35024182423E+04  0.33722944754E+04 0.  0.
        4    1    3    3  502    0 -0.75887391084E+03  0.92633640459E+03  0.17057668149E+04  0.20841379001E+04  0.12699999809E+01 0. -1.
       -4    1    3    3    0  502  0.75887391084E+03 -0.92633640459E+03 -0.75995313607E+03  0.14182803422E+04  0.12699999809E+01 0.  1.
</event>
<event>
 5   0  0.2856440E-06  0.3309453E+04  0.7818609E-02  0.8160494E-01
        2   -1    0    0  501    0  0.00000000000E+00  0.00000000000E+00  0.11979655951E+04  0.11979655951E+04  0.25500000920E-02 0.  1.
       -2   -1    0    0    0  501  0.00000000000E+00  0.00000000000E+00 -0.22856415570E+04  0.22856415570E+04  0.25500000920E-02 0. -1.
    10030    2    1    2    0    0  0.00000000000E+00  0.00000000000E+00 -0.10876759619E+04  0.34836071521E+04  0.33094530956E+04 0.  0.
        4    1    3    3  502    0  0.14567812078E+04  0.19362340103E+03  0.25672112605E+03  0.14918474648E+04  0.12699999809E+01 0.  1.
       -4    1    3    3    0  502 -0.14567812078E+04 -0.19362340103E+03 -0.13443970879E+04  0.19917596873E+04  0.12699999809E+01 0. -1.
</event>
<event>
 5   0  0.2767014E-06  0.2104951E+04  0.7818609E-02  0.8559065E-01
       -2   -1    0    0    0  501  0.00000000000E+00  0.00000000000E+00  0.70450351048E+03  0.70450351048E+03  0.25500000920E-02 0.  1.
        2   -1    0    0  501    0  0.00000000000E+00  0.00000000000E+00 -0.15723199933E+04  0.15723199933E+04  0.25500000920E-02 0. -1.
    10030    2    1    2    0    0  0.00000000000E+00  0.00000000000E+00 -0.86781648286E+03  0.22768235038E+04  0.21049512630E+04 0.  0.
        1    1    3    3  502    0 -0.75603255683E+03 -0.29416952540E+03  0.29135013505E+03  0.86197786392E+03  0.50400001928E-02 0.  1.
       -1    1    3    3    0  502  0.75603255683E+03  0.29416952540E+03 -0.11591666179E+04  0.14148456399E+04  0.50400001928E-02 0. -1.
</event>
<event>
 5   0  0.2906701E-06  0.3398640E+04  0.7818609E-02  0.8138240E-01
        2   -1    0    0  501    0  0.00000000000E+00  0.00000000000E+00  0.20002798188E+04  0.20002798188E+04  0.25500000920E-02 0. -1.
       -2   -1    0    0    0  501  0.00000000000E+00  0.00000000000E+00 -0.14436419805E+04  0.14436419805E+04  0.25500000920E-02 0.  1.
    10030    2    1    2    0    0  0.00000000000E+00  0.00000000000E+00  0.55663783831E+03  0.34439217993E+04  0.33986396803E+04 0.  0.
        5    1    3    3  502    0 -0.10040766106E+04  0.23197635758E+03 -0.10908620015E+04  0.15006614764E+04  0.46999998093E+01 0.  1.
       -5    1    3    3    0  502  0.10040766106E+04 -0.23197635758E+03  0.16474998398E+04  0.19432603229E+04  0.46999998093E+01 0. -1.
</event>
<event>
 5   0  0.2906701E-06  0.3492513E+04  0.7818609E-02  0.8115566E-01
        2   -1    0    0  501    0  0.00000000000E+00  0.00000000000E+00  0.16715740474E+04  0.16715740474E+04  0.25500000920E-02 0.  1.
       -2   -1    0    0    0  501  0.00000000000E+00  0.00000000000E+00 -0.18242759674E+04  0.18242759674E+04  0.25500000920E-02 0. -1.
    10030    2    1    2    0    0  0.00000000000E+00  0.00000000000E+00 -0.15270192001E+03  0.34958500149E+04  0.34925133429E+04 0.  0.
        5    1    3    3  502    0  0.10465907845E+04 -0.74600606187E+03  0.11069429769E+04  0.16962376481E+04  0.46999998093E+01 0.  1.
       -5    1    3    3    0  502 -0.10465907845E+04  0.74600606187E+03 -0.12596448969E+04  0.17996123668E+04  0.46999998093E+01 0. -1.
</event>
<event>
 5   0  0.2906701E-06  0.3418944E+04  0.7818609E-02  0.8133273E-01
       -2   -1    0    0    0  501  0.00000000000E+00  0.00000000000E+00  0.15458730073E+04  0.15458730073E+04  0.25500000920E-02 0. -1.
        2   -1    0    0  501    0  0.00000000000E+00  0.00000000000E+00 -0.18903841374E+04  0.18903841374E+04  0.25500000920E-02 0.  1.
    10030    2    1    2    0    0  0.00000000000E+00  0.00000000000E+00 -0.34451113010E+03  0.34362571447E+04  0.34189435862E+04 0.  0.
        5    1    3    3  502    0  0.20654637731E+03  0.36839702188E+02 -0.18773883920E+04  0.18890812143E+04  0.46999998093E+01 0.  1.
       -5    1    3    3    0  502 -0.20654637731E+03 -0.36839702188E+02  0.15328772619E+04  0.15471759304E+04  0.46999998093E+01 0. -1.
</event>
<event>
 5   0  0.1003191E-06  0.3327418E+04  0.7818609E-02  0.8155954E-01
        1   -1    0    0  501    0  0.00000000000E+00  0.00000000000E+00  0.18075812553E+04  0.18075812553E+04  0.50400001928E-02 0. -1.
       -1   -1    0    0    0  501  0.00000000000E+00  0.00000000000E+00 -0.15312880562E+04  0.15312880562E+04  0.50400001928E-02 0.  1.
    10030    2    1    2    0    0  0.00000000000E+00  0.00000000000E+00  0.27629319913E+03  0.33388693115E+04  0.33274179701E+04 0.  0.
        5    1    3    3  502    0  0.21824645139E+03 -0.15427819110E+04 -0.44703959944E+03  0.16210101887E+04  0.46999998093E+01 0.  1.
       -5    1    3    3    0  502 -0.21824645139E+03  0.15427819110E+04  0.72333279857E+03  0.17178591228E+04  0.46999998093E+01 0. -1.
</event>
<event>
 5   0  0.2767014E-06  0.3422496E+04  0.7818609E-02  0.8132407E-01
       -2   -1    0    0    0  501  0.00000000000E+00  0.00000000000E+00  0.16750840568E+04  0.16750840568E+04  0.25500000920E-02 0.  1.
        2   -1    0    0  501    0  0.00000000000E+00  0.00000000000E+00 -0.17481928300E+04  0.17481928300E+04  0.25500000920E-02 0. -1.
    10030    2    1    2    0    0  0.00000000000E+00  0.00000000000E+00 -0.73108773178E+02  0.34232768867E+04  0.34224961286E+04 0.  0.
        1    1    3    3  502    0  0.55974723742E+03 -0.13481476088E+04 -0.92981522050E+03  0.17307152536E+04  0.50400001928E-02 0. -1.
       -1    1    3    3    0  502 -0.55974723742E+03  0.13481476088E+04  0.85670644732E+03  0.16925616331E+04  0.50400001928E-02 0.  1.
</event>
<event>
 5   0  0.1010551E-06  0.3430464E+04  0.7818609E-02  0.8130470E-01
        1   -1    0    0  501    0  0.00000000000E+00  0.00000000000E+00  0.24123518086E+04  0.24123518086E+04  0.50400001928E-02 0. -1.
       -1   -1    0    0    0  501  0.00000000000E+00  0.00000000000E+00 -0.12195653480E+04  0.12195653480E+04  0.50400001928E-02 0.  1.
    10030    2    1    2    0    0  0.00000000000E+00  0.00000000000E+00  0.11927864606E+04  0.36319171567E+04  0.34304639179E+04 0.  0.
        2    1    3    3  502    0  0.47441610309E+03 -0.16350584710E+04  0.81729363931E+03  0.18885062179E+04  0.25500000920E-02 0.  1.
       -2    1    3    3    0  502 -0.47441610309E+03  0.16350584710E+04  0.37549282128E+03  0.17434109387E+04  0.25500000920E-02 0. -1.
</event>
<event>
 5   0  0.9714317E-07  0.3363092E+04  0.7818609E-02  0.8147025E-01
        1   -1    0    0  501    0  0.00000000000E+00  0.00000000000E+00  0.11678814401E+04  0.11678814401E+04  0.50400001928E-02 0.  1.
       -1   -1    0    0    0  501  0.00000000000E+00  0.00000000000E+00 -0.24211336406E+04  0.24211336406E+04  0.50400001928E-02 0. -1.
    10030    2    1    2    0    0  0.00000000000E+00  0.00000000000E+00 -0.12532522004E+04  0.35890150807E+04  0.33630920552E+04 0.  0.
        4    1    3    3  502    0 -0.37863680550E+02  0.13557154142E+04  0.43423469673E+03  0.14240643691E+04  0.12699999809E+01 0.  1.
       -4    1    3    3    0  502  0.37863680550E+02 -0.13557154142E+04 -0.16874868972E+04  0.21649507116E+04  0.12699999809E+01 0. -1.
</event>
<event>
 5   0  0.9232963E-07  0.3284126E+04  0.7818609E-02  0.8166946E-01
       -1   -1    0    0    0  501  0.00000000000E+00  0.00000000000E+00  0.15276913148E+04  0.15276913148E+04  0.50400001928E-02 0. -1.
        1   -1    0    0  501    0  0.00000000000E+00  0.00000000000E+00 -0.17649974716E+04  0.17649974716E+04  0.50400001928E-02 0.  1.
    10030    2    1    2    0    0  0.00000000000E+00  0.00000000000E+00 -0.23730615686E+03  0.32926887864E+04  0.32841262509E+04 0.  0.
        3    1    3    3  502    0  0.71466727015E+03  0.86317027651E+03  0.10847091488E+04  0.15596173188E+04  0.10100000352E+00 0. -1.
       -3    1    3    3    0  502 -0.71466727015E+03 -0.86317027651E+03 -0.13220153057E+04  0.17330714676E+04  0.10100000352E+00 0.  1.
</event>
<event>
 5   0  0.2767014E-06  0.3520873E+04  0.7818609E-02  0.8108861E-01
       -2   -1    0    0    0  501  0.00000000000E+00  0.00000000000E+00  0.20452542123E+04  0.20452542123E+04  0.25500000920E-02 0.  1.
        2   -1    0    0  501    0  0.00000000000E+00  0.00000000000E+00 -0.15152815071E+04  0.15152815071E+04  0.25500000920E-02 0. -1.
    10030    2    1    2    0    0  0.00000000000E+00  0.00000000000E+00  0.52997270522E+03  0.35605357194E+04  0.35208725539E+04 0.  0.
        1    1    3    3  502    0 -0.51718336120E+03  0.66809345071E+03 -0.12968564136E+04  0.15477932825E+04  0.50400001928E-02 0. -1.
       -1    1    3    3    0  502  0.51718336120E+03 -0.66809345071E+03  0.18268291188E+04  0.20127424369E+04  0.50400001928E-02 0.  1.
</event>
<event>
 5   0  0.9714317E-07  0.3368608E+04  0.7818609E-02  0.8145654E-01
       -1   -1    0    0    0  501  0.00000000000E+00  0.00000000000E+00  0.12878732961E+04  0.12878732961E+04  0.50400001928E-02 0.  1.
        1   -1    0    0  501    0  0.00000000000E+00  0.00000000000E+00 -0.22027627287E+04  0.22027627287E+04  0.50400001928E-02 0. -1.
    10030    2    1    2    0    0  0.00000000000E+00  0.00000000000E+00 -0.91488943259E+03  0.34906360249E+04  0.33686076032E+04 0.  0.
        4    1    3    3  502    0  0.48049357483E+03  0.63683629558E+03 -0.19945698271E+04  0.21481957431E+04  0.12699999809E+01 0. -1.
       -4    1    3    3    0  502 -0.48049357483E+03 -0.63683629558E+03  0.10796803945E+04  0.13424402817E+04  0.12699999809E+01 0.  1.
</event>
<event>
 5   0  0.9714317E-07  0.2140793E+04  0.7818609E-02  0.8543484E-01
       -1   -1    0    0    0  501  0.00000000000E+00  0.00000000000E+00  0.57712068893E+03  0.57712068895E+03  0.50400001928E-02 0. -1.
        1   -1    0    0  501    0  0.00000000000E+00  0.00000000000E+00 -0.19852837103E+04  0.19852837103E+04  0.50400001928E-02 0.  1.
    10030    2    1    2    0    0  0.00000000000E+00  0.00000000000E+00 -0.14081630214E+04  0.25624043993E+04  0.21407926594E+04 0.  0.
        4    1    3    3  502    0  0.97949109542E+03 -0.12234198620E+03 -0.11995870040E+04  0.15535060221E+04  0.12699999809E+01 0.  1.
       -4    1    3    3    0  502 -0.97949109542E+03  0.12234198620E+03 -0.20857601741E+03  0.10088983772E+04  0.12699999809E+01 0. -1.
</event>
<event>
 5   0  0.1003191E-06  0.3402821E+04  0.7818609E-02  0.8137214E-01
       -1   -1    0    0    0  501  0.00000000000E+00  0.00000000000E+00  0.16853745610E+04  0.16853745610E+04  0.50400001928E-02 0.  1.
        1   -1    0    0  501    0  0.00000000000E+00  0.00000000000E+00 -0.17175994992E+04  0.17175994992E+04  0.50400001928E-02 0. -1.
    10030    2    1    2    0    0  0.00000000000E+00  0.00000000000E+00 -0.32224938204E+02  0.34029740603E+04  0.34028214776E+04 0.  0.
        5    1    3    3  502    0  0.10808803015E+04  0.71636083296E+03  0.10854365105E+04  0.16910557582E+04  0.46999998093E+01 0.  1.
       -5    1    3    3    0  502 -0.10808803015E+04 -0.71636083296E+03 -0.11176614487E+04  0.17119183021E+04  0.46999998093E+01 0. -1.
</event>
<event>
 5   0  0.2664083E-06  0.2568595E+04  0.7818609E-02  0.8378948E-01
        2   -1    0    0  501    0  0.00000000000E+00  0.00000000000E+00  0.16614703855E+04  0.16614703855E+04  0.25500000920E-02 0.  1.
       -2   -1    0    0    0  501  0.00000000000E+00  0.00000000000E+00 -0.99274698409E+03  0.99274698409E+03  0.25500000920E-02 0. -1.
    10030    2    1    2    0    0  0.00000000000E+00  0.00000000000E+00  0.66872340143E+03  0.26542173696E+04  0.25685947243E+04 0.  0.
        2    1    3    3  502    0 -0.14705563433E+03 -0.10747007339E+04 -0.37617327653E+03  0.11480911815E+04  0.25500000920E-02 0. -1.
       -2    1    3    3    0  502  0.14705563433E+03  0.10747007339E+04  0.10448966780E+04  0.15061261881E+04  0.25500000920E-02 0.  1.
</event>
<event>
 5   0  0.2856440E-06  0.3147221E+04  0.7818609E-02  0.8202897E-01
       -2   -1    0    0    0  501  0.00000000000E+00  0.00000000000E+00  0.17297331875E+04  0.17297331875E+04  0.25500000920E-02 0. -1.
        2   -1    0    0  501    0  0.00000000000E+00  0.00000000000E+00 -0.14315795034E+04  0.14315795034E+04  0.25500000920E-02 0.  1.
    10030    2    1    2    0    0  0.00000000000E+00  0.00000000000E+00  0.29815368412E+03  0.31613126909E+04  0.31472213635E+04 0.  0.
        4    1    3    3  502    0 -0.90271323782E+03  0.11233698010E+04 -0.48573225623E+03  0.15207854343E+04  0.12699999809E+01 0. -1.
       -4    1    3    3    0  502  0.90271323782E+03 -0.11233698010E+04  0.78388594035E+03  0.16405272567E+04  0.12699999809E+01 0.  1.
</event>
<event>
 5   0  0.2906701E-06  0.3358295E+04  0.7818609E-02  0.8148219E-01
        2   -1    0    0  501    0  0.00000000000E+00  0.00000000000E+00  0.19616133592E+04  0.19616133592E+04  0.25500000920E-02 0. -1.
       -2   -1    0    0    0  501  0.00000000000E+00  0.00000000000E+00 -0.14373558686E+04  0.14373558686E+04  0.25500000920E-02 0.  1.
    10030    2    1    2    0    0  0.00000000000E+00  0.00000000000E+00  0.52425749064E+03  0.33989692278E+04  0.33582950875E+04 0.  0.
        5    1    3    3  502    0 -0.13799358484E+04 -0.84240956039E+03 -0.19683629986E+03  0.16286937809E+04  0.46999998093E+01 0.  1.
       -5    1    3    3    0  502  0.13799358484E+04  0.84240956039E+03  0.72109379050E+03  0.17702754469E+04  0.46999998093E+01 0. -1.
</event>
<event>
 5   0  0.2848685E-06  0.3428775E+04  0.7818609E-02  0.8130880E-01
       -2   -1    0    0    0  501  0.00000000000E+00  0.00000000000E+00  0.15842126977E+04  0.15842126977E+04  0.25500000920E-02 0.  1.
        2   -1    0    0  501    0  0.00000000000E+00  0.00000000000E+00 -0.18552587851E+04  0.18552587851E+04  0.25500000920E-02 0. -1.
    10030    2    1    2    0    0  0.00000000000E+00  0.00000000000E+00 -0.27104608739E+03  0.34394714828E+04  0.34287750144E+04 0.  0.
        3    1    3    3  502    0 -0.13172713972E+04  0.10971891915E+04 -0.12567105284E+03  0.17189593595E+04  0.10100000352E+00 0. -1.
       -3    1    3    3    0  502  0.13172713972E+04 -0.10971891915E+04 -0.14537503454E+03  0.17205121234E+04  0.10100000352E+00 0.  1.
</event>
<event>
 5   0  0.2906701E-06  0.3360425E+04  0.7818609E-02  0.8147688E-01
        2   -1    0    0  501    0  0.00000000000E+00  0.00000000000E+00  0.11528277559E+04  0.11528277559E+04  0.25500000920E-02 0. -1.
       -2   -1    0    0    0  501  0.00000000000E+00  0.00000000000E+00 -0.24488597503E+04  0.24488597503E+04  0.25500000920E-02 0.  1.
    10030    2    1    2    0    0  0.00000000000E+00  0.00000000000E+00 -0.12960319944E+04  0.36016875062E+04  0.33604246698E+04 0.  0.
        5    1    3    3  502    0 -0.91973544146E+03 -0.93708611582E+03 -0.17716377588E+04  0.22051680456E+04  0.46999998093E+01 0.  1.
       -5    1    3    3    0  502  0.91973544146E+03  0.93708611582E+03  0.47560576442E+03  0.13965194606E+04  0.46999998093E+01 0. -1.
</event>
<event>
 5   0  0.2664083E-06  0.2144905E+04  0.7818609E-02  0.8541716E-01
       -2   -1    0    0    0  501  0.00000000000E+00  0.00000000000E+00  0.11289334839E+04  0.11289334839E+04  0.25500000920E-02 0.  1.
        2   -1    0    0  501    0  0.00000000000E+00  0.00000000000E+00 -0.10187977254E+04  0.10187977255E+04  0.25500000920E-02 0. -1.
    10030    2    1    2    0    0  0.00000000000E+00  0.00000000000E+00  0.11013575845E+03  0.21477312093E+04  0.21449054670E+04 0.  0.
        2    1    3    3  502    0 -0.86591771179E+03 -0.48513859905E+03  0.46178265540E+03  0.10947219577E+04  0.25500000920E-02 0.  1.
       -2    1    3    3    0  502  0.86591771179E+03  0.48513859905E+03 -0.35164689695E+03  0.10530092516E+04  0.25500000920E-02 0. -1.
</event>
<event>
 5   0  0.1010855E-06  0.3365618E+04  0.7818609E-02  0.8146397E-01
        1   -1    0    0  501    0  0.00000000000E+00  0.00000000000E+00  0.14255859458E+04  0.14255859458E+04  0.50400001928E-02 0. -1.
       -1   -1    0    0    0  501  0.00000000000E+00  0.00000000000E+00 -0.19864432667E+04  0.19864432667E+04  0.50400001928E-02 0.  1.
    10030    2    1    2    0    0  0.00000000000E+00  0.00000000000E+00 -0.56085732094E+03  0.34120292125E+04  0.33656176866E+04 0.  0.
        1    1    3    3  502    0 -0.99509521812E+03 -0.16550951312E+03  0.10850818727E+04  0.14815568037E+04  0.50400001928E-02 0. -1.
       -1    1    3    3    0  502  0.99509521812E+03  0.16550951312E+03 -0.16459391936E+04  0.19304724088E+04  0.50400001928E-02 0.  1.
</event>
<event>
 5   0  0.9714317E-07  0.3260150E+04  0.7818609E-02  0.8173110E-01
        1   -1    0    0  501    0  0.00000000000E+00  0.00000000000E+00  0.19613302709E+04  0.19613302709E+04  0.50400001928E-02 0.  1.
       -1   -1    0    0    0  501  0.00000000000E+00  0.00000000000E+00 -0.13547663928E+04  0.13547663928E+04  0.50400001928E-02 0. -1.
    10030    2    1    2    0    0  0.00000000000E+00  0.00000000000E+00  0.60656387809E+03  0.33160966637E+04  0.32601498960E+04 0.  0.
        4    1    3    3  502    0 -0.38491307242E+03  0.13897711031E+04 -0.46970735230E+03  0.15166569824E+04  0.12699999809E+01 0. -1.
       -4    1    3    3    0  502  0.38491307242E+03 -0.13897711031E+04  0.10762712304E+04  0.17994396813E+04  0.12699999809E+01 0.  1.
</event>
<event>
 5   0  0.2856440E-06  0.3417270E+04  0.7818609E-02  0.8133681E-01
        2   -1    0    0  501    0  0.00000000000E+00  0.00000000000E+00  0.27337122822E+04  0.27337122822E+04  0.25500000920E-02 0.  1.
       -2   -1    0    0    0  501  0.00000000000E+00  0.00000000000E+00 -0.10679374267E+04  0.10679374267E+04  0.25500000920E-02 0. -1.
    10030    2    1    2    0    0  0.00000000000E+00  0.00000000000E+00  0.16657748555E+04  0.38016497088E+04  0.34172700566E+04 0.  0.
        4    1    3    3  502    0  0.39319881470E+03  0.12254378258E+04 -0.41741947246E+03  0.13529759058E+04  0.12699999809E+01 0. -1.
       -4    1    3    3    0  502 -0.39319881470E+03 -0.12254378258E+04  0.20831943279E+04  0.24486738030E+04  0.12699999809E+01 0.  1.
</event>
<event>
 5   0  0.2856440E-06  0.3313063E+04  0.7818609E-02  0.8159580E-01
        2   -1    0    0  501    0  0.00000000000E+00  0.00000000000E+00  0.31257179122E+04  0.31257179122E+04  0.25500000920E-02 0.  1.
       -2   -1    0    0    0  501  0.00000000000E+00  0.00000000000E+00 -0.87790911299E+03  0.87790911299E+03  0.25500000920E-02 0. -1.
    10030    2    1    2    0    0  0.00000000000E+00  0.00000000000E+00  0.22478087992E+04  0.40036270252E+04  0.33130627762E+04 0.  0.
        4    1    3    3  502    0  0.62258385047E+03 -0.43133226686E+03 -0.65641319713E+03  0.10022664683E+04  0.12699999809E+01 0. -1.
       -4    1    3    3    0  502 -0.62258385047E+03  0.43133226686E+03  0.29042219964E+04  0.30013605569E+04  0.12699999809E+01 0.  1.
</event>
<event>
 5   0  0.1010551E-06  0.3538969E+04  0.7818609E-02  0.8104616E-01
        1   -1    0    0  501    0  0.00000000000E+00  0.00000000000E+00  0.14795996798E+04  0.14795996799E+04  0.50400001928E-02 0. -1.
       -1   -1    0    0    0  501  0.00000000000E+00  0.00000000000E+00 -0.21161641999E+04  0.21161641999E+04  0.50400001928E-02 0.  1.
    10030    2    1    2    0    0  0.00000000000E+00  0.00000000000E+00 -0.63656452004E+03  0.35957638797E+04  0.35389692695E+04 0.  0.
        2    1    3    3  502    0  0.14781626661E+04  0.35601196808E+03  0.60143316782E+03  0.16350630704E+04  0.25500000920E-02 0. -1.
       -2    1    3    3    0  502 -0.14781626661E+04 -0.35601196808E+03 -0.12379976879E+04  0.19607008094E+04  0.25500000920E-02 0.  1.
</event>
<event>
 5   0  0.1010551E-06  0.3441592E+04  0.7818609E-02  0.8127773E-01
       -1   -1    0    0    0  501  0.00000000000E+00  0.00000000000E+00  0.18095323263E+04  0.18095323263E+04  0.50400001928E-02 0. -1.
        1   -1    0    0  501    0  0.00000000000E+00  0.00000000000E+00 -0.16364113066E+04  0.16364113066E+04  0.50400001928E-02 0.  1.
    10030    2    1    2    0    0  0.00000000000E+00  0.00000000000E+00  0.17312101972E+03  0.34459436329E+04  0.34415921655E+04 0.  0.
        2    1    3    3  502    0  0.64730527632E+02  0.15862067351E+04 -0.57828002425E+03  0.16895708432E+04  0.25500000920E-02 0.  1.
       -2    1    3    3    0  502 -0.64730527632E+02 -0.15862067351E+04  0.75140104397E+03  0.17563727897E+04  0.25500000920E-02 0. -1.
</event>
<event>
 5   0  0.2664083E-06  0.3255970E+04  0.7818609E-02  0.8174190E-01
       -2   -1    0    0    0  501  0.00000000000E+00  0.00000000000E+00  0.10392153914E+04  0.10392153915E+04  0.25500000920E-02 0.  1.
        2   -1    0    0  501    0  0.00000000000E+00  0.00000000000E+00 -0.25503225471E+04  0.25503225471E+04  0.25500000920E-02 0. -1.
    10030    2    1    2    0    0  0.00000000000E+00  0.00000000000E+00 -0.15111071557E+04  0.35895379386E+04  0.32559695601E+04 0.  0.
        2    1    3    3  502    0 -0.63526036065E+03 -0.17079841532E+03 -0.23972787851E+04  0.24858948888E+04  0.25500000920E-02 0. -1.
       -2    1    3    3    0  502  0.63526036065E+03  0.17079841532E+03  0.88617162945E+03  0.11036430498E+04  0.25500000920E-02 0.  1.
</event>
<event>
 5   0  0.2848685E-06  0.3356170E+04  0.7818609E-02  0.8148748E-01
        2   -1    0    0  501    0  0.00000000000E+00  0.00000000000E+00  0.14079984694E+04  0.14079984694E+04  0.25500000920E-02 0.  1.
       -2   -1    0    0    0  501  0.00000000000E+00  0.00000000000E+00 -0.19999801507E+04  0.19999801507E+04  0.25500000920E-02 0. -1.
    10030    2    1    2    0    0  0.00000000000E+00  0.00000000000E+00 -0.59198168130E+03  0.34079786201E+04  0.33561698354E+04 0.  0.
        3    1    3    3  502    0 -0.12198105540E+04 -0.93561365738E+03 -0.97917559300E+03  0.18226616679E+04  0.10100000352E+00 0. -1.
       -3    1    3    3    0  502  0.12198105540E+04  0.93561365738E+03  0.38719391170E+03  0.15853169522E+04  0.10100000352E+00 0.  1.
</event>
<event>
 5   0  0.2664083E-06  0.3346220E+04  0.7818609E-02  0.8151233E-01
       -2   -1    0    0    0  501  0.00000000000E+00  0.00000000000E+00  0.12734066775E+04  0.12734066775E+04  0.25500000920E-02 0.  1.
        2   -1    0    0  501    0  0.00000000000E+00  0.00000000000E+00 -0.21982738818E+04  0.21982738818E+04  0.25500000920E-02 0. -1.
    10030    2    1    2    0    0  0.00000000000E+00  0.00000000000E+00 -0.92486720431E+03  0.34716805594E+04  0.33462197418E+04 0.  0.
        2    1    3    3  502    0  0.16405520861E+04  0.11208161609E+03 -0.78275401561E+03  0.18211746992E+04  0.25500000920E-02 0. -1.
       -2    1    3    3    0  502 -0.16405520861E+04 -0.11208161609E+03 -0.14211318870E+03  0.16505058602E+04  0.25500000920E-02 0.  1.
</event>
<event>
 5   0  0.2767014E-06  0.3382518E+04  0.7818609E-02  0.8142210E-01
        2   -1    0    0  501    0  0.00000000000E+00  0.00000000000E+00  0.22047801946E+04  0.22047801946E+04  0.25500000920E-02 0. -1.
       -2   -1    0    0    0  501  0.00000000000E+00  0.00000000000E+00 -0.12973432915E+04  0.12973432915E+04  0.25500000920E-02 0.  1.
    10030    2    1    2    0    0  0.00000000000E+00  0.00000000000E+00  0.90743690316E+03  0.35021234861E+04  0.33825178756E+04 0.  0.
        1    1    3    3  502    0 -0.12598857564E+04 -0.70709715992E+03  0.13640455556E+04  0.19869370374E+04  0.50400001928E-02 0.  1.
       -1    1    3    3    0  502  0.12598857564E+04  0.70709715992E+03 -0.45660865246E+03  0.15151864487E+04  0.50400001928E-02 0. -1.
</event>
<event>
 5   0  0.1003191E-06  0.3232792E+04  0.7818609E-02  0.8180210E-01
        1   -1    0    0  501    0  0.00000000000E+00  0.00000000000E+00  0.21158602068E+04  0.21158602068E+04  0.50400001928E-02 0.  1.
       -1   -1    0    0    0  501  0.00000000000E+00  0.00000000000E+00 -0.12348337420E+04  0.12348337420E+04  0.50400001928E-02 0. -1.
    10030    2    1    2    0    0  0.00000000000E+00  0.00000000000E+00  0.88102646482E+03  0.33506939489E+04  0.32327917204E+04 0.  0.
        5    1    3    3  502    0 -0.13958989002E+04 -0.89042202835E+02  0.12801512654E+04  0.18961201454E+04  0.46999998093E+01 0.  1.
       -5    1    3    3    0  502  0.13958989002E+04  0.89042202835E+02 -0.39912480058E+03  0.14545738035E+04  0.46999998093E+01 0. -1.
</event>
<event>
 5   0  0.2906701E-06  0.3458556E+04  0.7818609E-02  0.8123682E-01
       -2   -1    0    0    0  501  0.00000000000E+00  0.00000000000E+00  0.10738520585E+04  0.10738520585E+04  0.25500000920E-02 0. -1.
        2   -1    0    0  501    0  0.00000000000E+00  0.00000000000E+00 -0.27847436668E+04  0.27847436668E+04  0.25500000920E-02 0.  1.
    10030    2    1    2    0    0  0.00000000000E+00  0.00000000000E+00 -0.17108916083E+04  0.38585957252E+04  0.34585561836E+04 0.  0.
        5    1    3    3  502    0  0.14947733087E+03  0.13024263253E+04 -0.21135907477E+04  0.24871561559E+04  0.46999998093E+01 0. -1.
       -5    1    3    3    0  502 -0.14947733087E+03 -0.13024263253E+04  0.40269913935E+03  0.13714395693E+04  0.46999998093E+01 0.  1.
</event>
<event>
 5   0  0.2856440E-06  0.2213714E+04  0.7818609E-02  0.8512742E-01
        2   -1    0    0  501    0  0.00000000000E+00  0.00000000000E+00  0.18883510029E+04  0.18883510029E+04  0.25500000920E-02 0.  1.
       -2   -1    0    0    0  501  0.00000000000E+00  0.00000000000E+00 -0.64878404264E+03  0.64878404264E+03  0.25500000920E-02 0. -1.
    10030    2    1    2    0    0  0.00000000000E+00  0.00000000000E+00  0.12395669603E+04  0.25371350455E+04  0.22137136198E+04 0.  0.
        4    1    3    3  502    0 -0.56000592073E+03  0.24970716845E+03  0.16759186131E+04  0.17845630031E+04  0.12699999809E+01 0.  1.
       -4    1    3    3    0  502  0.56000592073E+03 -0.24970716845E+03 -0.43635165287E+03  0.75257204246E+03  0.12699999809E+01 0. -1.
</event>
<event>
 5   0  0.2664083E-06  0.3327429E+04  0.7818609E-02  0.8155951E-01
       -2   -1    0    0    0  501  0.00000000000E+00  0.00000000000E+00  0.92518763922E+03  0.92518763922E+03  0.25500000920E-02 0.  1.
        2   -1    0    0  501    0  0.00000000000E+00  0.00000000000E+00 -0.29917678927E+04  0.29917678927E+04  0.25500000920E-02 0. -1.
    10030    2    1    2    0    0  0.00000000000E+00  0.00000000000E+00 -0.20665802535E+04  0.39169555319E+04  0.33274294425E+04 0.  0.
        2    1    3    3  502    0  0.88610046528E+03  0.44204315467E+03 -0.26070811997E+04  0.27888077322E+04  0.25500000920E-02 0. -1.
       -2    1    3    3    0  502 -0.88610046528E+03 -0.44204315467E+03  0.54050094624E+03  0.11281477997E+04  0.25500000920E-02 0.  1.
</event>
<event>
 5   0  0.1003191E-06  0.2986850E+04  0.7818609E-02  0.8247496E-01
       -1   -1    0    0    0  501  0.00000000000E+00  0.00000000000E+00  0.12261921566E+04  0.12261921566E+04  0.50400001928E-02 0.  1.
        1   -1    0    0  501    0  0.00000000000E+00  0.00000000000E+00 -0.18188983697E+04  0.18188983697E+04  0.50400001928E-02 0. -1.
    10030    2    1    2    0    0  0.00000000000E+00  0.00000000000E+00 -0.59270621314E+03  0.30450905263E+04  0.29868504579E+04 0.  0.
        5    1    3    3  502    0 -0.10974113616E+04  0.98436558444E+01  0.73625790601E+03  0.13215545347E+04  0.46999998093E+01 0.  1.
       -5    1    3    3    0  502  0.10974113616E+04 -0.98436558444E+01 -0.13289641192E+04  0.17235359915E+04  0.46999998093E+01 0. -1.
</event>
<event>
 5   0  0.1003191E-06  0.3330636E+04  0.7818609E-02  0.8155144E-01
       -1   -1    0    0    0  501  0.00000000000E+00  0.00000000000E+00  0.30438323088E+04  0.30438323088E+04  0.50400001928E-02 0. -1.
        1   -1    0    0  501    0  0.00000000000E+00  0.00000000000E+00 -0.91111570219E+03  0.91111570220E+03  0.50400001928E-02 0.  1.
    10030    2    1    2    0    0  0.00000000000E+00  0.00000000000E+00  0.21327166066E+04  0.39549480110E+04  0.33306356219E+04 0.  0.
        5    1    3    3  502    0  0.63851520975E+02 -0.34192570778E+03  0.30002075432E+04  0.30203075338E+04  0.46999998093E+01 0. -1.
       -5    1    3    3    0  502 -0.63851520975E+02  0.34192570778E+03 -0.86749093665E+03  0.93464047716E+03  0.46999998093E+01 0.  1.
</event>
<event>
 5   0  0.2767014E-06  0.3010609E+04  0.7818609E-02  0.8240708E-01
        2   -1    0    0  501    0  0.00000000000E+00  0.00000000000E+00  0.18690618281E+04  0.18690618281E+04  0.25500000920E-02 0.  1.
       -2   -1    0    0    0  501  0.00000000000E+00  0.00000000000E+00 -0.12123413806E+04  0.12123413806E+04  0.25500000920E-02 0. -1.
    10030    2    1    2    0    0  0.00000000000E+00  0.00000000000E+00  0.65672044757E+03  0.30814032087E+04  0.30106085744E+04 0.  0.
        1    1    3    3  502    0  0.48919079885E+03 -0.55014591331E+03  0.16722369887E+04  0.18271137649E+04  0.50400001928E-02 0.  1.
       -1    1    3    3    0  502 -0.48919079885E+03  0.55014591331E+03 -0.10155165411E+04  0.12542894438E+04  0.50400001928E-02 0. -1.
</event>
<event>
 5   0  0.2906701E-06  0.3398788E+04  0.7818609E-02  0.8138204E-01
        2   -1    0    0  501    0  0.00000000000E+00  0.00000000000E+00  0.11048491173E+04  0.11048491173E+04  0.25500000920E-02 0.  1.
       -2   -1    0    0    0  501  0.00000000000E+00  0.00000000000E+00 -0.26138774927E+04  0.26138774927E+04  0.25500000920E-02 0. -1.
    10030    2    1    2    0    0  0.00000000000E+00  0.00000000000E+00 -0.15090283754E+04  0.37187266099E+04  0.33987881607E+04 0.  0.
        5    1    3    3  502    0 -0.72332957470E+03  0.14867684268E+04 -0.32482188753E+03  0.16849977380E+04  0.46999998093E+01 0. -1.
       -5    1    3    3    0  502  0.72332957470E+03 -0.14867684268E+04 -0.11842064879E+04  0.20337288719E+04  0.46999998093E+01 0.  1.
</event>
<event>
 5   0  0.2906701E-06  0.3290137E+04  0.7818609E-02  0.8165409E-01
       -2   -1    0    0    0  501  0.00000000000E+00  0.00000000000E+00  0.11600595282E+04  0.11600595282E+04  0.25500000920E-02 0. -1.
        2   -1    0    0  501    0  0.00000000000E+00  0.00000000000E+00 -0.23328552454E+04  0.23328552454E+04  0.25500000920E-02 0.  1.
    10030    2    1    2    0    0  0.00000000000E+00  0.00000000000E+00 -0.11727957173E+04  0.34929147736E+04  0.32901373560E+04 0.  0.
        5    1    3    3  502    0  0.10631039358E+04  0.46988127464E+03  0.64950331304E+03  0.13314860248E+04  0.46999998093E+01 0. -1.
       -5    1    3    3    0  502 -0.10631039358E+04 -0.46988127464E+03 -0.18222990303E+04  0.21614287488E+04  0.46999998093E+01 0.  1.
</event>
<event>
 5   0  0.9714317E-07  0.3461417E+04  0.7818609E-02  0.8122995E-01
       -1   -1    0    0    0  501  0.00000000000E+00  0.00000000000E+00  0.28983923815E+04  0.28983923815E+04  0.50400001928E-02 0.  1.
        1   -1    0    0  501    0  0.00000000000E+00  0.00000000000E+00 -0.10334531321E+04  0.10334531321E+04  0.50400001928E-02 0. -1.
    10030    2    1    2    0    0  0.00000000000E+00  0.00000000000E+00  0.18649392494E+04  0.39318455137E+04  0.34614174466E+04 0.  0.
        4    1    3    3  502    0  0.16652538388E+04 -0.47144738227E+03  0.92763834882E+03  0.19636312029E+04  0.12699999809E+01 0.  1.
       -4    1    3    3    0  502 -0.16652538388E+04  0.47144738227E+03  0.93730090056E+03  0.19682143107E+04  0.12699999809E+01 0. -1.
</event>
<event>
 5   0  0.9714317E-07  0.2969529E+04  0.7818609E-02  0.8252486E-01
        1   -1    0    0  501    0  0.00000000000E+00  0.00000000000E+00  0.17093563723E+04  0.17093563723E+04  0.50400001928E-02 0.  1.
       -1   -1    0    0    0  501  0.00000000000E+00  0.00000000000E+00 -0.12896813090E+04  0.12896813090E+04  0.50400001928E-02 0. -1.
    10030    2    1    2    0    0  0.00000000000E+00  0.00000000000E+00  0.41967506329E+03  0.29990376814E+04  0.29695285578E+04 0.  0.
        4    1    3    3  502    0 -0.99734184515E+03 -0.59523372221E+03  0.11439773579E+04  0.16302391691E+04  0.12699999809E+01 0.  1.
       -4    1    3    3    0  502  0.99734184515E+03  0.59523372221E+03 -0.72430229466E+03  0.13687985122E+04  0.12699999809E+01 0. -1.
</event>
<event>
 5   0  0.1010551E-06  0.3517377E+04  0.7818609E-02  0.8109684E-01
       -1   -1    0    0    0  501  0.00000000000E+00  0.00000000000E+00  0.11115960349E+04  0.11115960349E+04  0.50400001928E-02 0. -1.
        1   -1    0    0  501    0  0.00000000000E+00  0.00000000000E+00 -0.27824717357E+04  0.27824717357E+04  0.50400001928E-02 0.  1.
    10030    2    1    2    0    0  0.00000000000E+00  0.00000000000E+00 -0.16708757008E+04  0.38940677706E+04  0.35173766068E+04 0.  0.
        2    1    3    3  502    0  0.12534084136E+04 -0.82516755997E+03  0.17986509083E+03  0.15113853262E+04  0.25500000920E-02 0. -1.
       -2    1    3    3    0  502 -0.12534084136E+04  0.82516755997E+03 -0.18507407916E+04  0.23826824444E+04  0.25500000920E-02 0.  1.
</event>
<event>
 5   0  0.2767014E-06  0.3405459E+04  0.7818609E-02  0.8136568E-01
        2   -1    0    0  501    0  0.00000000000E+00  0.00000000000E+00  0.13805990586E+04  0.13805990586E+04  0.25500000920E-02 0.  1.
       -2   -1    0    0    0  501  0.00000000000E+00  0.00000000000E+00 -0.21000217811E+04  0.21000217811E+04  0.25500000920E-02 0. -1.
    10030    2    1    2    0    0  0.00000000000E+00  0.00000000000E+00 -0.71942272256E+03  0.34806208397E+04  0.34054592019E+04 0.  0.
        1    1    3    3  502    0  0.11743906560E+03  0.68766958744E+03  0.12278272583E+04  0.14121760414E+04  0.50400001928E-02 0.  1.
       -1    1    3    3    0  502 -0.11743906560E+03 -0.68766958744E+03 -0.19472499809E+04  0.20684447983E+04  0.50400001928E-02 0. -1.
</event>
<event>
 5   0  0.2906701E-06  0.3029148E+04  0.7818609E-02  0.8235456E-01
       -2   -1    0    0    0  501  0.00000000000E+00  0.00000000000E+00  0.17445317822E+04  0.17445317822E+04  0.25500000920E-02 0.  1.
        2   -1    0    0  501    0  0.00000000000E+00  0.00000000000E+00 -0.13149283839E+04  0.13149283839E+04  0.25500000920E-02 0. -1.
    10030    2    1    2    0    0  0.00000000000E+00  0.00000000000E+00  0.42960339829E+03  0.30594601661E+04  0.30291479707E+04 0.  0.
        5    1    3    3  502    0 -0.12551953033E+04 -0.25713324914E+03  0.10305218342E+04  0.16442719052E+04  0.46999998093E+01 0.  1.
       -5    1    3    3    0  502  0.12551953033E+04  0.25713324914E+03 -0.60091843594E+03  0.14151882610E+04  0.46999998093E+01 0. -1.
</event>
<event>
 5   0  0.2848685E-06  0.3324209E+04  0.7818609E-02  0.8156763E-01
        2   -1    0    0  501    0  0.00000000000E+00  0.00000000000E+00  0.26163910434E+04  0.26163910434E+04  0.25500000920E-02 0. -1.
       -2   -1    0    0    0  501  0.00000000000E+00  0.00000000000E+00 -0.10558783591E+04  0.10558783591E+04  0.25500000920E-02 0.  1.
    10030    2    1    2    0    0  0.00000000000E+00  0.00000000000E+00  0.15605126843E+04  0.36722694025E+04  0.33242085866E+04 0.  0.
        3    1    3    3  502    0  0.13942998802E+04 -0.82839167731E+03  0.37846294996E+03  0.16653945904E+04  0.10100000352E+00 0.  1.
       -3    1    3    3    0  502 -0.13942998802E+04  0.82839167731E+03  0.11820497343E+04  0.20068748121E+04  0.10100000352E+00 0. -1.
</event>
<event>
 5   0  0.1010855E-06  0.3201362E+04  0.7818609E-02  0.8188458E-01
        1   -1    0    0  501    0  0.00000000000E+00  0.00000000000E+00  0.21071816664E+04  0.21071816664E+04  0.50400001928E-02 0. -1.
       -1   -1    0    0    0  501  0.00000000000E+00  0.00000000000E+00 -0.12159269682E+04  0.12159269682E+04  0.50400001928E-02 0.  1.
    10030    2    1    2    0    0  0.00000000000E+00  0.00000000000E+00  0.89125469821E+03  0.33231086346E+04  0.32013615948E+04 0.  0.
        1    1    3    3  502    0  0.23977928192E+03 -0.10567769069E+04  0.16685248753E+04  0.19895343160E+04  0.50400001928E-02 0. -1.
       -1    1    3    3    0  502 -0.23977928192E+03  0.10567769069E+04 -0.77727017711E+03  0.13335743186E+04  0.50400001928E-02 0.  1.
</event>
<event>
 5   0  0.2767014E-06  0.3355278E+04  0.7818609E-02  0.8148971E-01
        2   -1    0    0  501    0  0.00000000000E+00  0.00000000000E+00  0.18836914791E+04  0.18836914791E+04  0.25500000920E-02 0.  1.
       -2   -1    0    0    0  501  0.00000000000E+00  0.00000000000E+00 -0.14941257744E+04  0.14941257744E+04  0.25500000920E-02 0. -1.
    10030    2    1    2    0    0  0.00000000000E+00  0.00000000000E+00  0.38956570462E+03  0.33778172535E+04  0.33552776278E+04 0.  0.
        1    1    3    3  502    0  0.62756966461E+03 -0.95685020237E+03 -0.10402697655E+04  0.15464692622E+04  0.50400001928E-02 0. -1.
       -1    1    3    3    0  502 -0.62756966461E+03  0.95685020237E+03  0.14298354701E+04  0.18313479913E+04  0.50400001928E-02 0.  1.
</event>
<event>
 5   0  0.9714317E-07  0.3420639E+04  0.7818609E-02  0.8132859E-01
        1   -1    0    0  501    0  0.00000000000E+00  0.00000000000E+00  0.20134557094E+04  0.20134557094E+04  0.50400001928E-02 0. -1.
       -1   -1    0    0    0  501  0.00000000000E+00  0.00000000000E+00 -0.14528217193E+04  0.14528217193E+04  0.50400001928E-02 0.  1.
    10030    2    1    2    0    0  0.00000000000E+00  0.00000000000E+00  0.56063399004E+03  0.34662774287E+04  0.34206386453E+04 0.  0.
        4    1    3    3  502    0 -0.93990930555E+03 -0.11510536953E+04  0.11382752646E+04  0.18719044588E+04  0.12699999809E+01 0. -1.
       -4    1    3    3    0  502  0.93990930555E+03  0.11510536953E+04 -0.57764127451E+03  0.15943729699E+04  0.12699999809E+01 0.  1.
</event>
<event>
 5   0  0.2848685E-06  0.3390384E+04  0.7818609E-02  0.8140271E-01
       -2   -1    0    0    0  501  0.00000000000E+00  0.00000000000E+00  0.24993371941E+04  0.24993371941E+04  0.25500000920E-02 0.  1.
        2   -1    0    0  501    0  0.00000000000E+00  0.00000000000E+00 -0.11497750058E+04  0.11497750058E+04  0.25500000920E-02 0. -1.
    10030    2    1    2    0    0  0.00000000000E+00  0.00000000000E+00  0.13495621883E+04  0.36491122000E+04  0.33903837169E+04 0.  0.
        3    1    3    3  502    0 -0.10490554153E+04  0.19023785952E+03 -0.74373490019E+03  0.12999420447E+04  0.10100000352E+00 0. -1.
       -3    1    3    3    0  502  0.10490554153E+04 -0.19023785952E+03  0.20932970885E+04  0.23491701553E+04  0.10100000352E+00 0.  1.
</event>
<event>
 5   0  0.2856440E-06  0.3436495E+04  0.7818609E-02  0.8129007E-01
        2   -1    0    0  501    0  0.00000000000E+00  0.00000000000E+00  0.22050828229E+04  0.22050828229E+04  0.25500000920E-02 0.  1.
       -2   -1    0    0    0  501  0.00000000000E+00  0.00000000000E+00 -0.13388954268E+04  0.13388954268E+04  0.25500000920E-02 0. -1.
    10030    2    1    2    0    0  0.00000000000E+00  0.00000000000E+00  0.86618739617E+03  0.35439782497E+04  0.34364954865E+04 0.  0.
        4    1    3    3  502    0  0.17043297125E+04  0.54604766672E+02  0.21517378433E+03  0.17187270929E+04  0.12699999809E+01 0. -1.
       -4    1    3    3    0  502 -0.17043297125E+04 -0.54604766672E+02  0.65101361184E+03  0.18252511568E+04  0.12699999809E+01 0.  1.
</event>
<event>
 5   0  0.1010855E-06  0.2291626E+04  0.7818609E-02  0.8481230E-01
        1   -1    0    0  501    0  0.00000000000E+00  0.00000000000E+00  0.25041108658E+04  0.25041108658E+04  0.50400001928E-02 0. -1.
       -1   -1    0    0    0  501  0.00000000000E+00  0.00000000000E+00 -0.52429291887E+03  0.52429291890E+03  0.50400001928E-02 0.  1.
    10030    2    1    2    0    0  0.00000000000E+00  0.00000000000E+00  0.19798179470E+04  0.30284037847E+04  0.22916261432E+04 0.  0.
        1    1    3    3  502    0  0.75941304436E+03 -0.76561433736E+03  0.15017511463E+04  0.18488185392E+04  0.50400001928E-02 0. -1.
       -1    1    3    3    0  502 -0.75941304436E+03  0.76561433736E+03  0.47806680064E+03  0.11795852455E+04  0.50400001928E-02 0.  1.
</event>
<event>
 5   0  0.2767014E-06  0.3626492E+04  0.7818609E-02  0.8084450E-01
        2   -1    0    0  501    0  0.00000000000E+00  0.00000000000E+00  0.14835343921E+04  0.14835343921E+04  0.25500000920E-02 0. -1.
       -2   -1    0    0    0  501  0.00000000000E+00  0.00000000000E+00 -0.22162352855E+04  0.22162352855E+04  0.25500000920E-02 0.  1.
    10030    2    1    2    0    0  0.00000000000E+00  0.00000000000E+00 -0.73270089345E+03  0.36997696776E+04  0.36264921161E+04 0.  0.
        1    1    3    3  502    0  0.18297776924E+03 -0.76337792581E+03 -0.20338912759E+04  0.21801239515E+04  0.50400001928E-02 0.  1.
       -1    1    3    3    0  502 -0.18297776924E+03  0.76337792581E+03  0.13011903824E+04  0.15196457261E+04  0.50400001928E-02 0. -1.
</event>
<event>
 5   0  0.1003191E-06  0.3402477E+04  0.7818609E-02  0.8137299E-01
        1   -1    0    0  501    0  0.00000000000E+00  0.00000000000E+00  0.19515071880E+04  0.19515071880E+04  0.50400001928E-02 0. -1.
       -1   -1    0    0    0  501  0.00000000000E+00  0.00000000000E+00 -0.14830652550E+04  0.14830652550E+04  0.50400001928E-02 0.  1.
    10030    2    1    2    0    0  0.00000000000E+00  0.00000000000E+00  0.46844193302E+03  0.34345724431E+04  0.34024770421E+04 0.  0.
        5    1    3    3  502    0  0.10751377109E+04  0.12066897544E+04  0.77042767869E+03  0.17904195483E+04  0.46999998093E+01 0.  1.
       -5    1    3    3    0  502 -0.10751377109E+04 -0.12066897544E+04 -0.30198574567E+03  0.16441528948E+04  0.46999998093E+01 0. -1.
</event>
<event>
 5   0  0.1003191E-06  0.3392184E+04  0.7818609E-02  0.8139827E-01
        1   -1    0    0  501    0  0.00000000000E+00  0.00000000000E+00  0.18485463743E+04  0.18485463743E+04  0.50400001928E-02 0. -1.
       -1   -1    0    0    0  501  0.00000000000E+00  0.00000000000E+00 -0.15562110296E+04  0.15562110296E+04  0.50400001928E-02 0.  1.
    10030    2    1    2    0    0  0.00000000000E+00  0.00000000000E+00  0.29233534472E+03  0.34047574039E+04  0.33921841085E+04 0.  0.
        5    1    3    3  502    0  0.39469344944E+03  0.11566134098E+04  0.13266087909E+04  0.18037323728E+04  0.46999998093E+01 0. -1.
       -5    1    3    3    0  502 -0.39469344944E+03 -0.11566134098E+04 -0.10342734462E+04  0.16010250311E+04  0.46999998093E+01 0.  1.
</event>
<event>
 5   0  0.1010855E-06  0.3425033E+04  0.7818609E-02  0.8131790E-01
       -1   -1    0    0    0  501  0.00000000000E+00  0.00000000000E+00  0.11488353556E+04  0.11488353556E+04  0.50400001928E-02 0.  1.
        1   -1    0    0  501    0  0.00000000000E+00  0.00000000000E+00 -0.25527697029E+04  0.25527697030E+04  0.50400001928E-02 0. -1.
    10030    2    1    2    0    0  0.00000000000E+00  0.00000000000E+00 -0.14039343473E+04  0.37016050586E+04  0.34250326069E+04 0.  0.
        1    1    3    3  502    0 -0.49970581193E+03  0.48532884480E+03 -0.23927325960E+04  0.24920712795E+04  0.50400001928E-02 0. -1.
       -1    1    3    3    0  502  0.49970581193E+03 -0.48532884480E+03  0.98879824871E+03  0.12095337791E+04  0.50400001928E-02 0.  1.
</event>
<event>
 5   0  0.9232963E-07  0.2683503E+04  0.7818609E-02  0.8340378E-01
        1   -1    0    0  501    0  0.00000000000E+00  0.00000000000E+00  0.12272674130E+04  0.12272674130E+04  0.50400001928E-02 0.  1.
       -1   -1    0    0    0  501  0.00000000000E+00  0.00000000000E+00 -0.14669151545E+04  0.14669151545E+04  0.50400001928E-02 0. -1.
    10030    2    1    2    0    0  0.00000000000E+00  0.00000000000E+00 -0.23964774156E+03  0.26941825675E+04  0.26835030589E+04 0.  0.
        3    1    3    3  502    0  0.21505938420E+03 -0.32978175458E+03  0.11679696535E+04  0.12325419531E+04  0.10100000352E+00 0.  1.
       -3    1    3    3    0  502 -0.21505938420E+03  0.32978175458E+03 -0.14076173951E+04  0.14616406144E+04  0.10100000352E+00 0. -1.
</event>
<event>
 5   0  0.9232963E-07  0.3503338E+04  0.7818609E-02  0.8112999E-01
       -1   -1    0    0    0  501  0.00000000000E+00  0.00000000000E+00  0.20304896679E+04  0.20304896679E+04  0.50400001928E-02 0.  1.
        1   -1    0    0  501    0  0.00000000000E+00  0.00000000000E+00 -0.15111353993E+04  0.15111353993E+04  0.50400001928E-02 0. -1.
    10030    2    1    2    0    0  0.00000000000E+00  0.00000000000E+00  0.51935426860E+03  0.35416250673E+04  0.35033383024E+04 0.  0.
        3    1    3    3  502    0  0.16559043355E+04 -0.55588191887E+03  0.39272444305E+03  0.17903229805E+04  0.10100000352E+00 0.  1.
       -3    1    3    3    0  502 -0.16559043355E+04  0.55588191887E+03  0.12662982555E+03  0.17513020868E+04  0.10100000352E+00 0. -1.
</event>
<event>
 5   0  0.9714317E-07  0.3281778E+04  0.7818609E-02  0.8167548E-01
       -1   -1    0    0    0  501  0.00000000000E+00  0.00000000000E+00  0.10294153323E+04  0.10294153324E+04  0.50400001928E-02 0. -1.
        1   -1    0    0  501    0  0.00000000000E+00  0.00000000000E+00 -0.26155784474E+04  0.26155784474E+04  0.50400001928E-02 0.  1.
    10030    2    1    2    0    0  0.00000000000E+00  0.00000000000E+00 -0.15861631151E+04  0.36449937798E+04  0.32817779064E+04 0.  0.
        4    1    3    3  502    0  0.10430836809E+04  0.50941832246E+03 -0.20811715921E+04  0.23830248428E+04  0.12699999809E+01 0.  1.
       -4    1    3    3    0  502 -0.10430836809E+04 -0.50941832246E+03  0.49500847706E+03  0.12619689370E+04  0.12699999809E+01 0. -1.
</event>
<event>
 5   0  0.9232963E-07  0.2082598E+04  0.7818609E-02  0.8568948E-01
        1   -1    0    0  501    0  0.00000000000E+00  0.00000000000E+00  0.23444308858E+04  0.23444308858E+04  0.50400001928E-02 0. -1.
       -1   -1    0    0    0  501  0.00000000000E+00  0.00000000000E+00 -0.46250167028E+03  0.46250167031E+03  0.50400001928E-02 0.  1.
    10030    2    1    2    0    0  0.00000000000E+00  0.00000000000E+00  0.18819292155E+04  0.28069325561E+04  0.20825976093E+04 0.  0.
        3    1    3    3  502    0  0.23910009141E+01 -0.10412415914E+04  0.95531866856E+03  0.14130900670E+04  0.10100000352E+00 0. -1.
       -3    1    3    3    0  502 -0.23910009141E+01  0.10412415914E+04  0.92661054697E+03  0.13938424892E+04  0.10100000352E+00 0.  1.
</event>
<event>
 5   0  0.1010855E-06  0.3136644E+04  0.7818609E-02  0.8205753E-01
       -1   -1    0    0    0  501  0.00000000000E+00  0.00000000000E+00  0.14872470577E+04  0.14872470577E+04  0.50400001928E-02 0.  1.
        1   -1    0    0  501    0  0.00000000000E+00  0.00000000000E+00 -0.16538162047E+04  0.16538162047E+04  0.50400001928E-02 0. -1.
    10030    2    1    2    0    0  0.00000000000E+00  0.00000000000E+00 -0.16656914699E+03  0.31410632623E+04  0.31366436102E+04 0.  0.
        1    1    3    3  502    0 -0.61348238615E+03 -0.79805554792E+03  0.11210654051E+04  0.15066655031E+04  0.50400001928E-02 0.  1.
       -1    1    3    3    0  502  0.61348238615E+03  0.79805554792E+03 -0.12876345521E+04  0.16343977592E+04  0.50400001928E-02 0. -1.
</event>
<event>
 5   0  0.1003191E-06  0.3352127E+04  0.7818609E-02  0.8149757E-01
       -1   -1    0    0    0  501  0.00000000000E+00  0.00000000000E+00  0.13153602728E+04  0.13153602728E+04  0.50400001928E-02 0.  1.
        1   -1    0    0  501    0  0.00000000000E+00  0.00000000000E+00 -0.21356806671E+04  0.21356806671E+04  0.50400001928E-02 0. -1.
    10030    2    1    2    0    0  0.00000000000E+00  0.00000000000E+00 -0.82032039426E+03  0.34510409399E+04  0.33521273871E+04 0.  0.
        5    1    3    3  502    0 -0.14131676947E+04  0.18045032968E+03  0.49882115199E+03  0.15094535059E+04  0.46999998093E+01 0.  1.
       -5    1    3    3    0  502  0.14131676947E+04 -0.18045032968E+03 -0.13191415463E+04  0.19415874340E+04  0.46999998093E+01 0. -1.
</event>
<event>
 5   0  0.2848685E-06  0.3342020E+04  0.7818609E-02  0.8152285E-01
        2   -1    0    0  501    0  0.00000000000E+00  0.00000000000E+00  0.22029948989E+04  0.22029948989E+04  0.25500000920E-02 0. -1.
       -2   -1    0    0    0  501  0.00000000000E+00  0.00000000000E+00 -0.12674904565E+04  0.12674904565E+04  0.25500000920E-02 0.  1.
    10030    2    1    2    0    0  0.00000000000E+00  0.00000000000E+00  0.93550444234E+03  0.34704853554E+04  0.33420203531E+04 0.  0.
        3    1    3    3  502    0  0.13313495393E+04 -0.66429380226E+03 -0.32207434427E+03  0.15223369354E+04  0.10100000352E+00 0.  1.
       -3    1    3    3    0  502 -0.13313495393E+04  0.66429380226E+03  0.12575787866E+04  0.19481484200E+04  0.10100000352E+00 0. -1.
</event>
<event>
 5   0  0.2664083E-06  0.3352795E+04  0.7818609E-02  0.8149590E-01
        2   -1    0    0  501    0  0.00000000000E+00  0.00000000000E+00  0.19823346488E+04  0.19823346488E+04  0.25500000920E-02 0.  1.
       -2   -1    0    0    0  501  0.00000000000E+00  0.00000000000E+00 -0.14176765070E+04  0.14176765070E+04  0.25500000920E-02 0. -1.
    10030    2    1    2    0    0  0.00000000000E+00  0.00000000000E+00  0.56465814186E+03  0.34000111558E+04  0.33527954072E+04 0.  0.
        2    1    3    3  502    0 -0.42638135211E+03 -0.16212638878E+04  0.28578430867E+03  0.17005794078E+04  0.25500000920E-02 0.  1.
       -2    1    3    3    0  502  0.42638135211E+03  0.16212638878E+04  0.27887383319E+03  0.16994317480E+04  0.25500000920E-02 0. -1.
</event>
<event>
 5   0  0.1003191E-06  0.3226053E+04  0.7818609E-02  0.8181970E-01
        1   -1    0    0  501    0  0.00000000000E+00  0.00000000000E+00  0.23916767627E+04  0.23916767627E+04  0.50400001928E-02 0.  1.
       -1   -1    0    0    0  501  0.00000000000E+00  0.00000000000E+00 -0.10878786095E+04  0.10878786095E+04  0.50400001928E-02 0. -1.
    10030    2    1    2    0    0  0.00000000000E+00  0.00000000000E+00  0.13037981532E+04  0.34795553723E+04  0.32260526909E+04 0.  0.
        5    1    3    3  502    0 -0.71047479425E+03 -0.14473182783E+04  0.70393168538E+03  0.17592744356E+04  0.46999998093E+01 0. -1.
       -5    1    3    3    0  502  0.71047479425E+03  0.14473182783E+04  0.59986646781E+03  0.17202809367E+04  0.46999998093E+01 0.  1.
</event>
<event>
 5   0  0.2848685E-06  0.3285450E+04  0.7818609E-02  0.8166608E-01
       -2   -1    0    0    0  501  0.00000000000E+00  0.00000000000E+00  0.17385641395E+04  0.17385641395E+04  0.25500000920E-02 0.  1.
        2   -1    0    0  501    0  0.00000000000E+00  0.00000000000E+00 -0.15521691005E+04  0.15521691005E+04  0.25500000920E-02 0. -1.
    10030    2    1    2    0    0  0.00000000000E+00  0.00000000000E+00  0.18639503900E+03  0.32907332401E+04  0.32854500676E+04 0.  0.
        3    1    3    3  502    0 -0.95321987183E+03  0.24393629029E+03 -0.12243692331E+04  0.15707364728E+04  0.10100000352E+00 0. -1.
       -3    1    3    3    0  502  0.95321987183E+03 -0.24393629029E+03  0.14107642721E+04  0.17199967673E+04  0.10100000352E+00 0.  1.
</event>
<event>
 5   0  0.2767014E-06  0.3276171E+04  0.7818609E-02  0.8168985E-01
       -2   -1    0    0    0  501  0.00000000000E+00  0.00000000000E+00  0.95506152345E+03  0.95506152345E+03  0.25500000920E-02 0. -1.
        2   -1    0    0  501    0  0.00000000000E+00  0.00000000000E+00 -0.28095829662E+04  0.28095829662E+04  0.25500000920E-02 0.  1.
    10030    2    1    2    0    0  0.00000000000E+00  0.00000000000E+00 -0.18545214427E+04  0.37646444896E+04  0.32761712946E+04 0.  0.
        1    1    3    3  502    0 -0.13965969171E+04 -0.85576600267E+03 -0.95311385726E+03  0.18950578949E+04  0.50400001928E-02 0.  1.
       -1    1    3    3    0  502  0.13965969171E+04  0.85576600267E+03 -0.90140758545E+03  0.18695865947E+04  0.50400001928E-02 0. -1.
</event>
<event>
 5   0  0.2856440E-06  0.3442592E+04  0.7818609E-02  0.8127531E-01
        2   -1    0    0  501    0  0.00000000000E+00  0.00000000000E+00  0.18311487208E+04  0.18311487208E+04  0.25500000920E-02 0.  1.
       -2   -1    0    0    0  501  0.00000000000E+00  0.00000000000E+00 -0.16180335037E+04  0.16180335037E+04  0.25500000920E-02 0. -1.
    10030    2    1    2    0    0  0.00000000000E+00  0.00000000000E+00  0.21311521714E+03  0.34491822245E+04  0.34425920354E+04 0.  0.
        4    1    3    3  502    0  0.11759606284E+04  0.87277910109E+03 -0.79973555899E+03  0.16685938200E+04  0.12699999809E+01 0. -1.
       -4    1    3    3    0  502 -0.11759606284E+04 -0.87277910109E+03  0.10128507761E+04  0.17805884046E+04  0.12699999809E+01 0.  1.
</event>
<event>
 5   0  0.2664083E-06  0.3318672E+04  0.7818609E-02  0.8158161E-01
       -2   -1    0    0    0  501  0.00000000000E+00  0.00000000000E+00  0.13497870108E+04  0.13497870108E+04  0.25500000920E-02 0. -1.
        2   -1    0    0  501    0  0.00000000000E+00  0.00000000000E+00 -0.20398740826E+04  0.20398740826E+04  0.25500000920E-02 0.  1.
    10030    2    1    2    0    0  0.00000000000E+00  0.00000000000E+00 -0.69008707185E+03  0.33896610934E+04  0.33186717466E+04 0.  0.
        2    1    3    3  502    0  0.85568902070E+03 -0.22801814137E+03  0.10882556243E+04  0.14030311032E+04  0.25500000920E-02 0. -1.
       -2    1    3    3    0  502 -0.85568902070E+03  0.22801814137E+03 -0.17783426961E+04  0.19866299902E+04  0.25500000920E-02 0.  1.
</event>
<event>
 5   0  0.1003191E-06  0.3230386E+04  0.7818609E-02  0.8180838E-01
       -1   -1    0    0    0  501  0.00000000000E+00  0.00000000000E+00  0.23967682947E+04  0.23967682947E+04  0.50400001928E-02 0. -1.
        1   -1    0    0  501    0  0.00000000000E+00  0.00000000000E+00 -0.10884861167E+04  0.10884861167E+04  0.50400001928E-02 0.  1.
    10030    2    1    2    0    0  0.00000000000E+00  0.00000000000E+00  0.13082821779E+04  0.34852544114E+04  0.32303863631E+04 0.  0.
        5    1    3    3  502    0  0.96675699401E+03  0.31190169785E+03  0.20089734447E+04  0.22511992684E+04  0.46999998093E+01 0. -1.
       -5    1    3    3    0  502 -0.96675699401E+03 -0.31190169785E+03 -0.70069126678E+03  0.12340551430E+04  0.46999998093E+01 0.  1.
</event>
<event>
 5   0  0.2664083E-06  0.2365343E+04  0.7818609E-02  0.8452594E-01
        2   -1    0    0  501    0  0.00000000000E+00  0.00000000000E+00  0.15821912666E+04  0.15821912666E+04  0.25500000920E-02 0. -1.
       -2   -1    0    0    0  501  0.00000000000E+00  0.00000000000E+00 -0.88403475480E+03  0.88403475480E+03  0.25500000920E-02 0.  1.
    10030    2    1    2    0    0  0.00000000000E+00  0.00000000000E+00  0.69815651179E+03  0.24662260214E+04  0.23653431619E+04 0.  0.
        2    1    3    3  502    0 -0.10183778527E+04 -0.24804834330E+03  0.92024766805E+03  0.13948036429E+04  0.25500000920E-02 0. -1.
       -2    1    3    3    0  502  0.10183778527E+04  0.24804834330E+03 -0.22209115626E+03  0.10714223785E+04  0.25500000920E-02 0.  1.
</event>
<event>
 5   0  0.1003191E-06  0.3443463E+04  0.7818609E-02  0.8127321E-01
       -1   -1    0    0    0  501  0.00000000000E+00  0.00000000000E+00  0.18405394651E+04  0.18405394651E+04  0.50400001928E-02 0.  1.
        1   -1    0    0  501    0  0.00000000000E+00  0.00000000000E+00 -0.16105922691E+04  0.16105922691E+04  0.50400001928E-02 0. -1.
    10030    2    1    2    0    0  0.00000000000E+00  0.00000000000E+00  0.22994719592E+03  0.34511317342E+04  0.34434625791E+04 0.  0.
        5    1    3    3  502    0 -0.13308683457E+04  0.80378399588E+03  0.85625408722E+03  0.17749570185E+04  0.46999998093E+01 0.  1.
       -5    1    3    3    0  502  0.13308683457E+04 -0.80378399588E+03 -0.62630689130E+03  0.16761747157E+04  0.46999998093E+01 0. -1.
</event>
<event>
 5   0  0.9714317E-07  0.3406908E+04  0.7818609E-02  0.8136213E-01
        1   -1    0    0  501    0  0.00000000000E+00  0.00000000000E+00  0.93855946957E+03  0.93855946959E+03  0.50400001928E-02 0. -1.
       -1   -1    0    0    0  501  0.00000000000E+00  0.00000000000E+00 -0.30917116590E+04  0.30917116590E+04  0.50400001928E-02 0.  1.
    10030    2    1    2    0    0  0.00000000000E+00  0.00000000000E+00 -0.21531521894E+04  0.40302711286E+04  0.34069078384E+04 0.  0.
        4    1    3    3  502    0 -0.12454636648E+02 -0.72044519075E+03 -0.29025541362E+04  0.29906551987E+04  0.12699999809E+01 0.  1.
       -4    1    3    3    0  502  0.12454636648E+02  0.72044519075E+03  0.74940194682E+03  0.10396159299E+04  0.12699999809E+01 0. -1.
</event>
<event>
 5   0  0.1010551E-06  0.3431561E+04  0.7818609E-02  0.8130203E-01
        1   -1    0    0  501    0  0.00000000000E+00  0.00000000000E+00  0.21095124854E+04  0.21095124854E+04  0.50400001928E-02 0. -1.
       -1   -1    0    0    0  501  0.00000000000E+00  0.00000000000E+00 -0.13955366631E+04  0.13955366631E+04  0.50400001928E-02 0.  1.
    10030    2    1    2    0    0  0.00000000000E+00  0.00000000000E+00  0.71397582230E+03  0.35050491486E+04  0.34315605865E+04 0.  0.
        2    1    3    3  502    0  0.11291306067E+04 -0.77941990194E+03 -0.69535298257E+03  0.15381635417E+04  0.25500000920E-02 0.  1.
       -2    1    3    3    0  502 -0.11291306067E+04  0.77941990194E+03  0.14093288049E+04  0.19668856069E+04  0.25500000920E-02 0. -1.
</event>
<event>
 5   0  0.9714317E-07  0.3387839E+04  0.7818609E-02  0.8140898E-01
       -1   -1    0    0    0  501  0.00000000000E+00  0.00000000000E+00  0.16441117003E+04  0.16441117003E+04  0.50400001928E-02 0. -1.
        1   -1    0    0  501    0  0.00000000000E+00  0.00000000000E+00 -0.17452357308E+04  0.17452357308E+04  0.50400001928E-02 0.  1.
    10030    2    1    2    0    0  0.00000000000E+00  0.00000000000E+00 -0.10112403051E+03  0.33893474312E+04  0.33878385350E+04 0.  0.
        4    1    3    3  502    0  0.14932609453E+04 -0.76861777224E+03  0.17035150757E+03  0.16880825749E+04  0.12699999809E+01 0.  1.
       -4    1    3    3    0  502 -0.14932609453E+04  0.76861777224E+03 -0.27147553808E+03  0.17012648563E+04  0.12699999809E+01 0. -1.
</event>
<event>
 5   0  0.2767014E-06  0.2637051E+04  0.7818609E-02  0.8355724E-01
       -2   -1    0    0    0  501  0.00000000000E+00  0.00000000000E+00  0.13779552258E+04  0.13779552258E+04  0.25500000920E-02 0.  1.
        2   -1    0    0  501    0  0.00000000000E+00  0.00000000000E+00 -0.12616587941E+04  0.12616587941E+04  0.25500000920E-02 0. -1.
    10030    2    1    2    0    0  0.00000000000E+00  0.00000000000E+00  0.11629643176E+03  0.26396140199E+04  0.26370508744E+04 0.  0.
        1    1    3    3  502    0  0.82120715340E+03 -0.96478801643E+03 -0.30732613495E+03  0.13037048971E+04  0.50400001928E-02 0. -1.
       -1    1    3    3    0  502 -0.82120715340E+03  0.96478801643E+03  0.42362256670E+03  0.13359091228E+04  0.50400001928E-02 0.  1.
</event>
<event>
 5   0  0.2856440E-06  0.3378754E+04  0.7818609E-02  0.8143140E-01
       -2   -1    0    0    0  501  0.00000000000E+00  0.00000000000E+00  0.28044838325E+04  0.28044838325E+04  0.25500000920E-02 0. -1.
        2   -1    0    0  501    0  0.00000000000E+00  0.00000000000E+00 -0.10176543784E+04  0.10176543784E+04  0.25500000920E-02 0.  1.
    10030    2    1    2    0    0  0.00000000000E+00  0.00000000000E+00  0.17868294541E+04  0.38221382109E+04  0.33787543570E+04 0.  0.
        4    1    3    3  502    0 -0.56114068480E+03  0.95356570803E+03 -0.55076269405E+03  0.12359237783E+04  0.12699999809E+01 0.  1.
       -4    1    3    3    0  502  0.56114068480E+03 -0.95356570803E+03  0.23375921481E+04  0.25862144326E+04  0.12699999809E+01 0. -1.
</event>
<event>
 5   0  0.9232963E-07  0.3394039E+04  0.7818609E-02  0.8139371E-01
        1   -1    0    0  501    0  0.00000000000E+00  0.00000000000E+00  0.18727539334E+04  0.18727539334E+04  0.50400001928E-02 0. -1.
       -1   -1    0    0    0  501  0.00000000000E+00  0.00000000000E+00 -0.15377752805E+04  0.15377752805E+04  0.50400001928E-02 0.  1.
    10030    2    1    2    0    0  0.00000000000E+00  0.00000000000E+00  0.33497865298E+03  0.34105292139E+04  0.33940387182E+04 0.  0.
        3    1    3    3  502    0  0.15138302122E+04  0.69447061560E+03  0.49449841725E+03  0.17373831017E+04  0.10100000352E+00 0. -1.
       -3    1    3    3    0  502 -0.15138302122E+04 -0.69447061560E+03 -0.15951976427E+03  0.16731461122E+04  0.10100000352E+00 0.  1.
</event>
<event>
 5   0  0.2848685E-06  0.3445057E+04  0.7818609E-02  0.8126935E-01
        2   -1    0    0  501    0  0.00000000000E+00  0.00000000000E+00  0.20543763010E+04  0.20543763010E+04  0.25500000920E-02 0. -1.
       -2   -1    0    0    0  501  0.00000000000E+00  0.00000000000E+00 -0.14442851990E+04  0.14442851990E+04  0.25500000920E-02 0.  1.
    10030    2    1    2    0    0  0.00000000000E+00  0.00000000000E+00  0.61009110200E+03  0.34986615001E+04  0.34450574943E+04 0.  0.
        3    1    3    3  502    0 -0.22756944221E+03  0.41869330445E+03  0.19861000388E+04  0.20424703936E+04  0.10100000352E+00 0. -1.
       -3    1    3    3    0  502  0.22756944221E+03 -0.41869330445E+03 -0.13760089368E+04  0.14561911065E+04  0.10100000352E+00 0.  1.
</event>
<event>
 5   0  0.9232963E-07  0.3479557E+04  0.7818609E-02  0.8118652E-01
       -1   -1    0    0    0  501  0.00000000000E+00  0.00000000000E+00  0.12025212613E+04  0.12025212614E+04  0.50400001928E-02 0. -1.
        1   -1    0    0  501    0  0.00000000000E+00  0.00000000000E+00 -0.25170685195E+04  0.25170685195E+04  0.50400001928E-02 0.  1.
    10030    2    1    2    0    0  0.00000000000E+00  0.00000000000E+00 -0.13145472581E+04  0.37195897808E+04  0.34795565298E+04 0.  0.
        3    1    3    3  502    0  0.12122305155E+04  0.12446963181E+04 -0.75322440624E+03  0.18937050360E+04  0.10100000352E+00 0. -1.
       -3    1    3    3    0  502 -0.12122305155E+04 -0.12446963181E+04 -0.56132285187E+03  0.18258847448E+04  0.10100000352E+00 0.  1.
</event>
<event>
 5   0  0.1010551E-06  0.3395432E+04  0.7818609E-02  0.8139028E-01
       -1   -1    0    0    0  501  0.00000000000E+00  0.00000000000E+00  0.18219264038E+04  0.18219264038E+04  0.50400001928E-02 0. -1.
        1   -1    0    0  501    0  0.00000000000E+00  0.00000000000E+00 -0.15819733456E+04  0.15819733456E+04  0.50400001928E-02 0.  1.
    10030    2    1    2    0    0  0.00000000000E+00  0.00000000000E+00  0.23995305815E+03  0.34038997494E+04  0.33954316418E+04 0.  0.
        2    1    3    3  502    0  0.16516901901E+04 -0.37936715264E+03  0.18535790368E+02  0.16947989545E+04  0.25500000920E-02 0.  1.
       -2    1    3    3    0  502 -0.16516901901E+04  0.37936715264E+03  0.22141726778E+03  0.17091007949E+04  0.25500000920E-02 0. -1.
</event>
<event>
 5   0  0.2664083E-06  0.3350556E+04  0.7818609E-02  0.8150149E-01
        2   -1    0    0  501    0  0.00000000000E+00  0.00000000000E+00  0.16263122521E+04  0.16263122521E+04  0.25500000920E-02 0.  1.
       -2   -1    0    0    0  501  0.00000000000E+00  0.00000000000E+00 -0.17257175551E+04  0.17257175551E+04  0.25500000920E-02 0. -1.
    10030    2    1    2    0    0  0.00000000000E+00  0.00000000000E+00 -0.99405302953E+02  0.33520298072E+04  0.33505555381E+04 0.  0.
        2    1    3    3  502    0  0.61834891517E+03  0.11815951504E+04  0.96466316342E+03  0.16459336254E+04  0.25500000920E-02 0.  1.
       -2    1    3    3    0  502 -0.61834891517E+03 -0.11815951504E+04 -0.10640684664E+04  0.17060961818E+04  0.25500000920E-02 0. -1.
</event>
<event>
 5   0  0.9070500E-07  0.2277662E+04  0.7818609E-02  0.8486781E-01
       -3   -1    0    0    0  501  0.00000000000E+00  0.00000000000E+00  0.11159840731E+04  0.11159840777E+04  0.10100000352E+00 0. -1.
        3   -1    0    0  501    0  0.00000000000E+00  0.00000000000E+00 -0.11621458457E+04  0.11621458500E+04  0.10100000352E+00 0.  1.
    10030    2    1    2    0    0  0.00000000000E+00  0.00000000000E+00 -0.46161772542E+02  0.22781299277E+04  0.22776621915E+04 0.  0.
        1    1    3    3  502    0 -0.23192719560E+03  0.82306148520E+03 -0.77537617707E+03  0.11543087319E+04  0.50400001928E-02 0.  1.
       -1    1    3    3    0  502  0.23192719560E+03 -0.82306148520E+03  0.72921440453E+03  0.11238211959E+04  0.50400001928E-02 0. -1.
</event>
<event>
 5   0  0.1010855E-06  0.2092815E+04  0.7818609E-02  0.8564415E-01
       -1   -1    0    0    0  501  0.00000000000E+00  0.00000000000E+00  0.82523728493E+03  0.82523728495E+03  0.50400001928E-02 0. -1.
        1   -1    0    0  501    0  0.00000000000E+00  0.00000000000E+00 -0.13268534195E+04  0.13268534195E+04  0.50400001928E-02 0.  1.
    10030    2    1    2    0    0  0.00000000000E+00  0.00000000000E+00 -0.50161613452E+03  0.21520907044E+04  0.20928152459E+04 0.  0.
        1    1    3    3  502    0  0.56808509543E+03  0.33623255106E+02  0.65219665448E+03  0.86557014452E+03  0.50400001928E-02 0. -1.
       -1    1    3    3    0  502 -0.56808509543E+03 -0.33623255106E+02 -0.11538127890E+04  0.12865205599E+04  0.50400001928E-02 0.  1.
</event>
<event>
 5   0  0.2856440E-06  0.2496275E+04  0.7818609E-02  0.8404314E-01
        2   -1    0    0  501    0  0.00000000000E+00  0.00000000000E+00  0.15827468341E+04  0.15827468341E+04  0.25500000920E-02 0.  1.
       -2   -1    0    0    0  501  0.00000000000E+00  0.00000000000E+00 -0.98426777721E+03  0.98426777722E+03  0.25500000920E-02 0. -1.
    10030    2    1    2    0    0  0.00000000000E+00  0.00000000000E+00  0.59847905685E+03  0.25670146113E+04  0.24962745909E+04 0.  0.
        4    1    3    3  502    0 -0.63349080344E+03  0.10272164147E+04 -0.28154902722E+02  0.12071778958E+04  0.12699999809E+01 0. -1.
       -4    1    3    3    0  502  0.63349080344E+03 -0.10272164147E+04  0.62663395958E+03  0.13598367155E+04  0.12699999809E+01 0.  1.
</event>
<event>
 5   0  0.1010855E-06  0.3388997E+04  0.7818609E-02  0.8140612E-01
        1   -1    0    0  501    0  0.00000000000E+00  0.00000000000E+00  0.20341549709E+04  0.20341549709E+04  0.50400001928E-02 0.  1.
       -1   -1    0    0    0  501  0.00000000000E+00  0.00000000000E+00 -0.14115568373E+04  0.14115568373E+04  0.50400001928E-02 0. -1.
    10030    2    1    2    0    0  0.00000000000E+00  0.00000000000E+00  0.62259813359E+03  0.34457118082E+04  0.33889971126E+04 0.  0.
        1    1    3    3  502    0  0.14045208735E+04 -0.84308194012E+03 -0.12938172415E+03  0.16432302554E+04  0.50400001928E-02 0.  1.
       -1    1    3    3    0  502 -0.14045208735E+04  0.84308194012E+03  0.75197985774E+03  0.18024815528E+04  0.50400001928E-02 0. -1.
</event>
<event>
 5   0  0.2856440E-06  0.3373047E+04  0.7818609E-02  0.8144553E-01
        2   -1    0    0  501    0  0.00000000000E+00  0.00000000000E+00  0.19151135304E+04  0.19151135304E+04  0.25500000920E-02 0.  1.
       -2   -1    0    0    0  501  0.00000000000E+00  0.00000000000E+00 -0.14852180518E+04  0.14852180518E+04  0.25500000920E-02 0. -1.
    10030    2    1    2    0    0  0.00000000000E+00  0.00000000000E+00  0.42989547856E+03  0.34003315822E+04  0.33730468047E+04 0.  0.
        4    1    3    3  502    0 -0.42077403210E+03  0.43638854103E+03  0.18014870736E+04  0.19007480196E+04  0.12699999809E+01 0.  1.
       -4    1    3    3    0  502  0.42077403210E+03 -0.43638854103E+03 -0.13715915950E+04  0.14995835626E+04  0.12699999809E+01 0. -1.
</event>
<event>
 5   0  0.2906701E-06  0.3293818E+04  0.7818609E-02  0.8164470E-01
        2   -1    0    0  501    0  0.00000000000E+00  0.00000000000E+00  0.16121003487E+04  0.16121003487E+04  0.25500000920E-02 0. -1.
       -2   -1    0    0    0  501  0.00000000000E+00  0.00000000000E+00 -0.16824692029E+04  0.16824692029E+04  0.25500000920E-02 0.  1.
    10030    2    1    2    0    0  0.00000000000E+00  0.00000000000E+00 -0.70368854181E+02  0.32945695515E+04  0.32938179601E+04 0.  0.
        5    1    3    3  502    0  0.46590021215E+03 -0.15165680143E+04 -0.47715123847E+03  0.16567247641E+04  0.46999998093E+01 0. -1.
       -5    1    3    3    0  502 -0.46590021215E+03  0.15165680143E+04  0.40678238429E+03  0.16378447874E+04  0.46999998093E+01 0.  1.
</event>
<event>
 5   0  0.9714317E-07  0.3041352E+04  0.7818609E-02  0.8232020E-01
       -1   -1    0    0    0  501  0.00000000000E+00  0.00000000000E+00  0.10656227359E+04  0.10656227359E+04  0.50400001928E-02 0.  1.
        1   -1    0    0  501    0  0.00000000000E+00  0.00000000000E+00 -0.21700503666E+04  0.21700503666E+04  0.50400001928E-02 0. -1.
    10030    2    1    2    0    0  0.00000000000E+00  0.00000000000E+00 -0.11044276307E+04  0.32356731026E+04  0.30413516789E+04 0.  0.
        4    1    3    3  502    0 -0.12230879545E+04  0.59430919816E+03  0.17194176044E+03  0.13706615736E+04  0.12699999809E+01 0.  1.
       -4    1    3    3    0  502  0.12230879545E+04 -0.59430919816E+03 -0.12763693912E+04  0.18650115290E+04  0.12699999809E+01 0. -1.
</event>
<event>
 5   0  0.2906701E-06  0.3386327E+04  0.7818609E-02  0.8141270E-01
        2   -1    0    0  501    0  0.00000000000E+00  0.00000000000E+00  0.29273941627E+04  0.29273941627E+04  0.25500000920E-02 0.  1.
       -2   -1    0    0    0  501  0.00000000000E+00  0.00000000000E+00 -0.97930211981E+03  0.97930211981E+03  0.25500000920E-02 0. -1.
    10030    2    1    2    0    0  0.00000000000E+00  0.00000000000E+00  0.19480920429E+04  0.39066962825E+04  0.33863273965E+04 0.  0.
        5    1    3    3  502    0 -0.43639510372E+03  0.12872710318E+04  0.21387783782E+04  0.25341472800E+04  0.46999998093E+01 0.  1.
       -5    1    3    3    0  502  0.43639510372E+03 -0.12872710318E+04 -0.19068633528E+03  0.13725490025E+04  0.46999998093E+01 0. -1.
</event>
<event>
 5   0  0.1010551E-06  0.2973923E+04  0.7818609E-02  0.8251217E-01
        1   -1    0    0  501    0  0.00000000000E+00  0.00000000000E+00  0.23175531268E+04  0.23175531268E+04  0.50400001928E-02 0.  1.
       -1   -1    0    0    0  501  0.00000000000E+00  0.00000000000E+00 -0.95404717450E+03  0.95404717452E+03  0.50400001928E-02 0. -1.
    10030    2    1    2    0    0  0.00000000000E+00  0.00000000000E+00  0.13635059523E+04  0.32716003014E+04  0.29739233430E+04 0.  0.
        2    1    3    3  502    0 -0.13993735760E+04  0.26047004636E+03  0.20863001001E+03  0.14386165338E+04  0.25500000920E-02 0. -1.
       -2    1    3    3    0  502  0.13993735760E+04 -0.26047004636E+03  0.11548759423E+04  0.18329837676E+04  0.25500000920E-02 0.  1.
</event>
<event>
 5   0  0.2664083E-06  0.3375404E+04  0.7818609E-02  0.8143970E-01
        2   -1    0    0  501    0  0.00000000000E+00  0.00000000000E+00  0.13368701056E+04  0.13368701056E+04  0.25500000920E-02 0. -1.
       -2   -1    0    0    0  501  0.00000000000E+00  0.00000000000E+00 -0.21306014574E+04  0.21306014574E+04  0.25500000920E-02 0.  1.
    10030    2    1    2    0    0  0.00000000000E+00  0.00000000000E+00 -0.79373135181E+03  0.34674715631E+04  0.33754036176E+04 0.  0.
        2    1    3    3  502    0  0.18604686421E+03 -0.16645074476E+04 -0.18350134730E+03  0.16848950185E+04  0.25500000920E-02 0.  1.
       -2    1    3    3    0  502 -0.18604686421E+03  0.16645074476E+04 -0.61023000451E+03  0.17825765446E+04  0.25500000920E-02 0. -1.
</event>
<event>
 5   0  0.1003191E-06  0.3101185E+04  0.7818609E-02  0.8215413E-01
       -1   -1    0    0    0  501  0.00000000000E+00  0.00000000000E+00  0.10080713703E+04  0.10080713703E+04  0.50400001928E-02 0. -1.
        1   -1    0    0  501    0  0.00000000000E+00  0.00000000000E+00 -0.23850861292E+04  0.23850861292E+04  0.50400001928E-02 0.  1.
    10030    2    1    2    0    0  0.00000000000E+00  0.00000000000E+00 -0.13770147589E+04  0.33931574995E+04  0.31011849623E+04 0.  0.
        5    1    3    3  502    0 -0.10673615150E+04  0.81951956549E+03 -0.15313868969E+04  0.20386370054E+04  0.46999998093E+01 0.  1.
       -5    1    3    3    0  502  0.10673615150E+04 -0.81951956549E+03  0.15437213795E+03  0.13545204941E+04  0.46999998093E+01 0. -1.
</event>
</LesHouchesEvents>
