<LesHouchesEvents version="3.0">
<header>
<!--
#*********************************************************************
#                                                                    *
#                        MadGraph5_aMC@NLO                           *
#                                                                    *
#                           Going Beyond                             *
#                                                                    *
#                   http://madgraph.hep.uiuc.edu                     *
#                   http://madgraph.phys.ucl.ac.be                   *
#                   http://amcatnlo.cern.ch                          *
#                                                                    *
#                     The MadGraph5_aMC@NLO team                     *
#                                                                    *
#....................................................................*
#                                                                    *
# This file contains all the information necessary to reproduce      *
# the events generated:                                              *
#                                                                    *
# 1. software version                                                *
# 2. proc_card          : code generation info including model       *
# 3. param_card         : model primary parameters in the LH format  *
# 4. run_card           : running parameters (collider and cuts)     *
# 5. pythia_card        : present only if pythia has been run        *
# 6. pgs_card           : present only if pgs has been run           *
# 7. delphes_cards      : present only if delphes has been run       *
#                                                                    *
#                                                                    *
#*********************************************************************
-->
<MGVersion>
#5.2.2.3
</MGVersion>
<MG5ProcCard>
#************************************************************
#*                     MadGraph5_aMC@NLO                    *
#*                                                          *
#*                *                       *                 *
#*                  *        * *        *                   *
#*                    * * * * 5 * * * *                     *
#*                  *        * *        *                   *
#*                *                       *                 *
#*                                                          *
#*                                                          *
#*         VERSION 2.2.3                 2015-02-10         *
#*                                                          *
#*    The MadGraph5_aMC@NLO Development Team - Find us at   *
#*    https://server06.fynu.ucl.ac.be/projects/madgraph     *
#*                                                          *
#************************************************************
#*                                                          *
#*               Command File for MadGraph5_aMC@NLO         *
#*                                                          *
#*     run as ./bin/mg5_aMC  filename                       *
#*                                                          *
#************************************************************
set group_subprocesses Auto
set ignore_six_quark_processes False
set loop_optimized_output True
set gauge unitary
set complex_mass_scheme False
import model sm
define p = g u c d s u~ c~ d~ s~
define j = g u c d s u~ c~ d~ s~
define l+ = e+ mu+
define l- = e- mu-
define vl = ve vm vt
define vl~ = ve~ vm~ vt~
import model Zprime_UFO
generate p p > zph, zph > j j
add process p p > zph, zph > b b~
output Dijet_signal
</MG5ProcCard>
<MGProcCard>
#*********************************************************************
#                        MadGraph/MadEvent                           *
#                   http://madgraph.hep.uiuc.edu                     *
#                                                                    *
#                          proc_card.dat                             *
#*********************************************************************
#                                                                    *
#            This Files is generated by MADGRAPH 5                   *
#                                                                    *
# WARNING: This Files is generated for MADEVENT (compatibility issue)*
#          This files is NOT a valid MG4 proc_card.dat               *
#          Running this in MG4 will NEVER reproduce the result of MG5*
#                                                                    *
#*********************************************************************
#*********************************************************************
# Process(es) requested : mg2 input                                  *
#*********************************************************************
# Begin PROCESS # This is TAG. Do not modify this line
p p > zph , zph > j j           #Process
# Be carefull the coupling are here in MG5 convention
          
end_coup           # End the couplings input

done               # this tells MG there are no more procs
# End PROCESS  # This is TAG. Do not modify this line
#*********************************************************************
# Model information                                                  *
#*********************************************************************
# Begin MODEL  # This is TAG. Do not modify this line
Zprime_UFO
# End   MODEL  # This is TAG. Do not modify this line
#*********************************************************************
# Start multiparticle definitions                                    *
#*********************************************************************
# Begin MULTIPARTICLES # This is TAG. Do not modify this line

# End  MULTIPARTICLES # This is TAG. Do not modify this line
</MGProcCard>
<MGRunCard>
#*********************************************************************
#                       MadGraph5_aMC@NLO                            *
#                                                                    *
#                     run_card.dat MadEvent                          *
#                                                                    *
#  This file is used to set the parameters of the run.               *
#                                                                    *
#  Some notation/conventions:                                        *
#                                                                    *
#   Lines starting with a '# ' are info or comments                  *
#                                                                    *
#   mind the format:   value    = variable     ! comment             *
#*********************************************************************
#
#*******************                                                 
# Running parameters
#*******************                                                 
#                                                                    
#*********************************************************************
# Tag name for the run (one word)                                    *
#*********************************************************************
  tag_1     = run_tag ! name of the run 
#*********************************************************************
# Run to generate the grid pack                                      *
#*********************************************************************
  .false.     = gridpack  !True = setting up the grid pack
#*********************************************************************
# Number of events and rnd seed                                      *
# Warning: Do not generate more than 1M events in a single run       *
# If you want to run Pythia, avoid more than 50k events in a run.    *
#*********************************************************************
  2000 = nevents ! Number of unweighted events requested 
 1047 = iseed   ! rnd seed (0=assigned automatically=default))
#*********************************************************************
# Collider type and energy                                           *
# lpp: 0=No PDF, 1=proton, -1=antiproton, 2=photon from proton,      *
#                                         3=photon from electron     *
#*********************************************************************
        1     = lpp1    ! beam 1 type 
        1     = lpp2    ! beam 2 type
     4000     = ebeam1  ! beam 1 total energy in GeV
     4000     = ebeam2  ! beam 2 total energy in GeV
#*********************************************************************
# Beam polarization from -100 (left-handed) to 100 (right-handed)    *
#*********************************************************************
        0     = polbeam1 ! beam polarization for beam 1
        0     = polbeam2 ! beam polarization for beam 2
#*********************************************************************
# PDF CHOICE: this automatically fixes also alpha_s and its evol.    *
#*********************************************************************
 'nn23lo1'    = pdlabel     ! PDF set                                     
 230000    = lhaid     ! if pdlabel=lhapdf, this is the lhapdf number
#*********************************************************************
# Renormalization and factorization scales                           *
#*********************************************************************
 F        = fixed_ren_scale  ! if .true. use fixed ren scale
 F        = fixed_fac_scale  ! if .true. use fixed fac scale
 91.1880  = scale            ! fixed ren scale
 91.1880  = dsqrt_q2fact1    ! fixed fact scale for pdf1
 91.1880  = dsqrt_q2fact2    ! fixed fact scale for pdf2
 1        = scalefact        ! scale factor for event-by-event scales
#*********************************************************************
# Matching - Warning! ickkw > 1 is still beta
#*********************************************************************
 0        = ickkw            ! 0 no matching, 1 MLM, 2 CKKW matching
 1        = highestmult      ! for ickkw=2, highest mult group
 1        = ktscheme         ! for ickkw=1, 1 Durham kT, 2 Pythia pTE
 1        = alpsfact         ! scale factor for QCD emission vx
 F        = chcluster        ! cluster only according to channel diag
 T        = pdfwgt           ! for ickkw=1, perform pdf reweighting
 5        = asrwgtflavor     ! highest quark flavor for a_s reweight
 T        = clusinfo         ! include clustering tag in output
 3.0      = lhe_version       ! Change the way clustering information pass to shower.        
#*********************************************************************
#**********************************************************
#
#**********************************************************
# Automatic ptj and mjj cuts if xqcut > 0
# (turn off for VBF and single top processes)
#**********************************************************
   T  = auto_ptj_mjj  ! Automatic setting of ptj and mjj
#**********************************************************
#                                                                    
#**********************************
# BW cutoff (M+/-bwcutoff*Gamma)
#**********************************
  15  = bwcutoff      ! (M+/-bwcutoff*Gamma)
#**********************************************************
# Apply pt/E/eta/dr/mij cuts on decay products or not
# (note that etmiss/ptll/ptheavy/ht/sorted cuts always apply)
#**********************************************************
   T  = cut_decays    ! Cut decay products 
#*************************************************************
# Number of helicities to sum per event (0 = all helicities)
# 0 gives more stable result, but longer run time (needed for
# long decay chains e.g.).
# Use >=2 if most helicities contribute, e.g. pure QCD.
#*************************************************************
   0  = nhel          ! Number of helicities used per event
#*******************                                                 
# Standard Cuts
#*******************                                                 
#                                                                    
#*********************************************************************
# Minimum and maximum pt's (for max, -1 means no cut)                *
#*********************************************************************
 20  = ptj       ! minimum pt for the jets 
  0  = ptb       ! minimum pt for the b 
 10  = pta       ! minimum pt for the photons 
 10  = ptl       ! minimum pt for the charged leptons 
  0  = misset    ! minimum missing Et (sum of neutrino's momenta)
  0  = ptheavy   ! minimum pt for one heavy final state
 1.0 = ptonium   ! minimum pt for the quarkonium states
 -1  = ptjmax    ! maximum pt for the jets
 -1  = ptbmax    ! maximum pt for the b
 -1  = ptamax    ! maximum pt for the photons
 -1  = ptlmax    ! maximum pt for the charged leptons
 -1  = missetmax ! maximum missing Et (sum of neutrino's momenta)
#*********************************************************************
# Minimum and maximum E's (in the center of mass frame)              *
#*********************************************************************
  0  = ej     ! minimum E for the jets 
  0  = eb     ! minimum E for the b 
  0  = ea     ! minimum E for the photons 
  0  = el     ! minimum E for the charged leptons 
 -1   = ejmax ! maximum E for the jets
 -1   = ebmax ! maximum E for the b
 -1   = eamax ! maximum E for the photons
 -1   = elmax ! maximum E for the charged leptons
#*********************************************************************
# Maximum and minimum absolute rapidity (for max, -1 means no cut)   *
#*********************************************************************
   5  = etaj    ! max rap for the jets 
  -1  = etab    ! max rap for the b
 2.5  = etaa    ! max rap for the photons 
 2.5  = etal    ! max rap for the charged leptons 
 0.6  = etaonium ! max rap for the quarkonium states
   0  = etajmin ! min rap for the jets
   0  = etabmin ! min rap for the b
   0  = etaamin ! min rap for the photons
   0  = etalmin ! main rap for the charged leptons
#*********************************************************************
# Minimum and maximum DeltaR distance                                *
#*********************************************************************
 0.4 = drjj    ! min distance between jets 
 0   = drbb    ! min distance between b's 
 0.4 = drll    ! min distance between leptons 
 0.4 = draa    ! min distance between gammas 
 0   = drbj    ! min distance between b and jet 
 0.4 = draj    ! min distance between gamma and jet 
 0.4 = drjl    ! min distance between jet and lepton 
 0   = drab    ! min distance between gamma and b 
 0   = drbl    ! min distance between b and lepton 
 0.4 = dral    ! min distance between gamma and lepton 
 -1  = drjjmax ! max distance between jets
 -1  = drbbmax ! max distance between b's
 -1  = drllmax ! max distance between leptons
 -1  = draamax ! max distance between gammas
 -1  = drbjmax ! max distance between b and jet
 -1  = drajmax ! max distance between gamma and jet
 -1  = drjlmax ! max distance between jet and lepton
 -1  = drabmax ! max distance between gamma and b
 -1  = drblmax ! max distance between b and lepton
 -1  = dralmax ! maxdistance between gamma and lepton
#*********************************************************************
# Minimum and maximum invariant mass for pairs                       *
# WARNING: for four lepton final state mmll cut require to have      *
#          different lepton masses for each flavor!                  *           
#*********************************************************************
 0   = mmjj    ! min invariant mass of a jet pair 
 0   = mmbb    ! min invariant mass of a b pair 
 0   = mmaa    ! min invariant mass of gamma gamma pair
 0   = mmll    ! min invariant mass of l+l- (same flavour) lepton pair
 -1  = mmjjmax ! max invariant mass of a jet pair
 -1  = mmbbmax ! max invariant mass of a b pair
 -1  = mmaamax ! max invariant mass of gamma gamma pair
 -1  = mmllmax ! max invariant mass of l+l- (same flavour) lepton pair
#*********************************************************************
# Minimum and maximum invariant mass for all letpons                 *
#*********************************************************************
 0   = mmnl    ! min invariant mass for all letpons (l+- and vl) 
 -1  = mmnlmax ! max invariant mass for all letpons (l+- and vl) 
#*********************************************************************
# Minimum and maximum pt for 4-momenta sum of leptons                *
#*********************************************************************
 0   = ptllmin  ! Minimum pt for 4-momenta sum of leptons(l and vl)
 -1  = ptllmax  ! Maximum pt for 4-momenta sum of leptons(l and vl)
#*********************************************************************
# Inclusive cuts                                                     *
#*********************************************************************
 0  = xptj ! minimum pt for at least one jet  
 0  = xptb ! minimum pt for at least one b 
 0  = xpta ! minimum pt for at least one photon 
 0  = xptl ! minimum pt for at least one charged lepton 
#*********************************************************************
# Control the pt's of the jets sorted by pt                          *
#*********************************************************************
 0   = ptj1min ! minimum pt for the leading jet in pt
 0   = ptj2min ! minimum pt for the second jet in pt
 0   = ptj3min ! minimum pt for the third jet in pt
 0   = ptj4min ! minimum pt for the fourth jet in pt
 -1  = ptj1max ! maximum pt for the leading jet in pt 
 -1  = ptj2max ! maximum pt for the second jet in pt
 -1  = ptj3max ! maximum pt for the third jet in pt
 -1  = ptj4max ! maximum pt for the fourth jet in pt
 0   = cutuse  ! reject event if fails any (0) / all (1) jet pt cuts
#*********************************************************************
# Control the pt's of leptons sorted by pt                           *
#*********************************************************************
 0   = ptl1min ! minimum pt for the leading lepton in pt
 0   = ptl2min ! minimum pt for the second lepton in pt
 0   = ptl3min ! minimum pt for the third lepton in pt
 0   = ptl4min ! minimum pt for the fourth lepton in pt
 -1  = ptl1max ! maximum pt for the leading lepton in pt 
 -1  = ptl2max ! maximum pt for the second lepton in pt
 -1  = ptl3max ! maximum pt for the third lepton in pt
 -1  = ptl4max ! maximum pt for the fourth lepton in pt
#*********************************************************************
# Control the Ht(k)=Sum of k leading jets                            *
#*********************************************************************
 0   = htjmin ! minimum jet HT=Sum(jet pt)
 -1  = htjmax ! maximum jet HT=Sum(jet pt)
 0   = ihtmin  !inclusive Ht for all partons (including b)
 -1  = ihtmax  !inclusive Ht for all partons (including b)
 0   = ht2min ! minimum Ht for the two leading jets
 0   = ht3min ! minimum Ht for the three leading jets
 0   = ht4min ! minimum Ht for the four leading jets
 -1  = ht2max ! maximum Ht for the two leading jets
 -1  = ht3max ! maximum Ht for the three leading jets
 -1  = ht4max ! maximum Ht for the four leading jets
#***********************************************************************
# Photon-isolation cuts, according to hep-ph/9801442                   *
# When ptgmin=0, all the other parameters are ignored                  *
# When ptgmin>0, pta and draj are not going to be used                 *
#***********************************************************************
   0 = ptgmin ! Min photon transverse momentum
 0.4 = R0gamma ! Radius of isolation code
 1.0 = xn ! n parameter of eq.(3.4) in hep-ph/9801442
 1.0 = epsgamma ! epsilon_gamma parameter of eq.(3.4) in hep-ph/9801442
 .true. = isoEM ! isolate photons from EM energy (photons and leptons)
#*********************************************************************
# WBF cuts                                                           *
#*********************************************************************
 0   = xetamin ! minimum rapidity for two jets in the WBF case  
 0   = deltaeta ! minimum rapidity for two jets in the WBF case 
#*********************************************************************
# KT DURHAM CUT                                                      *
#*********************************************************************
 -1    =  ktdurham        
 0.4  =  dparameter 
#*********************************************************************
# maximal pdg code for quark to be considered as a light jet         *
# (otherwise b cuts are applied)                                     *
#*********************************************************************
 4 = maxjetflavor    ! Maximum jet pdg code
#*********************************************************************
# Jet measure cuts                                                   *
#*********************************************************************
 0   = xqcut   ! minimum kt jet measure between partons
#*********************************************************************
#
#*********************************************************************
# Store info for systematics studies                                 *
# WARNING: If use_syst is T, matched Pythia output is                *
#          meaningful ONLY if plotted taking matchscale              *
#          reweighting into account!                                 *
#*********************************************************************
   F  = use_syst      ! Enable systematics studies
#
#**************************************
# Parameter of the systematics study
#  will be used by SysCalc (if installed)
#**************************************                                  
#
0.5 1 2 = sys_scalefact  # factorization/renormalization scale factor
0.5 1 2 = sys_alpsfact  # \alpha_s emission scale factors
30 50 = sys_matchscale # variation of merging scale
# PDF sets and number of members (0 or none for all members).
CT10nlo.LHgrid = sys_pdf # matching scales
# MSTW2008nlo68cl.LHgrid 1  = sys_pdf
</MGRunCard>
<slha>
######################################################################
## PARAM_CARD AUTOMATICALY GENERATED BY MG5 FOLLOWING UFO MODEL   ####
######################################################################
##                                                                  ##
##  Width set on Auto will be computed following the information    ##
##        present in the decay.py files of the model.               ##
##        See  arXiv:1402.1178 for more details.                    ##
##                                                                  ##
######################################################################

###################################
## INFORMATION FOR CKMBLOCK
###################################
Block ckmblock 
    1 2.277360e-01 # cabi 

###################################
## INFORMATION FOR FRBLOCK
###################################
Block frblock 
    1 4.000000e-01 # gz 

###################################
## INFORMATION FOR MASS
###################################
Block mass 
    1 5.040000e-03 # MD 
    2 2.550000e-03 # MU 
    3 1.010000e-01 # MS 
    4 1.270000e+00 # MC 
    5 4.700000e+00 # MB 
    6 1.720000e+02 # MT 
   11 5.110000e-04 # Me 
   13 1.056600e-01 # MM 
   15 1.777000e+00 # MTA 
   23 9.118760e+01 # MZ 
   25 1.200000e+02 # MH 
  10030 3.000000e+03 # MZph 
  10031 3.000000e+02 # MZpl 
## Dependent parameters, given by model restrictions.
## Those values should be edited following the 
## analytical expression. MG5 ignores those values 
## but they are important for interfacing the output of MG5
## to external program such as Pythia.
  12 0.000000 # ve : 0.0 
  14 0.000000 # vm : 0.0 
  16 0.000000 # vt : 0.0 
  21 0.000000 # g : 0.0 
  22 0.000000 # a : 0.0 
  24 79.824360 # w+ : cmath.sqrt(MZ__exp__2/2. + cmath.sqrt(MZ__exp__4/4. - (aEW*cmath.pi*MZ__exp__2)/(Gf*sqrt__2))) 

###################################
## INFORMATION FOR SMINPUTS
###################################
Block sminputs 
    1 1.279000e+02 # aEWM1 
    2 1.166370e-05 # Gf 
    3 1.184000e-01 # aS 

###################################
## INFORMATION FOR YUKAWA
###################################
Block yukawa 
    1 5.040000e-03 # ymdo 
    2 2.550000e-03 # ymup 
    3 1.010000e-01 # yms 
    4 1.270000e+00 # ymc 
    5 4.700000e+00 # ymb 
    6 1.720000e+02 # ymt 
   11 5.110000e-04 # yme 
   13 1.056600e-01 # ymm 
   15 1.777000e+00 # ymtau 

###################################
## INFORMATION FOR DECAY
###################################
DECAY   6 1.508336e+00 # WT 
DECAY  23 2.495200e+00 # WZ 
DECAY  24 2.085000e+00 # WW 
DECAY  25 5.753088e-03 # WH 
## Dependent parameters, given by model restrictions.
## Those values should be edited following the 
## analytical expression. MG5 ignores those values 
## but they are important for interfacing the output of MG5
## to external program such as Pythia.
DECAY  1 0.000000 # d : 0.0 
DECAY  2 0.000000 # u : 0.0 
DECAY  3 0.000000 # s : 0.0 
DECAY  4 0.000000 # c : 0.0 
DECAY  5 0.000000 # b : 0.0 
DECAY  11 0.000000 # e- : 0.0 
DECAY  12 0.000000 # ve : 0.0 
DECAY  13 0.000000 # mu- : 0.0 
DECAY  14 0.000000 # vm : 0.0 
DECAY  15 0.000000 # ta- : 0.0 
DECAY  16 0.000000 # vt : 0.0 
DECAY  21 0.000000 # g : 0.0 
DECAY  22 0.000000 # a : 0.0 
DECAY  10030 0.308725 # zph : (gz__exp__2*MZph*(5 + cmath.sqrt(1 - (4*MT__exp__2)/MZph__exp__2)))/(144.*cmath.pi) 
DECAY  10031 0.132629 # zpl : (5*gz__exp__2*MZpl)/(144.*cmath.pi) 
#===========================================================
# QUANTUM NUMBERS OF NEW STATE(S) (NON SM PDG CODE)
#===========================================================

Block QNUMBERS 10030  # zph 
        1 0  # 3 times electric charge
        2 3  # number of spin states (2S+1)
        3 1  # colour rep (1: singlet, 3: triplet, 8: octet)
        4 0  # Particle/Antiparticle distinction (0=own anti)
Block QNUMBERS 10031  # zpl 
        1 0  # 3 times electric charge
        2 3  # number of spin states (2S+1)
        3 1  # colour rep (1: singlet, 3: triplet, 8: octet)
        4 0  # Particle/Antiparticle distinction (0=own anti)
</slha>
## END BANNER##
<MGGenerationInfo>
#  Number of Events        :         3907
#  Integrated weight (pb)  :  0.19314E-03
#  Max wgt                 :  0.75858E-07
#  Average wgt             :  0.49434E-07
</MGGenerationInfo>
</header>
<init>
     2212     2212  0.40000000000E+04  0.40000000000E+04 0 0  247000  247000 2   1
  0.19325763764E-03  0.43303359139E-06  0.75858230000E-07   0
</init>
<event>
 5   0  0.7307508E-07  0.2996289E+04  0.7818609E-02  0.8244791E-01
        2   -1    0    0  501    0  0.00000000000E+00  0.00000000000E+00  0.18506579752E+04  0.18506579752E+04  0.25500000920E-02 0. -1.
       -2   -1    0    0    0  501  0.00000000000E+00  0.00000000000E+00 -0.12127776563E+04  0.12127776563E+04  0.25500000920E-02 0.  1.
    10030    2    1    2    0    0  0.00000000000E+00  0.00000000000E+00  0.63788031890E+03  0.30634356314E+04  0.29962887989E+04 0.  0.
        1    1    3    3  502    0  0.45104696367E+03 -0.32282441316E+03  0.17418093446E+04  0.18279930958E+04  0.50400001928E-02 0. -1.
       -1    1    3    3    0  502 -0.45104696367E+03  0.32282441316E+03 -0.11039290257E+04  0.12354425357E+04  0.50400001928E-02 0.  1.
</event>
<event>
 5   0  0.7307508E-07  0.2998692E+04  0.7818609E-02  0.8244104E-01
       -2   -1    0    0    0  501  0.00000000000E+00  0.00000000000E+00  0.11252341629E+04  0.11252341629E+04  0.25500000920E-02 0.  1.
        2   -1    0    0  501    0  0.00000000000E+00  0.00000000000E+00 -0.19978411457E+04  0.19978411457E+04  0.25500000920E-02 0. -1.
    10030    2    1    2    0    0  0.00000000000E+00  0.00000000000E+00 -0.87260698276E+03  0.31230753086E+04  0.29986924546E+04 0.  0.
        1    1    3    3  502    0 -0.96857311839E+03  0.11327545432E+04 -0.60671304030E+03  0.16091511595E+04  0.50400001928E-02 0. -1.
       -1    1    3    3    0  502  0.96857311839E+03 -0.11327545432E+04 -0.26589394245E+03  0.15139241492E+04  0.50400001928E-02 0.  1.
</event>
<event>
 5   0  0.7399409E-07  0.3001365E+04  0.7818609E-02  0.8243341E-01
       -2   -1    0    0    0  501  0.00000000000E+00  0.00000000000E+00  0.10241505128E+04  0.10241505128E+04  0.25500000920E-02 0.  1.
        2   -1    0    0  501    0  0.00000000000E+00  0.00000000000E+00 -0.21989422999E+04  0.21989422999E+04  0.25500000920E-02 0. -1.
    10030    2    1    2    0    0  0.00000000000E+00  0.00000000000E+00 -0.11747917871E+04  0.32230928126E+04  0.30013649455E+04 0.  0.
        3    1    3    3  502    0 -0.11222338320E+04  0.53864541829E+02  0.48095536244E+03  0.12221408402E+04  0.10100000352E+00 0.  1.
       -3    1    3    3    0  502  0.11222338320E+04 -0.53864541829E+02 -0.16557471495E+04  0.20009519724E+04  0.10100000352E+00 0. -1.
</event>
<event>
 5   0  0.7307508E-07  0.2979761E+04  0.7818609E-02  0.8249534E-01
       -2   -1    0    0    0  501  0.00000000000E+00  0.00000000000E+00  0.10073566348E+04  0.10073566348E+04  0.25500000920E-02 0.  1.
        2   -1    0    0  501    0  0.00000000000E+00  0.00000000000E+00 -0.22035325885E+04  0.22035325885E+04  0.25500000920E-02 0. -1.
    10030    2    1    2    0    0  0.00000000000E+00  0.00000000000E+00 -0.11961759536E+04  0.32108892233E+04  0.29797605092E+04 0.  0.
        1    1    3    3  502    0 -0.19808072741E+03  0.13051209050E+04 -0.13424410587E+04  0.18827438878E+04  0.50400001928E-02 0. -1.
       -1    1    3    3    0  502  0.19808072741E+03 -0.13051209050E+04  0.14626510501E+03  0.13281453355E+04  0.50400001928E-02 0.  1.
</event>
<event>
 5   0  0.7399409E-07  0.3000365E+04  0.7818609E-02  0.8243627E-01
       -2   -1    0    0    0  501  0.00000000000E+00  0.00000000000E+00  0.18031025307E+04  0.18031025307E+04  0.25500000920E-02 0. -1.
        2   -1    0    0  501    0  0.00000000000E+00  0.00000000000E+00 -0.12481527134E+04  0.12481527134E+04  0.25500000920E-02 0.  1.
    10030    2    1    2    0    0  0.00000000000E+00  0.00000000000E+00  0.55494981730E+03  0.30512552442E+04  0.30003648554E+04 0.  0.
        3    1    3    3  502    0 -0.12875306877E+04  0.53097851392E+03  0.84449254402E+03  0.16287544692E+04  0.10100000352E+00 0. -1.
       -3    1    3    3    0  502  0.12875306877E+04 -0.53097851392E+03 -0.28954272672E+03  0.14225007749E+04  0.10100000352E+00 0.  1.
</event>
<event>
 5   0  0.2640081E-07  0.2999202E+04  0.7818609E-02  0.8243959E-01
        1   -1    0    0  501    0  0.00000000000E+00  0.00000000000E+00  0.21372912379E+04  0.21372912379E+04  0.50400001928E-02 0.  1.
       -1   -1    0    0    0  501  0.00000000000E+00  0.00000000000E+00 -0.10521745218E+04  0.10521745218E+04  0.50400001928E-02 0. -1.
    10030    2    1    2    0    0  0.00000000000E+00  0.00000000000E+00  0.10851167161E+04  0.31894657597E+04  0.29992021514E+04 0.  0.
        1    1    3    3  502    0 -0.20642125388E+03  0.25341440252E+03  0.20989517673E+04  0.21242474232E+04  0.50400001928E-02 0.  1.
       -1    1    3    3    0  502  0.20642125388E+03 -0.25341440252E+03 -0.10138350512E+04  0.10652183365E+04  0.50400001928E-02 0. -1.
</event>
<event>
 5   0  0.2621825E-07  0.2965391E+04  0.7818609E-02  0.8253683E-01
        1   -1    0    0  501    0  0.00000000000E+00  0.00000000000E+00  0.18242740703E+04  0.18242740703E+04  0.50400001928E-02 0.  1.
       -1   -1    0    0    0  501  0.00000000000E+00  0.00000000000E+00 -0.12050742904E+04  0.12050742904E+04  0.50400001928E-02 0. -1.
    10030    2    1    2    0    0  0.00000000000E+00  0.00000000000E+00  0.61919977985E+03  0.30293483607E+04  0.29653908888E+04 0.  0.
        3    1    3    3  502    0 -0.19362762087E+03  0.61721131099E+02 -0.11907787062E+04  0.12079963125E+04  0.10100000352E+00 0. -1.
       -3    1    3    3    0  502  0.19362762087E+03 -0.61721131099E+02  0.18099784860E+04  0.18213520483E+04  0.10100000352E+00 0.  1.
</event>
<event>
 5   0  0.7307508E-07  0.3004987E+04  0.7818609E-02  0.8242308E-01
        2   -1    0    0  501    0  0.00000000000E+00  0.00000000000E+00  0.19774725273E+04  0.19774725273E+04  0.25500000920E-02 0.  1.
       -2   -1    0    0    0  501  0.00000000000E+00  0.00000000000E+00 -0.11416023386E+04  0.11416023386E+04  0.25500000920E-02 0. -1.
    10030    2    1    2    0    0  0.00000000000E+00  0.00000000000E+00  0.83587018865E+03  0.31190748659E+04  0.30049873622E+04 0.  0.
        1    1    3    3  502    0  0.70288682601E+03 -0.69670042520E+03  0.15913628945E+04  0.18740003294E+04  0.50400001928E-02 0.  1.
       -1    1    3    3    0  502 -0.70288682601E+03  0.69670042520E+03 -0.75549270588E+03  0.12450745364E+04  0.50400001928E-02 0. -1.
</event>
<event>
 5   0  0.2679935E-07  0.2963179E+04  0.7818609E-02  0.8254324E-01
       -1   -1    0    0    0  501  0.00000000000E+00  0.00000000000E+00  0.12758708956E+04  0.12758708956E+04  0.50400001928E-02 0. -1.
        1   -1    0    0  501    0  0.00000000000E+00  0.00000000000E+00 -0.17204772961E+04  0.17204772961E+04  0.50400001928E-02 0.  1.
    10030    2    1    2    0    0  0.00000000000E+00  0.00000000000E+00 -0.44460640050E+03  0.29963481917E+04  0.29631786369E+04 0.  0.
        2    1    3    3  502    0 -0.98751544982E+03 -0.23890388281E+03 -0.13127271337E+04  0.16599742035E+04  0.25500000920E-02 0.  1.
       -2    1    3    3    0  502  0.98751544982E+03  0.23890388281E+03  0.86812073317E+03  0.13363739882E+04  0.25500000920E-02 0. -1.
</event>
<event>
 5   0  0.7307508E-07  0.2999728E+04  0.7818609E-02  0.8243809E-01
       -2   -1    0    0    0  501  0.00000000000E+00  0.00000000000E+00  0.14959269068E+04  0.14959269068E+04  0.25500000920E-02 0. -1.
        2   -1    0    0  501    0  0.00000000000E+00  0.00000000000E+00 -0.15038109853E+04  0.15038109853E+04  0.25500000920E-02 0.  1.
    10030    2    1    2    0    0  0.00000000000E+00  0.00000000000E+00 -0.78840785437E+01  0.29997378921E+04  0.29997275314E+04 0.  0.
        1    1    3    3  502    0 -0.34049774246E+03  0.13296909126E+04  0.60068776920E+03  0.14982798243E+04  0.50400001928E-02 0. -1.
       -1    1    3    3    0  502  0.34049774246E+03 -0.13296909126E+04 -0.60857184774E+03  0.15014580679E+04  0.50400001928E-02 0.  1.
</event>
<event>
 5   0  0.2679935E-07  0.2996580E+04  0.7818609E-02  0.8244708E-01
        1   -1    0    0  501    0  0.00000000000E+00  0.00000000000E+00  0.26515299745E+04  0.26515299745E+04  0.50400001928E-02 0.  1.
       -1   -1    0    0    0  501  0.00000000000E+00  0.00000000000E+00 -0.84663318084E+03  0.84663318085E+03  0.50400001928E-02 0. -1.
    10030    2    1    2    0    0  0.00000000000E+00  0.00000000000E+00  0.18048967937E+04  0.34981631554E+04  0.29965802218E+04 0.  0.
        2    1    3    3  502    0 -0.82800260462E+03  0.12392002226E+04  0.10820427395E+04  0.18417442806E+04  0.25500000920E-02 0.  1.
       -2    1    3    3    0  502  0.82800260462E+03 -0.12392002226E+04  0.72285405421E+03  0.16564188748E+04  0.25500000920E-02 0. -1.
</event>
<event>
 5   0  0.7585823E-07  0.2995179E+04  0.7818609E-02  0.8245109E-01
        2   -1    0    0  501    0  0.00000000000E+00  0.00000000000E+00  0.22069318350E+04  0.22069318350E+04  0.25500000920E-02 0.  1.
       -2   -1    0    0    0  501  0.00000000000E+00  0.00000000000E+00 -0.10162409387E+04  0.10162409387E+04  0.25500000920E-02 0. -1.
    10030    2    1    2    0    0  0.00000000000E+00  0.00000000000E+00  0.11906908964E+04  0.32231727737E+04  0.29951791129E+04 0.  0.
        5    1    3    3  502    0  0.67023725191E+03  0.94181059359E+03 -0.42924714566E+03  0.12330857108E+04  0.46999998093E+01 0. -1.
       -5    1    3    3    0  502 -0.67023725191E+03 -0.94181059359E+03  0.16199380420E+04  0.19900870629E+04  0.46999998093E+01 0.  1.
</event>
<event>
 5   0  0.2602891E-07  0.2999339E+04  0.7818609E-02  0.8243920E-01
       -1   -1    0    0    0  501  0.00000000000E+00  0.00000000000E+00  0.14880729012E+04  0.14880729012E+04  0.50400001928E-02 0. -1.
        1   -1    0    0  501    0  0.00000000000E+00  0.00000000000E+00 -0.15113566231E+04  0.15113566231E+04  0.50400001928E-02 0.  1.
    10030    2    1    2    0    0  0.00000000000E+00  0.00000000000E+00 -0.23283721913E+02  0.29994295242E+04  0.29993391504E+04 0.  0.
        5    1    3    3  502    0  0.13521720352E+04  0.34273256048E+03 -0.56225079028E+03  0.15039889833E+04  0.46999998093E+01 0. -1.
       -5    1    3    3    0  502 -0.13521720352E+04 -0.34273256048E+03  0.53896706836E+03  0.14954405409E+04  0.46999998093E+01 0.  1.
</event>
<event>
 5   0  0.2640081E-07  0.3002358E+04  0.7818609E-02  0.8243058E-01
        1   -1    0    0  501    0  0.00000000000E+00  0.00000000000E+00  0.26703851811E+04  0.26703851811E+04  0.50400001928E-02 0.  1.
       -1   -1    0    0    0  501  0.00000000000E+00  0.00000000000E+00 -0.84389998866E+03  0.84389998868E+03  0.50400001928E-02 0. -1.
    10030    2    1    2    0    0  0.00000000000E+00  0.00000000000E+00  0.18264851924E+04  0.35142851698E+04  0.30023577562E+04 0.  0.
        1    1    3    3  502    0 -0.81896690591E+03  0.95024939938E+03 -0.51882135554E+02  0.12555367259E+04  0.50400001928E-02 0. -1.
       -1    1    3    3    0  502  0.81896690591E+03 -0.95024939938E+03  0.18783673280E+04  0.22587484439E+04  0.50400001928E-02 0.  1.
</event>
<event>
 5   0  0.2621825E-07  0.3003405E+04  0.7818609E-02  0.8242759E-01
        1   -1    0    0  501    0  0.00000000000E+00  0.00000000000E+00  0.12042331184E+04  0.12042331184E+04  0.50400001928E-02 0. -1.
       -1   -1    0    0    0  501  0.00000000000E+00  0.00000000000E+00 -0.18726521143E+04  0.18726521143E+04  0.50400001928E-02 0.  1.
    10030    2    1    2    0    0  0.00000000000E+00  0.00000000000E+00 -0.66841899583E+03  0.30768852327E+04  0.30034045317E+04 0.  0.
        3    1    3    3  502    0  0.99681557395E+03  0.51746117664E+03 -0.13554443299E+04  0.17602944923E+04  0.10100000352E+00 0.  1.
       -3    1    3    3    0  502 -0.99681557395E+03 -0.51746117664E+03  0.68702533412E+03  0.13165907404E+04  0.10100000352E+00 0. -1.
</event>
<event>
 5   0  0.2621825E-07  0.3002899E+04  0.7818609E-02  0.8242903E-01
        1   -1    0    0  501    0  0.00000000000E+00  0.00000000000E+00  0.20460342171E+04  0.20460342171E+04  0.50400001928E-02 0. -1.
       -1   -1    0    0    0  501  0.00000000000E+00  0.00000000000E+00 -0.11018149611E+04  0.11018149611E+04  0.50400001928E-02 0.  1.
    10030    2    1    2    0    0  0.00000000000E+00  0.00000000000E+00  0.94421925603E+03  0.31478491783E+04  0.30028993399E+04 0.  0.
        3    1    3    3  502    0  0.22920006834E+03 -0.25315786389E+03 -0.10605634162E+04  0.11141886489E+04  0.10100000352E+00 0.  1.
       -3    1    3    3    0  502 -0.22920006834E+03  0.25315786389E+03  0.20047826723E+04  0.20336605293E+04  0.10100000352E+00 0. -1.
</event>
<event>
 5   0  0.7307508E-07  0.3003349E+04  0.7818609E-02  0.8242775E-01
       -2   -1    0    0    0  501  0.00000000000E+00  0.00000000000E+00  0.90984211872E+03  0.90984211872E+03  0.25500000920E-02 0. -1.
        2   -1    0    0  501    0  0.00000000000E+00  0.00000000000E+00 -0.24784813504E+04  0.24784813504E+04  0.25500000920E-02 0.  1.
    10030    2    1    2    0    0  0.00000000000E+00  0.00000000000E+00 -0.15686392317E+04  0.33883234691E+04  0.30033492791E+04 0.  0.
        1    1    3    3  502    0 -0.10022094421E+04 -0.10043321061E+04 -0.13392198256E+04  0.19510552238E+04  0.50400001928E-02 0.  1.
       -1    1    3    3    0  502  0.10022094421E+04  0.10043321061E+04 -0.22941940606E+03  0.14372682453E+04  0.50400001928E-02 0. -1.
</event>
<event>
 5   0  0.2792361E-07  0.2999290E+04  0.7818609E-02  0.8243934E-01
        1   -1    0    0  501    0  0.00000000000E+00  0.00000000000E+00  0.19133108126E+04  0.19133108126E+04  0.50400001928E-02 0.  1.
       -1   -1    0    0    0  501  0.00000000000E+00  0.00000000000E+00 -0.11754155559E+04  0.11754155559E+04  0.50400001928E-02 0. -1.
    10030    2    1    2    0    0  0.00000000000E+00  0.00000000000E+00  0.73789525662E+03  0.30887263685E+04  0.29992901110E+04 0.  0.
        4    1    3    3  502    0  0.13207750913E+04  0.54316946543E+03 -0.10236063094E+03  0.14317678659E+04  0.12699999809E+01 0. -1.
       -4    1    3    3    0  502 -0.13207750913E+04 -0.54316946543E+03  0.84025588755E+03  0.16569585027E+04  0.12699999809E+01 0.  1.
</event>
<event>
 5   0  0.2640081E-07  0.2997693E+04  0.7818609E-02  0.8244390E-01
       -1   -1    0    0    0  501  0.00000000000E+00  0.00000000000E+00  0.12736414680E+04  0.12736414680E+04  0.50400001928E-02 0.  1.
        1   -1    0    0  501    0  0.00000000000E+00  0.00000000000E+00 -0.17638718609E+04  0.17638718609E+04  0.50400001928E-02 0. -1.
    10030    2    1    2    0    0  0.00000000000E+00  0.00000000000E+00 -0.49023039285E+03  0.30375133289E+04  0.29976926769E+04 0.  0.
        1    1    3    3  502    0  0.23522562711E+02  0.24960771401E+02 -0.17634741772E+04  0.17638076779E+04  0.50400001928E-02 0. -1.
       -1    1    3    3    0  502 -0.23522562711E+02 -0.24960771401E+02  0.12732437843E+04  0.12737056510E+04  0.50400001928E-02 0.  1.
</event>
<event>
 5   0  0.7278657E-07  0.2982209E+04  0.7818609E-02  0.8248829E-01
        2   -1    0    0  501    0  0.00000000000E+00  0.00000000000E+00  0.25507935081E+04  0.25507935081E+04  0.25500000920E-02 0. -1.
       -2   -1    0    0    0  501  0.00000000000E+00  0.00000000000E+00 -0.87164762961E+03  0.87164762961E+03  0.25500000920E-02 0.  1.
    10030    2    1    2    0    0  0.00000000000E+00  0.00000000000E+00  0.16791458785E+04  0.34224411378E+04  0.29822093253E+04 0.  0.
        2    1    3    3  502    0 -0.77099098917E+02 -0.14891039815E+04  0.83468024268E+03  0.17088200743E+04  0.25500000920E-02 0.  1.
       -2    1    3    3    0  502  0.77099098917E+02  0.14891039815E+04  0.84446563585E+03  0.17136210634E+04  0.25500000920E-02 0. -1.
</event>
<event>
 5   0  0.2621825E-07  0.2994415E+04  0.7818609E-02  0.8245327E-01
       -1   -1    0    0    0  501  0.00000000000E+00  0.00000000000E+00  0.25900609097E+04  0.25900609097E+04  0.50400001928E-02 0.  1.
        1   -1    0    0  501    0  0.00000000000E+00  0.00000000000E+00 -0.86547415308E+03  0.86547415309E+03  0.50400001928E-02 0. -1.
    10030    2    1    2    0    0  0.00000000000E+00  0.00000000000E+00  0.17245867566E+04  0.34555350628E+04  0.29944153167E+04 0.  0.
        3    1    3    3  502    0  0.24589421311E+03  0.15845591617E+03  0.25567620381E+04  0.25734421251E+04  0.10100000352E+00 0.  1.
       -3    1    3    3    0  502 -0.24589421311E+03 -0.15845591617E+03 -0.83217528150E+03  0.88209293770E+03  0.10100000352E+00 0. -1.
</event>
<event>
 5   0  0.7399409E-07  0.2996129E+04  0.7818609E-02  0.8244837E-01
        2   -1    0    0  501    0  0.00000000000E+00  0.00000000000E+00  0.19255117656E+04  0.19255117656E+04  0.25500000920E-02 0. -1.
       -2   -1    0    0    0  501  0.00000000000E+00  0.00000000000E+00 -0.11655069314E+04  0.11655069314E+04  0.25500000920E-02 0.  1.
    10030    2    1    2    0    0  0.00000000000E+00  0.00000000000E+00  0.76000483420E+03  0.30910186969E+04  0.29961290421E+04 0.  0.
        3    1    3    3  502    0  0.96229186879E+02  0.90847701384E+03  0.16048727173E+04  0.18466745761E+04  0.10100000352E+00 0. -1.
       -3    1    3    3    0  502 -0.96229186879E+02 -0.90847701384E+03 -0.84486788307E+03  0.12443441209E+04  0.10100000352E+00 0.  1.
</event>
<event>
 5   0  0.2640081E-07  0.3008889E+04  0.7818609E-02  0.8241197E-01
        1   -1    0    0  501    0  0.00000000000E+00  0.00000000000E+00  0.17656857422E+04  0.17656857422E+04  0.50400001928E-02 0.  1.
       -1   -1    0    0    0  501  0.00000000000E+00  0.00000000000E+00 -0.12818551694E+04  0.12818551694E+04  0.50400001928E-02 0. -1.
    10030    2    1    2    0    0  0.00000000000E+00  0.00000000000E+00  0.48383057280E+03  0.30475409115E+04  0.30088890947E+04 0.  0.
        1    1    3    3  502    0 -0.34300641192E+03 -0.30814787388E+02  0.17252246820E+04  0.17592621047E+04  0.50400001928E-02 0.  1.
       -1    1    3    3    0  502  0.34300641192E+03  0.30814787388E+02 -0.12413941092E+04  0.12882788068E+04  0.50400001928E-02 0. -1.
</event>
<event>
 5   0  0.7278657E-07  0.2935390E+04  0.7818609E-02  0.8262425E-01
        2   -1    0    0  501    0  0.00000000000E+00  0.00000000000E+00  0.14705110898E+04  0.14705110898E+04  0.25500000920E-02 0.  1.
       -2   -1    0    0    0  501  0.00000000000E+00  0.00000000000E+00 -0.14648844064E+04  0.14648844064E+04  0.25500000920E-02 0. -1.
    10030    2    1    2    0    0  0.00000000000E+00  0.00000000000E+00  0.56266834569E+01  0.29353954962E+04  0.29353901035E+04 0.  0.
        2    1    3    3  502    0 -0.12210688902E+04  0.21954512283E+02 -0.81121366302E+03  0.14661373886E+04  0.25500000920E-02 0. -1.
       -2    1    3    3    0  502  0.12210688902E+04 -0.21954512283E+02  0.81684034648E+03  0.14692581076E+04  0.25500000920E-02 0.  1.
</event>
<event>
 5   0  0.2679935E-07  0.3003827E+04  0.7818609E-02  0.8242639E-01
       -1   -1    0    0    0  501  0.00000000000E+00  0.00000000000E+00  0.90438408662E+03  0.90438408663E+03  0.50400001928E-02 0.  1.
        1   -1    0    0  501    0  0.00000000000E+00  0.00000000000E+00 -0.24942326576E+04  0.24942326577E+04  0.50400001928E-02 0. -1.
    10030    2    1    2    0    0  0.00000000000E+00  0.00000000000E+00 -0.15898485710E+04  0.33986167443E+04  0.30038271082E+04 0.  0.
        2    1    3    3  502    0  0.71281528815E+03  0.13198076099E+04 -0.70915509818E+03  0.16591861606E+04  0.25500000920E-02 0.  1.
       -2    1    3    3    0  502 -0.71281528815E+03 -0.13198076099E+04 -0.88069347285E+03  0.17394305837E+04  0.25500000920E-02 0. -1.
</event>
<event>
 5   0  0.7399409E-07  0.3000736E+04  0.7818609E-02  0.8243521E-01
        2   -1    0    0  501    0  0.00000000000E+00  0.00000000000E+00  0.15155858820E+04  0.15155858820E+04  0.25500000920E-02 0.  1.
       -2   -1    0    0    0  501  0.00000000000E+00  0.00000000000E+00 -0.14853031623E+04  0.14853031623E+04  0.25500000920E-02 0. -1.
    10030    2    1    2    0    0  0.00000000000E+00  0.00000000000E+00  0.30282719757E+02  0.30008890443E+04  0.30007362451E+04 0.  0.
        3    1    3    3  502    0 -0.67237027550E+03 -0.12014433606E+04 -0.58117463705E+03  0.14944269487E+04  0.10100000352E+00 0.  1.
       -3    1    3    3    0  502  0.67237027550E+03  0.12014433606E+04  0.61145735681E+03  0.15064620956E+04  0.10100000352E+00 0. -1.
</event>
<event>
 5   0  0.7585823E-07  0.3005767E+04  0.7818609E-02  0.8242086E-01
       -2   -1    0    0    0  501  0.00000000000E+00  0.00000000000E+00  0.69623492815E+03  0.69623492816E+03  0.25500000920E-02 0. -1.
        2   -1    0    0  501    0  0.00000000000E+00  0.00000000000E+00 -0.32441035297E+04  0.32441035297E+04  0.25500000920E-02 0.  1.
    10030    2    1    2    0    0  0.00000000000E+00  0.00000000000E+00 -0.25478686016E+04  0.39403384579E+04  0.30057665830E+04 0.  0.
        5    1    3    3  502    0  0.10738249856E+04 -0.11222677392E+03  0.96558202892E+02  0.10839928621E+04  0.46999998093E+01 0. -1.
       -5    1    3    3    0  502 -0.10738249856E+04  0.11222677392E+03 -0.26444268044E+04  0.28563455958E+04  0.46999998093E+01 0.  1.
</event>
<event>
 5   0  0.2679935E-07  0.2999807E+04  0.7818609E-02  0.8243786E-01
        1   -1    0    0  501    0  0.00000000000E+00  0.00000000000E+00  0.21887888541E+04  0.21887888541E+04  0.50400001928E-02 0.  1.
       -1   -1    0    0    0  501  0.00000000000E+00  0.00000000000E+00 -0.10278337223E+04  0.10278337223E+04  0.50400001928E-02 0. -1.
    10030    2    1    2    0    0  0.00000000000E+00  0.00000000000E+00  0.11609551318E+04  0.32166225765E+04  0.29998073240E+04 0.  0.
        2    1    3    3  502    0  0.28413771095E+03  0.14478543747E+04  0.29137135589E+03  0.15039660223E+04  0.25500000920E-02 0.  1.
       -2    1    3    3    0  502 -0.28413771095E+03 -0.14478543747E+04  0.86958377595E+03  0.17126565542E+04  0.25500000920E-02 0. -1.
</event>
<event>
 5   0  0.7399409E-07  0.2998510E+04  0.7818609E-02  0.8244156E-01
        2   -1    0    0  501    0  0.00000000000E+00  0.00000000000E+00  0.25104801969E+04  0.25104801969E+04  0.25500000920E-02 0. -1.
       -2   -1    0    0    0  501  0.00000000000E+00  0.00000000000E+00 -0.89535298492E+03  0.89535298492E+03  0.25500000920E-02 0.  1.
    10030    2    1    2    0    0  0.00000000000E+00  0.00000000000E+00  0.16151272120E+04  0.34058331818E+04  0.29985102554E+04 0.  0.
        3    1    3    3  502    0 -0.11895767771E+04 -0.68116208493E+03  0.11788105361E+03  0.13758526983E+04  0.10100000352E+00 0.  1.
       -3    1    3    3    0  502  0.11895767771E+04  0.68116208493E+03  0.14972461584E+04  0.20299804835E+04  0.10100000352E+00 0. -1.
</event>
<event>
 5   0  0.7307508E-07  0.3002251E+04  0.7818609E-02  0.8243089E-01
        2   -1    0    0  501    0  0.00000000000E+00  0.00000000000E+00  0.16811299346E+04  0.16811299346E+04  0.25500000920E-02 0. -1.
       -2   -1    0    0    0  501  0.00000000000E+00  0.00000000000E+00 -0.13403944224E+04  0.13403944224E+04  0.25500000920E-02 0.  1.
    10030    2    1    2    0    0  0.00000000000E+00  0.00000000000E+00  0.34073551212E+03  0.30215243570E+04  0.30022506142E+04 0.  0.
        1    1    3    3  502    0 -0.86251559591E+03  0.38638507194E+03 -0.10033742774E+04  0.13783999846E+04  0.50400001928E-02 0.  1.
       -1    1    3    3    0  502  0.86251559591E+03 -0.38638507194E+03  0.13441097895E+04  0.16431243724E+04  0.50400001928E-02 0. -1.
</event>
<event>
 5   0  0.2602891E-07  0.2999394E+04  0.7818609E-02  0.8243904E-01
       -1   -1    0    0    0  501  0.00000000000E+00  0.00000000000E+00  0.11014413772E+04  0.11014413773E+04  0.50400001928E-02 0.  1.
        1   -1    0    0  501    0  0.00000000000E+00  0.00000000000E+00 -0.20419523431E+04  0.20419523431E+04  0.50400001928E-02 0. -1.
    10030    2    1    2    0    0  0.00000000000E+00  0.00000000000E+00 -0.94051096588E+03  0.31433937204E+04  0.29993938061E+04 0.  0.
        5    1    3    3  502    0 -0.50959654854E+03  0.59455432175E+03  0.87016700789E+03  0.11706392251E+04  0.46999998093E+01 0.  1.
       -5    1    3    3    0  502  0.50959654854E+03 -0.59455432175E+03 -0.18106779738E+04  0.19727544952E+04  0.46999998093E+01 0. -1.
</event>
<event>
 5   0  0.7399409E-07  0.3010799E+04  0.7818609E-02  0.8240654E-01
        2   -1    0    0  501    0  0.00000000000E+00  0.00000000000E+00  0.21232178162E+04  0.21232178162E+04  0.25500000920E-02 0. -1.
       -2   -1    0    0    0  501  0.00000000000E+00  0.00000000000E+00 -0.10673555447E+04  0.10673555447E+04  0.25500000920E-02 0.  1.
    10030    2    1    2    0    0  0.00000000000E+00  0.00000000000E+00  0.10558622715E+04  0.31905733609E+04  0.30107994346E+04 0.  0.
        3    1    3    3  502    0 -0.63034151073E+02  0.14950804760E+04  0.35383736154E+03  0.15376735097E+04  0.10100000352E+00 0.  1.
       -3    1    3    3    0  502  0.63034151073E+02 -0.14950804760E+04  0.70202490993E+03  0.16528998512E+04  0.10100000352E+00 0. -1.
</event>
<event>
 5   0  0.2792361E-07  0.2981320E+04  0.7818609E-02  0.8249085E-01
       -1   -1    0    0    0  501  0.00000000000E+00  0.00000000000E+00  0.11621655436E+04  0.11621655436E+04  0.50400001928E-02 0. -1.
        1   -1    0    0  501    0  0.00000000000E+00  0.00000000000E+00 -0.19120061826E+04  0.19120061826E+04  0.50400001928E-02 0.  1.
    10030    2    1    2    0    0  0.00000000000E+00  0.00000000000E+00 -0.74984063899E+03  0.30741717262E+04  0.29813203146E+04 0.  0.
        4    1    3    3  502    0  0.13711135222E+04  0.20786206005E+03 -0.93867173749E+03  0.16745940315E+04  0.12699999809E+01 0.  1.
       -4    1    3    3    0  502 -0.13711135222E+04 -0.20786206005E+03  0.18883109850E+03  0.13995776946E+04  0.12699999809E+01 0. -1.
</event>
<event>
 5   0  0.2640081E-07  0.2998310E+04  0.7818609E-02  0.8244214E-01
       -1   -1    0    0    0  501  0.00000000000E+00  0.00000000000E+00  0.15402359185E+04  0.15402359185E+04  0.50400001928E-02 0.  1.
        1   -1    0    0  501    0  0.00000000000E+00  0.00000000000E+00 -0.14591699723E+04  0.14591699723E+04  0.50400001928E-02 0. -1.
    10030    2    1    2    0    0  0.00000000000E+00  0.00000000000E+00  0.81065946149E+02  0.29994058908E+04  0.29983101924E+04 0.  0.
        1    1    3    3  502    0 -0.12380297622E+04  0.40657125324E+03 -0.70098558969E+03  0.14796616752E+04  0.50400001928E-02 0. -1.
       -1    1    3    3    0  502  0.12380297622E+04 -0.40657125324E+03  0.78205153584E+03  0.15197442156E+04  0.50400001928E-02 0.  1.
</event>
<event>
 5   0  0.2621825E-07  0.2999388E+04  0.7818609E-02  0.8243906E-01
        1   -1    0    0  501    0  0.00000000000E+00  0.00000000000E+00  0.20127377650E+04  0.20127377650E+04  0.50400001928E-02 0. -1.
       -1   -1    0    0    0  501  0.00000000000E+00  0.00000000000E+00 -0.11174240260E+04  0.11174240260E+04  0.50400001928E-02 0.  1.
    10030    2    1    2    0    0  0.00000000000E+00  0.00000000000E+00  0.89531373897E+03  0.31301617910E+04  0.29993876286E+04 0.  0.
        3    1    3    3  502    0  0.42571214652E+03 -0.94796669693E+02  0.19450921119E+04  0.19933892179E+04  0.10100000352E+00 0. -1.
       -3    1    3    3    0  502 -0.42571214652E+03  0.94796669693E+02 -0.10497783729E+04  0.11367725730E+04  0.10100000352E+00 0.  1.
</event>
<event>
 5   0  0.7208273E-07  0.3001681E+04  0.7818609E-02  0.8243251E-01
        2   -1    0    0  501    0  0.00000000000E+00  0.00000000000E+00  0.20209614765E+04  0.20209614765E+04  0.25500000920E-02 0. -1.
       -2   -1    0    0    0  501  0.00000000000E+00  0.00000000000E+00 -0.11145791423E+04  0.11145791423E+04  0.25500000920E-02 0.  1.
    10030    2    1    2    0    0  0.00000000000E+00  0.00000000000E+00  0.90638233425E+03  0.31355406188E+04  0.30016805353E+04 0.  0.
        4    1    3    3  502    0 -0.43551155935E+03 -0.72187173877E+03  0.17502361831E+04  0.19427036406E+04  0.12699999809E+01 0. -1.
       -4    1    3    3    0  502  0.43551155935E+03  0.72187173877E+03 -0.84385384883E+03  0.11928369782E+04  0.12699999809E+01 0.  1.
</event>
<event>
 5   0  0.7208273E-07  0.2998793E+04  0.7818609E-02  0.8244076E-01
       -2   -1    0    0    0  501  0.00000000000E+00  0.00000000000E+00  0.13654510674E+04  0.13654510674E+04  0.25500000920E-02 0.  1.
        2   -1    0    0  501    0  0.00000000000E+00  0.00000000000E+00 -0.16464818962E+04  0.16464818962E+04  0.25500000920E-02 0. -1.
    10030    2    1    2    0    0  0.00000000000E+00  0.00000000000E+00 -0.28103082882E+03  0.30119329635E+04  0.29987933990E+04 0.  0.
        4    1    3    3  502    0 -0.90917988097E+03 -0.17714660556E+03  0.10437181820E+04  0.13954706131E+04  0.12699999809E+01 0.  1.
       -4    1    3    3    0  502  0.90917988097E+03  0.17714660556E+03 -0.13247490108E+04  0.16164623504E+04  0.12699999809E+01 0. -1.
</event>
<event>
 5   0  0.2679935E-07  0.3002031E+04  0.7818609E-02  0.8243151E-01
       -1   -1    0    0    0  501  0.00000000000E+00  0.00000000000E+00  0.16573476332E+04  0.16573476332E+04  0.50400001928E-02 0. -1.
        1   -1    0    0  501    0  0.00000000000E+00  0.00000000000E+00 -0.13594296660E+04  0.13594296660E+04  0.50400001928E-02 0.  1.
    10030    2    1    2    0    0  0.00000000000E+00  0.00000000000E+00  0.29791796725E+03  0.30167772992E+04  0.30020310055E+04 0.  0.
        2    1    3    3  502    0  0.12788598516E+04  0.78569315366E+03  0.16488891017E+03  0.15099617891E+04  0.25500000920E-02 0. -1.
       -2    1    3    3    0  502 -0.12788598516E+04 -0.78569315366E+03  0.13302905708E+03  0.15068155102E+04  0.25500000920E-02 0.  1.
</event>
<event>
 5   0  0.2602891E-07  0.2996059E+04  0.7818609E-02  0.8244857E-01
        1   -1    0    0  501    0  0.00000000000E+00  0.00000000000E+00  0.12608383453E+04  0.12608383453E+04  0.50400001928E-02 0. -1.
       -1   -1    0    0    0  501  0.00000000000E+00  0.00000000000E+00 -0.17798414460E+04  0.17798414460E+04  0.50400001928E-02 0.  1.
    10030    2    1    2    0    0  0.00000000000E+00  0.00000000000E+00 -0.51900310073E+03  0.30406797913E+04  0.29960589738E+04 0.  0.
        5    1    3    3  502    0  0.13281762575E+04 -0.16034686216E+03 -0.94356286127E+03  0.16370999512E+04  0.46999998093E+01 0.  1.
       -5    1    3    3    0  502 -0.13281762575E+04  0.16034686216E+03  0.42455976054E+03  0.14035798401E+04  0.46999998093E+01 0. -1.
</event>
<event>
 5   0  0.2602891E-07  0.2998627E+04  0.7818609E-02  0.8244123E-01
        1   -1    0    0  501    0  0.00000000000E+00  0.00000000000E+00  0.17295119276E+04  0.17295119277E+04  0.50400001928E-02 0.  1.
       -1   -1    0    0    0  501  0.00000000000E+00  0.00000000000E+00 -0.12997549258E+04  0.12997549258E+04  0.50400001928E-02 0. -1.
    10030    2    1    2    0    0  0.00000000000E+00  0.00000000000E+00  0.42975700188E+03  0.30292668534E+04  0.29986274508E+04 0.  0.
        5    1    3    3  502    0 -0.61974094480E+03 -0.10488597850E+04  0.10977267212E+04  0.16398816213E+04  0.46999998093E+01 0.  1.
       -5    1    3    3    0  502  0.61974094480E+03  0.10488597850E+04 -0.66796971934E+03  0.13893852321E+04  0.46999998093E+01 0. -1.
</event>
<event>
 5   0  0.7278657E-07  0.3002884E+04  0.7818609E-02  0.8242908E-01
       -2   -1    0    0    0  501  0.00000000000E+00  0.00000000000E+00  0.13520908874E+04  0.13520908874E+04  0.25500000920E-02 0. -1.
        2   -1    0    0  501    0  0.00000000000E+00  0.00000000000E+00 -0.16672904900E+04  0.16672904900E+04  0.25500000920E-02 0.  1.
    10030    2    1    2    0    0  0.00000000000E+00  0.00000000000E+00 -0.31519960258E+03  0.30193813773E+04  0.30028841324E+04 0.  0.
        2    1    3    3  502    0  0.27121611095E+03 -0.14193018869E+04  0.25250394903E+03  0.14668790915E+04  0.25500000920E-02 0.  1.
       -2    1    3    3    0  502 -0.27121611095E+03  0.14193018869E+04 -0.56770355161E+03  0.15525022858E+04  0.25500000920E-02 0. -1.
</event>
<event>
 5   0  0.7399409E-07  0.3005504E+04  0.7818609E-02  0.8242161E-01
        2   -1    0    0  501    0  0.00000000000E+00  0.00000000000E+00  0.20273910149E+04  0.20273910149E+04  0.25500000920E-02 0. -1.
       -2   -1    0    0    0  501  0.00000000000E+00  0.00000000000E+00 -0.11138764279E+04  0.11138764279E+04  0.25500000920E-02 0.  1.
    10030    2    1    2    0    0  0.00000000000E+00  0.00000000000E+00  0.91351458701E+03  0.31412674428E+04  0.30055036594E+04 0.  0.
        3    1    3    3  502    0  0.18997325602E+03  0.17388436522E+03  0.20041542188E+04  0.20206335030E+04  0.10100000352E+00 0. -1.
       -3    1    3    3    0  502 -0.18997325602E+03 -0.17388436522E+03 -0.10906396318E+04  0.11206339398E+04  0.10100000352E+00 0.  1.
</event>
<event>
 5   0  0.7307508E-07  0.3004389E+04  0.7818609E-02  0.8242479E-01
        2   -1    0    0  501    0  0.00000000000E+00  0.00000000000E+00  0.13339847962E+04  0.13339847962E+04  0.25500000920E-02 0.  1.
       -2   -1    0    0    0  501  0.00000000000E+00  0.00000000000E+00 -0.16916144040E+04  0.16916144040E+04  0.25500000920E-02 0. -1.
    10030    2    1    2    0    0  0.00000000000E+00  0.00000000000E+00 -0.35762960780E+03  0.30255992002E+04  0.30043887205E+04 0.  0.
        1    1    3    3  502    0 -0.80977548026E+03  0.86430166578E+03 -0.11093698029E+04  0.16227923643E+04  0.50400001928E-02 0. -1.
       -1    1    3    3    0  502  0.80977548026E+03 -0.86430166578E+03  0.75174019514E+03  0.14028068359E+04  0.50400001928E-02 0.  1.
</event>
<event>
 5   0  0.7278657E-07  0.2997136E+04  0.7818609E-02  0.8244549E-01
        2   -1    0    0  501    0  0.00000000000E+00  0.00000000000E+00  0.24002184406E+04  0.24002184406E+04  0.25500000920E-02 0. -1.
       -2   -1    0    0    0  501  0.00000000000E+00  0.00000000000E+00 -0.93562599652E+03  0.93562599653E+03  0.25500000920E-02 0.  1.
    10030    2    1    2    0    0  0.00000000000E+00  0.00000000000E+00  0.14645924440E+04  0.33358444371E+04  0.29971364803E+04 0.  0.
        2    1    3    3  502    0  0.12377972650E+04  0.71202353186E+03  0.12381802470E+04  0.18900290747E+04  0.25500000920E-02 0. -1.
       -2    1    3    3    0  502 -0.12377972650E+04 -0.71202353186E+03  0.22641219698E+03  0.14458153624E+04  0.25500000920E-02 0.  1.
</event>
<event>
 5   0  0.7399409E-07  0.3000249E+04  0.7818609E-02  0.8243660E-01
        2   -1    0    0  501    0  0.00000000000E+00  0.00000000000E+00  0.21336120784E+04  0.21336120784E+04  0.25500000920E-02 0. -1.
       -2   -1    0    0    0  501  0.00000000000E+00  0.00000000000E+00 -0.10547247510E+04  0.10547247510E+04  0.25500000920E-02 0.  1.
    10030    2    1    2    0    0  0.00000000000E+00  0.00000000000E+00  0.10788873274E+04  0.31883368294E+04  0.30002489685E+04 0.  0.
        3    1    3    3  502    0  0.14092434900E+04  0.39360101732E+03  0.89107145015E+03  0.17131542004E+04  0.10100000352E+00 0. -1.
       -3    1    3    3    0  502 -0.14092434900E+04 -0.39360101732E+03  0.18781587721E+03  0.14751826290E+04  0.10100000352E+00 0.  1.
</event>
<event>
 5   0  0.2602891E-07  0.3093209E+04  0.7818609E-02  0.8217604E-01
       -1   -1    0    0    0  501  0.00000000000E+00  0.00000000000E+00  0.15356214395E+04  0.15356214395E+04  0.50400001928E-02 0. -1.
        1   -1    0    0  501    0  0.00000000000E+00  0.00000000000E+00 -0.15576665217E+04  0.15576665217E+04  0.50400001928E-02 0.  1.
    10030    2    1    2    0    0  0.00000000000E+00  0.00000000000E+00 -0.22045082229E+02  0.30932879613E+04  0.30932094054E+04 0.  0.
        5    1    3    3  502    0 -0.21997370918E+03  0.86980984037E+03  0.12487738846E+04  0.15376657296E+04  0.46999998093E+01 0.  1.
       -5    1    3    3    0  502  0.21997370918E+03 -0.86980984037E+03 -0.12708189668E+04  0.15556222317E+04  0.46999998093E+01 0. -1.
</event>
<event>
 5   0  0.7585823E-07  0.2971519E+04  0.7818609E-02  0.8251911E-01
        2   -1    0    0  501    0  0.00000000000E+00  0.00000000000E+00  0.20211966512E+04  0.20211966512E+04  0.25500000920E-02 0.  1.
       -2   -1    0    0    0  501  0.00000000000E+00  0.00000000000E+00 -0.10921656031E+04  0.10921656031E+04  0.25500000920E-02 0. -1.
    10030    2    1    2    0    0  0.00000000000E+00  0.00000000000E+00  0.92903104819E+03  0.31133622543E+04  0.29715191128E+04 0.  0.
        5    1    3    3  502    0  0.11373356051E+03  0.69761486008E+03 -0.90471619187E+03  0.11481007332E+04  0.46999998093E+01 0. -1.
       -5    1    3    3    0  502 -0.11373356051E+03 -0.69761486008E+03  0.18337472401E+04  0.19652615211E+04  0.46999998093E+01 0.  1.
</event>
<event>
 5   0  0.2602891E-07  0.3007542E+04  0.7818609E-02  0.8241580E-01
        1   -1    0    0  501    0  0.00000000000E+00  0.00000000000E+00  0.28930233760E+04  0.28930233760E+04  0.50400001928E-02 0.  1.
       -1   -1    0    0    0  501  0.00000000000E+00  0.00000000000E+00 -0.78164851709E+03  0.78164851711E+03  0.50400001928E-02 0. -1.
    10030    2    1    2    0    0  0.00000000000E+00  0.00000000000E+00  0.21113748589E+04  0.36746718931E+04  0.30075421405E+04 0.  0.
        5    1    3    3  502    0 -0.12396398170E+04  0.83963740885E+03  0.12267747480E+04  0.19356384545E+04  0.46999998093E+01 0. -1.
       -5    1    3    3    0  502  0.12396398170E+04 -0.83963740885E+03  0.88460011087E+03  0.17390334386E+04  0.46999998093E+01 0.  1.
</event>
<event>
 5   0  0.2621825E-07  0.2992158E+04  0.7818609E-02  0.8245974E-01
        1   -1    0    0  501    0  0.00000000000E+00  0.00000000000E+00  0.19737804166E+04  0.19737804166E+04  0.50400001928E-02 0. -1.
       -1   -1    0    0    0  501  0.00000000000E+00  0.00000000000E+00 -0.11339925253E+04  0.11339925253E+04  0.50400001928E-02 0.  1.
    10030    2    1    2    0    0  0.00000000000E+00  0.00000000000E+00  0.83978789132E+03  0.31077729419E+04  0.29921579096E+04 0.  0.
        3    1    3    3  502    0 -0.84375898158E+03  0.12299827872E+04  0.29936991663E+03  0.15213182550E+04  0.10100000352E+00 0.  1.
       -3    1    3    3    0  502  0.84375898158E+03 -0.12299827872E+04  0.54041797469E+03  0.15864546869E+04  0.10100000352E+00 0. -1.
</event>
<event>
 5   0  0.7399409E-07  0.3010336E+04  0.7818609E-02  0.8240785E-01
       -2   -1    0    0    0  501  0.00000000000E+00  0.00000000000E+00  0.13434501239E+04  0.13434501239E+04  0.25500000920E-02 0. -1.
        2   -1    0    0  501    0  0.00000000000E+00  0.00000000000E+00 -0.16863531852E+04  0.16863531852E+04  0.25500000920E-02 0.  1.
    10030    2    1    2    0    0  0.00000000000E+00  0.00000000000E+00 -0.34290306136E+03  0.30298033091E+04  0.30103364567E+04 0.  0.
        3    1    3    3  502    0  0.29126987935E+03  0.42951684765E+02  0.13141861430E+04  0.13467621239E+04  0.10100000352E+00 0. -1.
       -3    1    3    3    0  502 -0.29126987935E+03 -0.42951684765E+02 -0.16570892043E+04  0.16830411852E+04  0.10100000352E+00 0.  1.
</event>
<event>
 5   0  0.2640081E-07  0.3002057E+04  0.7818609E-02  0.8243144E-01
        1   -1    0    0  501    0  0.00000000000E+00  0.00000000000E+00  0.14588179768E+04  0.14588179768E+04  0.50400001928E-02 0. -1.
       -1   -1    0    0    0  501  0.00000000000E+00  0.00000000000E+00 -0.15444604594E+04  0.15444604595E+04  0.50400001928E-02 0.  1.
    10030    2    1    2    0    0  0.00000000000E+00  0.00000000000E+00 -0.85642482605E+02  0.30032784363E+04  0.30020570833E+04 0.  0.
        1    1    3    3  502    0  0.14546908829E+04 -0.14304903512E+02 -0.41277770640E+03  0.15121890192E+04  0.50400001928E-02 0.  1.
       -1    1    3    3    0  502 -0.14546908829E+04  0.14304903512E+02  0.32713522379E+03  0.14910894171E+04  0.50400001928E-02 0. -1.
</event>
<event>
 5   0  0.2621825E-07  0.2998691E+04  0.7818609E-02  0.8244105E-01
       -1   -1    0    0    0  501  0.00000000000E+00  0.00000000000E+00  0.13042629440E+04  0.13042629441E+04  0.50400001928E-02 0.  1.
        1   -1    0    0  501    0  0.00000000000E+00  0.00000000000E+00 -0.17236068492E+04  0.17236068492E+04  0.50400001928E-02 0. -1.
    10030    2    1    2    0    0  0.00000000000E+00  0.00000000000E+00 -0.41934390517E+03  0.30278697933E+04  0.29986907433E+04 0.  0.
        3    1    3    3  502    0  0.39204642016E+03 -0.78094510546E+02  0.12494629624E+04  0.13118524508E+04  0.10100000352E+00 0.  1.
       -3    1    3    3    0  502 -0.39204642016E+03  0.78094510546E+02 -0.16688068676E+04  0.17160173424E+04  0.10100000352E+00 0. -1.
</event>
<event>
 5   0  0.2792361E-07  0.3002546E+04  0.7818609E-02  0.8243004E-01
       -1   -1    0    0    0  501  0.00000000000E+00  0.00000000000E+00  0.12566268606E+04  0.12566268606E+04  0.50400001928E-02 0.  1.
        1   -1    0    0  501    0  0.00000000000E+00  0.00000000000E+00 -0.17935478219E+04  0.17935478219E+04  0.50400001928E-02 0. -1.
    10030    2    1    2    0    0  0.00000000000E+00  0.00000000000E+00 -0.53692096130E+03  0.30501746824E+04  0.30025458322E+04 0.  0.
        4    1    3    3  502    0 -0.74628798326E+03 -0.43632833499E+03 -0.15153221598E+04  0.17445718761E+04  0.12699999809E+01 0. -1.
       -4    1    3    3    0  502  0.74628798326E+03  0.43632833499E+03  0.97840119850E+03  0.13056028064E+04  0.12699999809E+01 0.  1.
</event>
<event>
 5   0  0.2602891E-07  0.3001179E+04  0.7818609E-02  0.8243394E-01
       -1   -1    0    0    0  501  0.00000000000E+00  0.00000000000E+00  0.10528026110E+04  0.10528026110E+04  0.50400001928E-02 0. -1.
        1   -1    0    0  501    0  0.00000000000E+00  0.00000000000E+00 -0.21388323440E+04  0.21388323440E+04  0.50400001928E-02 0.  1.
    10030    2    1    2    0    0  0.00000000000E+00  0.00000000000E+00 -0.10860297330E+04  0.31916349550E+04  0.30011786193E+04 0.  0.
        5    1    3    3  502    0  0.12219289854E+04  0.74227915811E+03 -0.58401858794E+02  0.14309163711E+04  0.46999998093E+01 0. -1.
       -5    1    3    3    0  502 -0.12219289854E+04 -0.74227915811E+03 -0.10276278742E+04  0.17607185839E+04  0.46999998093E+01 0.  1.
</event>
<event>
 5   0  0.7208273E-07  0.3004045E+04  0.7818609E-02  0.8242577E-01
       -2   -1    0    0    0  501  0.00000000000E+00  0.00000000000E+00  0.90773926485E+03  0.90773926485E+03  0.25500000920E-02 0. -1.
        2   -1    0    0  501    0  0.00000000000E+00  0.00000000000E+00 -0.24853737405E+04  0.24853737405E+04  0.25500000920E-02 0.  1.
    10030    2    1    2    0    0  0.00000000000E+00  0.00000000000E+00 -0.15776344756E+04  0.33931130053E+04  0.30040448279E+04 0.  0.
        4    1    3    3  502    0  0.22162142818E+03 -0.11594733297E+04  0.26021881326E+03  0.12088051552E+04  0.12699999809E+01 0. -1.
       -4    1    3    3    0  502 -0.22162142818E+03  0.11594733297E+04 -0.18378532889E+04  0.21843078501E+04  0.12699999809E+01 0.  1.
</event>
<event>
 5   0  0.7307508E-07  0.3007761E+04  0.7818609E-02  0.8241518E-01
        2   -1    0    0  501    0  0.00000000000E+00  0.00000000000E+00  0.14830205310E+04  0.14830205310E+04  0.25500000920E-02 0.  1.
       -2   -1    0    0    0  501  0.00000000000E+00  0.00000000000E+00 -0.15250343547E+04  0.15250343547E+04  0.25500000920E-02 0. -1.
    10030    2    1    2    0    0  0.00000000000E+00  0.00000000000E+00 -0.42013823665E+02  0.30080548857E+04  0.30077614656E+04 0.  0.
        1    1    3    3  502    0  0.45220435751E+03  0.13154592508E+04  0.55065661603E+03  0.14960429573E+04  0.50400001928E-02 0.  1.
       -1    1    3    3    0  502 -0.45220435751E+03 -0.13154592508E+04 -0.59267043969E+03  0.15120119283E+04  0.50400001928E-02 0. -1.
</event>
<event>
 5   0  0.2792361E-07  0.2994870E+04  0.7818609E-02  0.8245197E-01
       -1   -1    0    0    0  501  0.00000000000E+00  0.00000000000E+00  0.14038467999E+04  0.14038467999E+04  0.50400001928E-02 0. -1.
        1   -1    0    0  501    0  0.00000000000E+00  0.00000000000E+00 -0.15972625579E+04  0.15972625579E+04  0.50400001928E-02 0.  1.
    10030    2    1    2    0    0  0.00000000000E+00  0.00000000000E+00 -0.19341575800E+03  0.30011093578E+04  0.29948702346E+04 0.  0.
        4    1    3    3  502    0  0.14375924854E+04 -0.23565658472E+02 -0.51600857395E+03  0.15275778067E+04  0.12699999809E+01 0. -1.
       -4    1    3    3    0  502 -0.14375924854E+04  0.23565658472E+02  0.32259281595E+03  0.14735315511E+04  0.12699999809E+01 0.  1.
</event>
<event>
 5   0  0.7278657E-07  0.2998665E+04  0.7818609E-02  0.8244112E-01
       -2   -1    0    0    0  501  0.00000000000E+00  0.00000000000E+00  0.20329441258E+04  0.20329441258E+04  0.25500000920E-02 0.  1.
        2   -1    0    0  501    0  0.00000000000E+00  0.00000000000E+00 -0.11057846124E+04  0.11057846124E+04  0.25500000920E-02 0. -1.
    10030    2    1    2    0    0  0.00000000000E+00  0.00000000000E+00  0.92715951335E+03  0.31387287382E+04  0.29986652579E+04 0.  0.
        2    1    3    3  502    0 -0.86120768321E+03 -0.11567060206E+04  0.89305035812E+03  0.16962271174E+04  0.25500000920E-02 0.  1.
       -2    1    3    3    0  502  0.86120768321E+03  0.11567060206E+04  0.34109155228E+02  0.14425016208E+04  0.25500000920E-02 0. -1.
</event>
<event>
 5   0  0.2602891E-07  0.3002143E+04  0.7818609E-02  0.8243119E-01
       -1   -1    0    0    0  501  0.00000000000E+00  0.00000000000E+00  0.99143921609E+03  0.99143921610E+03  0.50400001928E-02 0.  1.
        1   -1    0    0  501    0  0.00000000000E+00  0.00000000000E+00 -0.22726715244E+04  0.22726715244E+04  0.50400001928E-02 0. -1.
    10030    2    1    2    0    0  0.00000000000E+00  0.00000000000E+00 -0.12812323083E+04  0.32641107405E+04  0.30021430177E+04 0.  0.
        5    1    3    3  502    0  0.88990471921E+03  0.78166039782E+03  0.36194756797E+03  0.12385279645E+04  0.46999998093E+01 0.  1.
       -5    1    3    3    0  502 -0.88990471921E+03 -0.78166039782E+03 -0.16431798763E+04  0.20255827761E+04  0.46999998093E+01 0. -1.
</event>
<event>
 5   0  0.7278657E-07  0.3006832E+04  0.7818609E-02  0.8241783E-01
       -2   -1    0    0    0  501  0.00000000000E+00  0.00000000000E+00  0.12470745070E+04  0.12470745070E+04  0.25500000920E-02 0. -1.
        2   -1    0    0  501    0  0.00000000000E+00  0.00000000000E+00 -0.18124497976E+04  0.18124497976E+04  0.25500000920E-02 0.  1.
    10030    2    1    2    0    0  0.00000000000E+00  0.00000000000E+00 -0.56537529059E+03  0.30595243045E+04  0.30068321787E+04 0.  0.
        2    1    3    3  502    0  0.86364094602E+03 -0.81181055130E+03  0.65836974696E+03  0.13558623745E+04  0.25500000920E-02 0.  1.
       -2    1    3    3    0  502 -0.86364094602E+03  0.81181055130E+03 -0.12237450376E+04  0.17036619300E+04  0.25500000920E-02 0. -1.
</event>
<event>
 5   0  0.2792361E-07  0.3009946E+04  0.7818609E-02  0.8240896E-01
        1   -1    0    0  501    0  0.00000000000E+00  0.00000000000E+00  0.18790569531E+04  0.18790569531E+04  0.50400001928E-02 0. -1.
       -1   -1    0    0    0  501  0.00000000000E+00  0.00000000000E+00 -0.12053621320E+04  0.12053621320E+04  0.50400001928E-02 0.  1.
    10030    2    1    2    0    0  0.00000000000E+00  0.00000000000E+00  0.67369482107E+03  0.30844190851E+04  0.30099462421E+04 0.  0.
        4    1    3    3  502    0 -0.94514225274E+03 -0.29221044087E+03  0.14990432204E+04  0.17960548459E+04  0.12699999809E+01 0. -1.
       -4    1    3    3    0  502  0.94514225274E+03  0.29221044087E+03 -0.82534839938E+03  0.12883642392E+04  0.12699999809E+01 0.  1.
</event>
<event>
 5   0  0.2792361E-07  0.2988116E+04  0.7818609E-02  0.8247133E-01
        1   -1    0    0  501    0  0.00000000000E+00  0.00000000000E+00  0.20565914690E+04  0.20565914690E+04  0.50400001928E-02 0. -1.
       -1   -1    0    0    0  501  0.00000000000E+00  0.00000000000E+00 -0.10853924586E+04  0.10853924586E+04  0.50400001928E-02 0.  1.
    10030    2    1    2    0    0  0.00000000000E+00  0.00000000000E+00  0.97119901046E+03  0.31419839276E+04  0.29881157078E+04 0.  0.
        4    1    3    3  502    0  0.88127340016E+03  0.49805011479E+03  0.16410517826E+04  0.19281465942E+04  0.12699999809E+01 0. -1.
       -4    1    3    3    0  502 -0.88127340016E+03 -0.49805011479E+03 -0.66985277215E+03  0.12138373334E+04  0.12699999809E+01 0.  1.
</event>
<event>
 5   0  0.2679935E-07  0.3000043E+04  0.7818609E-02  0.8243719E-01
        1   -1    0    0  501    0  0.00000000000E+00  0.00000000000E+00  0.20943028899E+04  0.20943028899E+04  0.50400001928E-02 0. -1.
       -1   -1    0    0    0  501  0.00000000000E+00  0.00000000000E+00 -0.10743741558E+04  0.10743741558E+04  0.50400001928E-02 0.  1.
    10030    2    1    2    0    0  0.00000000000E+00  0.00000000000E+00  0.10199287341E+04  0.31686770457E+04  0.30000432659E+04 0.  0.
        2    1    3    3  502    0 -0.12077972903E+04  0.86902262924E+03  0.71061731917E+03  0.16489243763E+04  0.25500000920E-02 0. -1.
       -2    1    3    3    0  502  0.12077972903E+04 -0.86902262924E+03  0.30931141493E+03  0.15197526694E+04  0.25500000920E-02 0.  1.
</event>
<event>
 5   0  0.7278657E-07  0.2974922E+04  0.7818609E-02  0.8250928E-01
       -2   -1    0    0    0  501  0.00000000000E+00  0.00000000000E+00  0.14970783969E+04  0.14970783969E+04  0.25500000920E-02 0.  1.
        2   -1    0    0  501    0  0.00000000000E+00  0.00000000000E+00 -0.14779055849E+04  0.14779055849E+04  0.25500000920E-02 0. -1.
    10030    2    1    2    0    0  0.00000000000E+00  0.00000000000E+00  0.19172812030E+02  0.29749839817E+04  0.29749221998E+04 0.  0.
        2    1    3    3  502    0  0.14218858140E+04  0.39906679608E+03 -0.16797557632E+03  0.14863476612E+04  0.25500000920E-02 0. -1.
       -2    1    3    3    0  502 -0.14218858140E+04 -0.39906679608E+03  0.18714838835E+03  0.14886363206E+04  0.25500000920E-02 0.  1.
</event>
<event>
 5   0  0.2414250E-07  0.2996184E+04  0.7818609E-02  0.8244821E-01
       -3   -1    0    0    0  501  0.00000000000E+00  0.00000000000E+00  0.13360881688E+04  0.13360881726E+04  0.10100000352E+00 0. -1.
        3   -1    0    0  501    0  0.00000000000E+00  0.00000000000E+00 -0.16797389396E+04  0.16797389427E+04  0.10100000352E+00 0.  1.
    10030    2    1    2    0    0  0.00000000000E+00  0.00000000000E+00 -0.34365077088E+03  0.30158271152E+04  0.29961837956E+04 0.  0.
        4    1    3    3  502    0 -0.46754468852E+03  0.61745887568E+03  0.11189329057E+04  0.13608328183E+04  0.12699999809E+01 0. -1.
       -4    1    3    3    0  502  0.46754468852E+03 -0.61745887568E+03 -0.14625836766E+04  0.16549942969E+04  0.12699999809E+01 0.  1.
</event>
<event>
 5   0  0.7585823E-07  0.2996269E+04  0.7818609E-02  0.8244797E-01
        2   -1    0    0  501    0  0.00000000000E+00  0.00000000000E+00  0.19016011271E+04  0.19016011271E+04  0.25500000920E-02 0.  1.
       -2   -1    0    0    0  501  0.00000000000E+00  0.00000000000E+00 -0.11802722198E+04  0.11802722198E+04  0.25500000920E-02 0. -1.
    10030    2    1    2    0    0  0.00000000000E+00  0.00000000000E+00  0.72132890735E+03  0.30818733469E+04  0.29962690022E+04 0.  0.
        5    1    3    3  502    0  0.10899116173E+04  0.94235687605E+03 -0.61476990856E+02  0.14421322150E+04  0.46999998093E+01 0. -1.
       -5    1    3    3    0  502 -0.10899116173E+04 -0.94235687605E+03  0.78280589821E+03  0.16397411319E+04  0.46999998093E+01 0.  1.
</event>
<event>
 5   0  0.7585823E-07  0.2995276E+04  0.7818609E-02  0.8245081E-01
       -2   -1    0    0    0  501  0.00000000000E+00  0.00000000000E+00  0.75500962755E+03  0.75500962756E+03  0.25500000920E-02 0. -1.
        2   -1    0    0  501    0  0.00000000000E+00  0.00000000000E+00 -0.29707161571E+04  0.29707161571E+04  0.25500000920E-02 0.  1.
    10030    2    1    2    0    0  0.00000000000E+00  0.00000000000E+00 -0.22157065295E+04  0.37257257847E+04  0.29952758132E+04 0.  0.
        5    1    3    3  502    0  0.27466310684E+02  0.14767755574E+04 -0.79994455059E+03  0.16797481416E+04  0.46999998093E+01 0. -1.
       -5    1    3    3    0  502 -0.27466310684E+02 -0.14767755574E+04 -0.14157619790E+04  0.20459776431E+04  0.46999998093E+01 0.  1.
</event>
<event>
 5   0  0.7208273E-07  0.3000754E+04  0.7818609E-02  0.8243515E-01
       -2   -1    0    0    0  501  0.00000000000E+00  0.00000000000E+00  0.20188830604E+04  0.20188830604E+04  0.25500000920E-02 0.  1.
        2   -1    0    0  501    0  0.00000000000E+00  0.00000000000E+00 -0.11150382691E+04  0.11150382692E+04  0.25500000920E-02 0. -1.
    10030    2    1    2    0    0  0.00000000000E+00  0.00000000000E+00  0.90384479121E+03  0.31339213295E+04  0.30007544873E+04 0.  0.
        4    1    3    3  502    0 -0.16833314184E+03  0.14886556670E+04  0.36644583907E+03  0.15423086291E+04  0.12699999809E+01 0. -1.
       -4    1    3    3    0  502  0.16833314184E+03 -0.14886556670E+04  0.53739895215E+03  0.15916127004E+04  0.12699999809E+01 0.  1.
</event>
<event>
 5   0  0.2792361E-07  0.2998438E+04  0.7818609E-02  0.8244177E-01
        1   -1    0    0  501    0  0.00000000000E+00  0.00000000000E+00  0.16833993677E+04  0.16833993677E+04  0.50400001928E-02 0.  1.
       -1   -1    0    0    0  501  0.00000000000E+00  0.00000000000E+00 -0.13351898448E+04  0.13351898448E+04  0.50400001928E-02 0. -1.
    10030    2    1    2    0    0  0.00000000000E+00  0.00000000000E+00  0.34820952293E+03  0.30185892125E+04  0.29984380870E+04 0.  0.
        4    1    3    3  502    0 -0.98515755532E+02 -0.65028460974E+03 -0.11821987912E+04  0.13528381361E+04  0.12699999809E+01 0. -1.
       -4    1    3    3    0  502  0.98515755532E+02  0.65028460974E+03  0.15304083141E+04  0.16657510764E+04  0.12699999809E+01 0.  1.
</event>
<event>
 5   0  0.2679935E-07  0.3006062E+04  0.7818609E-02  0.8242002E-01
       -1   -1    0    0    0  501  0.00000000000E+00  0.00000000000E+00  0.84849939767E+03  0.84849939768E+03  0.50400001928E-02 0. -1.
        1   -1    0    0  501    0  0.00000000000E+00  0.00000000000E+00 -0.26624670227E+04  0.26624670227E+04  0.50400001928E-02 0.  1.
    10030    2    1    2    0    0  0.00000000000E+00  0.00000000000E+00 -0.18139676250E+04  0.35109664204E+04  0.30060616528E+04 0.  0.
        2    1    3    3  502    0  0.13485880390E+02  0.14660104302E+04 -0.52008460195E+03  0.15555887771E+04  0.25500000920E-02 0. -1.
       -2    1    3    3    0  502 -0.13485880390E+02 -0.14660104302E+04 -0.12938830231E+04  0.19553776432E+04  0.25500000920E-02 0.  1.
</event>
<event>
 5   0  0.7278657E-07  0.3003753E+04  0.7818609E-02  0.8242660E-01
        2   -1    0    0  501    0  0.00000000000E+00  0.00000000000E+00  0.24026101117E+04  0.24026101117E+04  0.25500000920E-02 0. -1.
       -2   -1    0    0    0  501  0.00000000000E+00  0.00000000000E+00 -0.93882595267E+03  0.93882595267E+03  0.25500000920E-02 0.  1.
    10030    2    1    2    0    0  0.00000000000E+00  0.00000000000E+00  0.14637841591E+04  0.33414360644E+04  0.30037528041E+04 0.  0.
        2    1    3    3  502    0  0.14934281928E+04  0.78993058457E+02  0.88549094853E+03  0.17380051468E+04  0.25500000920E-02 0. -1.
       -2    1    3    3    0  502 -0.14934281928E+04 -0.78993058457E+02  0.57829321052E+03  0.16034309176E+04  0.25500000920E-02 0.  1.
</event>
<event>
 5   0  0.2679935E-07  0.3002255E+04  0.7818609E-02  0.8243087E-01
       -1   -1    0    0    0  501  0.00000000000E+00  0.00000000000E+00  0.17524956320E+04  0.17524956320E+04  0.50400001928E-02 0. -1.
        1   -1    0    0  501    0  0.00000000000E+00  0.00000000000E+00 -0.12858138809E+04  0.12858138809E+04  0.50400001928E-02 0.  1.
    10030    2    1    2    0    0  0.00000000000E+00  0.00000000000E+00  0.46668175117E+03  0.30383095129E+04  0.30022546260E+04 0.  0.
        2    1    3    3  502    0 -0.65329344873E+03 -0.10575157047E+04  0.10850243409E+04  0.16499726107E+04  0.25500000920E-02 0. -1.
       -2    1    3    3    0  502  0.65329344873E+03  0.10575157047E+04 -0.61834258970E+03  0.13883369022E+04  0.25500000920E-02 0.  1.
</event>
<event>
 5   0  0.7399409E-07  0.3010231E+04  0.7818609E-02  0.8240815E-01
       -2   -1    0    0    0  501  0.00000000000E+00  0.00000000000E+00  0.10134207077E+04  0.10134207078E+04  0.25500000920E-02 0.  1.
        2   -1    0    0  501    0  0.00000000000E+00  0.00000000000E+00 -0.22353728754E+04  0.22353728754E+04  0.25500000920E-02 0. -1.
    10030    2    1    2    0    0  0.00000000000E+00  0.00000000000E+00 -0.12219521676E+04  0.32487935831E+04  0.30102313276E+04 0.  0.
        3    1    3    3  502    0 -0.12529000500E+04  0.31320026581E+02 -0.15104740036E+04  0.19627203584E+04  0.10100000352E+00 0. -1.
       -3    1    3    3    0  502  0.12529000500E+04 -0.31320026581E+02  0.28852183598E+03  0.12860732248E+04  0.10100000352E+00 0.  1.
</event>
<event>
 5   0  0.7585823E-07  0.2998998E+04  0.7818609E-02  0.8244017E-01
       -2   -1    0    0    0  501  0.00000000000E+00  0.00000000000E+00  0.23164206843E+04  0.23164206843E+04  0.25500000920E-02 0.  1.
        2   -1    0    0  501    0  0.00000000000E+00  0.00000000000E+00 -0.97067751891E+03  0.97067751892E+03  0.25500000920E-02 0. -1.
    10030    2    1    2    0    0  0.00000000000E+00  0.00000000000E+00  0.13457431654E+04  0.32870982032E+04  0.29989981545E+04 0.  0.
        5    1    3    3  502    0  0.62885569759E+03  0.92931985820E+03 -0.41735848383E+03  0.11972072006E+04  0.46999998093E+01 0. -1.
       -5    1    3    3    0  502 -0.62885569759E+03 -0.92931985820E+03  0.17631016492E+04  0.20898910026E+04  0.46999998093E+01 0.  1.
</event>
<event>
 5   0  0.2602891E-07  0.3000820E+04  0.7818609E-02  0.8243497E-01
        1   -1    0    0  501    0  0.00000000000E+00  0.00000000000E+00  0.24485299480E+04  0.24485299480E+04  0.50400001928E-02 0. -1.
       -1   -1    0    0    0  501  0.00000000000E+00  0.00000000000E+00 -0.91942135721E+03  0.91942135723E+03  0.50400001928E-02 0.  1.
    10030    2    1    2    0    0  0.00000000000E+00  0.00000000000E+00  0.15291085908E+04  0.33679513052E+04  0.30008203732E+04 0.  0.
        5    1    3    3  502    0 -0.41273651083E+03 -0.92895975990E+03  0.20031512567E+04  0.22463202599E+04  0.46999998093E+01 0. -1.
       -5    1    3    3    0  502  0.41273651083E+03  0.92895975990E+03 -0.47404266586E+03  0.11216310454E+04  0.46999998093E+01 0.  1.
</event>
<event>
 5   0  0.2621825E-07  0.2995909E+04  0.7818609E-02  0.8244900E-01
       -1   -1    0    0    0  501  0.00000000000E+00  0.00000000000E+00  0.11392387002E+04  0.11392387002E+04  0.50400001928E-02 0. -1.
        1   -1    0    0  501    0  0.00000000000E+00  0.00000000000E+00 -0.19696207930E+04  0.19696207930E+04  0.50400001928E-02 0.  1.
    10030    2    1    2    0    0  0.00000000000E+00  0.00000000000E+00 -0.83038209280E+03  0.31088594932E+04  0.29959093658E+04 0.  0.
        3    1    3    3  502    0 -0.65693132827E+03  0.10942825479E+04  0.39849868191E+03  0.13370917225E+04  0.10100000352E+00 0. -1.
       -3    1    3    3    0  502  0.65693132827E+03 -0.10942825479E+04 -0.12288807747E+04  0.17717677707E+04  0.10100000352E+00 0.  1.
</event>
<event>
 5   0  0.7399409E-07  0.2991496E+04  0.7818609E-02  0.8246164E-01
        2   -1    0    0  501    0  0.00000000000E+00  0.00000000000E+00  0.20193062419E+04  0.20193062419E+04  0.25500000920E-02 0. -1.
       -2   -1    0    0    0  501  0.00000000000E+00  0.00000000000E+00 -0.11079356395E+04  0.11079356395E+04  0.25500000920E-02 0.  1.
    10030    2    1    2    0    0  0.00000000000E+00  0.00000000000E+00  0.91137060240E+03  0.31272418815E+04  0.29914955140E+04 0.  0.
        3    1    3    3  502    0  0.57233068070E+03  0.13654831186E+04  0.67782440582E+03  0.16283588335E+04  0.10100000352E+00 0. -1.
       -3    1    3    3    0  502 -0.57233068070E+03 -0.13654831186E+04  0.23354619659E+03  0.14988830480E+04  0.10100000352E+00 0.  1.
</event>
<event>
 5   0  0.7307508E-07  0.3003235E+04  0.7818609E-02  0.8242808E-01
       -2   -1    0    0    0  501  0.00000000000E+00  0.00000000000E+00  0.15669906612E+04  0.15669906612E+04  0.25500000920E-02 0. -1.
        2   -1    0    0  501    0  0.00000000000E+00  0.00000000000E+00 -0.14389719334E+04  0.14389719334E+04  0.25500000920E-02 0.  1.
    10030    2    1    2    0    0  0.00000000000E+00  0.00000000000E+00  0.12801872774E+03  0.30059625946E+04  0.30032353097E+04 0.  0.
        1    1    3    3  502    0  0.40513026473E+03  0.13768077348E+04 -0.37812191236E+03  0.14841516939E+04  0.50400001928E-02 0.  1.
       -1    1    3    3    0  502 -0.40513026473E+03 -0.13768077348E+04  0.50614064010E+03  0.15218109007E+04  0.50400001928E-02 0. -1.
</event>
<event>
 5   0  0.7307508E-07  0.3009338E+04  0.7818609E-02  0.8241069E-01
       -2   -1    0    0    0  501  0.00000000000E+00  0.00000000000E+00  0.94365957235E+03  0.94365957236E+03  0.25500000920E-02 0.  1.
        2   -1    0    0  501    0  0.00000000000E+00  0.00000000000E+00 -0.23992012972E+04  0.23992012972E+04  0.25500000920E-02 0. -1.
    10030    2    1    2    0    0  0.00000000000E+00  0.00000000000E+00 -0.14555417248E+04  0.33428608695E+04  0.30093383127E+04 0.  0.
        1    1    3    3  502    0  0.20836129427E+03 -0.71872574361E+03  0.72229663417E+03  0.10400449756E+04  0.50400001928E-02 0.  1.
       -1    1    3    3    0  502 -0.20836129427E+03  0.71872574361E+03 -0.21778383590E+04  0.23028158939E+04  0.50400001928E-02 0. -1.
</event>
<event>
 5   0  0.7278657E-07  0.2978266E+04  0.7818609E-02  0.8249965E-01
        2   -1    0    0  501    0  0.00000000000E+00  0.00000000000E+00  0.13279493131E+04  0.13279493131E+04  0.25500000920E-02 0. -1.
       -2   -1    0    0    0  501  0.00000000000E+00  0.00000000000E+00 -0.16698806871E+04  0.16698806871E+04  0.25500000920E-02 0.  1.
    10030    2    1    2    0    0  0.00000000000E+00  0.00000000000E+00 -0.34193137401E+03  0.29978300002E+04  0.29782658789E+04 0.  0.
        2    1    3    3  502    0 -0.55129342130E+03 -0.12510077053E+04  0.42331266016E+03  0.14311318330E+04  0.25500000920E-02 0. -1.
       -2    1    3    3    0  502  0.55129342130E+03  0.12510077053E+04 -0.76524403417E+03  0.15666981672E+04  0.25500000920E-02 0.  1.
</event>
<event>
 5   0  0.2640081E-07  0.3002405E+04  0.7818609E-02  0.8243044E-01
       -1   -1    0    0    0  501  0.00000000000E+00  0.00000000000E+00  0.12965670044E+04  0.12965670044E+04  0.50400001928E-02 0. -1.
        1   -1    0    0  501    0  0.00000000000E+00  0.00000000000E+00 -0.17381353078E+04  0.17381353078E+04  0.50400001928E-02 0.  1.
    10030    2    1    2    0    0  0.00000000000E+00  0.00000000000E+00 -0.44156830343E+03  0.30347023123E+04  0.30024049623E+04 0.  0.
        1    1    3    3  502    0  0.12880983662E+03 -0.28775033665E+03 -0.17042976984E+04  0.17332117225E+04  0.50400001928E-02 0.  1.
       -1    1    3    3    0  502 -0.12880983662E+03  0.28775033665E+03  0.12627293950E+04  0.13014905898E+04  0.50400001928E-02 0. -1.
</event>
<event>
 5   0  0.7307508E-07  0.3001440E+04  0.7818609E-02  0.8243320E-01
       -2   -1    0    0    0  501  0.00000000000E+00  0.00000000000E+00  0.84419362459E+03  0.84419362459E+03  0.25500000920E-02 0. -1.
        2   -1    0    0  501    0  0.00000000000E+00  0.00000000000E+00 -0.26678241007E+04  0.26678241008E+04  0.25500000920E-02 0.  1.
    10030    2    1    2    0    0  0.00000000000E+00  0.00000000000E+00 -0.18236304762E+04  0.35120177253E+04  0.30014397195E+04 0.  0.
        1    1    3    3  502    0 -0.19934751535E+03  0.23865569677E+03  0.80608315344E+03  0.86398265247E+03  0.50400001928E-02 0. -1.
       -1    1    3    3    0  502  0.19934751535E+03 -0.23865569677E+03 -0.26297136296E+04  0.26480350729E+04  0.50400001928E-02 0.  1.
</event>
<event>
 5   0  0.7208273E-07  0.3003403E+04  0.7818609E-02  0.8242760E-01
       -2   -1    0    0    0  501  0.00000000000E+00  0.00000000000E+00  0.12971161531E+04  0.12971161531E+04  0.25500000920E-02 0. -1.
        2   -1    0    0  501    0  0.00000000000E+00  0.00000000000E+00 -0.17385541320E+04  0.17385541320E+04  0.25500000920E-02 0.  1.
    10030    2    1    2    0    0  0.00000000000E+00  0.00000000000E+00 -0.44143797895E+03  0.30356702851E+04  0.30034025023E+04 0.  0.
        4    1    3    3  502    0 -0.11320377521E+04  0.77805302905E+03  0.39261930762E+03  0.14286453450E+04  0.12699999809E+01 0. -1.
       -4    1    3    3    0  502  0.11320377521E+04 -0.77805302905E+03 -0.83405728657E+03  0.16070249402E+04  0.12699999809E+01 0.  1.
</event>
<event>
 5   0  0.7399409E-07  0.3003705E+04  0.7818609E-02  0.8242674E-01
        2   -1    0    0  501    0  0.00000000000E+00  0.00000000000E+00  0.14168204542E+04  0.14168204542E+04  0.25500000920E-02 0. -1.
       -2   -1    0    0    0  501  0.00000000000E+00  0.00000000000E+00 -0.15919877491E+04  0.15919877491E+04  0.25500000920E-02 0.  1.
    10030    2    1    2    0    0  0.00000000000E+00  0.00000000000E+00 -0.17516729489E+03  0.30088082033E+04  0.30037049161E+04 0.  0.
        3    1    3    3  502    0 -0.15357566357E+03 -0.33998503560E+03 -0.15448355348E+04  0.15892426337E+04  0.10100000352E+00 0.  1.
       -3    1    3    3    0  502  0.15357566357E+03  0.33998503560E+03  0.13696682399E+04  0.14195655697E+04  0.10100000352E+00 0. -1.
</event>
<event>
 5   0  0.2602891E-07  0.3003547E+04  0.7818609E-02  0.8242719E-01
        1   -1    0    0  501    0  0.00000000000E+00  0.00000000000E+00  0.16729018046E+04  0.16729018046E+04  0.50400001928E-02 0.  1.
       -1   -1    0    0    0  501  0.00000000000E+00  0.00000000000E+00 -0.13481504175E+04  0.13481504175E+04  0.50400001928E-02 0. -1.
    10030    2    1    2    0    0  0.00000000000E+00  0.00000000000E+00  0.32475138707E+03  0.30210522222E+04  0.30035467477E+04 0.  0.
        5    1    3    3  502    0 -0.11687907840E+03 -0.75861470082E+02 -0.13416270070E+04  0.13488516589E+04  0.46999998093E+01 0. -1.
       -5    1    3    3    0  502  0.11687907840E+03  0.75861470082E+02  0.16663783941E+04  0.16722005633E+04  0.46999998093E+01 0.  1.
</event>
<event>
 5   0  0.2679935E-07  0.3004666E+04  0.7818609E-02  0.8242400E-01
       -1   -1    0    0    0  501  0.00000000000E+00  0.00000000000E+00  0.10553138043E+04  0.10553138043E+04  0.50400001928E-02 0. -1.
        1   -1    0    0  501    0  0.00000000000E+00  0.00000000000E+00 -0.21387043540E+04  0.21387043540E+04  0.50400001928E-02 0.  1.
    10030    2    1    2    0    0  0.00000000000E+00  0.00000000000E+00 -0.10833905496E+04  0.31940181583E+04  0.30046658570E+04 0.  0.
        2    1    3    3  502    0 -0.33678833087E+03  0.17836784155E+03  0.10030744968E+04  0.10730330437E+04  0.25500000920E-02 0. -1.
       -2    1    3    3    0  502  0.33678833087E+03 -0.17836784155E+03 -0.20864650464E+04  0.21209851146E+04  0.25500000920E-02 0.  1.
</event>
<event>
 5   0  0.7307508E-07  0.3006286E+04  0.7818609E-02  0.8241938E-01
        2   -1    0    0  501    0  0.00000000000E+00  0.00000000000E+00  0.13449332538E+04  0.13449332538E+04  0.25500000920E-02 0. -1.
       -2   -1    0    0    0  501  0.00000000000E+00  0.00000000000E+00 -0.16799634107E+04  0.16799634107E+04  0.25500000920E-02 0.  1.
    10030    2    1    2    0    0  0.00000000000E+00  0.00000000000E+00 -0.33503015696E+03  0.30248966645E+04  0.30062858521E+04 0.  0.
        1    1    3    3  502    0 -0.31763603698E+03  0.11047797960E+04 -0.11420186836E+04  0.16203819683E+04  0.50400001928E-02 0.  1.
       -1    1    3    3    0  502  0.31763603698E+03 -0.11047797960E+04  0.80698852665E+03  0.14045146962E+04  0.50400001928E-02 0. -1.
</event>
<event>
 5   0  0.7208273E-07  0.3006309E+04  0.7818609E-02  0.8241932E-01
       -2   -1    0    0    0  501  0.00000000000E+00  0.00000000000E+00  0.15190410600E+04  0.15190410600E+04  0.25500000920E-02 0.  1.
        2   -1    0    0  501    0  0.00000000000E+00  0.00000000000E+00 -0.14874341776E+04  0.14874341776E+04  0.25500000920E-02 0. -1.
    10030    2    1    2    0    0  0.00000000000E+00  0.00000000000E+00  0.31606882366E+02  0.30064752375E+04  0.30063090924E+04 0.  0.
        4    1    3    3  502    0  0.22961649294E+03  0.12504431219E+04  0.81780801144E+03  0.15116690417E+04  0.12699999809E+01 0.  1.
       -4    1    3    3    0  502 -0.22961649294E+03 -0.12504431219E+04 -0.78620112908E+03  0.14948061959E+04  0.12699999809E+01 0. -1.
</event>
<event>
 5   0  0.7399409E-07  0.2990930E+04  0.7818609E-02  0.8246326E-01
       -2   -1    0    0    0  501  0.00000000000E+00  0.00000000000E+00  0.15080481894E+04  0.15080481894E+04  0.25500000920E-02 0.  1.
        2   -1    0    0  501    0  0.00000000000E+00  0.00000000000E+00 -0.14829868388E+04  0.14829868388E+04  0.25500000920E-02 0. -1.
    10030    2    1    2    0    0  0.00000000000E+00  0.00000000000E+00  0.25061350668E+02  0.29910350282E+04  0.29909300341E+04 0.  0.
        3    1    3    3  502    0  0.29406697869E+03  0.45324894251E+03  0.14070349378E+04  0.15072018174E+04  0.10100000352E+00 0.  1.
       -3    1    3    3    0  502 -0.29406697869E+03 -0.45324894251E+03 -0.13819735872E+04  0.14838332109E+04  0.10100000352E+00 0. -1.
</event>
<event>
 5   0  0.2621825E-07  0.2998412E+04  0.7818609E-02  0.8244184E-01
       -1   -1    0    0    0  501  0.00000000000E+00  0.00000000000E+00  0.15362802774E+04  0.15362802774E+04  0.50400001928E-02 0. -1.
        1   -1    0    0  501    0  0.00000000000E+00  0.00000000000E+00 -0.14630268757E+04  0.14630268757E+04  0.50400001928E-02 0.  1.
    10030    2    1    2    0    0  0.00000000000E+00  0.00000000000E+00  0.73253401745E+02  0.29993071531E+04  0.29984124695E+04 0.  0.
        3    1    3    3  502    0  0.55646314993E+03  0.51766733681E+03  0.13292926924E+04  0.15312249283E+04  0.10100000352E+00 0. -1.
       -3    1    3    3    0  502 -0.55646314993E+03 -0.51766733681E+03 -0.12560392906E+04  0.14680822248E+04  0.10100000352E+00 0.  1.
</event>
<event>
 5   0  0.7278657E-07  0.2997645E+04  0.7818609E-02  0.8244404E-01
        2   -1    0    0  501    0  0.00000000000E+00  0.00000000000E+00  0.27314457030E+04  0.27314457030E+04  0.25500000920E-02 0.  1.
       -2   -1    0    0    0  501  0.00000000000E+00  0.00000000000E+00 -0.82244675995E+03  0.82244675995E+03  0.25500000920E-02 0. -1.
    10030    2    1    2    0    0  0.00000000000E+00  0.00000000000E+00  0.19089989431E+04  0.35538924630E+04  0.29976448545E+04 0.  0.
        2    1    3    3  502    0 -0.27912443201E+03 -0.70400170234E+03  0.24879305587E+04  0.26006397887E+04  0.25500000920E-02 0.  1.
       -2    1    3    3    0  502  0.27912443201E+03  0.70400170234E+03 -0.57893161565E+03  0.95325267429E+03  0.25500000920E-02 0. -1.
</event>
<event>
 5   0  0.2640081E-07  0.3001069E+04  0.7818609E-02  0.8243426E-01
       -1   -1    0    0    0  501  0.00000000000E+00  0.00000000000E+00  0.15466738257E+04  0.15466738258E+04  0.50400001928E-02 0. -1.
        1   -1    0    0  501    0  0.00000000000E+00  0.00000000000E+00 -0.14557713926E+04  0.14557713926E+04  0.50400001928E-02 0.  1.
    10030    2    1    2    0    0  0.00000000000E+00  0.00000000000E+00  0.90902433178E+02  0.30024452183E+04  0.30010688157E+04 0.  0.
        1    1    3    3  502    0  0.19639954670E+02 -0.59441245568E+03 -0.13328204916E+04  0.14594938705E+04  0.50400001928E-02 0.  1.
       -1    1    3    3    0  502 -0.19639954670E+02  0.59441245568E+03  0.14237229247E+04  0.15429513478E+04  0.50400001928E-02 0. -1.
</event>
<event>
 5   0  0.2679935E-07  0.2985745E+04  0.7818609E-02  0.8247813E-01
        1   -1    0    0  501    0  0.00000000000E+00  0.00000000000E+00  0.14750337029E+04  0.14750337029E+04  0.50400001928E-02 0.  1.
       -1   -1    0    0    0  501  0.00000000000E+00  0.00000000000E+00 -0.15109274429E+04  0.15109274429E+04  0.50400001928E-02 0. -1.
    10030    2    1    2    0    0  0.00000000000E+00  0.00000000000E+00 -0.35893740043E+02  0.29859611458E+04  0.29857454017E+04 0.  0.
        2    1    3    3  502    0 -0.11310779730E+04 -0.44413428943E+03  0.84933909435E+03  0.14825550733E+04  0.25500000920E-02 0. -1.
       -2    1    3    3    0  502  0.11310779730E+04  0.44413428943E+03 -0.88523283440E+03  0.15034060726E+04  0.25500000920E-02 0.  1.
</event>
<event>
 5   0  0.7585823E-07  0.3003363E+04  0.7818609E-02  0.8242771E-01
        2   -1    0    0  501    0  0.00000000000E+00  0.00000000000E+00  0.17375626411E+04  0.17375626411E+04  0.25500000920E-02 0. -1.
       -2   -1    0    0    0  501  0.00000000000E+00  0.00000000000E+00 -0.12978225426E+04  0.12978225426E+04  0.25500000920E-02 0.  1.
    10030    2    1    2    0    0  0.00000000000E+00  0.00000000000E+00  0.43974009849E+03  0.30353851837E+04  0.30033634244E+04 0.  0.
        5    1    3    3  502    0  0.55335341795E+03 -0.13921703037E+04  0.11538639497E+03  0.15025559124E+04  0.46999998093E+01 0. -1.
       -5    1    3    3    0  502 -0.55335341795E+03  0.13921703037E+04  0.32435370351E+03  0.15328292712E+04  0.46999998093E+01 0.  1.
</event>
<event>
 5   0  0.2640081E-07  0.2995941E+04  0.7818609E-02  0.8244891E-01
        1   -1    0    0  501    0  0.00000000000E+00  0.00000000000E+00  0.10978376917E+04  0.10978376917E+04  0.50400001928E-02 0. -1.
       -1   -1    0    0    0  501  0.00000000000E+00  0.00000000000E+00 -0.20439405845E+04  0.20439405845E+04  0.50400001928E-02 0.  1.
    10030    2    1    2    0    0  0.00000000000E+00  0.00000000000E+00 -0.94610289286E+03  0.31417782762E+04  0.29959405957E+04 0.  0.
        1    1    3    3  502    0 -0.10309106158E+04  0.80985945836E+03 -0.12330836051E+04  0.17997622669E+04  0.50400001928E-02 0.  1.
       -1    1    3    3    0  502  0.10309106158E+04 -0.80985945836E+03  0.28698071223E+03  0.13420160093E+04  0.50400001928E-02 0. -1.
</event>
<event>
 5   0  0.7208273E-07  0.2995987E+04  0.7818609E-02  0.8244878E-01
        2   -1    0    0  501    0  0.00000000000E+00  0.00000000000E+00  0.19453689567E+04  0.19453689567E+04  0.25500000920E-02 0.  1.
       -2   -1    0    0    0  501  0.00000000000E+00  0.00000000000E+00 -0.11535007846E+04  0.11535007846E+04  0.25500000920E-02 0. -1.
    10030    2    1    2    0    0  0.00000000000E+00  0.00000000000E+00  0.79186817212E+03  0.30988697413E+04  0.29959870613E+04 0.  0.
        4    1    3    3  502    0 -0.53662673134E+03  0.52235811796E+03  0.17378511326E+04  0.18923409905E+04  0.12699999809E+01 0.  1.
       -4    1    3    3    0  502  0.53662673134E+03 -0.52235811796E+03 -0.94598296047E+03  0.12065287508E+04  0.12699999809E+01 0. -1.
</event>
<event>
 5   0  0.2414250E-07  0.3000254E+04  0.7818609E-02  0.8243658E-01
       -3   -1    0    0    0  501  0.00000000000E+00  0.00000000000E+00  0.20508430815E+04  0.20508430840E+04  0.10100000352E+00 0. -1.
        3   -1    0    0  501    0  0.00000000000E+00  0.00000000000E+00 -0.10972953655E+04  0.10972953702E+04  0.10100000352E+00 0.  1.
    10030    2    1    2    0    0  0.00000000000E+00  0.00000000000E+00  0.95354771599E+03  0.31481384541E+04  0.30002537359E+04 0.  0.
        1    1    3    3  502    0 -0.77378460546E+03 -0.10873478971E+04 -0.24205735265E+03  0.13563406014E+04  0.50400001928E-02 0.  1.
       -1    1    3    3    0  502  0.77378460546E+03  0.10873478971E+04  0.11956050686E+04  0.17917978528E+04  0.50400001928E-02 0. -1.
</event>
<event>
 5   0  0.7399409E-07  0.3008750E+04  0.7818609E-02  0.8241237E-01
        2   -1    0    0  501    0  0.00000000000E+00  0.00000000000E+00  0.21259048025E+04  0.21259048025E+04  0.25500000920E-02 0.  1.
       -2   -1    0    0    0  501  0.00000000000E+00  0.00000000000E+00 -0.10645554512E+04  0.10645554512E+04  0.25500000920E-02 0. -1.
    10030    2    1    2    0    0  0.00000000000E+00  0.00000000000E+00  0.10613493513E+04  0.31904602537E+04  0.30087496049E+04 0.  0.
        3    1    3    3  502    0  0.91831012790E+03  0.14359922100E+03  0.17850044723E+04  0.20124997400E+04  0.10100000352E+00 0.  1.
       -3    1    3    3    0  502 -0.91831012790E+03 -0.14359922100E+03 -0.72365512102E+03  0.11779605136E+04  0.10100000352E+00 0. -1.
</event>
<event>
 5   0  0.7399409E-07  0.2998374E+04  0.7818609E-02  0.8244195E-01
       -2   -1    0    0    0  501  0.00000000000E+00  0.00000000000E+00  0.92675727751E+03  0.92675727751E+03  0.25500000920E-02 0. -1.
        2   -1    0    0  501    0  0.00000000000E+00  0.00000000000E+00 -0.24251895703E+04  0.24251895703E+04  0.25500000920E-02 0.  1.
    10030    2    1    2    0    0  0.00000000000E+00  0.00000000000E+00 -0.14984322928E+04  0.33519468478E+04  0.29983742819E+04 0.  0.
        3    1    3    3  502    0  0.40532156090E+03  0.14088657306E+04 -0.10998478105E+04  0.18327174990E+04  0.10100000352E+00 0.  1.
       -3    1    3    3    0  502 -0.40532156090E+03 -0.14088657306E+04 -0.39858448227E+03  0.15192293488E+04  0.10100000352E+00 0. -1.
</event>
<event>
 5   0  0.2621825E-07  0.3005789E+04  0.7818609E-02  0.8242080E-01
        1   -1    0    0  501    0  0.00000000000E+00  0.00000000000E+00  0.22456582564E+04  0.22456582564E+04  0.50400001928E-02 0. -1.
       -1   -1    0    0    0  501  0.00000000000E+00  0.00000000000E+00 -0.10058035885E+04  0.10058035885E+04  0.50400001928E-02 0.  1.
    10030    2    1    2    0    0  0.00000000000E+00  0.00000000000E+00  0.12398546679E+04  0.32514618450E+04  0.30057885042E+04 0.  0.
        3    1    3    3  502    0 -0.12600661288E+04 -0.62880159453E+03  0.11877426147E+04  0.18422515092E+04  0.10100000352E+00 0. -1.
       -3    1    3    3    0  502  0.12600661288E+04  0.62880159453E+03  0.52112053204E+02  0.14092103358E+04  0.10100000352E+00 0.  1.
</event>
<event>
 5   0  0.7278657E-07  0.3007655E+04  0.7818609E-02  0.8241548E-01
        2   -1    0    0  501    0  0.00000000000E+00  0.00000000000E+00  0.11209331599E+04  0.11209331599E+04  0.25500000920E-02 0.  1.
       -2   -1    0    0    0  501  0.00000000000E+00  0.00000000000E+00 -0.20175124592E+04  0.20175124592E+04  0.25500000920E-02 0. -1.
    10030    2    1    2    0    0  0.00000000000E+00  0.00000000000E+00 -0.89657929933E+03  0.31384456192E+04  0.30076546451E+04 0.  0.
        2    1    3    3  502    0  0.10614350109E+04 -0.98486950591E+03 -0.24572139019E+02  0.14481767903E+04  0.25500000920E-02 0.  1.
       -2    1    3    3    0  502 -0.10614350109E+04  0.98486950591E+03 -0.87200716031E+03  0.16902688288E+04  0.25500000920E-02 0. -1.
</event>
<event>
 5   0  0.7208273E-07  0.3006914E+04  0.7818609E-02  0.8241759E-01
        2   -1    0    0  501    0  0.00000000000E+00  0.00000000000E+00  0.10052187673E+04  0.10052187673E+04  0.25500000920E-02 0. -1.
       -2   -1    0    0    0  501  0.00000000000E+00  0.00000000000E+00 -0.22486479188E+04  0.22486479188E+04  0.25500000920E-02 0.  1.
    10030    2    1    2    0    0  0.00000000000E+00  0.00000000000E+00 -0.12434291515E+04  0.32538666860E+04  0.30069140918E+04 0.  0.
        4    1    3    3  502    0 -0.13575448642E+04  0.64287031857E+03 -0.69160340063E+03  0.16536405842E+04  0.12699999809E+01 0. -1.
       -4    1    3    3    0  502  0.13575448642E+04 -0.64287031857E+03 -0.55182575090E+03  0.16002261019E+04  0.12699999809E+01 0.  1.
</event>
<event>
 5   0  0.7208273E-07  0.3001957E+04  0.7818609E-02  0.8243172E-01
        2   -1    0    0  501    0  0.00000000000E+00  0.00000000000E+00  0.13291564815E+04  0.13291564815E+04  0.25500000920E-02 0. -1.
       -2   -1    0    0    0  501  0.00000000000E+00  0.00000000000E+00 -0.16950121778E+04  0.16950121778E+04  0.25500000920E-02 0.  1.
    10030    2    1    2    0    0  0.00000000000E+00  0.00000000000E+00 -0.36585569634E+03  0.30241686593E+04  0.30019569766E+04 0.  0.
        4    1    3    3  502    0  0.10871812943E+04  0.10292995452E+04 -0.74830177346E+02  0.14990069675E+04  0.12699999809E+01 0. -1.
       -4    1    3    3    0  502 -0.10871812943E+04 -0.10292995452E+04 -0.29102551899E+03  0.15251616918E+04  0.12699999809E+01 0.  1.
</event>
<event>
 5   0  0.2792361E-07  0.3001421E+04  0.7818609E-02  0.8243325E-01
       -1   -1    0    0    0  501  0.00000000000E+00  0.00000000000E+00  0.14924392354E+04  0.14924392354E+04  0.50400001928E-02 0. -1.
        1   -1    0    0  501    0  0.00000000000E+00  0.00000000000E+00 -0.15090271211E+04  0.15090271211E+04  0.50400001928E-02 0.  1.
    10030    2    1    2    0    0  0.00000000000E+00  0.00000000000E+00 -0.16587885694E+02  0.30014663565E+04  0.30014205189E+04 0.  0.
        4    1    3    3  502    0 -0.70474730461E+03 -0.99135080035E+03 -0.88733210936E+03  0.15055912652E+04  0.12699999809E+01 0.  1.
       -4    1    3    3    0  502  0.70474730461E+03  0.99135080035E+03  0.87074422366E+03  0.14958750913E+04  0.12699999809E+01 0. -1.
</event>
<event>
 5   0  0.2602891E-07  0.3007174E+04  0.7818609E-02  0.8241685E-01
        1   -1    0    0  501    0  0.00000000000E+00  0.00000000000E+00  0.20956417629E+04  0.20956417629E+04  0.50400001928E-02 0. -1.
       -1   -1    0    0    0  501  0.00000000000E+00  0.00000000000E+00 -0.10787977489E+04  0.10787977490E+04  0.50400001928E-02 0.  1.
    10030    2    1    2    0    0  0.00000000000E+00  0.00000000000E+00  0.10168440139E+04  0.31744395119E+04  0.30071738336E+04 0.  0.
        5    1    3    3  502    0  0.38600164399E+03  0.83764283196E+03  0.17619522751E+04  0.19887535526E+04  0.46999998093E+01 0. -1.
       -5    1    3    3    0  502 -0.38600164399E+03 -0.83764283196E+03 -0.74510826119E+03  0.11856859593E+04  0.46999998093E+01 0.  1.
</event>
<event>
 5   0  0.2640081E-07  0.2999827E+04  0.7818609E-02  0.8243780E-01
       -1   -1    0    0    0  501  0.00000000000E+00  0.00000000000E+00  0.14058196130E+04  0.14058196130E+04  0.50400001928E-02 0. -1.
        1   -1    0    0  501    0  0.00000000000E+00  0.00000000000E+00 -0.16003053705E+04  0.16003053705E+04  0.50400001928E-02 0.  1.
    10030    2    1    2    0    0  0.00000000000E+00  0.00000000000E+00 -0.19448575748E+03  0.30061249835E+04  0.29998271128E+04 0.  0.
        1    1    3    3  502    0 -0.44690206250E+03  0.12013357055E+04 -0.87785950361E+03  0.15535656533E+04  0.50400001928E-02 0.  1.
       -1    1    3    3    0  502  0.44690206250E+03 -0.12013357055E+04  0.68337374613E+03  0.14525593302E+04  0.50400001928E-02 0. -1.
</event>
<event>
 5   0  0.2792361E-07  0.3009516E+04  0.7818609E-02  0.8241019E-01
       -1   -1    0    0    0  501  0.00000000000E+00  0.00000000000E+00  0.13400310025E+04  0.13400310025E+04  0.50400001928E-02 0. -1.
        1   -1    0    0  501    0  0.00000000000E+00  0.00000000000E+00 -0.16897345673E+04  0.16897345673E+04  0.50400001928E-02 0.  1.
    10030    2    1    2    0    0  0.00000000000E+00  0.00000000000E+00 -0.34970356485E+03  0.30297655698E+04  0.30095160449E+04 0.  0.
        4    1    3    3  502    0 -0.52732755332E+03 -0.10704081605E+04  0.74807565717E+03  0.14083560559E+04  0.12699999809E+01 0. -1.
       -4    1    3    3    0  502  0.52732755332E+03  0.10704081605E+04 -0.10977792220E+04  0.16214095139E+04  0.12699999809E+01 0.  1.
</event>
<event>
 5   0  0.2640081E-07  0.2996011E+04  0.7818609E-02  0.8244871E-01
       -1   -1    0    0    0  501  0.00000000000E+00  0.00000000000E+00  0.12327603651E+04  0.12327603651E+04  0.50400001928E-02 0.  1.
        1   -1    0    0  501    0  0.00000000000E+00  0.00000000000E+00 -0.18203213448E+04  0.18203213448E+04  0.50400001928E-02 0. -1.
    10030    2    1    2    0    0  0.00000000000E+00  0.00000000000E+00 -0.58756097970E+03  0.30530817098E+04  0.29960106846E+04 0.  0.
        1    1    3    3  502    0  0.27459871121E+03 -0.10643539662E+04  0.74333216710E+03  0.13269500851E+04  0.50400001928E-02 0.  1.
       -1    1    3    3    0  502 -0.27459871121E+03  0.10643539662E+04 -0.13308931468E+04  0.17261316247E+04  0.50400001928E-02 0. -1.
</event>
<event>
 5   0  0.7278657E-07  0.2986719E+04  0.7818609E-02  0.8247534E-01
        2   -1    0    0  501    0  0.00000000000E+00  0.00000000000E+00  0.25213685567E+04  0.25213685567E+04  0.25500000920E-02 0. -1.
       -2   -1    0    0    0  501  0.00000000000E+00  0.00000000000E+00 -0.88448866251E+03  0.88448866251E+03  0.25500000920E-02 0.  1.
    10030    2    1    2    0    0  0.00000000000E+00  0.00000000000E+00  0.16368798941E+04  0.34058572192E+04  0.29867185354E+04 0.  0.
        2    1    3    3  502    0 -0.83917107293E+03  0.18143199553E+03  0.22117940405E+04  0.23725847796E+04  0.25500000920E-02 0. -1.
       -2    1    3    3    0  502  0.83917107293E+03 -0.18143199553E+03 -0.57491414639E+03  0.10332724396E+04  0.25500000920E-02 0.  1.
</event>
<event>
 5   0  0.2792361E-07  0.2990050E+04  0.7818609E-02  0.8246578E-01
        1   -1    0    0  501    0  0.00000000000E+00  0.00000000000E+00  0.16391440978E+04  0.16391440979E+04  0.50400001928E-02 0. -1.
       -1   -1    0    0    0  501  0.00000000000E+00  0.00000000000E+00 -0.13635774076E+04  0.13635774076E+04  0.50400001928E-02 0.  1.
    10030    2    1    2    0    0  0.00000000000E+00  0.00000000000E+00  0.27556669021E+03  0.30027215055E+04  0.29900500730E+04 0.  0.
        4    1    3    3  502    0  0.13752927324E+04 -0.46721962164E+03  0.49336576880E+03  0.15339933733E+04  0.12699999809E+01 0. -1.
       -4    1    3    3    0  502 -0.13752927324E+04  0.46721962164E+03 -0.21779907859E+03  0.14687281322E+04  0.12699999809E+01 0.  1.
</event>
<event>
 5   0  0.7278657E-07  0.2952536E+04  0.7818609E-02  0.8257416E-01
        2   -1    0    0  501    0  0.00000000000E+00  0.00000000000E+00  0.19372161508E+04  0.19372161508E+04  0.25500000920E-02 0.  1.
       -2   -1    0    0    0  501  0.00000000000E+00  0.00000000000E+00 -0.11249995927E+04  0.11249995927E+04  0.25500000920E-02 0. -1.
    10030    2    1    2    0    0  0.00000000000E+00  0.00000000000E+00  0.81221655814E+03  0.30622157435E+04  0.29525361170E+04 0.  0.
        2    1    3    3  502    0 -0.58382307465E+03  0.13513475212E+04  0.52149706768E+03  0.15617133851E+04  0.25500000920E-02 0.  1.
       -2    1    3    3    0  502  0.58382307465E+03 -0.13513475212E+04  0.29071949046E+03  0.15005023584E+04  0.25500000920E-02 0. -1.
</event>
<event>
 5   0  0.2640081E-07  0.3002280E+04  0.7818609E-02  0.8243080E-01
        1   -1    0    0  501    0  0.00000000000E+00  0.00000000000E+00  0.18677758791E+04  0.18677758791E+04  0.50400001928E-02 0.  1.
       -1   -1    0    0    0  501  0.00000000000E+00  0.00000000000E+00 -0.12064732472E+04  0.12064732472E+04  0.50400001928E-02 0. -1.
    10030    2    1    2    0    0  0.00000000000E+00  0.00000000000E+00  0.66130263194E+03  0.30742491263E+04  0.30022802200E+04 0.  0.
        1    1    3    3  502    0  0.15185714277E+03 -0.14890935812E+04  0.21407431961E+03  0.15120476512E+04  0.50400001928E-02 0. -1.
       -1    1    3    3    0  502 -0.15185714277E+03  0.14890935812E+04  0.44722831232E+03  0.15622014750E+04  0.50400001928E-02 0.  1.
</event>
<event>
 5   0  0.2621825E-07  0.3004811E+04  0.7818609E-02  0.8242358E-01
       -1   -1    0    0    0  501  0.00000000000E+00  0.00000000000E+00  0.11670434049E+04  0.11670434049E+04  0.50400001928E-02 0. -1.
        1   -1    0    0  501    0  0.00000000000E+00  0.00000000000E+00 -0.19341376528E+04  0.19341376528E+04  0.50400001928E-02 0.  1.
    10030    2    1    2    0    0  0.00000000000E+00  0.00000000000E+00 -0.76709424789E+03  0.31011810577E+04  0.30048112033E+04 0.  0.
        3    1    3    3  502    0  0.35750807551E+03  0.79765616877E+03 -0.16446845304E+04  0.18625398257E+04  0.10100000352E+00 0.  1.
       -3    1    3    3    0  502 -0.35750807551E+03 -0.79765616877E+03  0.87759028246E+03  0.12386412320E+04  0.10100000352E+00 0. -1.
</event>
<event>
 5   0  0.7278657E-07  0.3000575E+04  0.7818609E-02  0.8243567E-01
        2   -1    0    0  501    0  0.00000000000E+00  0.00000000000E+00  0.14218645779E+04  0.14218645779E+04  0.25500000920E-02 0.  1.
       -2   -1    0    0    0  501  0.00000000000E+00  0.00000000000E+00 -0.15830357176E+04  0.15830357176E+04  0.25500000920E-02 0. -1.
    10030    2    1    2    0    0  0.00000000000E+00  0.00000000000E+00 -0.16117113974E+03  0.30049002955E+04  0.30005748866E+04 0.  0.
        2    1    3    3  502    0 -0.73442209997E+03 -0.91305631161E+03  0.85768271500E+03  0.14521250940E+04  0.25500000920E-02 0.  1.
       -2    1    3    3    0  502  0.73442209997E+03  0.91305631161E+03 -0.10188538547E+04  0.15527752015E+04  0.25500000920E-02 0. -1.
</event>
<event>
 5   0  0.7307508E-07  0.3000284E+04  0.7818609E-02  0.8243650E-01
        2   -1    0    0  501    0  0.00000000000E+00  0.00000000000E+00  0.24469057385E+04  0.24469057385E+04  0.25500000920E-02 0.  1.
       -2   -1    0    0    0  501  0.00000000000E+00  0.00000000000E+00 -0.91970296989E+03  0.91970296990E+03  0.25500000920E-02 0. -1.
    10030    2    1    2    0    0  0.00000000000E+00  0.00000000000E+00  0.15272027686E+04  0.33666087084E+04  0.30002843030E+04 0.  0.
        1    1    3    3  502    0  0.82567906200E+03  0.11275850353E+04  0.15184513302E+03  0.14057919013E+04  0.50400001928E-02 0. -1.
       -1    1    3    3    0  502 -0.82567906200E+03 -0.11275850353E+04  0.13753576356E+04  0.19608168071E+04  0.50400001928E-02 0.  1.
</event>
<event>
 5   0  0.7585823E-07  0.2999366E+04  0.7818609E-02  0.8243912E-01
       -2   -1    0    0    0  501  0.00000000000E+00  0.00000000000E+00  0.12253171181E+04  0.12253171181E+04  0.25500000920E-02 0.  1.
        2   -1    0    0  501    0  0.00000000000E+00  0.00000000000E+00 -0.18354832912E+04  0.18354832912E+04  0.25500000920E-02 0. -1.
    10030    2    1    2    0    0  0.00000000000E+00  0.00000000000E+00 -0.61016617310E+03  0.30608004094E+04  0.29993659975E+04 0.  0.
        5    1    3    3  502    0  0.81017802549E+03 -0.11244112389E+04 -0.88982749992E+03  0.16469681651E+04  0.46999998093E+01 0. -1.
       -5    1    3    3    0  502 -0.81017802549E+03  0.11244112389E+04  0.27966132682E+03  0.14138322443E+04  0.46999998093E+01 0.  1.
</event>
<event>
 5   0  0.2792361E-07  0.2996239E+04  0.7818609E-02  0.8244806E-01
       -1   -1    0    0    0  501  0.00000000000E+00  0.00000000000E+00  0.18641511045E+04  0.18641511045E+04  0.50400001928E-02 0. -1.
        1   -1    0    0  501    0  0.00000000000E+00  0.00000000000E+00 -0.12039595681E+04  0.12039595681E+04  0.50400001928E-02 0.  1.
    10030    2    1    2    0    0  0.00000000000E+00  0.00000000000E+00  0.66019153636E+03  0.30681106726E+04  0.29962393487E+04 0.  0.
        4    1    3    3  502    0 -0.35411875384E+03  0.12625742160E+04  0.10719511238E+04  0.16936866793E+04  0.12699999809E+01 0. -1.
       -4    1    3    3    0  502  0.35411875384E+03 -0.12625742160E+04 -0.41175958746E+03  0.13744239934E+04  0.12699999809E+01 0.  1.
</event>
<event>
 5   0  0.2640081E-07  0.2998791E+04  0.7818609E-02  0.8244076E-01
        1   -1    0    0  501    0  0.00000000000E+00  0.00000000000E+00  0.17115072868E+04  0.17115072868E+04  0.50400001928E-02 0.  1.
       -1   -1    0    0    0  501  0.00000000000E+00  0.00000000000E+00 -0.13135712951E+04  0.13135712951E+04  0.50400001928E-02 0. -1.
    10030    2    1    2    0    0  0.00000000000E+00  0.00000000000E+00  0.39793599174E+03  0.30250785819E+04  0.29987909853E+04 0.  0.
        1    1    3    3  502    0  0.97371312372E+03  0.10522487345E+04  0.64195552377E+03  0.15708123826E+04  0.50400001928E-02 0. -1.
       -1    1    3    3    0  502 -0.97371312372E+03 -0.10522487345E+04 -0.24401953202E+03  0.14542661994E+04  0.50400001928E-02 0.  1.
</event>
<event>
 5   0  0.2602891E-07  0.2999372E+04  0.7818609E-02  0.8243910E-01
       -1   -1    0    0    0  501  0.00000000000E+00  0.00000000000E+00  0.14883035617E+04  0.14883035617E+04  0.50400001928E-02 0. -1.
        1   -1    0    0  501    0  0.00000000000E+00  0.00000000000E+00 -0.15111559798E+04  0.15111559798E+04  0.50400001928E-02 0.  1.
    10030    2    1    2    0    0  0.00000000000E+00  0.00000000000E+00 -0.22852418070E+02  0.29994595416E+04  0.29993724858E+04 0.  0.
        5    1    3    3  502    0  0.59378495802E+03 -0.13740116758E+04 -0.10388469546E+03  0.15004341977E+04  0.46999998093E+01 0. -1.
       -5    1    3    3    0  502 -0.59378495802E+03  0.13740116758E+04  0.81032277395E+02  0.14990253439E+04  0.46999998093E+01 0.  1.
</event>
<event>
 5   0  0.7399409E-07  0.2950299E+04  0.7818609E-02  0.8258067E-01
        2   -1    0    0  501    0  0.00000000000E+00  0.00000000000E+00  0.16008598012E+04  0.16008598012E+04  0.25500000920E-02 0.  1.
       -2   -1    0    0    0  501  0.00000000000E+00  0.00000000000E+00 -0.13593110699E+04  0.13593110699E+04  0.25500000920E-02 0. -1.
    10030    2    1    2    0    0  0.00000000000E+00  0.00000000000E+00  0.24154873131E+03  0.29601708711E+04  0.29502992723E+04 0.  0.
        3    1    3    3  502    0 -0.10321039484E+04  0.33479156199E+03  0.11234892729E+04  0.15619065615E+04  0.10100000352E+00 0.  1.
       -3    1    3    3    0  502  0.10321039484E+04 -0.33479156199E+03 -0.88194054157E+03  0.13982643096E+04  0.10100000352E+00 0. -1.
</event>
<event>
 5   0  0.7278657E-07  0.2999834E+04  0.7818609E-02  0.8243778E-01
       -2   -1    0    0    0  501  0.00000000000E+00  0.00000000000E+00  0.13178050611E+04  0.13178050611E+04  0.25500000920E-02 0.  1.
        2   -1    0    0  501    0  0.00000000000E+00  0.00000000000E+00 -0.17071957693E+04  0.17071957693E+04  0.25500000920E-02 0. -1.
    10030    2    1    2    0    0  0.00000000000E+00  0.00000000000E+00 -0.38939070820E+03  0.30250008304E+04  0.29998341455E+04 0.  0.
        2    1    3    3  502    0 -0.54045552031E+03 -0.81398732917E+03  0.95286931804E+03  0.13647811102E+04  0.25500000920E-02 0.  1.
       -2    1    3    3    0  502  0.54045552031E+03  0.81398732917E+03 -0.13422600262E+04  0.16602197202E+04  0.25500000920E-02 0. -1.
</event>
<event>
 5   0  0.2679935E-07  0.2980811E+04  0.7818609E-02  0.8249232E-01
       -1   -1    0    0    0  501  0.00000000000E+00  0.00000000000E+00  0.16763181160E+04  0.16763181160E+04  0.50400001928E-02 0.  1.
        1   -1    0    0  501    0  0.00000000000E+00  0.00000000000E+00 -0.13251118942E+04  0.13251118942E+04  0.50400001928E-02 0. -1.
    10030    2    1    2    0    0  0.00000000000E+00  0.00000000000E+00  0.35120622178E+03  0.30014300101E+04  0.29808113485E+04 0.  0.
        2    1    3    3  502    0 -0.14066289580E+04  0.35266894409E+03  0.52197186772E+03  0.15412446399E+04  0.25500000920E-02 0.  1.
       -2    1    3    3    0  502  0.14066289580E+04 -0.35266894409E+03 -0.17076564594E+03  0.14601853702E+04  0.25500000920E-02 0. -1.
</event>
<event>
 5   0  0.2679935E-07  0.2996113E+04  0.7818609E-02  0.8244842E-01
        1   -1    0    0  501    0  0.00000000000E+00  0.00000000000E+00  0.18294772845E+04  0.18294772845E+04  0.50400001928E-02 0. -1.
       -1   -1    0    0    0  501  0.00000000000E+00  0.00000000000E+00 -0.12266744756E+04  0.12266744756E+04  0.50400001928E-02 0.  1.
    10030    2    1    2    0    0  0.00000000000E+00  0.00000000000E+00  0.60280280894E+03  0.30561517601E+04  0.29961128741E+04 0.  0.
        2    1    3    3  502    0  0.28252029692E+03  0.48142908724E+03  0.17194321386E+04  0.18077717122E+04  0.25500000920E-02 0. -1.
       -2    1    3    3    0  502 -0.28252029692E+03 -0.48142908724E+03 -0.11166293296E+04  0.12483800479E+04  0.25500000920E-02 0.  1.
</event>
<event>
 5   0  0.7208273E-07  0.3010801E+04  0.7818609E-02  0.8240653E-01
        2   -1    0    0  501    0  0.00000000000E+00  0.00000000000E+00  0.20995194864E+04  0.20995194864E+04  0.25500000920E-02 0. -1.
       -2   -1    0    0    0  501  0.00000000000E+00  0.00000000000E+00 -0.10794041572E+04  0.10794041572E+04  0.25500000920E-02 0.  1.
    10030    2    1    2    0    0  0.00000000000E+00  0.00000000000E+00  0.10201153292E+04  0.31789236436E+04  0.30108005990E+04 0.  0.
        4    1    3    3  502    0 -0.12532462219E+04  0.74109430042E+03  0.10609489731E+03  0.14598303309E+04  0.12699999809E+01 0. -1.
       -4    1    3    3    0  502  0.12532462219E+04 -0.74109430042E+03  0.91402043192E+03  0.17190933127E+04  0.12699999809E+01 0.  1.
</event>
<event>
 5   0  0.2621825E-07  0.3009652E+04  0.7818609E-02  0.8240980E-01
       -1   -1    0    0    0  501  0.00000000000E+00  0.00000000000E+00  0.11864773004E+04  0.11864773004E+04  0.50400001928E-02 0.  1.
        1   -1    0    0  501    0  0.00000000000E+00  0.00000000000E+00 -0.19085920295E+04  0.19085920295E+04  0.50400001928E-02 0. -1.
    10030    2    1    2    0    0  0.00000000000E+00  0.00000000000E+00 -0.72211472911E+03  0.30950693298E+04  0.30096518859E+04 0.  0.
        3    1    3    3  502    0  0.45748914572E+03  0.55057537480E+03  0.10001680053E+04  0.12299453690E+04  0.10100000352E+00 0.  1.
       -3    1    3    3    0  502 -0.45748914572E+03 -0.55057537480E+03 -0.17222827344E+04  0.18651239608E+04  0.10100000352E+00 0. -1.
</event>
<event>
 5   0  0.7307508E-07  0.3010935E+04  0.7818609E-02  0.8240615E-01
       -2   -1    0    0    0  501  0.00000000000E+00  0.00000000000E+00  0.86381895664E+03  0.86381895664E+03  0.25500000920E-02 0. -1.
        2   -1    0    0  501    0  0.00000000000E+00  0.00000000000E+00 -0.26237349076E+04  0.26237349076E+04  0.25500000920E-02 0.  1.
    10030    2    1    2    0    0  0.00000000000E+00  0.00000000000E+00 -0.17599159509E+04  0.34875538642E+04  0.30109347056E+04 0.  0.
        1    1    3    3  502    0 -0.14551499658E+04 -0.38535097609E+03 -0.90520650627E+03  0.17565180377E+04  0.50400001928E-02 0.  1.
       -1    1    3    3    0  502  0.14551499658E+04  0.38535097609E+03 -0.85470944467E+03  0.17310358265E+04  0.50400001928E-02 0. -1.
</event>
<event>
 5   0  0.2679935E-07  0.2999209E+04  0.7818609E-02  0.8243957E-01
       -1   -1    0    0    0  501  0.00000000000E+00  0.00000000000E+00  0.97802194110E+03  0.97802194112E+03  0.50400001928E-02 0.  1.
        1   -1    0    0  501    0  0.00000000000E+00  0.00000000000E+00 -0.22993489912E+04  0.22993489912E+04  0.50400001928E-02 0. -1.
    10030    2    1    2    0    0  0.00000000000E+00  0.00000000000E+00 -0.13213270501E+04  0.32773709324E+04  0.29992090715E+04 0.  0.
        2    1    3    3  502    0 -0.12191900316E+04 -0.76650713216E+02  0.28978230502E+03  0.12554972916E+04  0.25500000920E-02 0.  1.
       -2    1    3    3    0  502  0.12191900316E+04  0.76650713216E+02 -0.16111093551E+04  0.20218736408E+04  0.25500000920E-02 0. -1.
</event>
<event>
 5   0  0.2792361E-07  0.3002960E+04  0.7818609E-02  0.8242886E-01
       -1   -1    0    0    0  501  0.00000000000E+00  0.00000000000E+00  0.27951388429E+04  0.27951388429E+04  0.50400001928E-02 0. -1.
        1   -1    0    0  501    0  0.00000000000E+00  0.00000000000E+00 -0.80655807919E+03  0.80655807921E+03  0.50400001928E-02 0.  1.
    10030    2    1    2    0    0  0.00000000000E+00  0.00000000000E+00  0.19885807637E+04  0.36016969221E+04  0.30029597508E+04 0.  0.
        4    1    3    3  502    0 -0.28314989873E+03 -0.11338185864E+04  0.21249725894E+04  0.24251244444E+04  0.12699999809E+01 0. -1.
       -4    1    3    3    0  502  0.28314989873E+03  0.11338185864E+04 -0.13639182578E+03  0.11765724777E+04  0.12699999809E+01 0.  1.
</event>
<event>
 5   0  0.7208273E-07  0.2999141E+04  0.7818609E-02  0.8243976E-01
       -2   -1    0    0    0  501  0.00000000000E+00  0.00000000000E+00  0.12167899180E+04  0.12167899180E+04  0.25500000920E-02 0. -1.
        2   -1    0    0  501    0  0.00000000000E+00  0.00000000000E+00 -0.18480685600E+04  0.18480685600E+04  0.25500000920E-02 0.  1.
    10030    2    1    2    0    0  0.00000000000E+00  0.00000000000E+00 -0.63127864203E+03  0.30648584780E+04  0.29991406713E+04 0.  0.
        4    1    3    3  502    0 -0.11608908604E+04  0.93582487570E+03 -0.15317844771E+03  0.14989666565E+04  0.12699999809E+01 0. -1.
       -4    1    3    3    0  502  0.11608908604E+04 -0.93582487570E+03 -0.47810019432E+03  0.15658918214E+04  0.12699999809E+01 0.  1.
</event>
<event>
 5   0  0.7278657E-07  0.2963654E+04  0.7818609E-02  0.8254186E-01
        2   -1    0    0  501    0  0.00000000000E+00  0.00000000000E+00  0.13749191539E+04  0.13749191539E+04  0.25500000920E-02 0. -1.
       -2   -1    0    0    0  501  0.00000000000E+00  0.00000000000E+00 -0.15970479499E+04  0.15970479499E+04  0.25500000920E-02 0.  1.
    10030    2    1    2    0    0  0.00000000000E+00  0.00000000000E+00 -0.22212879603E+03  0.29719671038E+04  0.29636543766E+04 0.  0.
        2    1    3    3  502    0 -0.11830249659E+03  0.12914044778E+04  0.60794797451E+03  0.14322436056E+04  0.25500000920E-02 0.  1.
       -2    1    3    3    0  502  0.11830249659E+03 -0.12914044778E+04 -0.83007677053E+03  0.15397234982E+04  0.25500000920E-02 0. -1.
</event>
<event>
 5   0  0.2602891E-07  0.2997230E+04  0.7818609E-02  0.8244522E-01
       -1   -1    0    0    0  501  0.00000000000E+00  0.00000000000E+00  0.11623627892E+04  0.11623627893E+04  0.50400001928E-02 0.  1.
        1   -1    0    0  501    0  0.00000000000E+00  0.00000000000E+00 -0.19321394548E+04  0.19321394548E+04  0.50400001928E-02 0. -1.
    10030    2    1    2    0    0  0.00000000000E+00  0.00000000000E+00 -0.76977666551E+03  0.30945022440E+04  0.29972300585E+04 0.  0.
        5    1    3    3  502    0  0.72653910091E+03  0.23994159644E+02  0.96813474454E+03  0.12106782225E+04  0.46999998093E+01 0.  1.
       -5    1    3    3    0  502 -0.72653910091E+03 -0.23994159644E+02 -0.17379114101E+04  0.18838240215E+04  0.46999998093E+01 0. -1.
</event>
<event>
 5   0  0.7585823E-07  0.3001986E+04  0.7818609E-02  0.8243164E-01
        2   -1    0    0  501    0  0.00000000000E+00  0.00000000000E+00  0.14397996007E+04  0.14397996007E+04  0.25500000920E-02 0.  1.
       -2   -1    0    0    0  501  0.00000000000E+00  0.00000000000E+00 -0.15647866849E+04  0.15647866849E+04  0.25500000920E-02 0. -1.
    10030    2    1    2    0    0  0.00000000000E+00  0.00000000000E+00 -0.12498708420E+03  0.30045862855E+04  0.30019855056E+04 0.  0.
        5    1    3    3  502    0 -0.12503621661E+04 -0.38257522275E+03  0.67515773012E+03  0.14716077595E+04  0.46999998093E+01 0.  1.
       -5    1    3    3    0  502  0.12503621661E+04  0.38257522275E+03 -0.80014481432E+03  0.15329785260E+04  0.46999998093E+01 0. -1.
</event>
<event>
 5   0  0.7278657E-07  0.3037769E+04  0.7818609E-02  0.8233027E-01
       -2   -1    0    0    0  501  0.00000000000E+00  0.00000000000E+00  0.11770838710E+04  0.11770838710E+04  0.25500000920E-02 0.  1.
        2   -1    0    0  501    0  0.00000000000E+00  0.00000000000E+00 -0.19599369609E+04  0.19599369609E+04  0.25500000920E-02 0. -1.
    10030    2    1    2    0    0  0.00000000000E+00  0.00000000000E+00 -0.78285308986E+03  0.31370208319E+04  0.30377690399E+04 0.  0.
        2    1    3    3  502    0  0.11050156645E+04  0.17096052351E+03 -0.14529833645E+04  0.18334251490E+04  0.25500000920E-02 0. -1.
       -2    1    3    3    0  502 -0.11050156645E+04 -0.17096052351E+03  0.67013027465E+03  0.13035956829E+04  0.25500000920E-02 0.  1.
</event>
<event>
 5   0  0.2414250E-07  0.2995914E+04  0.7818609E-02  0.8244899E-01
        4   -1    0    0  501    0  0.00000000000E+00  0.00000000000E+00  0.16770631167E+04  0.16770635976E+04  0.12699999809E+01 0. -1.
       -4   -1    0    0    0  501  0.00000000000E+00  0.00000000000E+00 -0.13379780437E+04  0.13379786465E+04  0.12699999809E+01 0.  1.
    10030    2    1    2    0    0  0.00000000000E+00  0.00000000000E+00  0.33908507300E+03  0.30150422440E+04  0.29959140586E+04 0.  0.
        4    1    3    3  502    0 -0.22785933370E+03  0.53349532563E+03  0.15594238358E+04  0.16638333604E+04  0.12699999809E+01 0. -1.
       -4    1    3    3    0  502  0.22785933370E+03 -0.53349532563E+03 -0.12203387628E+04  0.13512088837E+04  0.12699999809E+01 0.  1.
</event>
<event>
 5   0  0.2621825E-07  0.2998371E+04  0.7818609E-02  0.8244196E-01
        1   -1    0    0  501    0  0.00000000000E+00  0.00000000000E+00  0.12749758900E+04  0.12749758900E+04  0.50400001928E-02 0. -1.
       -1   -1    0    0    0  501  0.00000000000E+00  0.00000000000E+00 -0.17628233912E+04  0.17628233912E+04  0.50400001928E-02 0.  1.
    10030    2    1    2    0    0  0.00000000000E+00  0.00000000000E+00 -0.48784750120E+03  0.30377992813E+04  0.29983711059E+04 0.  0.
        3    1    3    3  502    0 -0.95664528552E+03  0.27525198374E+02 -0.14130607113E+04  0.17066541603E+04  0.10100000352E+00 0.  1.
       -3    1    3    3    0  502  0.95664528552E+03 -0.27525198374E+02  0.92521321008E+03  0.13311451210E+04  0.10100000352E+00 0. -1.
</event>
<event>
 5   0  0.7307508E-07  0.3000332E+04  0.7818609E-02  0.8243636E-01
        2   -1    0    0  501    0  0.00000000000E+00  0.00000000000E+00  0.25566914093E+04  0.25566914093E+04  0.25500000920E-02 0.  1.
       -2   -1    0    0    0  501  0.00000000000E+00  0.00000000000E+00 -0.88023815403E+03  0.88023815403E+03  0.25500000920E-02 0. -1.
    10030    2    1    2    0    0  0.00000000000E+00  0.00000000000E+00  0.16764532553E+04  0.34369295633E+04  0.30003315327E+04 0.  0.
        1    1    3    3  502    0 -0.79059734886E+03 -0.12417216138E+04  0.11693990067E+04  0.18800028646E+04  0.50400001928E-02 0. -1.
       -1    1    3    3    0  502  0.79059734886E+03  0.12417216138E+04  0.50705424858E+03  0.15569266987E+04  0.50400001928E-02 0.  1.
</event>
<event>
 5   0  0.2621825E-07  0.3001640E+04  0.7818609E-02  0.8243263E-01
        1   -1    0    0  501    0  0.00000000000E+00  0.00000000000E+00  0.13782553509E+04  0.13782553509E+04  0.50400001928E-02 0.  1.
       -1   -1    0    0    0  501  0.00000000000E+00  0.00000000000E+00 -0.16342840794E+04  0.16342840794E+04  0.50400001928E-02 0. -1.
    10030    2    1    2    0    0  0.00000000000E+00  0.00000000000E+00 -0.25602872847E+03  0.30125394303E+04  0.30016400699E+04 0.  0.
        3    1    3    3  502    0  0.13268723854E+04 -0.52032145784E+03  0.34394419916E+03  0.14661590531E+04  0.10100000352E+00 0.  1.
       -3    1    3    3    0  502 -0.13268723854E+04  0.52032145784E+03 -0.59997292763E+03  0.15463803771E+04  0.10100000352E+00 0. -1.
</event>
<event>
 5   0  0.7278657E-07  0.3003186E+04  0.7818609E-02  0.8242822E-01
       -2   -1    0    0    0  501  0.00000000000E+00  0.00000000000E+00  0.13808042259E+04  0.13808042259E+04  0.25500000920E-02 0. -1.
        2   -1    0    0  501    0  0.00000000000E+00  0.00000000000E+00 -0.16329482332E+04  0.16329482332E+04  0.25500000920E-02 0.  1.
    10030    2    1    2    0    0  0.00000000000E+00  0.00000000000E+00 -0.25214400727E+03  0.30137524591E+04  0.30031861887E+04 0.  0.
        2    1    3    3  502    0  0.26954092805E+03 -0.80605635780E+03  0.11161858982E+04  0.14029433785E+04  0.25500000920E-02 0. -1.
       -2    1    3    3    0  502 -0.26954092805E+03  0.80605635780E+03 -0.13683299055E+04  0.16108090806E+04  0.25500000920E-02 0.  1.
</event>
<event>
 5   0  0.7399409E-07  0.3000268E+04  0.7818609E-02  0.8243654E-01
       -2   -1    0    0    0  501  0.00000000000E+00  0.00000000000E+00  0.23035856659E+04  0.23035856659E+04  0.25500000920E-02 0. -1.
        2   -1    0    0  501    0  0.00000000000E+00  0.00000000000E+00 -0.97691297407E+03  0.97691297407E+03  0.25500000920E-02 0.  1.
    10030    2    1    2    0    0  0.00000000000E+00  0.00000000000E+00  0.13266726918E+04  0.32804986400E+04  0.30002684706E+04 0.  0.
        3    1    3    3  502    0  0.21313397530E+03 -0.67082851772E+03 -0.78514885732E+03  0.10544646651E+04  0.10100000352E+00 0.  1.
       -3    1    3    3    0  502 -0.21313397530E+03  0.67082851772E+03  0.21118215492E+04  0.22260339749E+04  0.10100000352E+00 0. -1.
</event>
<event>
 5   0  0.7307508E-07  0.3012655E+04  0.7818609E-02  0.8240126E-01
       -2   -1    0    0    0  501  0.00000000000E+00  0.00000000000E+00  0.21814530781E+04  0.21814530781E+04  0.25500000920E-02 0.  1.
        2   -1    0    0  501    0  0.00000000000E+00  0.00000000000E+00 -0.10401425953E+04  0.10401425953E+04  0.25500000920E-02 0. -1.
    10030    2    1    2    0    0  0.00000000000E+00  0.00000000000E+00  0.11413104827E+04  0.32215956734E+04  0.30126548200E+04 0.  0.
        1    1    3    3  502    0 -0.38794569177E+03 -0.13243472765E+04 -0.75065445251E+02  0.13820392142E+04  0.50400001928E-02 0. -1.
       -1    1    3    3    0  502  0.38794569177E+03  0.13243472765E+04  0.12163759280E+04  0.18395564592E+04  0.50400001928E-02 0.  1.
</event>
<event>
 5   0  0.7585823E-07  0.2994899E+04  0.7818609E-02  0.8245189E-01
       -2   -1    0    0    0  501  0.00000000000E+00  0.00000000000E+00  0.92002015060E+03  0.92002015060E+03  0.25500000920E-02 0. -1.
        2   -1    0    0  501    0  0.00000000000E+00  0.00000000000E+00 -0.24372897403E+04  0.24372897403E+04  0.25500000920E-02 0.  1.
    10030    2    1    2    0    0  0.00000000000E+00  0.00000000000E+00 -0.15172695897E+04  0.33573098909E+04  0.29948994467E+04 0.  0.
        5    1    3    3  502    0 -0.59156353626E+03  0.90747481901E+03 -0.19176063306E+04  0.22024291348E+04  0.46999998093E+01 0.  1.
       -5    1    3    3    0  502  0.59156353626E+03 -0.90747481901E+03  0.40033674096E+03  0.11548807561E+04  0.46999998093E+01 0. -1.
</event>
<event>
 5   0  0.2792361E-07  0.2999788E+04  0.7818609E-02  0.8243791E-01
       -1   -1    0    0    0  501  0.00000000000E+00  0.00000000000E+00  0.99315119609E+03  0.99315119610E+03  0.50400001928E-02 0. -1.
        1   -1    0    0  501    0  0.00000000000E+00  0.00000000000E+00 -0.22651965020E+04  0.22651965020E+04  0.50400001928E-02 0.  1.
    10030    2    1    2    0    0  0.00000000000E+00  0.00000000000E+00 -0.12720453059E+04  0.32583476981E+04  0.29997884028E+04 0.  0.
        4    1    3    3  502    0 -0.77838114160E+03 -0.48476704542E+03  0.65321268801E+03  0.11258617671E+04  0.12699999809E+01 0. -1.
       -4    1    3    3    0  502  0.77838114160E+03  0.48476704542E+03 -0.19252579939E+04  0.21324859310E+04  0.12699999809E+01 0.  1.
</event>
<event>
 5   0  0.2602891E-07  0.2986970E+04  0.7818609E-02  0.8247462E-01
        1   -1    0    0  501    0  0.00000000000E+00  0.00000000000E+00  0.18014786768E+04  0.18014786768E+04  0.50400001928E-02 0. -1.
       -1   -1    0    0    0  501  0.00000000000E+00  0.00000000000E+00 -0.12381479855E+04  0.12381479855E+04  0.50400001928E-02 0.  1.
    10030    2    1    2    0    0  0.00000000000E+00  0.00000000000E+00  0.56333069134E+03  0.30396266623E+04  0.29869698322E+04 0.  0.
        5    1    3    3  502    0  0.54006154484E+03  0.10582047656E+04  0.12026117521E+04  0.16904913234E+04  0.46999998093E+01 0. -1.
       -5    1    3    3    0  502 -0.54006154484E+03 -0.10582047656E+04 -0.63928106077E+03  0.13491353389E+04  0.46999998093E+01 0.  1.
</event>
<event>
 5   0  0.7208273E-07  0.2994764E+04  0.7818609E-02  0.8245228E-01
        2   -1    0    0  501    0  0.00000000000E+00  0.00000000000E+00  0.19518744566E+04  0.19518744566E+04  0.25500000920E-02 0.  1.
       -2   -1    0    0    0  501  0.00000000000E+00  0.00000000000E+00 -0.11487179959E+04  0.11487179959E+04  0.25500000920E-02 0. -1.
    10030    2    1    2    0    0  0.00000000000E+00  0.00000000000E+00  0.80315646064E+03  0.31005924525E+04  0.29947643073E+04 0.  0.
        4    1    3    3  502    0  0.86359365803E+03 -0.77985695335E+03  0.13773151413E+04  0.18030445045E+04  0.12699999809E+01 0.  1.
       -4    1    3    3    0  502 -0.86359365803E+03  0.77985695335E+03 -0.57415868067E+03  0.12975479480E+04  0.12699999809E+01 0. -1.
</event>
<event>
 5   0  0.2792361E-07  0.2997686E+04  0.7818609E-02  0.8244392E-01
        1   -1    0    0  501    0  0.00000000000E+00  0.00000000000E+00  0.11286191433E+04  0.11286191433E+04  0.50400001928E-02 0.  1.
       -1   -1    0    0    0  501  0.00000000000E+00  0.00000000000E+00 -0.19905129156E+04  0.19905129156E+04  0.50400001928E-02 0. -1.
    10030    2    1    2    0    0  0.00000000000E+00  0.00000000000E+00 -0.86189377228E+03  0.31191320589E+04  0.29976864289E+04 0.  0.
        4    1    3    3  502    0  0.25384912860E+03  0.28293932352E+03 -0.19395241776E+04  0.19764234590E+04  0.12699999809E+01 0. -1.
       -4    1    3    3    0  502 -0.25384912860E+03 -0.28293932352E+03  0.10776304053E+04  0.11427085999E+04  0.12699999809E+01 0.  1.
</event>
<event>
 5   0  0.2621825E-07  0.2998467E+04  0.7818609E-02  0.8244169E-01
       -1   -1    0    0    0  501  0.00000000000E+00  0.00000000000E+00  0.11824180358E+04  0.11824180358E+04  0.50400001928E-02 0.  1.
        1   -1    0    0  501    0  0.00000000000E+00  0.00000000000E+00 -0.19009357970E+04  0.19009357970E+04  0.50400001928E-02 0. -1.
    10030    2    1    2    0    0  0.00000000000E+00  0.00000000000E+00 -0.71851776115E+03  0.30833538328E+04  0.29984667891E+04 0.  0.
        3    1    3    3  502    0 -0.83362839249E+03  0.22728247565E+03  0.90062339986E+03  0.12480849887E+04  0.10100000352E+00 0.  1.
       -3    1    3    3    0  502  0.83362839249E+03 -0.22728247565E+03 -0.16191411610E+04  0.18352688441E+04  0.10100000352E+00 0. -1.
</event>
<event>
 5   0  0.7307508E-07  0.3000257E+04  0.7818609E-02  0.8243657E-01
        2   -1    0    0  501    0  0.00000000000E+00  0.00000000000E+00  0.19224394308E+04  0.19224394308E+04  0.25500000920E-02 0.  1.
       -2   -1    0    0    0  501  0.00000000000E+00  0.00000000000E+00 -0.11705886672E+04  0.11705886672E+04  0.25500000920E-02 0. -1.
    10030    2    1    2    0    0  0.00000000000E+00  0.00000000000E+00  0.75185076356E+03  0.30930280980E+04  0.30002571964E+04 0.  0.
        1    1    3    3  502    0 -0.37930075161E+03 -0.73585306528E+03  0.16656223719E+04  0.18600125482E+04  0.50400001928E-02 0.  1.
       -1    1    3    3    0  502  0.37930075161E+03  0.73585306528E+03 -0.91377160832E+03  0.12330155498E+04  0.50400001928E-02 0. -1.
</event>
<event>
 5   0  0.2602891E-07  0.2997667E+04  0.7818609E-02  0.8244397E-01
        1   -1    0    0  501    0  0.00000000000E+00  0.00000000000E+00  0.14441177558E+04  0.14441177558E+04  0.50400001928E-02 0.  1.
       -1   -1    0    0    0  501  0.00000000000E+00  0.00000000000E+00 -0.15556223897E+04  0.15556223897E+04  0.50400001928E-02 0. -1.
    10030    2    1    2    0    0  0.00000000000E+00  0.00000000000E+00 -0.11150463391E+03  0.29997401456E+04  0.29976670358E+04 0.  0.
        5    1    3    3  502    0  0.78722729705E+03 -0.15973700146E+03  0.12105227766E+04  0.14528008155E+04  0.46999998093E+01 0.  1.
       -5    1    3    3    0  502 -0.78722729705E+03  0.15973700146E+03 -0.13220274105E+04  0.15469393301E+04  0.46999998093E+01 0. -1.
</event>
<event>
 5   0  0.7208273E-07  0.2990337E+04  0.7818609E-02  0.8246496E-01
        2   -1    0    0  501    0  0.00000000000E+00  0.00000000000E+00  0.21886797818E+04  0.21886797818E+04  0.25500000920E-02 0. -1.
       -2   -1    0    0    0  501  0.00000000000E+00  0.00000000000E+00 -0.10214051753E+04  0.10214051753E+04  0.25500000920E-02 0.  1.
    10030    2    1    2    0    0  0.00000000000E+00  0.00000000000E+00  0.11672746065E+04  0.32100849570E+04  0.29903370085E+04 0.  0.
        4    1    3    3  502    0 -0.67210782167E+03 -0.83780729996E+03 -0.53293122970E+03  0.11990276495E+04  0.12699999809E+01 0. -1.
       -4    1    3    3    0  502  0.67210782167E+03  0.83780729996E+03  0.17002058362E+04  0.20110573075E+04  0.12699999809E+01 0.  1.
</event>
<event>
 5   0  0.7307508E-07  0.2997893E+04  0.7818609E-02  0.8244333E-01
       -2   -1    0    0    0  501  0.00000000000E+00  0.00000000000E+00  0.90649521333E+03  0.90649521334E+03  0.25500000920E-02 0. -1.
        2   -1    0    0  501    0  0.00000000000E+00  0.00000000000E+00 -0.24786016053E+04  0.24786016053E+04  0.25500000920E-02 0.  1.
    10030    2    1    2    0    0  0.00000000000E+00  0.00000000000E+00 -0.15721063920E+04  0.33850968187E+04  0.29978929207E+04 0.  0.
        1    1    3    3  502    0 -0.12376210536E+04  0.21039766722E+03  0.13880113635E+03  0.12630276348E+04  0.50400001928E-02 0. -1.
       -1    1    3    3    0  502  0.12376210536E+04 -0.21039766722E+03 -0.17109075284E+04  0.21220691839E+04  0.50400001928E-02 0.  1.
</event>
<event>
 5   0  0.7399409E-07  0.2994189E+04  0.7818609E-02  0.8245392E-01
       -2   -1    0    0    0  501  0.00000000000E+00  0.00000000000E+00  0.23936959985E+04  0.23936959985E+04  0.25500000920E-02 0.  1.
        2   -1    0    0  501    0  0.00000000000E+00  0.00000000000E+00 -0.93633086580E+03  0.93633086580E+03  0.25500000920E-02 0. -1.
    10030    2    1    2    0    0  0.00000000000E+00  0.00000000000E+00  0.14573651327E+04  0.33300268643E+04  0.29941886692E+04 0.  0.
        3    1    3    3  502    0 -0.46538277678E+03 -0.13671888655E+03  0.23038836969E+04  0.23543902144E+04  0.10100000352E+00 0.  1.
       -3    1    3    3    0  502  0.46538277678E+03  0.13671888655E+03 -0.84651856418E+03  0.97563664987E+03  0.10100000352E+00 0. -1.
</event>
<event>
 5   0  0.7278657E-07  0.3031188E+04  0.7818609E-02  0.8234881E-01
       -2   -1    0    0    0  501  0.00000000000E+00  0.00000000000E+00  0.22617091854E+04  0.22617091854E+04  0.25500000920E-02 0.  1.
        2   -1    0    0  501    0  0.00000000000E+00  0.00000000000E+00 -0.10156147413E+04  0.10156147413E+04  0.25500000920E-02 0. -1.
    10030    2    1    2    0    0  0.00000000000E+00  0.00000000000E+00  0.12460944441E+04  0.32773239267E+04  0.30311880108E+04 0.  0.
        2    1    3    3  502    0  0.84980371436E+03  0.38360145617E+03 -0.66884506709E+03  0.11474624847E+04  0.25500000920E-02 0. -1.
       -2    1    3    3    0  502 -0.84980371436E+03 -0.38360145617E+03  0.19149395112E+04  0.21298614419E+04  0.25500000920E-02 0.  1.
</event>
<event>
 5   0  0.7307508E-07  0.3002344E+04  0.7818609E-02  0.8243062E-01
       -2   -1    0    0    0  501  0.00000000000E+00  0.00000000000E+00  0.19673943374E+04  0.19673943374E+04  0.25500000920E-02 0.  1.
        2   -1    0    0  501    0  0.00000000000E+00  0.00000000000E+00 -0.11454324677E+04  0.11454324677E+04  0.25500000920E-02 0. -1.
    10030    2    1    2    0    0  0.00000000000E+00  0.00000000000E+00  0.82196186971E+03  0.31128268050E+04  0.30023439848E+04 0.  0.
        1    1    3    3  502    0  0.53487852107E+03  0.14004210103E+04  0.32905865322E+03  0.15347812990E+04  0.50400001928E-02 0.  1.
       -1    1    3    3    0  502 -0.53487852107E+03 -0.14004210103E+04  0.49290321650E+03  0.15780455061E+04  0.50400001928E-02 0. -1.
</event>
<event>
 5   0  0.7585823E-07  0.2999846E+04  0.7818609E-02  0.8243775E-01
       -2   -1    0    0    0  501  0.00000000000E+00  0.00000000000E+00  0.17039590026E+04  0.17039590026E+04  0.25500000920E-02 0. -1.
        2   -1    0    0  501    0  0.00000000000E+00  0.00000000000E+00 -0.13203190649E+04  0.13203190649E+04  0.25500000920E-02 0.  1.
    10030    2    1    2    0    0  0.00000000000E+00  0.00000000000E+00  0.38363993778E+03  0.30242780675E+04  0.29998463673E+04 0.  0.
        5    1    3    3  502    0  0.21470968679E+03  0.74902902807E+03 -0.11002587598E+04  0.13482344615E+04  0.46999998093E+01 0.  1.
       -5    1    3    3    0  502 -0.21470968679E+03 -0.74902902807E+03  0.14838986976E+04  0.16760436060E+04  0.46999998093E+01 0. -1.
</event>
<event>
 5   0  0.7278657E-07  0.2999815E+04  0.7818609E-02  0.8243784E-01
        2   -1    0    0  501    0  0.00000000000E+00  0.00000000000E+00  0.13529447651E+04  0.13529447651E+04  0.25500000920E-02 0. -1.
       -2   -1    0    0    0  501  0.00000000000E+00  0.00000000000E+00 -0.16628341630E+04  0.16628341630E+04  0.25500000920E-02 0.  1.
    10030    2    1    2    0    0  0.00000000000E+00  0.00000000000E+00 -0.30988939790E+03  0.30157789281E+04  0.29998151783E+04 0.  0.
        2    1    3    3  502    0 -0.90371936275E+03 -0.11279536981E+04  0.24810594183E+03  0.14664735899E+04  0.25500000920E-02 0. -1.
       -2    1    3    3    0  502  0.90371936275E+03  0.11279536981E+04 -0.55799533973E+03  0.15493053381E+04  0.25500000920E-02 0.  1.
</event>
<event>
 5   0  0.2621825E-07  0.3003484E+04  0.7818609E-02  0.8242737E-01
        1   -1    0    0  501    0  0.00000000000E+00  0.00000000000E+00  0.17144195301E+04  0.17144195302E+04  0.50400001928E-02 0.  1.
       -1   -1    0    0    0  501  0.00000000000E+00  0.00000000000E+00 -0.13154473508E+04  0.13154473508E+04  0.50400001928E-02 0. -1.
    10030    2    1    2    0    0  0.00000000000E+00  0.00000000000E+00  0.39897217936E+03  0.30298668809E+04  0.30034837300E+04 0.  0.
        3    1    3    3  502    0 -0.66640208554E+03  0.10745997608E+04  0.10167707819E+04  0.16225533022E+04  0.10100000352E+00 0.  1.
       -3    1    3    3    0  502  0.66640208554E+03 -0.10745997608E+04 -0.61779860249E+03  0.14073135787E+04  0.10100000352E+00 0. -1.
</event>
<event>
 5   0  0.2640081E-07  0.3000247E+04  0.7818609E-02  0.8243660E-01
       -1   -1    0    0    0  501  0.00000000000E+00  0.00000000000E+00  0.14060403675E+04  0.14060403675E+04  0.50400001928E-02 0. -1.
        1   -1    0    0  501    0  0.00000000000E+00  0.00000000000E+00 -0.16005016948E+04  0.16005016948E+04  0.50400001928E-02 0.  1.
    10030    2    1    2    0    0  0.00000000000E+00  0.00000000000E+00 -0.19446132730E+03  0.30065420623E+04  0.30002466507E+04 0.  0.
        1    1    3    3  502    0 -0.79907100659E+03  0.78591749361E+03 -0.10964132289E+04  0.15678975569E+04  0.50400001928E-02 0.  1.
       -1    1    3    3    0  502  0.79907100659E+03 -0.78591749361E+03  0.90195190157E+03  0.14386445055E+04  0.50400001928E-02 0. -1.
</event>
<event>
 5   0  0.7278657E-07  0.2994579E+04  0.7818609E-02  0.8245281E-01
        2   -1    0    0  501    0  0.00000000000E+00  0.00000000000E+00  0.21702022921E+04  0.21702022921E+04  0.25500000920E-02 0.  1.
       -2   -1    0    0    0  501  0.00000000000E+00  0.00000000000E+00 -0.10330262908E+04  0.10330262908E+04  0.25500000920E-02 0. -1.
    10030    2    1    2    0    0  0.00000000000E+00  0.00000000000E+00  0.11371760013E+04  0.32032285829E+04  0.29945791184E+04 0.  0.
        2    1    3    3  502    0  0.61501738135E+03  0.18755485067E+03 -0.87783066910E+03  0.10881221829E+04  0.25500000920E-02 0. -1.
       -2    1    3    3    0  502 -0.61501738135E+03 -0.18755485067E+03  0.20150066704E+04  0.21151063999E+04  0.25500000920E-02 0.  1.
</event>
<event>
 5   0  0.7585823E-07  0.3008989E+04  0.7818609E-02  0.8241169E-01
       -2   -1    0    0    0  501  0.00000000000E+00  0.00000000000E+00  0.10215949449E+04  0.10215949449E+04  0.25500000920E-02 0. -1.
        2   -1    0    0  501    0  0.00000000000E+00  0.00000000000E+00 -0.22156572562E+04  0.22156572562E+04  0.25500000920E-02 0.  1.
    10030    2    1    2    0    0  0.00000000000E+00  0.00000000000E+00 -0.11940623114E+04  0.32372522011E+04  0.30089893669E+04 0.  0.
        5    1    3    3  502    0  0.14873568433E+04 -0.12865888272E+03 -0.79743789779E+03  0.16925462411E+04  0.46999998093E+01 0.  1.
       -5    1    3    3    0  502 -0.14873568433E+04  0.12865888272E+03 -0.39662441358E+03  0.15447059600E+04  0.46999998093E+01 0. -1.
</event>
<event>
 5   0  0.7585823E-07  0.2996948E+04  0.7818609E-02  0.8244603E-01
        2   -1    0    0  501    0  0.00000000000E+00  0.00000000000E+00  0.17576379974E+04  0.17576379974E+04  0.25500000920E-02 0.  1.
       -2   -1    0    0    0  501  0.00000000000E+00  0.00000000000E+00 -0.12775241569E+04  0.12775241569E+04  0.25500000920E-02 0. -1.
    10030    2    1    2    0    0  0.00000000000E+00  0.00000000000E+00  0.48011384048E+03  0.30351621543E+04  0.29969484485E+04 0.  0.
        5    1    3    3  502    0 -0.12512167001E+04 -0.12815537422E+03 -0.58484459916E+03  0.13870949231E+04  0.46999998093E+01 0. -1.
       -5    1    3    3    0  502  0.12512167001E+04  0.12815537422E+03  0.10649584396E+04  0.16480672312E+04  0.46999998093E+01 0.  1.
</event>
<event>
 5   0  0.2792361E-07  0.3000861E+04  0.7818609E-02  0.8243485E-01
       -1   -1    0    0    0  501  0.00000000000E+00  0.00000000000E+00  0.20765842007E+04  0.20765842007E+04  0.50400001928E-02 0.  1.
        1   -1    0    0  501    0  0.00000000000E+00  0.00000000000E+00 -0.10841322398E+04  0.10841322399E+04  0.50400001928E-02 0. -1.
    10030    2    1    2    0    0  0.00000000000E+00  0.00000000000E+00  0.99245196084E+03  0.31607164405E+04  0.30008611302E+04 0.  0.
        4    1    3    3  502    0  0.12014240482E+04  0.52015597516E+03  0.12682866091E+04  0.18227820818E+04  0.12699999809E+01 0.  1.
       -4    1    3    3    0  502 -0.12014240482E+04 -0.52015597516E+03 -0.27583464826E+03  0.13379343587E+04  0.12699999809E+01 0. -1.
</event>
<event>
 5   0  0.2602891E-07  0.3000057E+04  0.7818609E-02  0.8243715E-01
       -1   -1    0    0    0  501  0.00000000000E+00  0.00000000000E+00  0.12075478997E+04  0.12075478997E+04  0.50400001928E-02 0. -1.
        1   -1    0    0  501    0  0.00000000000E+00  0.00000000000E+00 -0.18633507512E+04  0.18633507512E+04  0.50400001928E-02 0.  1.
    10030    2    1    2    0    0  0.00000000000E+00  0.00000000000E+00 -0.65580285149E+03  0.30708986510E+04  0.30000568569E+04 0.  0.
        5    1    3    3  502    0  0.14897911742E+04 -0.11841760665E+03 -0.45963663890E+03  0.15635819141E+04  0.46999998093E+01 0.  1.
       -5    1    3    3    0  502 -0.14897911742E+04  0.11841760665E+03 -0.19616621259E+03  0.15073167369E+04  0.46999998093E+01 0. -1.
</event>
<event>
 5   0  0.7307508E-07  0.2999332E+04  0.7818609E-02  0.8243922E-01
       -2   -1    0    0    0  501  0.00000000000E+00  0.00000000000E+00  0.98366609350E+03  0.98366609351E+03  0.25500000920E-02 0. -1.
        2   -1    0    0  501    0  0.00000000000E+00  0.00000000000E+00 -0.22863435438E+04  0.22863435438E+04  0.25500000920E-02 0.  1.
    10030    2    1    2    0    0  0.00000000000E+00  0.00000000000E+00 -0.13026774503E+04  0.32700096373E+04  0.29993323405E+04 0.  0.
        1    1    3    3  502    0 -0.11280534922E+04 -0.10862761505E+03  0.41948806255E+03  0.12084183360E+04  0.50400001928E-02 0. -1.
       -1    1    3    3    0  502  0.11280534922E+04  0.10862761505E+03 -0.17221655129E+04  0.20615913014E+04  0.50400001928E-02 0.  1.
</event>
<event>
 5   0  0.7208273E-07  0.2998888E+04  0.7818609E-02  0.8244049E-01
       -2   -1    0    0    0  501  0.00000000000E+00  0.00000000000E+00  0.13630602841E+04  0.13630602841E+04  0.25500000920E-02 0. -1.
        2   -1    0    0  501    0  0.00000000000E+00  0.00000000000E+00 -0.16494736942E+04  0.16494736942E+04  0.25500000920E-02 0.  1.
    10030    2    1    2    0    0  0.00000000000E+00  0.00000000000E+00 -0.28641341010E+03  0.30125339782E+04  0.29988878486E+04 0.  0.
        4    1    3    3  502    0  0.66751928085E+02  0.54782857098E+03  0.12573248007E+04  0.13731129708E+04  0.12699999809E+01 0. -1.
       -4    1    3    3    0  502 -0.66751928085E+02 -0.54782857098E+03 -0.15437382108E+04  0.16394210074E+04  0.12699999809E+01 0.  1.
</event>
<event>
 5   0  0.7278657E-07  0.3011107E+04  0.7818609E-02  0.8240566E-01
       -2   -1    0    0    0  501  0.00000000000E+00  0.00000000000E+00  0.12029887875E+04  0.12029887875E+04  0.25500000920E-02 0. -1.
        2   -1    0    0  501    0  0.00000000000E+00  0.00000000000E+00 -0.18842169722E+04  0.18842169722E+04  0.25500000920E-02 0.  1.
    10030    2    1    2    0    0  0.00000000000E+00  0.00000000000E+00 -0.68122818463E+03  0.30872057597E+04  0.30111073650E+04 0.  0.
        2    1    3    3  502    0 -0.10714849043E+04  0.22486849437E+03 -0.14001955369E+04  0.17774119616E+04  0.25500000920E-02 0.  1.
       -2    1    3    3    0  502  0.10714849043E+04 -0.22486849437E+03  0.71896735227E+03  0.13097937981E+04  0.25500000920E-02 0. -1.
</event>
<event>
 5   0  0.7278657E-07  0.3001367E+04  0.7818609E-02  0.8243341E-01
        2   -1    0    0  501    0  0.00000000000E+00  0.00000000000E+00  0.12251229115E+04  0.12251229115E+04  0.25500000920E-02 0. -1.
       -2   -1    0    0    0  501  0.00000000000E+00  0.00000000000E+00 -0.18382244741E+04  0.18382244741E+04  0.25500000920E-02 0.  1.
    10030    2    1    2    0    0  0.00000000000E+00  0.00000000000E+00 -0.61310156257E+03  0.30633473857E+04  0.30013669684E+04 0.  0.
        2    1    3    3  502    0 -0.72655135172E+03 -0.13117802661E+04 -0.24697951100E+03  0.15197510362E+04  0.25500000920E-02 0. -1.
       -2    1    3    3    0  502  0.72655135172E+03  0.13117802661E+04 -0.36612205158E+03  0.15435963494E+04  0.25500000920E-02 0.  1.
</event>
<event>
 5   0  0.2679935E-07  0.3006084E+04  0.7818609E-02  0.8241996E-01
        1   -1    0    0  501    0  0.00000000000E+00  0.00000000000E+00  0.15708135204E+04  0.15708135204E+04  0.50400001928E-02 0.  1.
       -1   -1    0    0    0  501  0.00000000000E+00  0.00000000000E+00 -0.14381940744E+04  0.14381940744E+04  0.50400001928E-02 0. -1.
    10030    2    1    2    0    0  0.00000000000E+00  0.00000000000E+00  0.13261944599E+03  0.30090075948E+04  0.30060836296E+04 0.  0.
        2    1    3    3  502    0 -0.30397085704E+03 -0.55062198307E+03 -0.13001378240E+04  0.14442787860E+04  0.25500000920E-02 0. -1.
       -2    1    3    3    0  502  0.30397085704E+03  0.55062198307E+03  0.14327572700E+04  0.15647288088E+04  0.25500000920E-02 0.  1.
</event>
<event>
 5   0  0.2621825E-07  0.3000487E+04  0.7818609E-02  0.8243592E-01
       -1   -1    0    0    0  501  0.00000000000E+00  0.00000000000E+00  0.15890356580E+04  0.15890356580E+04  0.50400001928E-02 0. -1.
        1   -1    0    0  501    0  0.00000000000E+00  0.00000000000E+00 -0.14164132770E+04  0.14164132770E+04  0.50400001928E-02 0.  1.
    10030    2    1    2    0    0  0.00000000000E+00  0.00000000000E+00  0.17262238101E+03  0.30054489349E+04  0.30004874294E+04 0.  0.
        3    1    3    3  502    0  0.75694050199E+03 -0.74820411940E+03 -0.97277481838E+03  0.14418943045E+04  0.10100000352E+00 0.  1.
       -3    1    3    3    0  502 -0.75694050199E+03  0.74820411940E+03  0.11453971994E+04  0.15635546305E+04  0.10100000352E+00 0. -1.
</event>
<event>
 5   0  0.7585823E-07  0.2999333E+04  0.7818609E-02  0.8243921E-01
       -2   -1    0    0    0  501  0.00000000000E+00  0.00000000000E+00  0.89516569917E+03  0.89516569918E+03  0.25500000920E-02 0.  1.
        2   -1    0    0  501    0  0.00000000000E+00  0.00000000000E+00 -0.25123838847E+04  0.25123838847E+04  0.25500000920E-02 0. -1.
    10030    2    1    2    0    0  0.00000000000E+00  0.00000000000E+00 -0.16172181855E+04  0.34075495839E+04  0.29993331770E+04 0.  0.
        5    1    3    3  502    0  0.11050956818E+04 -0.76694745558E+03 -0.15618140632E+04  0.20612447995E+04  0.46999998093E+01 0. -1.
       -5    1    3    3    0  502 -0.11050956818E+04  0.76694745558E+03 -0.55404122292E+02  0.13463047843E+04  0.46999998093E+01 0.  1.
</event>
<event>
 5   0  0.7307508E-07  0.3002504E+04  0.7818609E-02  0.8243016E-01
       -2   -1    0    0    0  501  0.00000000000E+00  0.00000000000E+00  0.92736061090E+03  0.92736061090E+03  0.25500000920E-02 0.  1.
        2   -1    0    0  501    0  0.00000000000E+00  0.00000000000E+00 -0.24302923619E+04  0.24302923619E+04  0.25500000920E-02 0. -1.
    10030    2    1    2    0    0  0.00000000000E+00  0.00000000000E+00 -0.15029317510E+04  0.33576529728E+04  0.30025038947E+04 0.  0.
        1    1    3    3  502    0  0.11068406068E+04  0.10074817750E+04 -0.62085259752E+03  0.16203621829E+04  0.50400001928E-02 0.  1.
       -1    1    3    3    0  502 -0.11068406068E+04 -0.10074817750E+04 -0.88207915350E+03  0.17372907900E+04  0.50400001928E-02 0. -1.
</event>
<event>
 5   0  0.2792361E-07  0.2998863E+04  0.7818609E-02  0.8244056E-01
        1   -1    0    0  501    0  0.00000000000E+00  0.00000000000E+00  0.13540500473E+04  0.13540500473E+04  0.50400001928E-02 0.  1.
       -1   -1    0    0    0  501  0.00000000000E+00  0.00000000000E+00 -0.16604222530E+04  0.16604222530E+04  0.50400001928E-02 0. -1.
    10030    2    1    2    0    0  0.00000000000E+00  0.00000000000E+00 -0.30637220570E+03  0.30144723003E+04  0.29988630047E+04 0.  0.
        4    1    3    3  502    0 -0.49125421746E+03  0.13216181746E+04 -0.66602584193E+03  0.15593579899E+04  0.12699999809E+01 0. -1.
       -4    1    3    3    0  502  0.49125421746E+03 -0.13216181746E+04  0.35965363623E+03  0.14551143104E+04  0.12699999809E+01 0.  1.
</event>
<event>
 5   0  0.2621825E-07  0.3008292E+04  0.7818609E-02  0.8241367E-01
        1   -1    0    0  501    0  0.00000000000E+00  0.00000000000E+00  0.22466791964E+04  0.22466791964E+04  0.50400001928E-02 0. -1.
       -1   -1    0    0    0  501  0.00000000000E+00  0.00000000000E+00 -0.10070217733E+04  0.10070217734E+04  0.50400001928E-02 0.  1.
    10030    2    1    2    0    0  0.00000000000E+00  0.00000000000E+00  0.12396574231E+04  0.32537009698E+04  0.30082917867E+04 0.  0.
        3    1    3    3  502    0 -0.53330149350E+03 -0.14024746482E+04  0.50583004169E+03  0.15834170844E+04  0.10100000352E+00 0. -1.
       -3    1    3    3    0  502  0.53330149350E+03  0.14024746482E+04  0.73382738138E+03  0.16702838854E+04  0.10100000352E+00 0.  1.
</event>
<event>
 5   0  0.7585823E-07  0.3000077E+04  0.7818609E-02  0.8243709E-01
       -2   -1    0    0    0  501  0.00000000000E+00  0.00000000000E+00  0.10832184077E+04  0.10832184077E+04  0.25500000920E-02 0.  1.
        2   -1    0    0  501    0  0.00000000000E+00  0.00000000000E+00 -0.20772496363E+04  0.20772496363E+04  0.25500000920E-02 0. -1.
    10030    2    1    2    0    0  0.00000000000E+00  0.00000000000E+00 -0.99403122856E+03  0.31604680440E+04  0.30000766947E+04 0.  0.
        5    1    3    3  502    0 -0.51759254065E+03  0.60053015288E+03  0.84446627704E+03  0.11583107898E+04  0.46999998093E+01 0.  1.
       -5    1    3    3    0  502  0.51759254065E+03 -0.60053015288E+03 -0.18384975056E+04  0.20021572543E+04  0.46999998093E+01 0. -1.
</event>
<event>
 5   0  0.7585823E-07  0.3015871E+04  0.7818609E-02  0.8239213E-01
       -2   -1    0    0    0  501  0.00000000000E+00  0.00000000000E+00  0.97437061082E+03  0.97437061083E+03  0.25500000920E-02 0.  1.
        2   -1    0    0  501    0  0.00000000000E+00  0.00000000000E+00 -0.23336798722E+04  0.23336798722E+04  0.25500000920E-02 0. -1.
    10030    2    1    2    0    0  0.00000000000E+00  0.00000000000E+00 -0.13593092613E+04  0.33080504830E+04  0.30158707416E+04 0.  0.
        5    1    3    3  502    0  0.12674002143E+04 -0.78596315352E+03 -0.43486188736E+03  0.15534375858E+04  0.46999998093E+01 0.  1.
       -5    1    3    3    0  502 -0.12674002143E+04  0.78596315352E+03 -0.92444737398E+03  0.17546128972E+04  0.46999998093E+01 0. -1.
</event>
<event>
 5   0  0.7278657E-07  0.3028274E+04  0.7818609E-02  0.8235703E-01
       -2   -1    0    0    0  501  0.00000000000E+00  0.00000000000E+00  0.14922910754E+04  0.14922910754E+04  0.25500000920E-02 0.  1.
        2   -1    0    0  501    0  0.00000000000E+00  0.00000000000E+00 -0.15363029040E+04  0.15363029040E+04  0.25500000920E-02 0. -1.
    10030    2    1    2    0    0  0.00000000000E+00  0.00000000000E+00 -0.44011828594E+02  0.30285939794E+04  0.30282741704E+04 0.  0.
        2    1    3    3  502    0  0.81109539024E+03  0.16944223183E+03 -0.12894300524E+04  0.15327153232E+04  0.25500000920E-02 0. -1.
       -2    1    3    3    0  502 -0.81109539024E+03 -0.16944223183E+03  0.12454182238E+04  0.14958786562E+04  0.25500000920E-02 0.  1.
</event>
<event>
 5   0  0.7208273E-07  0.2998544E+04  0.7818609E-02  0.8244147E-01
       -2   -1    0    0    0  501  0.00000000000E+00  0.00000000000E+00  0.29083312256E+04  0.29083312256E+04  0.25500000920E-02 0.  1.
        2   -1    0    0  501    0  0.00000000000E+00  0.00000000000E+00 -0.77288896622E+03  0.77288896622E+03  0.25500000920E-02 0. -1.
    10030    2    1    2    0    0  0.00000000000E+00  0.00000000000E+00  0.21354422594E+04  0.36812201918E+04  0.29985443898E+04 0.  0.
        4    1    3    3  502    0  0.90104290287E+03 -0.59019263519E+03 -0.21259694779E+03  0.10979092561E+04  0.12699999809E+01 0. -1.
       -4    1    3    3    0  502 -0.90104290287E+03  0.59019263519E+03  0.23480392071E+04  0.25833109357E+04  0.12699999809E+01 0.  1.
</event>
<event>
 5   0  0.2640081E-07  0.3000072E+04  0.7818609E-02  0.8243710E-01
        1   -1    0    0  501    0  0.00000000000E+00  0.00000000000E+00  0.11177604726E+04  0.11177604726E+04  0.50400001928E-02 0.  1.
       -1   -1    0    0    0  501  0.00000000000E+00  0.00000000000E+00 -0.20130497529E+04  0.20130497529E+04  0.50400001928E-02 0. -1.
    10030    2    1    2    0    0  0.00000000000E+00  0.00000000000E+00 -0.89528928027E+03  0.31308102255E+04  0.30000716279E+04 0.  0.
        1    1    3    3  502    0  0.58059440566E+03  0.10885818923E+04 -0.13380605478E+04  0.18200292387E+04  0.50400001928E-02 0. -1.
       -1    1    3    3    0  502 -0.58059440566E+03 -0.10885818923E+04  0.44277126749E+03  0.13107809868E+04  0.50400001928E-02 0.  1.
</event>
<event>
 5   0  0.2640081E-07  0.2996621E+04  0.7818609E-02  0.8244696E-01
       -1   -1    0    0    0  501  0.00000000000E+00  0.00000000000E+00  0.11397229102E+04  0.11397229103E+04  0.50400001928E-02 0. -1.
        1   -1    0    0  501    0  0.00000000000E+00  0.00000000000E+00 -0.19697198679E+04  0.19697198679E+04  0.50400001928E-02 0.  1.
    10030    2    1    2    0    0  0.00000000000E+00  0.00000000000E+00 -0.82999695761E+03  0.31094427781E+04  0.29966213376E+04 0.  0.
        1    1    3    3  502    0  0.33123598747E+03  0.53323049343E+02  0.11002449682E+04  0.11502606735E+04  0.50400001928E-02 0. -1.
       -1    1    3    3    0  502 -0.33123598747E+03 -0.53323049343E+02 -0.19302419258E+04  0.19591821046E+04  0.50400001928E-02 0.  1.
</event>
<event>
 5   0  0.2602891E-07  0.2996509E+04  0.7818609E-02  0.8244729E-01
        1   -1    0    0  501    0  0.00000000000E+00  0.00000000000E+00  0.19516062992E+04  0.19516062992E+04  0.50400001928E-02 0.  1.
       -1   -1    0    0    0  501  0.00000000000E+00  0.00000000000E+00 -0.11502145355E+04  0.11502145356E+04  0.50400001928E-02 0. -1.
    10030    2    1    2    0    0  0.00000000000E+00  0.00000000000E+00  0.80139176368E+03  0.31018208348E+04  0.29965085904E+04 0.  0.
        5    1    3    3  502    0 -0.31367725115E+03  0.26961908840E+03  0.18913247756E+04  0.19360318611E+04  0.46999998093E+01 0.  1.
       -5    1    3    3    0  502  0.31367725115E+03 -0.26961908840E+03 -0.10899330119E+04  0.11657889737E+04  0.46999998093E+01 0. -1.
</event>
<event>
 5   0  0.7307508E-07  0.2988994E+04  0.7818609E-02  0.8246881E-01
       -2   -1    0    0    0  501  0.00000000000E+00  0.00000000000E+00  0.10831537962E+04  0.10831537962E+04  0.25500000920E-02 0.  1.
        2   -1    0    0  501    0  0.00000000000E+00  0.00000000000E+00 -0.20620537387E+04  0.20620537387E+04  0.25500000920E-02 0. -1.
    10030    2    1    2    0    0  0.00000000000E+00  0.00000000000E+00 -0.97889994250E+03  0.31452075349E+04  0.29889940348E+04 0.  0.
        1    1    3    3  502    0  0.13048650557E+04  0.70140085847E+03 -0.69694959081E+03  0.16371849957E+04  0.50400001928E-02 0. -1.
       -1    1    3    3    0  502 -0.13048650557E+04 -0.70140085847E+03 -0.28195035168E+03  0.15080225392E+04  0.50400001928E-02 0.  1.
</event>
<event>
 5   0  0.7208273E-07  0.2996703E+04  0.7818609E-02  0.8244673E-01
        2   -1    0    0  501    0  0.00000000000E+00  0.00000000000E+00  0.11181796794E+04  0.11181796794E+04  0.25500000920E-02 0.  1.
       -2   -1    0    0    0  501  0.00000000000E+00  0.00000000000E+00 -0.20077787431E+04  0.20077787431E+04  0.25500000920E-02 0. -1.
    10030    2    1    2    0    0  0.00000000000E+00  0.00000000000E+00 -0.88959906368E+03  0.31259584225E+04  0.29967031160E+04 0.  0.
        4    1    3    3  502    0  0.14906160764E+04  0.96774453313E+02 -0.32246273999E+03  0.15281640664E+04  0.12699999809E+01 0.  1.
       -4    1    3    3    0  502 -0.14906160764E+04 -0.96774453313E+02 -0.56713632369E+03  0.15977943562E+04  0.12699999809E+01 0. -1.
</event>
<event>
 5   0  0.2792361E-07  0.3000801E+04  0.7818609E-02  0.8243502E-01
       -1   -1    0    0    0  501  0.00000000000E+00  0.00000000000E+00  0.10821387203E+04  0.10821387204E+04  0.50400001928E-02 0.  1.
        1   -1    0    0  501    0  0.00000000000E+00  0.00000000000E+00 -0.20803268177E+04  0.20803268177E+04  0.50400001928E-02 0. -1.
    10030    2    1    2    0    0  0.00000000000E+00  0.00000000000E+00 -0.99818809735E+03  0.31624655381E+04  0.30008013599E+04 0.  0.
        4    1    3    3  502    0 -0.12692759975E+04 -0.33023793294E+03 -0.12671083711E+04  0.18236457680E+04  0.12699999809E+01 0. -1.
       -4    1    3    3    0  502  0.12692759975E+04  0.33023793294E+03  0.26892027371E+03  0.13388197701E+04  0.12699999809E+01 0.  1.
</event>
<event>
 5   0  0.2602891E-07  0.2985592E+04  0.7818609E-02  0.8247857E-01
       -1   -1    0    0    0  501  0.00000000000E+00  0.00000000000E+00  0.13137510585E+04  0.13137510585E+04  0.50400001928E-02 0. -1.
        1   -1    0    0  501    0  0.00000000000E+00  0.00000000000E+00 -0.16962418415E+04  0.16962418415E+04  0.50400001928E-02 0.  1.
    10030    2    1    2    0    0  0.00000000000E+00  0.00000000000E+00 -0.38249078297E+03  0.30099929000E+04  0.29855917435E+04 0.  0.
        5    1    3    3  502    0 -0.11220298148E+03  0.34467670669E+03  0.12687011231E+04  0.13194757182E+04  0.46999998093E+01 0. -1.
       -5    1    3    3    0  502  0.11220298148E+03 -0.34467670669E+03 -0.16511919061E+04  0.16905171818E+04  0.46999998093E+01 0.  1.
</event>
<event>
 5   0  0.7307508E-07  0.3000019E+04  0.7818609E-02  0.8243725E-01
        2   -1    0    0  501    0  0.00000000000E+00  0.00000000000E+00  0.22456686057E+04  0.22456686057E+04  0.25500000920E-02 0. -1.
       -2   -1    0    0    0  501  0.00000000000E+00  0.00000000000E+00 -0.10019416240E+04  0.10019416240E+04  0.25500000920E-02 0.  1.
    10030    2    1    2    0    0  0.00000000000E+00  0.00000000000E+00  0.12437269818E+04  0.32476102297E+04  0.30000192331E+04 0.  0.
        1    1    3    3  502    0  0.10553611566E+03 -0.68784438635E+03  0.20603501270E+04  0.21746977761E+04  0.50400001928E-02 0. -1.
       -1    1    3    3    0  502 -0.10553611566E+03  0.68784438635E+03 -0.81662314527E+03  0.10729124535E+04  0.50400001928E-02 0.  1.
</event>
<event>
 5   0  0.2621825E-07  0.3000544E+04  0.7818609E-02  0.8243576E-01
       -1   -1    0    0    0  501  0.00000000000E+00  0.00000000000E+00  0.12089532510E+04  0.12089532510E+04  0.50400001928E-02 0.  1.
        1   -1    0    0  501    0  0.00000000000E+00  0.00000000000E+00 -0.18617892950E+04  0.18617892950E+04  0.50400001928E-02 0. -1.
    10030    2    1    2    0    0  0.00000000000E+00  0.00000000000E+00 -0.65283604400E+03  0.30707425460E+04  0.30005440979E+04 0.  0.
        3    1    3    3  502    0 -0.50554711531E+03 -0.82411893880E+03 -0.15004563538E+04  0.17849703614E+04  0.10100000352E+00 0. -1.
       -3    1    3    3    0  502  0.50554711531E+03  0.82411893880E+03  0.84762030979E+03  0.12857721847E+04  0.10100000352E+00 0.  1.
</event>
<event>
 5   0  0.7278657E-07  0.3005593E+04  0.7818609E-02  0.8242135E-01
       -2   -1    0    0    0  501  0.00000000000E+00  0.00000000000E+00  0.13726829172E+04  0.13726829172E+04  0.25500000920E-02 0.  1.
        2   -1    0    0  501    0  0.00000000000E+00  0.00000000000E+00 -0.16452436543E+04  0.16452436543E+04  0.25500000920E-02 0. -1.
    10030    2    1    2    0    0  0.00000000000E+00  0.00000000000E+00 -0.27256073710E+03  0.30179265715E+04  0.30055933583E+04 0.  0.
        2    1    3    3  502    0 -0.13951774559E+04  0.55797025001E+03 -0.15976276889E+03  0.15110840730E+04  0.25500000920E-02 0. -1.
       -2    1    3    3    0  502  0.13951774559E+04 -0.55797025001E+03 -0.11279796821E+03  0.15068424984E+04  0.25500000920E-02 0.  1.
</event>
<event>
 5   0  0.7278657E-07  0.2988607E+04  0.7818609E-02  0.8246992E-01
       -2   -1    0    0    0  501  0.00000000000E+00  0.00000000000E+00  0.14413043621E+04  0.14413043621E+04  0.25500000920E-02 0.  1.
        2   -1    0    0  501    0  0.00000000000E+00  0.00000000000E+00 -0.15492519106E+04  0.15492519106E+04  0.25500000920E-02 0. -1.
    10030    2    1    2    0    0  0.00000000000E+00  0.00000000000E+00 -0.10794754849E+03  0.29905562727E+04  0.29886073926E+04 0.  0.
        2    1    3    3  502    0  0.13719070269E+04  0.59201113377E+03 -0.72355941065E+02  0.14959416617E+04  0.25500000920E-02 0. -1.
       -2    1    3    3    0  502 -0.13719070269E+04 -0.59201113377E+03 -0.35591607428E+02  0.14946146110E+04  0.25500000920E-02 0.  1.
</event>
<event>
 5   0  0.7208273E-07  0.2975668E+04  0.7818609E-02  0.8250713E-01
        2   -1    0    0  501    0  0.00000000000E+00  0.00000000000E+00  0.16848203867E+04  0.16848203867E+04  0.25500000920E-02 0. -1.
       -2   -1    0    0    0  501  0.00000000000E+00  0.00000000000E+00 -0.13138785727E+04  0.13138785727E+04  0.25500000920E-02 0.  1.
    10030    2    1    2    0    0  0.00000000000E+00  0.00000000000E+00  0.37094181400E+03  0.29986989595E+04  0.29756675923E+04 0.  0.
        4    1    3    3  502    0  0.86668833099E+03 -0.88123375209E+03 -0.64914594740E+03  0.13961066087E+04  0.12699999809E+01 0.  1.
       -4    1    3    3    0  502 -0.86668833099E+03  0.88123375209E+03  0.10200877614E+04  0.16025923508E+04  0.12699999809E+01 0. -1.
</event>
<event>
 5   0  0.7399409E-07  0.2995248E+04  0.7818609E-02  0.8245089E-01
       -2   -1    0    0    0  501  0.00000000000E+00  0.00000000000E+00  0.26031607170E+04  0.26031607170E+04  0.25500000920E-02 0. -1.
        2   -1    0    0  501    0  0.00000000000E+00  0.00000000000E+00 -0.86159788171E+03  0.86159788172E+03  0.25500000920E-02 0.  1.
    10030    2    1    2    0    0  0.00000000000E+00  0.00000000000E+00  0.17415628353E+04  0.34647585987E+04  0.29952480762E+04 0.  0.
        3    1    3    3  502    0 -0.11128365902E+04  0.10013066693E+04  0.92063496037E+03  0.17574382103E+04  0.10100000352E+00 0.  1.
       -3    1    3    3    0  502  0.11128365902E+04 -0.10013066693E+04  0.82092787490E+03  0.17073203884E+04  0.10100000352E+00 0. -1.
</event>
<event>
 5   0  0.7307508E-07  0.2991247E+04  0.7818609E-02  0.8246235E-01
        2   -1    0    0  501    0  0.00000000000E+00  0.00000000000E+00  0.17565479709E+04  0.17565479709E+04  0.25500000920E-02 0.  1.
       -2   -1    0    0    0  501  0.00000000000E+00  0.00000000000E+00 -0.12734574716E+04  0.12734574716E+04  0.25500000920E-02 0. -1.
    10030    2    1    2    0    0  0.00000000000E+00  0.00000000000E+00  0.48309049930E+03  0.30300054425E+04  0.29912466550E+04 0.  0.
        1    1    3    3  502    0  0.34065854510E+03  0.13778910456E+04  0.71909548437E+03  0.15911411922E+04  0.50400001928E-02 0.  1.
       -1    1    3    3    0  502 -0.34065854510E+03 -0.13778910456E+04 -0.23600498507E+03  0.14388642503E+04  0.50400001928E-02 0. -1.
</event>
<event>
 5   0  0.7585823E-07  0.2994419E+04  0.7818609E-02  0.8245326E-01
        2   -1    0    0  501    0  0.00000000000E+00  0.00000000000E+00  0.16009269696E+04  0.16009269696E+04  0.25500000920E-02 0.  1.
       -2   -1    0    0    0  501  0.00000000000E+00  0.00000000000E+00 -0.14002118156E+04  0.14002118156E+04  0.25500000920E-02 0. -1.
    10030    2    1    2    0    0  0.00000000000E+00  0.00000000000E+00  0.20071515399E+03  0.30011387851E+04  0.29944193819E+04 0.  0.
        5    1    3    3  502    0 -0.11784490382E+04  0.41031602456E+03  0.92956738286E+03  0.15560266659E+04  0.46999998093E+01 0.  1.
       -5    1    3    3    0  502  0.11784490382E+04 -0.41031602456E+03 -0.72885222887E+03  0.14451121193E+04  0.46999998093E+01 0. -1.
</event>
<event>
 5   0  0.2792361E-07  0.2996919E+04  0.7818609E-02  0.8244611E-01
       -1   -1    0    0    0  501  0.00000000000E+00  0.00000000000E+00  0.15262131695E+04  0.15262131696E+04  0.50400001928E-02 0. -1.
        1   -1    0    0  501    0  0.00000000000E+00  0.00000000000E+00 -0.14712104237E+04  0.14712104237E+04  0.50400001928E-02 0.  1.
    10030    2    1    2    0    0  0.00000000000E+00  0.00000000000E+00  0.55002745879E+02  0.29974235932E+04  0.29969189003E+04 0.  0.
        4    1    3    3  502    0 -0.29766444710E+03 -0.12495719650E+04 -0.74421452411E+03  0.14845508040E+04  0.12699999809E+01 0.  1.
       -4    1    3    3    0  502  0.29766444710E+03  0.12495719650E+04  0.79921726998E+03  0.15128727892E+04  0.12699999809E+01 0. -1.
</event>
<event>
 5   0  0.2602891E-07  0.2997881E+04  0.7818609E-02  0.8244336E-01
       -1   -1    0    0    0  501  0.00000000000E+00  0.00000000000E+00  0.12286113630E+04  0.12286113630E+04  0.50400001928E-02 0.  1.
        1   -1    0    0  501    0  0.00000000000E+00  0.00000000000E+00 -0.18287496185E+04  0.18287496185E+04  0.50400001928E-02 0. -1.
    10030    2    1    2    0    0  0.00000000000E+00  0.00000000000E+00 -0.60013825558E+03  0.30573609815E+04  0.29978809592E+04 0.  0.
        5    1    3    3  502    0  0.11332727243E+04  0.95642557702E+03 -0.77230975274E+02  0.14849389434E+04  0.46999998093E+01 0.  1.
       -5    1    3    3    0  502 -0.11332727243E+04 -0.95642557702E+03 -0.52290728031E+03  0.15724220381E+04  0.46999998093E+01 0. -1.
</event>
<event>
 5   0  0.7208273E-07  0.2998620E+04  0.7818609E-02  0.8244125E-01
       -2   -1    0    0    0  501  0.00000000000E+00  0.00000000000E+00  0.15617187414E+04  0.15617187415E+04  0.25500000920E-02 0.  1.
        2   -1    0    0  501    0  0.00000000000E+00  0.00000000000E+00 -0.14393956548E+04  0.14393956548E+04  0.25500000920E-02 0. -1.
    10030    2    1    2    0    0  0.00000000000E+00  0.00000000000E+00  0.12232308669E+03  0.30011143962E+04  0.29986204631E+04 0.  0.
        4    1    3    3  502    0  0.34428833998E+03  0.44705012690E+03  0.14513961239E+04  0.15572220774E+04  0.12699999809E+01 0.  1.
       -4    1    3    3    0  502 -0.34428833998E+03 -0.44705012690E+03 -0.13290730372E+04  0.14438923188E+04  0.12699999809E+01 0. -1.
</event>
<event>
 5   0  0.7278657E-07  0.2999846E+04  0.7818609E-02  0.8243775E-01
        2   -1    0    0  501    0  0.00000000000E+00  0.00000000000E+00  0.11267069414E+04  0.11267069414E+04  0.25500000920E-02 0.  1.
       -2   -1    0    0    0  501  0.00000000000E+00  0.00000000000E+00 -0.19967645561E+04  0.19967645561E+04  0.25500000920E-02 0. -1.
    10030    2    1    2    0    0  0.00000000000E+00  0.00000000000E+00 -0.87005761477E+03  0.31234714975E+04  0.29998456532E+04 0.  0.
        2    1    3    3  502    0  0.36667895054E+03  0.12706773902E+04 -0.11717867593E+04  0.17669631270E+04  0.25500000920E-02 0. -1.
       -2    1    3    3    0  502 -0.36667895054E+03 -0.12706773902E+04  0.30172914454E+03  0.13565083706E+04  0.25500000920E-02 0.  1.
</event>
<event>
 5   0  0.2602891E-07  0.2998176E+04  0.7818609E-02  0.8244252E-01
        1   -1    0    0  501    0  0.00000000000E+00  0.00000000000E+00  0.20511490186E+04  0.20511490186E+04  0.50400001928E-02 0.  1.
       -1   -1    0    0    0  501  0.00000000000E+00  0.00000000000E+00 -0.10956126344E+04  0.10956126344E+04  0.50400001928E-02 0. -1.
    10030    2    1    2    0    0  0.00000000000E+00  0.00000000000E+00  0.95553638416E+03  0.31467616530E+04  0.29981759654E+04 0.  0.
        5    1    3    3  502    0 -0.14046745882E+04 -0.29837221743E+02 -0.70862683615E+02  0.14067851892E+04  0.46999998093E+01 0. -1.
       -5    1    3    3    0  502  0.14046745882E+04  0.29837221743E+02  0.10263990678E+04  0.17399764639E+04  0.46999998093E+01 0.  1.
</event>
<event>
 5   0  0.2792361E-07  0.3000313E+04  0.7818609E-02  0.8243641E-01
       -1   -1    0    0    0  501  0.00000000000E+00  0.00000000000E+00  0.15211501673E+04  0.15211501674E+04  0.50400001928E-02 0.  1.
        1   -1    0    0  501    0  0.00000000000E+00  0.00000000000E+00 -0.14794528581E+04  0.14794528581E+04  0.50400001928E-02 0. -1.
    10030    2    1    2    0    0  0.00000000000E+00  0.00000000000E+00  0.41697309265E+02  0.30006030254E+04  0.30003132921E+04 0.  0.
        4    1    3    3  502    0  0.77133208282E+03 -0.37713383038E+03 -0.12094267311E+04  0.14832052248E+04  0.12699999809E+01 0. -1.
       -4    1    3    3    0  502 -0.77133208282E+03  0.37713383038E+03  0.12511240404E+04  0.15173978006E+04  0.12699999809E+01 0.  1.
</event>
<event>
 5   0  0.7585823E-07  0.3000429E+04  0.7818609E-02  0.8243608E-01
       -2   -1    0    0    0  501  0.00000000000E+00  0.00000000000E+00  0.10794313270E+04  0.10794313270E+04  0.25500000920E-02 0.  1.
        2   -1    0    0  501    0  0.00000000000E+00  0.00000000000E+00 -0.20850268406E+04  0.20850268406E+04  0.25500000920E-02 0. -1.
    10030    2    1    2    0    0  0.00000000000E+00  0.00000000000E+00 -0.10055955137E+04  0.31644581676E+04  0.30004288289E+04 0.  0.
        5    1    3    3  502    0 -0.58657050049E+03 -0.57145407617E+03 -0.18284941962E+04  0.20035063835E+04  0.46999998093E+01 0. -1.
       -5    1    3    3    0  502  0.58657050049E+03  0.57145407617E+03  0.82289868253E+03  0.11609517841E+04  0.46999998093E+01 0.  1.
</event>
<event>
 5   0  0.2679935E-07  0.3002786E+04  0.7818609E-02  0.8242936E-01
       -1   -1    0    0    0  501  0.00000000000E+00  0.00000000000E+00  0.33255200837E+04  0.33255200837E+04  0.50400001928E-02 0. -1.
        1   -1    0    0  501    0  0.00000000000E+00  0.00000000000E+00 -0.67784329107E+03  0.67784329109E+03  0.50400001928E-02 0.  1.
    10030    2    1    2    0    0  0.00000000000E+00  0.00000000000E+00  0.26476767926E+04  0.40033633748E+04  0.30027863581E+04 0.  0.
        2    1    3    3  502    0  0.14341134189E+04  0.43656958526E+03  0.14346412307E+04  0.20749625929E+04  0.25500000920E-02 0.  1.
       -2    1    3    3    0  502 -0.14341134189E+04 -0.43656958526E+03  0.12130355619E+04  0.19284007818E+04  0.25500000920E-02 0. -1.
</event>
<event>
 5   0  0.2621825E-07  0.2998900E+04  0.7818609E-02  0.8244045E-01
       -1   -1    0    0    0  501  0.00000000000E+00  0.00000000000E+00  0.19768138140E+04  0.19768138140E+04  0.50400001928E-02 0. -1.
        1   -1    0    0  501    0  0.00000000000E+00  0.00000000000E+00 -0.11373607153E+04  0.11373607153E+04  0.50400001928E-02 0.  1.
    10030    2    1    2    0    0  0.00000000000E+00  0.00000000000E+00  0.83945309873E+03  0.31141745294E+04  0.29989000474E+04 0.  0.
        3    1    3    3  502    0  0.95792473904E+03  0.98365137039E+03 -0.20606584902E+03  0.13883994268E+04  0.10100000352E+00 0.  1.
       -3    1    3    3    0  502 -0.95792473904E+03 -0.98365137039E+03  0.10455189478E+04  0.17257751025E+04  0.10100000352E+00 0. -1.
</event>
<event>
 5   0  0.2640081E-07  0.2998694E+04  0.7818609E-02  0.8244104E-01
        1   -1    0    0  501    0  0.00000000000E+00  0.00000000000E+00  0.16782492015E+04  0.16782492015E+04  0.50400001928E-02 0. -1.
       -1   -1    0    0    0  501  0.00000000000E+00  0.00000000000E+00 -0.13395157298E+04  0.13395157298E+04  0.50400001928E-02 0.  1.
    10030    2    1    2    0    0  0.00000000000E+00  0.00000000000E+00  0.33873347170E+03  0.30177649313E+04  0.29986938516E+04 0.  0.
        1    1    3    3  502    0 -0.11239618677E+04  0.41540874337E+03  0.10763121755E+04  0.16106838930E+04  0.50400001928E-02 0. -1.
       -1    1    3    3    0  502  0.11239618677E+04 -0.41540874337E+03 -0.73757870375E+03  0.14070810383E+04  0.50400001928E-02 0.  1.
</event>
<event>
 5   0  0.7307508E-07  0.2990664E+04  0.7818609E-02  0.8246402E-01
        2   -1    0    0  501    0  0.00000000000E+00  0.00000000000E+00  0.23613384211E+04  0.23613384211E+04  0.25500000920E-02 0. -1.
       -2   -1    0    0    0  501  0.00000000000E+00  0.00000000000E+00 -0.94692801760E+03  0.94692801760E+03  0.25500000920E-02 0.  1.
    10030    2    1    2    0    0  0.00000000000E+00  0.00000000000E+00  0.14144104035E+04  0.33082664387E+04  0.29906638126E+04 0.  0.
        1    1    3    3  502    0  0.24850568655E+03  0.12877464478E+04 -0.87389653259E+02  0.13144135352E+04  0.50400001928E-02 0. -1.
       -1    1    3    3    0  502 -0.24850568655E+03 -0.12877464478E+04  0.15018000567E+04  0.19938529034E+04  0.50400001928E-02 0.  1.
</event>
<event>
 5   0  0.7399409E-07  0.2999538E+04  0.7818609E-02  0.8243863E-01
       -2   -1    0    0    0  501  0.00000000000E+00  0.00000000000E+00  0.95696714585E+03  0.95696714586E+03  0.25500000920E-02 0. -1.
        2   -1    0    0  501    0  0.00000000000E+00  0.00000000000E+00 -0.23504544739E+04  0.23504544739E+04  0.25500000920E-02 0.  1.
    10030    2    1    2    0    0  0.00000000000E+00  0.00000000000E+00 -0.13934873280E+04  0.33074216197E+04  0.29995384374E+04 0.  0.
        3    1    3    3  502    0  0.10334287793E+04 -0.89303611606E+03 -0.13798659448E+04  0.19415248086E+04  0.10100000352E+00 0.  1.
       -3    1    3    3    0  502 -0.10334287793E+04  0.89303611606E+03 -0.13621383218E+02  0.13658968112E+04  0.10100000352E+00 0. -1.
</event>
<event>
 5   0  0.7585823E-07  0.3056252E+04  0.7818609E-02  0.8227848E-01
        2   -1    0    0  501    0  0.00000000000E+00  0.00000000000E+00  0.21063120316E+04  0.21063120316E+04  0.25500000920E-02 0.  1.
       -2   -1    0    0    0  501  0.00000000000E+00  0.00000000000E+00 -0.11086528213E+04  0.11086528213E+04  0.25500000920E-02 0. -1.
    10030    2    1    2    0    0  0.00000000000E+00  0.00000000000E+00  0.99765921030E+03  0.32149648529E+04  0.30562518067E+04 0.  0.
        5    1    3    3  502    0 -0.10496749729E+04 -0.29409159381E+03  0.16253482250E+04  0.19570606421E+04  0.46999998093E+01 0.  1.
       -5    1    3    3    0  502  0.10496749729E+04  0.29409159381E+03 -0.62768901475E+03  0.12579042108E+04  0.46999998093E+01 0. -1.
</event>
<event>
 5   0  0.7208273E-07  0.3002923E+04  0.7818609E-02  0.8242897E-01
       -2   -1    0    0    0  501  0.00000000000E+00  0.00000000000E+00  0.15657259809E+04  0.15657259809E+04  0.25500000920E-02 0. -1.
        2   -1    0    0  501    0  0.00000000000E+00  0.00000000000E+00 -0.14398350304E+04  0.14398350304E+04  0.25500000920E-02 0.  1.
    10030    2    1    2    0    0  0.00000000000E+00  0.00000000000E+00  0.12589095049E+03  0.30055610112E+04  0.30029233192E+04 0.  0.
        4    1    3    3  502    0  0.23409107414E+03 -0.93208735855E+03  0.12175618342E+04  0.15511427749E+04  0.12699999809E+01 0. -1.
       -4    1    3    3    0  502 -0.23409107414E+03  0.93208735855E+03 -0.10916708837E+04  0.14544182364E+04  0.12699999809E+01 0.  1.
</event>
<event>
 5   0  0.7307508E-07  0.3003090E+04  0.7818609E-02  0.8242849E-01
        2   -1    0    0  501    0  0.00000000000E+00  0.00000000000E+00  0.20229374488E+04  0.20229374488E+04  0.25500000920E-02 0. -1.
       -2   -1    0    0    0  501  0.00000000000E+00  0.00000000000E+00 -0.11145361309E+04  0.11145361309E+04  0.25500000920E-02 0.  1.
    10030    2    1    2    0    0  0.00000000000E+00  0.00000000000E+00  0.90840131795E+03  0.31374735797E+04  0.30030896605E+04 0.  0.
        1    1    3    3  502    0 -0.70691082028E+03 -0.39585518555E+03 -0.86657500858E+03  0.11863289937E+04  0.50400001928E-02 0.  1.
       -1    1    3    3    0  502  0.70691082028E+03  0.39585518555E+03  0.17749763265E+04  0.19511445860E+04  0.50400001928E-02 0. -1.
</event>
<event>
 5   0  0.2679935E-07  0.3007447E+04  0.7818609E-02  0.8241607E-01
       -1   -1    0    0    0  501  0.00000000000E+00  0.00000000000E+00  0.18114174875E+04  0.18114174875E+04  0.50400001928E-02 0. -1.
        1   -1    0    0  501    0  0.00000000000E+00  0.00000000000E+00 -0.12482958768E+04  0.12482958768E+04  0.50400001928E-02 0.  1.
    10030    2    1    2    0    0  0.00000000000E+00  0.00000000000E+00  0.56312161072E+03  0.30597133643E+04  0.30074474099E+04 0.  0.
        2    1    3    3  502    0  0.17331387384E+03 -0.31259440474E+03 -0.12044504751E+04  0.12563653560E+04  0.25500000920E-02 0.  1.
       -2    1    3    3    0  502 -0.17331387384E+03  0.31259440474E+03  0.17675720858E+04  0.18033480084E+04  0.25500000920E-02 0. -1.
</event>
<event>
 5   0  0.2621825E-07  0.3001491E+04  0.7818609E-02  0.8243305E-01
       -1   -1    0    0    0  501  0.00000000000E+00  0.00000000000E+00  0.97271078593E+03  0.97271078594E+03  0.50400001928E-02 0. -1.
        1   -1    0    0  501    0  0.00000000000E+00  0.00000000000E+00 -0.23154237164E+04  0.23154237164E+04  0.50400001928E-02 0.  1.
    10030    2    1    2    0    0  0.00000000000E+00  0.00000000000E+00 -0.13427129305E+04  0.32881345023E+04  0.30014913779E+04 0.  0.
        3    1    3    3  502    0 -0.81783783655E+03  0.11692486682E+04 -0.16193538420E+03  0.14360446560E+04  0.10100000352E+00 0. -1.
       -3    1    3    3    0  502  0.81783783655E+03 -0.11692486682E+04 -0.11807775463E+04  0.18520898464E+04  0.10100000352E+00 0.  1.
</event>
<event>
 5   0  0.7399409E-07  0.3003134E+04  0.7818609E-02  0.8242837E-01
        2   -1    0    0  501    0  0.00000000000E+00  0.00000000000E+00  0.70949387160E+03  0.70949387160E+03  0.25500000920E-02 0.  1.
       -2   -1    0    0    0  501  0.00000000000E+00  0.00000000000E+00 -0.31779033868E+04  0.31779033868E+04  0.25500000920E-02 0. -1.
    10030    2    1    2    0    0  0.00000000000E+00  0.00000000000E+00 -0.24684095152E+04  0.38873972584E+04  0.30031336817E+04 0.  0.
        3    1    3    3  502    0 -0.63125132550E+03  0.68480599544E+03  0.29042379580E+03  0.97559391075E+03  0.10100000352E+00 0.  1.
       -3    1    3    3    0  502  0.63125132550E+03 -0.68480599544E+03 -0.27588333110E+04  0.29118033476E+04  0.10100000352E+00 0. -1.
</event>
<event>
 5   0  0.7399409E-07  0.2994424E+04  0.7818609E-02  0.8245325E-01
       -2   -1    0    0    0  501  0.00000000000E+00  0.00000000000E+00  0.12317517763E+04  0.12317517763E+04  0.25500000920E-02 0. -1.
        2   -1    0    0  501    0  0.00000000000E+00  0.00000000000E+00 -0.18198831606E+04  0.18198831606E+04  0.25500000920E-02 0.  1.
    10030    2    1    2    0    0  0.00000000000E+00  0.00000000000E+00 -0.58813138432E+03  0.30516349369E+04  0.29944243625E+04 0.  0.
        3    1    3    3  502    0 -0.32912866547E+03 -0.14635572727E+03 -0.17750681007E+04  0.18112461042E+04  0.10100000352E+00 0.  1.
       -3    1    3    3    0  502  0.32912866547E+03  0.14635572727E+03  0.11869367164E+04  0.12403888327E+04  0.10100000352E+00 0. -1.
</event>
<event>
 5   0  0.2792361E-07  0.3073211E+04  0.7818609E-02  0.8223128E-01
        1   -1    0    0  501    0  0.00000000000E+00  0.00000000000E+00  0.94145755770E+03  0.94145755771E+03  0.50400001928E-02 0. -1.
       -1   -1    0    0    0  501  0.00000000000E+00  0.00000000000E+00 -0.25079802706E+04  0.25079802706E+04  0.50400001928E-02 0.  1.
    10030    2    1    2    0    0  0.00000000000E+00  0.00000000000E+00 -0.15665227129E+04  0.34494378283E+04  0.30732113369E+04 0.  0.
        4    1    3    3  502    0 -0.13894704787E+03  0.58350421169E+03  0.80462638612E+03  0.10035978683E+04  0.12699999809E+01 0. -1.
       -4    1    3    3    0  502  0.13894704787E+03 -0.58350421169E+03 -0.23711490991E+04  0.24458399600E+04  0.12699999809E+01 0.  1.
</event>
<event>
 5   0  0.2640081E-07  0.2987505E+04  0.7818609E-02  0.8247308E-01
        1   -1    0    0  501    0  0.00000000000E+00  0.00000000000E+00  0.11982333315E+04  0.11982333315E+04  0.50400001928E-02 0. -1.
       -1   -1    0    0    0  501  0.00000000000E+00  0.00000000000E+00 -0.18621553283E+04  0.18621553283E+04  0.50400001928E-02 0.  1.
    10030    2    1    2    0    0  0.00000000000E+00  0.00000000000E+00 -0.66392199678E+03  0.30603886599E+04  0.29875050346E+04 0.  0.
        1    1    3    3  502    0  0.12792939763E+04 -0.60217638587E+03 -0.82546814270E+03  0.16372559764E+04  0.50400001928E-02 0. -1.
       -1    1    3    3    0  502 -0.12792939763E+04  0.60217638587E+03  0.16154614592E+03  0.14231326835E+04  0.50400001928E-02 0.  1.
</event>
<event>
 5   0  0.7585823E-07  0.3000488E+04  0.7818609E-02  0.8243592E-01
        2   -1    0    0  501    0  0.00000000000E+00  0.00000000000E+00  0.18917136460E+04  0.18917136460E+04  0.25500000920E-02 0.  1.
       -2   -1    0    0    0  501  0.00000000000E+00  0.00000000000E+00 -0.11897848846E+04  0.11897848846E+04  0.25500000920E-02 0. -1.
    10030    2    1    2    0    0  0.00000000000E+00  0.00000000000E+00  0.70192876141E+03  0.30814985306E+04  0.30004881616E+04 0.  0.
        5    1    3    3  502    0 -0.44434323834E+01 -0.58105683165E+03 -0.10695143389E+04  0.12171810863E+04  0.46999998093E+01 0. -1.
       -5    1    3    3    0  502  0.44434323834E+01  0.58105683165E+03  0.17714431003E+04  0.18643174443E+04  0.46999998093E+01 0.  1.
</event>
<event>
 5   0  0.2640081E-07  0.3002437E+04  0.7818609E-02  0.8243035E-01
       -1   -1    0    0    0  501  0.00000000000E+00  0.00000000000E+00  0.80127501102E+03  0.80127501104E+03  0.50400001928E-02 0.  1.
        1   -1    0    0  501    0  0.00000000000E+00  0.00000000000E+00 -0.28125882159E+04  0.28125882159E+04  0.50400001928E-02 0. -1.
    10030    2    1    2    0    0  0.00000000000E+00  0.00000000000E+00 -0.20113132048E+04  0.36138632269E+04  0.30024367795E+04 0.  0.
        1    1    3    3  502    0  0.14882088550E+04 -0.18068312801E+03 -0.11007723448E+04  0.18598687438E+04  0.50400001928E-02 0. -1.
       -1    1    3    3    0  502 -0.14882088550E+04  0.18068312801E+03 -0.91054086006E+03  0.17539944831E+04  0.50400001928E-02 0.  1.
</event>
<event>
 5   0  0.2640081E-07  0.3000288E+04  0.7818609E-02  0.8243649E-01
        1   -1    0    0  501    0  0.00000000000E+00  0.00000000000E+00  0.21364807010E+04  0.21364807010E+04  0.50400001928E-02 0.  1.
       -1   -1    0    0    0  501  0.00000000000E+00  0.00000000000E+00 -0.10533360807E+04  0.10533360807E+04  0.50400001928E-02 0. -1.
    10030    2    1    2    0    0  0.00000000000E+00  0.00000000000E+00  0.10831446203E+04  0.31898167817E+04  0.30002881248E+04 0.  0.
        1    1    3    3  502    0 -0.14873614405E+04 -0.17563479038E+03  0.45048292283E+03  0.15639777805E+04  0.50400001928E-02 0. -1.
       -1    1    3    3    0  502  0.14873614405E+04  0.17563479038E+03  0.63266169751E+03  0.16258390011E+04  0.50400001928E-02 0.  1.
</event>
<event>
 5   0  0.7208273E-07  0.3004608E+04  0.7818609E-02  0.8242416E-01
        2   -1    0    0  501    0  0.00000000000E+00  0.00000000000E+00  0.17637078228E+04  0.17637078228E+04  0.25500000920E-02 0.  1.
       -2   -1    0    0    0  501  0.00000000000E+00  0.00000000000E+00 -0.12796435626E+04  0.12796435626E+04  0.25500000920E-02 0. -1.
    10030    2    1    2    0    0  0.00000000000E+00  0.00000000000E+00  0.48406426017E+03  0.30433513854E+04  0.30046080355E+04 0.  0.
        4    1    3    3  502    0  0.65338157148E+03  0.22012476469E+02  0.16120722875E+04  0.17395892331E+04  0.12699999809E+01 0.  1.
       -4    1    3    3    0  502 -0.65338157148E+03 -0.22012476469E+02 -0.11280080273E+04  0.13037621522E+04  0.12699999809E+01 0. -1.
</event>
<event>
 5   0  0.2621825E-07  0.3025592E+04  0.7818609E-02  0.8236461E-01
       -1   -1    0    0    0  501  0.00000000000E+00  0.00000000000E+00  0.15361777168E+04  0.15361777168E+04  0.50400001928E-02 0. -1.
        1   -1    0    0  501    0  0.00000000000E+00  0.00000000000E+00 -0.14897697762E+04  0.14897697762E+04  0.50400001928E-02 0.  1.
    10030    2    1    2    0    0  0.00000000000E+00  0.00000000000E+00  0.46407940634E+02  0.30259474931E+04  0.30255916006E+04 0.  0.
        3    1    3    3  502    0 -0.55918120376E+03 -0.12984360759E+04 -0.51531202118E+03  0.15047147076E+04  0.10100000352E+00 0.  1.
       -3    1    3    3    0  502  0.55918120376E+03  0.12984360759E+04  0.56171996181E+03  0.15212327855E+04  0.10100000352E+00 0. -1.
</event>
<event>
 5   0  0.2621825E-07  0.3003615E+04  0.7818609E-02  0.8242699E-01
       -1   -1    0    0    0  501  0.00000000000E+00  0.00000000000E+00  0.95091808824E+03  0.95091808825E+03  0.50400001928E-02 0. -1.
        1   -1    0    0  501    0  0.00000000000E+00  0.00000000000E+00 -0.23718406179E+04  0.23718406179E+04  0.50400001928E-02 0.  1.
    10030    2    1    2    0    0  0.00000000000E+00  0.00000000000E+00 -0.14209225297E+04  0.33227587062E+04  0.30036152524E+04 0.  0.
        3    1    3    3  502    0  0.98108779092E+03  0.77411683847E+03 -0.16318020934E+04  0.20553754439E+04  0.10100000352E+00 0.  1.
       -3    1    3    3    0  502 -0.98108779092E+03 -0.77411683847E+03  0.21087956367E+03  0.12673832623E+04  0.10100000352E+00 0. -1.
</event>
<event>
 5   0  0.2640081E-07  0.2996673E+04  0.7818609E-02  0.8244682E-01
        1   -1    0    0  501    0  0.00000000000E+00  0.00000000000E+00  0.29981160202E+04  0.29981160202E+04  0.50400001928E-02 0. -1.
       -1   -1    0    0    0  501  0.00000000000E+00  0.00000000000E+00 -0.74880742439E+03  0.74880742441E+03  0.50400001928E-02 0.  1.
    10030    2    1    2    0    0  0.00000000000E+00  0.00000000000E+00  0.22493085958E+04  0.37469234446E+04  0.29966725114E+04 0.  0.
        1    1    3    3  502    0 -0.15176621963E+03 -0.14571051731E+04  0.15177195869E+04  0.21094220098E+04  0.50400001928E-02 0. -1.
       -1    1    3    3    0  502  0.15176621963E+03  0.14571051731E+04  0.73158900889E+03  0.16375014348E+04  0.50400001928E-02 0.  1.
</event>
<event>
 5   0  0.2602891E-07  0.3003741E+04  0.7818609E-02  0.8242663E-01
       -1   -1    0    0    0  501  0.00000000000E+00  0.00000000000E+00  0.14417950143E+04  0.14417950143E+04  0.50400001928E-02 0.  1.
        1   -1    0    0  501    0  0.00000000000E+00  0.00000000000E+00 -0.15644494074E+04  0.15644494075E+04  0.50400001928E-02 0. -1.
    10030    2    1    2    0    0  0.00000000000E+00  0.00000000000E+00 -0.12265439320E+03  0.30062444217E+04  0.30037412377E+04 0.  0.
        5    1    3    3  502    0 -0.14768312248E+04  0.23222915547E+03 -0.20508679120E+03  0.15089875842E+04  0.46999998093E+01 0.  1.
       -5    1    3    3    0  502  0.14768312248E+04 -0.23222915547E+03  0.82432398001E+02  0.14972568375E+04  0.46999998093E+01 0. -1.
</event>
<event>
 5   0  0.2602891E-07  0.3062093E+04  0.7818609E-02  0.8226219E-01
        1   -1    0    0  501    0  0.00000000000E+00  0.00000000000E+00  0.19601125363E+04  0.19601125363E+04  0.50400001928E-02 0.  1.
       -1   -1    0    0    0  501  0.00000000000E+00  0.00000000000E+00 -0.11959026189E+04  0.11959026189E+04  0.50400001928E-02 0. -1.
    10030    2    1    2    0    0  0.00000000000E+00  0.00000000000E+00  0.76420991736E+03  0.31560151552E+04  0.30620932157E+04 0.  0.
        5    1    3    3  502    0  0.15974159968E+03 -0.77227348497E+03  0.17346668853E+04  0.19055222400E+04  0.46999998093E+01 0.  1.
       -5    1    3    3    0  502 -0.15974159968E+03  0.77227348497E+03 -0.97045696793E+03  0.12504929152E+04  0.46999998093E+01 0. -1.
</event>
<event>
 5   0  0.2679935E-07  0.2999919E+04  0.7818609E-02  0.8243754E-01
        1   -1    0    0  501    0  0.00000000000E+00  0.00000000000E+00  0.96941742116E+03  0.96941742117E+03  0.50400001928E-02 0. -1.
       -1   -1    0    0    0  501  0.00000000000E+00  0.00000000000E+00 -0.23208559855E+04  0.23208559855E+04  0.50400001928E-02 0.  1.
    10030    2    1    2    0    0  0.00000000000E+00  0.00000000000E+00 -0.13514385643E+04  0.32902734067E+04  0.29999188151E+04 0.  0.
        2    1    3    3  502    0 -0.52967824023E+03  0.94056895793E+02 -0.22114068249E+04  0.22759011145E+04  0.25500000920E-02 0.  1.
       -2    1    3    3    0  502  0.52967824023E+03 -0.94056895793E+02  0.85996826059E+03  0.10143722921E+04  0.25500000920E-02 0. -1.
</event>
<event>
 5   0  0.2679935E-07  0.3002054E+04  0.7818609E-02  0.8243145E-01
       -1   -1    0    0    0  501  0.00000000000E+00  0.00000000000E+00  0.10729797308E+04  0.10729797308E+04  0.50400001928E-02 0.  1.
        1   -1    0    0  501    0  0.00000000000E+00  0.00000000000E+00 -0.20998367157E+04  0.20998367157E+04  0.50400001928E-02 0. -1.
    10030    2    1    2    0    0  0.00000000000E+00  0.00000000000E+00 -0.10268569849E+04  0.31728164465E+04  0.30020541194E+04 0.  0.
        2    1    3    3  502    0 -0.56563810110E+02  0.13816747342E+04  0.10361103284E+03  0.13867082541E+04  0.25500000920E-02 0. -1.
       -2    1    3    3    0  502  0.56563810110E+02 -0.13816747342E+04 -0.11304680178E+04  0.17861081924E+04  0.25500000920E-02 0.  1.
</event>
<event>
 5   0  0.2679935E-07  0.2981178E+04  0.7818609E-02  0.8249126E-01
       -1   -1    0    0    0  501  0.00000000000E+00  0.00000000000E+00  0.89223529273E+03  0.89223529275E+03  0.50400001928E-02 0. -1.
        1   -1    0    0  501    0  0.00000000000E+00  0.00000000000E+00 -0.24902130875E+04  0.24902130875E+04  0.50400001928E-02 0.  1.
    10030    2    1    2    0    0  0.00000000000E+00  0.00000000000E+00 -0.15979777948E+04  0.33824483803E+04  0.29811782927E+04 0.  0.
        2    1    3    3  502    0  0.77550773977E+03 -0.38975673104E+03  0.57595553674E+03  0.10416560585E+04  0.25500000920E-02 0. -1.
       -2    1    3    3    0  502 -0.77550773977E+03  0.38975673104E+03 -0.21739333315E+04  0.23407923218E+04  0.25500000920E-02 0.  1.
</event>
<event>
 5   0  0.7585823E-07  0.2987459E+04  0.7818609E-02  0.8247321E-01
        2   -1    0    0  501    0  0.00000000000E+00  0.00000000000E+00  0.24484157832E+04  0.24484157832E+04  0.25500000920E-02 0. -1.
       -2   -1    0    0    0  501  0.00000000000E+00  0.00000000000E+00 -0.91129428048E+03  0.91129428049E+03  0.25500000920E-02 0.  1.
    10030    2    1    2    0    0  0.00000000000E+00  0.00000000000E+00  0.15371215027E+04  0.33597100637E+04  0.29874586521E+04 0.  0.
        5    1    3    3  502    0 -0.12124761782E+04 -0.48258565846E+02  0.17481797877E+04  0.21280465295E+04  0.46999998093E+01 0. -1.
       -5    1    3    3    0  502  0.12124761782E+04  0.48258565846E+02 -0.21105828494E+03  0.12316635342E+04  0.46999998093E+01 0.  1.
</event>
<event>
 5   0  0.2640081E-07  0.2994338E+04  0.7818609E-02  0.8245349E-01
       -1   -1    0    0    0  501  0.00000000000E+00  0.00000000000E+00  0.10446780806E+04  0.10446780806E+04  0.50400001928E-02 0. -1.
        1   -1    0    0  501    0  0.00000000000E+00  0.00000000000E+00 -0.21456521255E+04  0.21456521255E+04  0.50400001928E-02 0.  1.
    10030    2    1    2    0    0  0.00000000000E+00  0.00000000000E+00 -0.11009740448E+04  0.31903302061E+04  0.29943384873E+04 0.  0.
        1    1    3    3  502    0 -0.62000465568E+03  0.41691886284E+03  0.83185031510E+03  0.11181243482E+04  0.50400001928E-02 0. -1.
       -1    1    3    3    0  502  0.62000465568E+03 -0.41691886284E+03 -0.19328243599E+04  0.20722058579E+04  0.50400001928E-02 0.  1.
</event>
<event>
 5   0  0.2414250E-07  0.2999395E+04  0.7818609E-02  0.8243904E-01
        3   -1    0    0  501    0  0.00000000000E+00  0.00000000000E+00  0.12813852464E+04  0.12813852504E+04  0.10100000352E+00 0. -1.
       -3   -1    0    0    0  501  0.00000000000E+00  0.00000000000E+00 -0.17552045571E+04  0.17552045600E+04  0.10100000352E+00 0.  1.
    10030    2    1    2    0    0  0.00000000000E+00  0.00000000000E+00 -0.47381931068E+03  0.30365898103E+04  0.29993954286E+04 0.  0.
        5    1    3    3  502    0  0.12381539158E+04 -0.84075829614E+03 -0.33386525215E+03  0.15334235320E+04  0.46999998093E+01 0.  1.
       -5    1    3    3    0  502 -0.12381539158E+04  0.84075829614E+03 -0.13995405853E+03  0.15031662783E+04  0.46999998093E+01 0. -1.
</event>
<event>
 5   0  0.7399409E-07  0.3002247E+04  0.7818609E-02  0.8243089E-01
        2   -1    0    0  501    0  0.00000000000E+00  0.00000000000E+00  0.16984502657E+04  0.16984502657E+04  0.25500000920E-02 0.  1.
       -2   -1    0    0    0  501  0.00000000000E+00  0.00000000000E+00 -0.13267226157E+04  0.13267226157E+04  0.25500000920E-02 0. -1.
    10030    2    1    2    0    0  0.00000000000E+00  0.00000000000E+00  0.37172765004E+03  0.30251728814E+04  0.30022474109E+04 0.  0.
        3    1    3    3  502    0  0.83737081868E+03  0.12343099027E+04  0.15273844926E+02  0.14916246593E+04  0.10100000352E+00 0. -1.
       -3    1    3    3    0  502 -0.83737081868E+03 -0.12343099027E+04  0.35645380512E+03  0.15335482220E+04  0.10100000352E+00 0.  1.
</event>
<event>
 5   0  0.2792361E-07  0.3021002E+04  0.7818609E-02  0.8237759E-01
        1   -1    0    0  501    0  0.00000000000E+00  0.00000000000E+00  0.13751069188E+04  0.13751069188E+04  0.50400001928E-02 0.  1.
       -1   -1    0    0    0  501  0.00000000000E+00  0.00000000000E+00 -0.16592256451E+04  0.16592256451E+04  0.50400001928E-02 0. -1.
    10030    2    1    2    0    0  0.00000000000E+00  0.00000000000E+00 -0.28411872627E+03  0.30343325639E+04  0.30210015984E+04 0.  0.
        4    1    3    3  502    0  0.14604125439E+04 -0.15434961107E+03 -0.49714797253E+03  0.15504148865E+04  0.12699999809E+01 0.  1.
       -4    1    3    3    0  502 -0.14604125439E+04  0.15434961107E+03  0.21302924626E+03  0.14839176774E+04  0.12699999809E+01 0. -1.
</event>
<event>
 5   0  0.7208273E-07  0.2994093E+04  0.7818609E-02  0.8245420E-01
        2   -1    0    0  501    0  0.00000000000E+00  0.00000000000E+00  0.19991624036E+04  0.19991624036E+04  0.25500000920E-02 0. -1.
       -2   -1    0    0    0  501  0.00000000000E+00  0.00000000000E+00 -0.11210433965E+04  0.11210433965E+04  0.25500000920E-02 0.  1.
    10030    2    1    2    0    0  0.00000000000E+00  0.00000000000E+00  0.87811900704E+03  0.31202058001E+04  0.29940927248E+04 0.  0.
        4    1    3    3  502    0  0.41784455279E+03 -0.10808653480E+04  0.14267580109E+04  0.18380707291E+04  0.12699999809E+01 0. -1.
       -4    1    3    3    0  502 -0.41784455279E+03  0.10808653480E+04 -0.54863900383E+03  0.12821350710E+04  0.12699999809E+01 0.  1.
</event>
<event>
 5   0  0.7307508E-07  0.2994302E+04  0.7818609E-02  0.8245360E-01
       -2   -1    0    0    0  501  0.00000000000E+00  0.00000000000E+00  0.11460749653E+04  0.11460749653E+04  0.25500000920E-02 0. -1.
        2   -1    0    0  501    0  0.00000000000E+00  0.00000000000E+00 -0.19557719431E+04  0.19557719431E+04  0.25500000920E-02 0.  1.
    10030    2    1    2    0    0  0.00000000000E+00  0.00000000000E+00 -0.80969697781E+03  0.31018469084E+04  0.29943020969E+04 0.  0.
        1    1    3    3  502    0  0.17773862518E+03 -0.13589779336E+04  0.21932813289E+03  0.13879902279E+04  0.50400001928E-02 0. -1.
       -1    1    3    3    0  502 -0.17773862518E+03  0.13589779336E+04 -0.10290251107E+04  0.17138566805E+04  0.50400001928E-02 0.  1.
</event>
<event>
 5   0  0.2621825E-07  0.2998860E+04  0.7818609E-02  0.8244057E-01
        1   -1    0    0  501    0  0.00000000000E+00  0.00000000000E+00  0.17502041017E+04  0.17502041017E+04  0.50400001928E-02 0.  1.
       -1   -1    0    0    0  501  0.00000000000E+00  0.00000000000E+00 -0.12845872694E+04  0.12845872694E+04  0.50400001928E-02 0. -1.
    10030    2    1    2    0    0  0.00000000000E+00  0.00000000000E+00  0.46561683223E+03  0.30347913711E+04  0.29988597219E+04 0.  0.
        3    1    3    3  502    0 -0.95707930303E+03 -0.27013521298E+03  0.13684467985E+04  0.16916324885E+04  0.10100000352E+00 0.  1.
       -3    1    3    3    0  502  0.95707930303E+03  0.27013521298E+03 -0.90282996631E+03  0.13431588826E+04  0.10100000352E+00 0. -1.
</event>
<event>
 5   0  0.7399409E-07  0.3000018E+04  0.7818609E-02  0.8243726E-01
       -2   -1    0    0    0  501  0.00000000000E+00  0.00000000000E+00  0.16692911942E+04  0.16692911942E+04  0.25500000920E-02 0. -1.
        2   -1    0    0  501    0  0.00000000000E+00  0.00000000000E+00 -0.13478939528E+04  0.13478939528E+04  0.25500000920E-02 0.  1.
    10030    2    1    2    0    0  0.00000000000E+00  0.00000000000E+00  0.32139724137E+03  0.30171851470E+04  0.30000183373E+04 0.  0.
        3    1    3    3  502    0 -0.74927034043E+03  0.17962492148E+03 -0.11336609492E+04  0.13707145266E+04  0.10100000352E+00 0.  1.
       -3    1    3    3    0  502  0.74927034043E+03 -0.17962492148E+03  0.14550581906E+04  0.16464706204E+04  0.10100000352E+00 0. -1.
</event>
<event>
 5   0  0.2792361E-07  0.3006000E+04  0.7818609E-02  0.8242020E-01
       -1   -1    0    0    0  501  0.00000000000E+00  0.00000000000E+00  0.13737514362E+04  0.13737514362E+04  0.50400001928E-02 0.  1.
        1   -1    0    0  501    0  0.00000000000E+00  0.00000000000E+00 -0.16444088721E+04  0.16444088721E+04  0.50400001928E-02 0. -1.
    10030    2    1    2    0    0  0.00000000000E+00  0.00000000000E+00 -0.27065743589E+03  0.30181603083E+04  0.30060000331E+04 0.  0.
        4    1    3    3  502    0  0.29597746898E+03  0.13488028043E+03  0.13379900687E+04  0.13769583832E+04  0.12699999809E+01 0.  1.
       -4    1    3    3    0  502 -0.29597746898E+03 -0.13488028043E+03 -0.16086475046E+04  0.16412019252E+04  0.12699999809E+01 0. -1.
</event>
<event>
 5   0  0.7278657E-07  0.3002057E+04  0.7818609E-02  0.8243144E-01
        2   -1    0    0  501    0  0.00000000000E+00  0.00000000000E+00  0.29486583019E+04  0.29486583019E+04  0.25500000920E-02 0. -1.
       -2   -1    0    0    0  501  0.00000000000E+00  0.00000000000E+00 -0.76410572773E+03  0.76410572774E+03  0.25500000920E-02 0.  1.
    10030    2    1    2    0    0  0.00000000000E+00  0.00000000000E+00  0.21845525741E+04  0.37127640296E+04  0.30020570931E+04 0.  0.
        2    1    3    3  502    0  0.11882153005E+04  0.62425232647E+03  0.26122739019E+03  0.13674013006E+04  0.25500000920E-02 0.  1.
       -2    1    3    3    0  502 -0.11882153005E+04 -0.62425232647E+03  0.19233251839E+04  0.23453627290E+04  0.25500000920E-02 0. -1.
</event>
<event>
 5   0  0.2792361E-07  0.3005299E+04  0.7818609E-02  0.8242219E-01
        1   -1    0    0  501    0  0.00000000000E+00  0.00000000000E+00  0.12627416781E+04  0.12627416781E+04  0.50400001928E-02 0.  1.
       -1   -1    0    0    0  501  0.00000000000E+00  0.00000000000E+00 -0.17881372531E+04  0.17881372531E+04  0.50400001928E-02 0. -1.
    10030    2    1    2    0    0  0.00000000000E+00  0.00000000000E+00 -0.52539557493E+03  0.30508789312E+04  0.30052989440E+04 0.  0.
        4    1    3    3  502    0  0.16680831889E+03  0.10552254401E+04 -0.13354306053E+04  0.17101760901E+04  0.12699999809E+01 0. -1.
       -4    1    3    3    0  502 -0.16680831889E+03 -0.10552254401E+04  0.81003503039E+03  0.13407028411E+04  0.12699999809E+01 0.  1.
</event>
<event>
 5   0  0.2792361E-07  0.3009815E+04  0.7818609E-02  0.8240934E-01
        1   -1    0    0  501    0  0.00000000000E+00  0.00000000000E+00  0.16556005887E+04  0.16556005887E+04  0.50400001928E-02 0. -1.
       -1   -1    0    0    0  501  0.00000000000E+00  0.00000000000E+00 -0.13679306518E+04  0.13679306518E+04  0.50400001928E-02 0.  1.
    10030    2    1    2    0    0  0.00000000000E+00  0.00000000000E+00  0.28766993694E+03  0.30235312405E+04  0.30098151388E+04 0.  0.
        4    1    3    3  502    0 -0.84605758762E+01 -0.65090775412E+03 -0.12191801420E+04  0.13820833250E+04  0.12699999809E+01 0.  1.
       -4    1    3    3    0  502  0.84605758762E+01  0.65090775412E+03  0.15068500790E+04  0.16414479154E+04  0.12699999809E+01 0. -1.
</event>
<event>
 5   0  0.2679935E-07  0.2998311E+04  0.7818609E-02  0.8244213E-01
        1   -1    0    0  501    0  0.00000000000E+00  0.00000000000E+00  0.17386065987E+04  0.17386065987E+04  0.50400001928E-02 0. -1.
       -1   -1    0    0    0  501  0.00000000000E+00  0.00000000000E+00 -0.12926825982E+04  0.12926825982E+04  0.50400001928E-02 0.  1.
    10030    2    1    2    0    0  0.00000000000E+00  0.00000000000E+00  0.44592400049E+03  0.30312891970E+04  0.29983105212E+04 0.  0.
        2    1    3    3  502    0 -0.22989780811E+03  0.13182478875E+04  0.90629268535E+03  0.16161673573E+04  0.25500000920E-02 0. -1.
       -2    1    3    3    0  502  0.22989780811E+03 -0.13182478875E+04 -0.46036868486E+03  0.14151218397E+04  0.25500000920E-02 0.  1.
</event>
<event>
 5   0  0.7278657E-07  0.3002596E+04  0.7818609E-02  0.8242990E-01
        2   -1    0    0  501    0  0.00000000000E+00  0.00000000000E+00  0.17122706809E+04  0.17122706809E+04  0.25500000920E-02 0.  1.
       -2   -1    0    0    0  501  0.00000000000E+00  0.00000000000E+00 -0.13163200695E+04  0.13163200695E+04  0.25500000920E-02 0. -1.
    10030    2    1    2    0    0  0.00000000000E+00  0.00000000000E+00  0.39595061144E+03  0.30285907504E+04  0.30025963843E+04 0.  0.
        2    1    3    3  502    0  0.10688417940E+03  0.12868398005E+04 -0.57449773249E+03  0.14133041232E+04  0.25500000920E-02 0. -1.
       -2    1    3    3    0  502 -0.10688417940E+03 -0.12868398005E+04  0.97044834394E+03  0.16152866272E+04  0.25500000920E-02 0.  1.
</event>
<event>
 5   0  0.7307508E-07  0.3004842E+04  0.7818609E-02  0.8242350E-01
        2   -1    0    0  501    0  0.00000000000E+00  0.00000000000E+00  0.13936720406E+04  0.13936720406E+04  0.25500000920E-02 0.  1.
       -2   -1    0    0    0  501  0.00000000000E+00  0.00000000000E+00 -0.16196554578E+04  0.16196554578E+04  0.25500000920E-02 0. -1.
    10030    2    1    2    0    0  0.00000000000E+00  0.00000000000E+00 -0.22598341717E+03  0.30133274985E+04  0.30048417776E+04 0.  0.
        1    1    3    3  502    0  0.10149337531E+04 -0.55867672753E+02  0.99650370855E+03  0.14234575376E+04  0.50400001928E-02 0.  1.
       -1    1    3    3    0  502 -0.10149337531E+04  0.55867672753E+02 -0.12224871257E+04  0.15898699609E+04  0.50400001928E-02 0. -1.
</event>
<event>
 5   0  0.7585823E-07  0.2990301E+04  0.7818609E-02  0.8246506E-01
       -2   -1    0    0    0  501  0.00000000000E+00  0.00000000000E+00  0.12645195144E+04  0.12645195144E+04  0.25500000920E-02 0.  1.
        2   -1    0    0  501    0  0.00000000000E+00  0.00000000000E+00 -0.17678453477E+04  0.17678453477E+04  0.25500000920E-02 0. -1.
    10030    2    1    2    0    0  0.00000000000E+00  0.00000000000E+00 -0.50332583325E+03  0.30323648621E+04  0.29903009485E+04 0.  0.
        5    1    3    3  502    0  0.13607041051E+04  0.16052688641E+03  0.35522729720E+03  0.14154480088E+04  0.46999998093E+01 0. -1.
       -5    1    3    3    0  502 -0.13607041051E+04 -0.16052688641E+03 -0.85855313045E+03  0.16169168534E+04  0.46999998093E+01 0.  1.
</event>
<event>
 5   0  0.7307508E-07  0.2994167E+04  0.7818609E-02  0.8245399E-01
       -2   -1    0    0    0  501  0.00000000000E+00  0.00000000000E+00  0.20740454299E+04  0.20740454299E+04  0.25500000920E-02 0. -1.
        2   -1    0    0  501    0  0.00000000000E+00  0.00000000000E+00 -0.10806216340E+04  0.10806216340E+04  0.25500000920E-02 0.  1.
    10030    2    1    2    0    0  0.00000000000E+00  0.00000000000E+00  0.99342379589E+03  0.31546670639E+04  0.29941665695E+04 0.  0.
        1    1    3    3  502    0 -0.13056219048E+04 -0.72629476018E+03  0.39617283675E+03  0.15456731717E+04  0.50400001928E-02 0.  1.
       -1    1    3    3    0  502  0.13056219048E+04  0.72629476018E+03  0.59725095913E+03  0.16089938922E+04  0.50400001928E-02 0. -1.
</event>
<event>
 5   0  0.2640081E-07  0.2999452E+04  0.7818609E-02  0.8243887E-01
        1   -1    0    0  501    0  0.00000000000E+00  0.00000000000E+00  0.20303236557E+04  0.20303236558E+04  0.50400001928E-02 0.  1.
       -1   -1    0    0    0  501  0.00000000000E+00  0.00000000000E+00 -0.11077930492E+04  0.11077930492E+04  0.50400001928E-02 0. -1.
    10030    2    1    2    0    0  0.00000000000E+00  0.00000000000E+00  0.92253060655E+03  0.31381167050E+04  0.29994522390E+04 0.  0.
        1    1    3    3  502    0 -0.65843454316E+03  0.41546681826E+03  0.18023303643E+04  0.19632991282E+04  0.50400001928E-02 0.  1.
       -1    1    3    3    0  502  0.65843454316E+03 -0.41546681826E+03 -0.87979975780E+03  0.11748175767E+04  0.50400001928E-02 0. -1.
</event>
<event>
 5   0  0.7585823E-07  0.2996125E+04  0.7818609E-02  0.8244838E-01
        2   -1    0    0  501    0  0.00000000000E+00  0.00000000000E+00  0.24341395546E+04  0.24341395546E+04  0.25500000920E-02 0. -1.
       -2   -1    0    0    0  501  0.00000000000E+00  0.00000000000E+00 -0.92196498567E+03  0.92196498567E+03  0.25500000920E-02 0.  1.
    10030    2    1    2    0    0  0.00000000000E+00  0.00000000000E+00  0.15121745689E+04  0.33561045402E+04  0.29961251239E+04 0.  0.
        5    1    3    3  502    0 -0.89872560595E+02  0.14941821088E+04  0.82247058797E+03  0.17079628829E+04  0.46999998093E+01 0. -1.
       -5    1    3    3    0  502  0.89872560595E+02 -0.14941821088E+04  0.68970398093E+03  0.16481416573E+04  0.46999998093E+01 0.  1.
</event>
<event>
 5   0  0.7208273E-07  0.3004743E+04  0.7818609E-02  0.8242378E-01
       -2   -1    0    0    0  501  0.00000000000E+00  0.00000000000E+00  0.12786903525E+04  0.12786903525E+04  0.25500000920E-02 0. -1.
        2   -1    0    0  501    0  0.00000000000E+00  0.00000000000E+00 -0.17651815864E+04  0.17651815864E+04  0.25500000920E-02 0.  1.
    10030    2    1    2    0    0  0.00000000000E+00  0.00000000000E+00 -0.48649123397E+03  0.30438719389E+04  0.30047433600E+04 0.  0.
        4    1    3    3  502    0  0.37989787292E+03  0.12883794007E+04  0.43847786216E+03  0.14129785286E+04  0.12699999809E+01 0. -1.
       -4    1    3    3    0  502 -0.37989787292E+03 -0.12883794007E+04 -0.92496909613E+03  0.16308934102E+04  0.12699999809E+01 0.  1.
</event>
<event>
 5   0  0.7208273E-07  0.2987868E+04  0.7818609E-02  0.8247204E-01
       -2   -1    0    0    0  501  0.00000000000E+00  0.00000000000E+00  0.11195982002E+04  0.11195982002E+04  0.25500000920E-02 0.  1.
        2   -1    0    0  501    0  0.00000000000E+00  0.00000000000E+00 -0.19934286297E+04  0.19934286297E+04  0.25500000920E-02 0. -1.
    10030    2    1    2    0    0  0.00000000000E+00  0.00000000000E+00 -0.87383042957E+03  0.31130268299E+04  0.29878682073E+04 0.  0.
        4    1    3    3  502    0 -0.73335946499E+03  0.12230212088E+04  0.26977584193E+02  0.14262981403E+04  0.12699999809E+01 0.  1.
       -4    1    3    3    0  502  0.73335946499E+03 -0.12230212088E+04 -0.90080801376E+03  0.16867286897E+04  0.12699999809E+01 0. -1.
</event>
<event>
 5   0  0.2679935E-07  0.2997337E+04  0.7818609E-02  0.8244492E-01
        1   -1    0    0  501    0  0.00000000000E+00  0.00000000000E+00  0.15860736854E+04  0.15860736854E+04  0.50400001928E-02 0. -1.
       -1   -1    0    0    0  501  0.00000000000E+00  0.00000000000E+00 -0.14160796986E+04  0.14160796986E+04  0.50400001928E-02 0.  1.
    10030    2    1    2    0    0  0.00000000000E+00  0.00000000000E+00  0.16999398686E+03  0.30021533840E+04  0.29973366487E+04 0.  0.
        2    1    3    3  502    0 -0.86279606810E+03  0.46635519798E+02 -0.11414767431E+04  0.14316288212E+04  0.25500000920E-02 0.  1.
       -2    1    3    3    0  502  0.86279606810E+03 -0.46635519798E+02  0.13114707299E+04  0.15705245628E+04  0.25500000920E-02 0. -1.
</event>
<event>
 5   0  0.2621825E-07  0.2999654E+04  0.7818609E-02  0.8243830E-01
       -1   -1    0    0    0  501  0.00000000000E+00  0.00000000000E+00  0.10680060661E+04  0.10680060661E+04  0.50400001928E-02 0. -1.
        1   -1    0    0  501    0  0.00000000000E+00  0.00000000000E+00 -0.21062432793E+04  0.21062432793E+04  0.50400001928E-02 0.  1.
    10030    2    1    2    0    0  0.00000000000E+00  0.00000000000E+00 -0.10382372132E+04  0.31742493453E+04  0.29996537126E+04 0.  0.
        3    1    3    3  502    0  0.11684038198E+02 -0.38594418171E+03 -0.20527465326E+04  0.20887455004E+04  0.10100000352E+00 0.  1.
       -3    1    3    3    0  502 -0.11684038198E+02  0.38594418171E+03  0.10145093194E+04  0.10855038450E+04  0.10100000352E+00 0. -1.
</event>
<event>
 5   0  0.2602891E-07  0.3032280E+04  0.7818609E-02  0.8234573E-01
        1   -1    0    0  501    0  0.00000000000E+00  0.00000000000E+00  0.17405865130E+04  0.17405865130E+04  0.50400001928E-02 0. -1.
       -1   -1    0    0    0  501  0.00000000000E+00  0.00000000000E+00 -0.13206353414E+04  0.13206353414E+04  0.50400001928E-02 0.  1.
    10030    2    1    2    0    0  0.00000000000E+00  0.00000000000E+00  0.41995117157E+03  0.30612218544E+04  0.30322797126E+04 0.  0.
        5    1    3    3  502    0 -0.22148487174E+03 -0.31817032479E+03 -0.12697462804E+04  0.13276165149E+04  0.46999998093E+01 0.  1.
       -5    1    3    3    0  502  0.22148487174E+03  0.31817032479E+03  0.16896974520E+04  0.17336053395E+04  0.46999998093E+01 0. -1.
</event>
<event>
 5   0  0.7208273E-07  0.2998518E+04  0.7818609E-02  0.8244154E-01
       -2   -1    0    0    0  501  0.00000000000E+00  0.00000000000E+00  0.12235116375E+04  0.12235116375E+04  0.25500000920E-02 0. -1.
        2   -1    0    0  501    0  0.00000000000E+00  0.00000000000E+00 -0.18371522174E+04  0.18371522174E+04  0.25500000920E-02 0.  1.
    10030    2    1    2    0    0  0.00000000000E+00  0.00000000000E+00 -0.61364057994E+03  0.30606638549E+04  0.29985177123E+04 0.  0.
        4    1    3    3  502    0  0.54753944329E+03 -0.13937556499E+04 -0.38197544724E+03  0.15453999834E+04  0.12699999809E+01 0.  1.
       -4    1    3    3    0  502 -0.54753944329E+03  0.13937556499E+04 -0.23166513270E+03  0.15152638715E+04  0.12699999809E+01 0. -1.
</event>
<event>
 5   0  0.7585823E-07  0.2998949E+04  0.7818609E-02  0.8244031E-01
       -2   -1    0    0    0  501  0.00000000000E+00  0.00000000000E+00  0.18850335441E+04  0.18850335441E+04  0.25500000920E-02 0. -1.
        2   -1    0    0  501    0  0.00000000000E+00  0.00000000000E+00 -0.11927768558E+04  0.11927768558E+04  0.25500000920E-02 0.  1.
    10030    2    1    2    0    0  0.00000000000E+00  0.00000000000E+00  0.69225668835E+03  0.30778103999E+04  0.29989494053E+04 0.  0.
        5    1    3    3  502    0 -0.11019753669E+04  0.96244584210E+03  0.92426700143E+01  0.14631333587E+04  0.46999998093E+01 0. -1.
       -5    1    3    3    0  502  0.11019753669E+04 -0.96244584210E+03  0.68301401833E+03  0.16146770413E+04  0.46999998093E+01 0.  1.
</event>
<event>
 5   0  0.7307508E-07  0.2941427E+04  0.7818609E-02  0.8260657E-01
       -2   -1    0    0    0  501  0.00000000000E+00  0.00000000000E+00  0.16298699477E+04  0.16298699477E+04  0.25500000920E-02 0.  1.
        2   -1    0    0  501    0  0.00000000000E+00  0.00000000000E+00 -0.13270986967E+04  0.13270986967E+04  0.25500000920E-02 0. -1.
    10030    2    1    2    0    0  0.00000000000E+00  0.00000000000E+00  0.30277125106E+03  0.29569686444E+04  0.29414270573E+04 0.  0.
        1    1    3    3  502    0 -0.13264861775E+04 -0.46416203706E+03  0.58725037326E+03  0.15231135797E+04  0.50400001928E-02 0.  1.
       -1    1    3    3    0  502  0.13264861775E+04  0.46416203706E+03 -0.28447912220E+03  0.14338550647E+04  0.50400001928E-02 0. -1.
</event>
<event>
 5   0  0.7307508E-07  0.3016715E+04  0.7818609E-02  0.8238974E-01
        2   -1    0    0  501    0  0.00000000000E+00  0.00000000000E+00  0.19068900577E+04  0.19068900577E+04  0.25500000920E-02 0. -1.
       -2   -1    0    0    0  501  0.00000000000E+00  0.00000000000E+00 -0.11931169643E+04  0.11931169643E+04  0.25500000920E-02 0.  1.
    10030    2    1    2    0    0  0.00000000000E+00  0.00000000000E+00  0.71377309347E+03  0.31000070220E+04  0.30167153507E+04 0.  0.
        1    1    3    3  502    0 -0.12358568007E+04  0.11214614187E+03 -0.52423984178E+03  0.13471251615E+04  0.50400001928E-02 0.  1.
       -1    1    3    3    0  502  0.12358568007E+04 -0.11214614187E+03  0.12380129353E+04  0.17528818605E+04  0.50400001928E-02 0. -1.
</event>
<event>
 5   0  0.2414250E-07  0.2996692E+04  0.7818609E-02  0.8244676E-01
       -3   -1    0    0    0  501  0.00000000000E+00  0.00000000000E+00  0.20056205798E+04  0.20056205823E+04  0.10100000352E+00 0.  1.
        3   -1    0    0  501    0  0.00000000000E+00  0.00000000000E+00 -0.11193744214E+04  0.11193744259E+04  0.10100000352E+00 0. -1.
    10030    2    1    2    0    0  0.00000000000E+00  0.00000000000E+00  0.88624615843E+03  0.31249950083E+04  0.29966917673E+04 0.  0.
        2    1    3    3  502    0  0.56657338649E+03 -0.57536983123E+03  0.17592962506E+04  0.19357631938E+04  0.25500000920E-02 0.  1.
       -2    1    3    3    0  502 -0.56657338649E+03  0.57536983123E+03 -0.87305009222E+03  0.11892318145E+04  0.25500000920E-02 0. -1.
</event>
<event>
 5   0  0.2414250E-07  0.3007380E+04  0.7818609E-02  0.8241627E-01
       -3   -1    0    0    0  501  0.00000000000E+00  0.00000000000E+00  0.12418933051E+04  0.12418933092E+04  0.10100000352E+00 0. -1.
        3   -1    0    0  501    0  0.00000000000E+00  0.00000000000E+00 -0.18206749512E+04  0.18206749540E+04  0.10100000352E+00 0.  1.
    10030    2    1    2    0    0  0.00000000000E+00  0.00000000000E+00 -0.57878164610E+03  0.30625682631E+04  0.30073802840E+04 0.  0.
        4    1    3    3  502    0  0.54884135436E+02  0.26992456540E+03  0.12159821259E+04  0.12467901518E+04  0.12699999809E+01 0. -1.
       -4    1    3    3    0  502 -0.54884135436E+02 -0.26992456540E+03 -0.17947637720E+04  0.18157781113E+04  0.12699999809E+01 0.  1.
</event>
<event>
 5   0  0.7208273E-07  0.2977292E+04  0.7818609E-02  0.8250245E-01
       -2   -1    0    0    0  501  0.00000000000E+00  0.00000000000E+00  0.11606292823E+04  0.11606292823E+04  0.25500000920E-02 0.  1.
        2   -1    0    0  501    0  0.00000000000E+00  0.00000000000E+00 -0.19093664528E+04  0.19093664528E+04  0.25500000920E-02 0. -1.
    10030    2    1    2    0    0  0.00000000000E+00  0.00000000000E+00 -0.74873717050E+03  0.30699957351E+04  0.29772918001E+04 0.  0.
        4    1    3    3  502    0 -0.13984308209E+03 -0.12734084485E+04  0.40748885285E+03  0.13443116984E+04  0.12699999809E+01 0.  1.
       -4    1    3    3    0  502  0.13984308209E+03  0.12734084485E+04 -0.11562260234E+04  0.17256840367E+04  0.12699999809E+01 0. -1.
</event>
<event>
 5   0  0.2792361E-07  0.3087756E+04  0.7818609E-02  0.8219106E-01
        1   -1    0    0  501    0  0.00000000000E+00  0.00000000000E+00  0.11384892625E+04  0.11384892625E+04  0.50400001928E-02 0.  1.
       -1   -1    0    0    0  501  0.00000000000E+00  0.00000000000E+00 -0.20936155544E+04  0.20936155544E+04  0.50400001928E-02 0. -1.
    10030    2    1    2    0    0  0.00000000000E+00  0.00000000000E+00 -0.95512629185E+03  0.32321048169E+04  0.30877557083E+04 0.  0.
        4    1    3    3  502    0 -0.15001574003E+03 -0.11425440674E+04  0.59791493441E+03  0.12982355525E+04  0.12699999809E+01 0.  1.
       -4    1    3    3    0  502  0.15001574003E+03  0.11425440674E+04 -0.15530412263E+04  0.19338692643E+04  0.12699999809E+01 0. -1.
</event>
<event>
 5   0  0.7208273E-07  0.3002078E+04  0.7818609E-02  0.8243138E-01
       -2   -1    0    0    0  501  0.00000000000E+00  0.00000000000E+00  0.13298108095E+04  0.13298108095E+04  0.25500000920E-02 0.  1.
        2   -1    0    0  501    0  0.00000000000E+00  0.00000000000E+00 -0.16943143962E+04  0.16943143962E+04  0.25500000920E-02 0. -1.
    10030    2    1    2    0    0  0.00000000000E+00  0.00000000000E+00 -0.36450358670E+03  0.30241252057E+04  0.30020776797E+04 0.  0.
        4    1    3    3  502    0  0.24386702199E+03  0.63118593319E+03 -0.15319610017E+04  0.16747456315E+04  0.12699999809E+01 0. -1.
       -4    1    3    3    0  502 -0.24386702199E+03 -0.63118593319E+03  0.11674574150E+04  0.13493795742E+04  0.12699999809E+01 0.  1.
</event>
<event>
 5   0  0.2621825E-07  0.3002856E+04  0.7818609E-02  0.8242916E-01
       -1   -1    0    0    0  501  0.00000000000E+00  0.00000000000E+00  0.84788445365E+03  0.84788445367E+03  0.50400001928E-02 0. -1.
        1   -1    0    0  501    0  0.00000000000E+00  0.00000000000E+00 -0.26587185027E+04  0.26587185027E+04  0.50400001928E-02 0.  1.
    10030    2    1    2    0    0  0.00000000000E+00  0.00000000000E+00 -0.18108340490E+04  0.35066029564E+04  0.30028560306E+04 0.  0.
        3    1    3    3  502    0  0.52085765177E+03  0.10236406141E+04 -0.20346758238E+04  0.23364585420E+04  0.10100000352E+00 0.  1.
       -3    1    3    3    0  502 -0.52085765177E+03 -0.10236406141E+04  0.22384177473E+03  0.11701444144E+04  0.10100000352E+00 0. -1.
</event>
<event>
 5   0  0.2792361E-07  0.3019338E+04  0.7818609E-02  0.8238230E-01
        1   -1    0    0  501    0  0.00000000000E+00  0.00000000000E+00  0.12933805748E+04  0.12933805749E+04  0.50400001928E-02 0.  1.
       -1   -1    0    0    0  501  0.00000000000E+00  0.00000000000E+00 -0.17621263063E+04  0.17621263063E+04  0.50400001928E-02 0. -1.
    10030    2    1    2    0    0  0.00000000000E+00  0.00000000000E+00 -0.46874573147E+03  0.30555068812E+04  0.30193376327E+04 0.  0.
        4    1    3    3  502    0  0.38853529910E+03 -0.11966830199E+04  0.60994072921E+03  0.13982271757E+04  0.12699999809E+01 0.  1.
       -4    1    3    3    0  502 -0.38853529910E+03  0.11966830199E+04 -0.10786864607E+04  0.16572797055E+04  0.12699999809E+01 0. -1.
</event>
<event>
 5   0  0.2679935E-07  0.2995234E+04  0.7818609E-02  0.8245093E-01
       -1   -1    0    0    0  501  0.00000000000E+00  0.00000000000E+00  0.15800507032E+04  0.15800507032E+04  0.50400001928E-02 0. -1.
        1   -1    0    0  501    0  0.00000000000E+00  0.00000000000E+00 -0.14194838693E+04  0.14194838693E+04  0.50400001928E-02 0.  1.
    10030    2    1    2    0    0  0.00000000000E+00  0.00000000000E+00  0.16056683383E+03  0.29995345725E+04  0.29952338713E+04 0.  0.
        2    1    3    3  502    0 -0.13324429692E+04  0.14212359591E+03  0.75001351212E+03  0.15356183286E+04  0.25500000920E-02 0. -1.
       -2    1    3    3    0  502  0.13324429692E+04 -0.14212359591E+03 -0.58944667829E+03  0.14639162439E+04  0.25500000920E-02 0.  1.
</event>
<event>
 5   0  0.7307508E-07  0.2995647E+04  0.7818609E-02  0.8244975E-01
       -2   -1    0    0    0  501  0.00000000000E+00  0.00000000000E+00  0.24038065140E+04  0.24038065140E+04  0.25500000920E-02 0. -1.
        2   -1    0    0  501    0  0.00000000000E+00  0.00000000000E+00 -0.93330091366E+03  0.93330091367E+03  0.25500000920E-02 0.  1.
    10030    2    1    2    0    0  0.00000000000E+00  0.00000000000E+00  0.14705056004E+04  0.33371074277E+04  0.29956467187E+04 0.  0.
        1    1    3    3  502    0 -0.10843104934E+04 -0.88153068090E+03  0.13468204600E+03  0.14039105531E+04  0.50400001928E-02 0. -1.
       -1    1    3    3    0  502  0.10843104934E+04  0.88153068090E+03  0.13358235544E+04  0.19331968746E+04  0.50400001928E-02 0.  1.
</event>
<event>
 5   0  0.2621825E-07  0.2998637E+04  0.7818609E-02  0.8244120E-01
       -1   -1    0    0    0  501  0.00000000000E+00  0.00000000000E+00  0.16953719436E+04  0.16953719436E+04  0.50400001928E-02 0. -1.
        1   -1    0    0  501    0  0.00000000000E+00  0.00000000000E+00 -0.13259370836E+04  0.13259370836E+04  0.50400001928E-02 0.  1.
    10030    2    1    2    0    0  0.00000000000E+00  0.00000000000E+00  0.36943486001E+03  0.30213090273E+04  0.29986373776E+04 0.  0.
        3    1    3    3  502    0  0.27403529280E+03 -0.11432167044E+04  0.11222994436E+04  0.16252986883E+04  0.10100000352E+00 0. -1.
       -3    1    3    3    0  502 -0.27403529280E+03  0.11432167044E+04 -0.75286458363E+03  0.13960103389E+04  0.10100000352E+00 0.  1.
</event>
<event>
 5   0  0.7307508E-07  0.2998059E+04  0.7818609E-02  0.8244285E-01
        2   -1    0    0  501    0  0.00000000000E+00  0.00000000000E+00  0.15036490201E+04  0.15036490201E+04  0.25500000920E-02 0.  1.
       -2   -1    0    0    0  501  0.00000000000E+00  0.00000000000E+00 -0.14944240980E+04  0.14944240980E+04  0.25500000920E-02 0. -1.
    10030    2    1    2    0    0  0.00000000000E+00  0.00000000000E+00  0.92249220764E+01  0.29980731181E+04  0.29980589257E+04 0.  0.
        1    1    3    3  502    0  0.10797444079E+04  0.24782285690E+03 -0.10052562587E+04  0.14959292431E+04  0.50400001928E-02 0. -1.
       -1    1    3    3    0  502 -0.10797444079E+04 -0.24782285690E+03  0.10144811808E+04  0.15021438749E+04  0.50400001928E-02 0.  1.
</event>
<event>
 5   0  0.7278657E-07  0.2998907E+04  0.7818609E-02  0.8244043E-01
        2   -1    0    0  501    0  0.00000000000E+00  0.00000000000E+00  0.84617178978E+03  0.84617178979E+03  0.25500000920E-02 0. -1.
       -2   -1    0    0    0  501  0.00000000000E+00  0.00000000000E+00 -0.26570968792E+04  0.26570968792E+04  0.25500000920E-02 0.  1.
    10030    2    1    2    0    0  0.00000000000E+00  0.00000000000E+00 -0.18109250894E+04  0.35032686690E+04  0.29989067488E+04 0.  0.
        2    1    3    3  502    0 -0.67324790745E+03  0.12623120562E+04 -0.14300607150E+04  0.20228119341E+04  0.25500000920E-02 0.  1.
       -2    1    3    3    0  502  0.67324790745E+03 -0.12623120562E+04 -0.38086437447E+03  0.14804567349E+04  0.25500000920E-02 0. -1.
</event>
<event>
 5   0  0.7208273E-07  0.3015124E+04  0.7818609E-02  0.8239425E-01
        2   -1    0    0  501    0  0.00000000000E+00  0.00000000000E+00  0.25527790897E+04  0.25527790897E+04  0.25500000920E-02 0.  1.
       -2   -1    0    0    0  501  0.00000000000E+00  0.00000000000E+00 -0.89030138177E+03  0.89030138177E+03  0.25500000920E-02 0. -1.
    10030    2    1    2    0    0  0.00000000000E+00  0.00000000000E+00  0.16624777079E+04  0.34430804715E+04  0.30151237128E+04 0.  0.
        4    1    3    3  502    0  0.42381675458E+03 -0.76201929385E+03  0.22356107585E+04  0.23996356228E+04  0.12699999809E+01 0.  1.
       -4    1    3    3    0  502 -0.42381675458E+03  0.76201929385E+03 -0.57313305059E+03  0.10434448487E+04  0.12699999809E+01 0. -1.
</event>
<event>
 5   0  0.2792361E-07  0.2991298E+04  0.7818609E-02  0.8246220E-01
       -1   -1    0    0    0  501  0.00000000000E+00  0.00000000000E+00  0.13772775600E+04  0.13772775600E+04  0.50400001928E-02 0. -1.
        1   -1    0    0  501    0  0.00000000000E+00  0.00000000000E+00 -0.16241942675E+04  0.16241942675E+04  0.50400001928E-02 0.  1.
    10030    2    1    2    0    0  0.00000000000E+00  0.00000000000E+00 -0.24691670747E+03  0.30014718276E+04  0.29912982585E+04 0.  0.
        4    1    3    3  502    0 -0.59439725922E+03  0.11554957381E+04  0.61965900568E+03  0.14396032088E+04  0.12699999809E+01 0. -1.
       -4    1    3    3    0  502  0.59439725922E+03 -0.11554957381E+04 -0.86657571315E+03  0.15618686187E+04  0.12699999809E+01 0.  1.
</event>
<event>
 5   0  0.2640081E-07  0.2999893E+04  0.7818609E-02  0.8243761E-01
       -1   -1    0    0    0  501  0.00000000000E+00  0.00000000000E+00  0.27105238919E+04  0.27105238919E+04  0.50400001928E-02 0. -1.
        1   -1    0    0  501    0  0.00000000000E+00  0.00000000000E+00 -0.83003868719E+03  0.83003868721E+03  0.50400001928E-02 0.  1.
    10030    2    1    2    0    0  0.00000000000E+00  0.00000000000E+00  0.18804852047E+04  0.35405625791E+04  0.29998931267E+04 0.  0.
        1    1    3    3  502    0  0.19137968056E+03 -0.90650807450E+03 -0.45195643097E+03  0.10308480425E+04  0.50400001928E-02 0.  1.
       -1    1    3    3    0  502 -0.19137968056E+03  0.90650807450E+03  0.23324416357E+04  0.25097145366E+04  0.50400001928E-02 0. -1.
</event>
<event>
 5   0  0.7208273E-07  0.2997806E+04  0.7818609E-02  0.8244358E-01
        2   -1    0    0  501    0  0.00000000000E+00  0.00000000000E+00  0.24745574587E+04  0.24745574587E+04  0.25500000920E-02 0.  1.
       -2   -1    0    0    0  501  0.00000000000E+00  0.00000000000E+00 -0.90792413880E+03  0.90792413880E+03  0.25500000920E-02 0. -1.
    10030    2    1    2    0    0  0.00000000000E+00  0.00000000000E+00  0.15666333199E+04  0.33824815975E+04  0.29978061642E+04 0.  0.
        4    1    3    3  502    0  0.31163695441E+03  0.60794464522E+03  0.22886796376E+04  0.23884661143E+04  0.12699999809E+01 0.  1.
       -4    1    3    3    0  502 -0.31163695441E+03 -0.60794464522E+03 -0.72204631767E+03  0.99401548316E+03  0.12699999809E+01 0. -1.
</event>
<event>
 5   0  0.7399409E-07  0.3000747E+04  0.7818609E-02  0.8243518E-01
        2   -1    0    0  501    0  0.00000000000E+00  0.00000000000E+00  0.20958148675E+04  0.20958148675E+04  0.25500000920E-02 0. -1.
       -2   -1    0    0    0  501  0.00000000000E+00  0.00000000000E+00 -0.10741027563E+04  0.10741027563E+04  0.25500000920E-02 0.  1.
    10030    2    1    2    0    0  0.00000000000E+00  0.00000000000E+00  0.10217121111E+04  0.31699176238E+04  0.30007469243E+04 0.  0.
        3    1    3    3  502    0  0.13282598139E+04 -0.38234157719E+03  0.11274226727E+04  0.17836875029E+04  0.10100000352E+00 0. -1.
       -3    1    3    3    0  502 -0.13282598139E+04  0.38234157719E+03 -0.10571056161E+03  0.13862301209E+04  0.10100000352E+00 0.  1.
</event>
<event>
 5   0  0.2679935E-07  0.2997816E+04  0.7818609E-02  0.8244355E-01
        1   -1    0    0  501    0  0.00000000000E+00  0.00000000000E+00  0.29381695113E+04  0.29381695113E+04  0.50400001928E-02 0.  1.
       -1   -1    0    0    0  501  0.00000000000E+00  0.00000000000E+00 -0.76466845145E+03  0.76466845147E+03  0.50400001928E-02 0. -1.
    10030    2    1    2    0    0  0.00000000000E+00  0.00000000000E+00  0.21735010598E+04  0.37028379627E+04  0.29978162254E+04 0.  0.
        2    1    3    3  502    0 -0.37215613696E+03 -0.50425553262E+03 -0.59506713310E+03  0.86422145620E+03  0.25500000920E-02 0. -1.
       -2    1    3    3    0  502  0.37215613696E+03  0.50425553262E+03  0.27685681929E+04  0.28386165065E+04  0.25500000920E-02 0.  1.
</event>
<event>
 5   0  0.2621825E-07  0.2959522E+04  0.7818609E-02  0.8255385E-01
        1   -1    0    0  501    0  0.00000000000E+00  0.00000000000E+00  0.21590680830E+04  0.21590680830E+04  0.50400001928E-02 0. -1.
       -1   -1    0    0    0  501  0.00000000000E+00  0.00000000000E+00 -0.10141840356E+04  0.10141840356E+04  0.50400001928E-02 0.  1.
    10030    2    1    2    0    0  0.00000000000E+00  0.00000000000E+00  0.11448840473E+04  0.31732521186E+04  0.29595218408E+04 0.  0.
        3    1    3    3  502    0  0.12182467550E+04 -0.17207936987E+03 -0.30909836092E+03  0.12685733217E+04  0.10100000352E+00 0.  1.
       -3    1    3    3    0  502 -0.12182467550E+04  0.17207936987E+03  0.14539824083E+04  0.19046787969E+04  0.10100000352E+00 0. -1.
</event>
<event>
 5   0  0.7278657E-07  0.2994972E+04  0.7818609E-02  0.8245168E-01
       -2   -1    0    0    0  501  0.00000000000E+00  0.00000000000E+00  0.95859755159E+03  0.95859755159E+03  0.25500000920E-02 0.  1.
        2   -1    0    0  501    0  0.00000000000E+00  0.00000000000E+00 -0.23393171587E+04  0.23393171587E+04  0.25500000920E-02 0. -1.
    10030    2    1    2    0    0  0.00000000000E+00  0.00000000000E+00 -0.13807196071E+04  0.32979147103E+04  0.29949715863E+04 0.  0.
        2    1    3    3  502    0  0.37457136796E+03 -0.18522870946E+03 -0.22738167612E+04  0.23118944716E+04  0.25500000920E-02 0. -1.
       -2    1    3    3    0  502 -0.37457136796E+03  0.18522870946E+03  0.89309715405E+03  0.98602023868E+03  0.25500000920E-02 0.  1.
</event>
<event>
 5   0  0.7208273E-07  0.2998212E+04  0.7818609E-02  0.8244242E-01
       -2   -1    0    0    0  501  0.00000000000E+00  0.00000000000E+00  0.11492477786E+04  0.11492477786E+04  0.25500000920E-02 0. -1.
        2   -1    0    0  501    0  0.00000000000E+00  0.00000000000E+00 -0.19554699281E+04  0.19554699281E+04  0.25500000920E-02 0.  1.
    10030    2    1    2    0    0  0.00000000000E+00  0.00000000000E+00 -0.80622214943E+03  0.31047177067E+04  0.29982124481E+04 0.  0.
        4    1    3    3  502    0 -0.51073018360E+03  0.99246373288E+03 -0.14394042797E+04  0.18214598197E+04  0.12699999809E+01 0.  1.
       -4    1    3    3    0  502  0.51073018360E+03 -0.99246373288E+03  0.63318213027E+03  0.12832578870E+04  0.12699999809E+01 0. -1.
</event>
<event>
 5   0  0.2640081E-07  0.3009603E+04  0.7818609E-02  0.8240994E-01
       -1   -1    0    0    0  501  0.00000000000E+00  0.00000000000E+00  0.11313027118E+04  0.11313027119E+04  0.50400001928E-02 0. -1.
        1   -1    0    0  501    0  0.00000000000E+00  0.00000000000E+00 -0.20016103723E+04  0.20016103723E+04  0.50400001928E-02 0.  1.
    10030    2    1    2    0    0  0.00000000000E+00  0.00000000000E+00 -0.87030766047E+03  0.31329130842E+04  0.30096027926E+04 0.  0.
        1    1    3    3  502    0 -0.87394920916E+03  0.10504453754E+04 -0.10912179167E+04  0.17487078797E+04  0.50400001928E-02 0.  1.
       -1    1    3    3    0  502  0.87394920916E+03 -0.10504453754E+04  0.22091025620E+03  0.13842052045E+04  0.50400001928E-02 0. -1.
</event>
<event>
 5   0  0.2640081E-07  0.2990524E+04  0.7818609E-02  0.8246442E-01
        1   -1    0    0  501    0  0.00000000000E+00  0.00000000000E+00  0.17645884305E+04  0.17645884305E+04  0.50400001928E-02 0. -1.
       -1   -1    0    0    0  501  0.00000000000E+00  0.00000000000E+00 -0.12670423727E+04  0.12670423727E+04  0.50400001928E-02 0.  1.
    10030    2    1    2    0    0  0.00000000000E+00  0.00000000000E+00  0.49754605789E+03  0.30316308032E+04  0.29905239085E+04 0.  0.
        1    1    3    3  502    0 -0.31260746641E+03  0.14584123040E+04  0.14187963480E+03  0.14982722407E+04  0.50400001928E-02 0. -1.
       -1    1    3    3    0  502  0.31260746641E+03 -0.14584123040E+04  0.35566642309E+03  0.15333585625E+04  0.50400001928E-02 0.  1.
</event>
<event>
 5   0  0.7399409E-07  0.3006956E+04  0.7818609E-02  0.8241747E-01
        2   -1    0    0  501    0  0.00000000000E+00  0.00000000000E+00  0.27224914429E+04  0.27224914429E+04  0.25500000920E-02 0.  1.
       -2   -1    0    0    0  501  0.00000000000E+00  0.00000000000E+00 -0.83028611388E+03  0.83028611388E+03  0.25500000920E-02 0. -1.
    10030    2    1    2    0    0  0.00000000000E+00  0.00000000000E+00  0.18922053290E+04  0.35527775568E+04  0.30069564946E+04 0.  0.
        3    1    3    3  502    0 -0.23770163234E+03  0.13128261449E+04  0.12715346896E+03  0.13402173584E+04  0.10100000352E+00 0. -1.
       -3    1    3    3    0  502  0.23770163234E+03 -0.13128261449E+04  0.17650518600E+04  0.22125601984E+04  0.10100000352E+00 0.  1.
</event>
<event>
 5   0  0.2792361E-07  0.3004020E+04  0.7818609E-02  0.8242584E-01
       -1   -1    0    0    0  501  0.00000000000E+00  0.00000000000E+00  0.20966246795E+04  0.20966246795E+04  0.50400001928E-02 0. -1.
        1   -1    0    0  501    0  0.00000000000E+00  0.00000000000E+00 -0.10760312010E+04  0.10760312010E+04  0.50400001928E-02 0.  1.
    10030    2    1    2    0    0  0.00000000000E+00  0.00000000000E+00  0.10205934785E+04  0.31726558805E+04  0.30040196883E+04 0.  0.
        4    1    3    3  502    0  0.22073153372E+03  0.70085449702E+03  0.18938410563E+04  0.20313923785E+04  0.12699999809E+01 0. -1.
       -4    1    3    3    0  502 -0.22073153372E+03 -0.70085449702E+03 -0.87324757783E+03  0.11412635020E+04  0.12699999809E+01 0.  1.
</event>
<event>
 5   0  0.2621825E-07  0.2998648E+04  0.7818609E-02  0.8244117E-01
       -1   -1    0    0    0  501  0.00000000000E+00  0.00000000000E+00  0.18094351603E+04  0.18094351604E+04  0.50400001928E-02 0. -1.
        1   -1    0    0  501    0  0.00000000000E+00  0.00000000000E+00 -0.12423617004E+04  0.12423617004E+04  0.50400001928E-02 0.  1.
    10030    2    1    2    0    0  0.00000000000E+00  0.00000000000E+00  0.56707346000E+03  0.30517968607E+04  0.29986483238E+04 0.  0.
        3    1    3    3  502    0 -0.10298728925E+04 -0.10181179144E+04  0.67871087203E+03  0.15993282090E+04  0.10100000352E+00 0. -1.
       -3    1    3    3    0  502  0.10298728925E+04  0.10181179144E+04 -0.11163741204E+03  0.14524686517E+04  0.10100000352E+00 0.  1.
</event>
<event>
 5   0  0.2640081E-07  0.3021788E+04  0.7818609E-02  0.8237536E-01
        1   -1    0    0  501    0  0.00000000000E+00  0.00000000000E+00  0.25384650333E+04  0.25384650333E+04  0.50400001928E-02 0. -1.
       -1   -1    0    0    0  501  0.00000000000E+00  0.00000000000E+00 -0.89928405900E+03  0.89928405901E+03  0.50400001928E-02 0.  1.
    10030    2    1    2    0    0  0.00000000000E+00  0.00000000000E+00  0.16391809743E+04  0.34377490923E+04  0.30217883042E+04 0.  0.
        1    1    3    3  502    0  0.11552460767E+04  0.70656921868E+03  0.15818759384E+04  0.20823460431E+04  0.50400001928E-02 0. -1.
       -1    1    3    3    0  502 -0.11552460767E+04 -0.70656921868E+03  0.57305035842E+02  0.13554030492E+04  0.50400001928E-02 0.  1.
</event>
<event>
 5   0  0.2621825E-07  0.2994210E+04  0.7818609E-02  0.8245386E-01
       -1   -1    0    0    0  501  0.00000000000E+00  0.00000000000E+00  0.71890728725E+03  0.71890728726E+03  0.50400001928E-02 0.  1.
        1   -1    0    0  501    0  0.00000000000E+00  0.00000000000E+00 -0.31176801132E+04  0.31176801132E+04  0.50400001928E-02 0. -1.
    10030    2    1    2    0    0  0.00000000000E+00  0.00000000000E+00 -0.23987728260E+04  0.38365874005E+04  0.29942097139E+04 0.  0.
        3    1    3    3  502    0  0.12592257925E+04  0.64882099745E+02 -0.22335946167E+04  0.25649179724E+04  0.10100000352E+00 0. -1.
       -3    1    3    3    0  502 -0.12592257925E+04 -0.64882099745E+02 -0.16517820930E+03  0.12716694281E+04  0.10100000352E+00 0.  1.
</event>
<event>
 5   0  0.7585823E-07  0.2994257E+04  0.7818609E-02  0.8245373E-01
       -2   -1    0    0    0  501  0.00000000000E+00  0.00000000000E+00  0.96978684778E+03  0.96978684778E+03  0.25500000920E-02 0.  1.
        2   -1    0    0  501    0  0.00000000000E+00  0.00000000000E+00 -0.23112233838E+04  0.23112233838E+04  0.25500000920E-02 0. -1.
    10030    2    1    2    0    0  0.00000000000E+00  0.00000000000E+00 -0.13414365360E+04  0.32810102316E+04  0.29942571966E+04 0.  0.
        5    1    3    3  502    0 -0.77618961467E+03 -0.92096355690E+03 -0.16451063767E+04  0.20388823585E+04  0.46999998093E+01 0. -1.
       -5    1    3    3    0  502  0.77618961467E+03  0.92096355690E+03  0.30366984066E+03  0.12421278731E+04  0.46999998093E+01 0.  1.
</event>
<event>
 5   0  0.2792361E-07  0.2999473E+04  0.7818609E-02  0.8243881E-01
        1   -1    0    0  501    0  0.00000000000E+00  0.00000000000E+00  0.19664891587E+04  0.19664891587E+04  0.50400001928E-02 0.  1.
       -1   -1    0    0    0  501  0.00000000000E+00  0.00000000000E+00 -0.11437693562E+04  0.11437693563E+04  0.50400001928E-02 0. -1.
    10030    2    1    2    0    0  0.00000000000E+00  0.00000000000E+00  0.82271980247E+03  0.31102585150E+04  0.29994733132E+04 0.  0.
        4    1    3    3  502    0 -0.76735098613E+03 -0.65763561770E+02 -0.92304921567E+03  0.12021538377E+04  0.12699999809E+01 0. -1.
       -4    1    3    3    0  502  0.76735098613E+03  0.65763561770E+02  0.17457690181E+04  0.19081046773E+04  0.12699999809E+01 0.  1.
</event>
<event>
 5   0  0.2640081E-07  0.2964227E+04  0.7818609E-02  0.8254020E-01
       -1   -1    0    0    0  501  0.00000000000E+00  0.00000000000E+00  0.71999327138E+03  0.71999327140E+03  0.50400001928E-02 0. -1.
        1   -1    0    0  501    0  0.00000000000E+00  0.00000000000E+00 -0.30509457556E+04  0.30509457556E+04  0.50400001928E-02 0.  1.
    10030    2    1    2    0    0  0.00000000000E+00  0.00000000000E+00 -0.23309524842E+04  0.37709390270E+04  0.29642269922E+04 0.  0.
        1    1    3    3  502    0 -0.10684038119E+04  0.14650013325E+03 -0.24588906962E+04  0.26849753165E+04  0.50400001928E-02 0.  1.
       -1    1    3    3    0  502  0.10684038119E+04 -0.14650013325E+03  0.12793821206E+03  0.10859637104E+04  0.50400001928E-02 0. -1.
</event>
<event>
 5   0  0.2621825E-07  0.3004478E+04  0.7818609E-02  0.8242453E-01
       -1   -1    0    0    0  501  0.00000000000E+00  0.00000000000E+00  0.19817441250E+04  0.19817441250E+04  0.50400001928E-02 0. -1.
        1   -1    0    0  501    0  0.00000000000E+00  0.00000000000E+00 -0.11387551988E+04  0.11387551988E+04  0.50400001928E-02 0.  1.
    10030    2    1    2    0    0  0.00000000000E+00  0.00000000000E+00  0.84298892623E+03  0.31204993238E+04  0.30044776085E+04 0.  0.
        3    1    3    3  502    0 -0.12391303340E+04  0.59969005873E+03 -0.20310112714E+03  0.13915179586E+04  0.10100000352E+00 0.  1.
       -3    1    3    3    0  502  0.12391303340E+04 -0.59969005873E+03  0.10460900534E+04  0.17289813652E+04  0.10100000352E+00 0. -1.
</event>
<event>
 5   0  0.7585823E-07  0.3001263E+04  0.7818609E-02  0.8243370E-01
        2   -1    0    0  501    0  0.00000000000E+00  0.00000000000E+00  0.18337062788E+04  0.18337062788E+04  0.25500000920E-02 0.  1.
       -2   -1    0    0    0  501  0.00000000000E+00  0.00000000000E+00 -0.12280562509E+04  0.12280562509E+04  0.25500000920E-02 0. -1.
    10030    2    1    2    0    0  0.00000000000E+00  0.00000000000E+00  0.60565002786E+03  0.30617625298E+04  0.30012627063E+04 0.  0.
        5    1    3    3  502    0 -0.10839152998E+04  0.62767974191E+03  0.11459337876E+04  0.16976573774E+04  0.46999998093E+01 0. -1.
       -5    1    3    3    0  502  0.10839152998E+04 -0.62767974191E+03 -0.54028375975E+03  0.13641051523E+04  0.46999998093E+01 0.  1.
</event>
<event>
 5   0  0.7208273E-07  0.2988204E+04  0.7818609E-02  0.8247107E-01
       -2   -1    0    0    0  501  0.00000000000E+00  0.00000000000E+00  0.12870740333E+04  0.12870740333E+04  0.25500000920E-02 0.  1.
        2   -1    0    0  501    0  0.00000000000E+00  0.00000000000E+00 -0.17344308201E+04  0.17344308201E+04  0.25500000920E-02 0. -1.
    10030    2    1    2    0    0  0.00000000000E+00  0.00000000000E+00 -0.44735678681E+03  0.30215048534E+04  0.29882040567E+04 0.  0.
        4    1    3    3  502    0 -0.55419696388E+03  0.13399699859E+04 -0.58781020532E+03  0.15646649124E+04  0.12699999809E+01 0. -1.
       -4    1    3    3    0  502  0.55419696388E+03 -0.13399699859E+04  0.14045341851E+03  0.14568399409E+04  0.12699999809E+01 0.  1.
</event>
<event>
 5   0  0.2602891E-07  0.3001157E+04  0.7818609E-02  0.8243401E-01
       -1   -1    0    0    0  501  0.00000000000E+00  0.00000000000E+00  0.13043436642E+04  0.13043436642E+04  0.50400001928E-02 0.  1.
        1   -1    0    0  501    0  0.00000000000E+00  0.00000000000E+00 -0.17263365483E+04  0.17263365483E+04  0.50400001928E-02 0. -1.
    10030    2    1    2    0    0  0.00000000000E+00  0.00000000000E+00 -0.42199288408E+03  0.30306802126E+04  0.30011572029E+04 0.  0.
        5    1    3    3  502    0 -0.41270334418E+03 -0.13597028951E+04  0.27603207399E+03  0.14475260996E+04  0.46999998093E+01 0.  1.
       -5    1    3    3    0  502  0.41270334418E+03  0.13597028951E+04 -0.69802495807E+03  0.15831541129E+04  0.46999998093E+01 0. -1.
</event>
<event>
 5   0  0.7208273E-07  0.2998674E+04  0.7818609E-02  0.8244110E-01
        2   -1    0    0  501    0  0.00000000000E+00  0.00000000000E+00  0.19914374150E+04  0.19914374150E+04  0.25500000920E-02 0.  1.
       -2   -1    0    0    0  501  0.00000000000E+00  0.00000000000E+00 -0.11288383670E+04  0.11288383670E+04  0.25500000920E-02 0. -1.
    10030    2    1    2    0    0  0.00000000000E+00  0.00000000000E+00  0.86259904800E+03  0.31202757821E+04  0.29986736799E+04 0.  0.
        4    1    3    3  502    0 -0.13286611807E+04 -0.68545975250E+03  0.31351133364E+03  0.15275753908E+04  0.12699999809E+01 0.  1.
       -4    1    3    3    0  502  0.13286611807E+04  0.68545975250E+03  0.54908771436E+03  0.15927003913E+04  0.12699999809E+01 0. -1.
</event>
<event>
 5   0  0.2621825E-07  0.2992688E+04  0.7818609E-02  0.8245822E-01
        1   -1    0    0  501    0  0.00000000000E+00  0.00000000000E+00  0.20445122230E+04  0.20445122230E+04  0.50400001928E-02 0. -1.
       -1   -1    0    0    0  501  0.00000000000E+00  0.00000000000E+00 -0.10951486742E+04  0.10951486742E+04  0.50400001928E-02 0.  1.
    10030    2    1    2    0    0  0.00000000000E+00  0.00000000000E+00  0.94936354886E+03  0.31396608972E+04  0.29926876552E+04 0.  0.
        3    1    3    3  502    0  0.52098634636E+03  0.60828487918E+03  0.18007211101E+04  0.19707952186E+04  0.10100000352E+00 0. -1.
       -3    1    3    3    0  502 -0.52098634636E+03 -0.60828487918E+03 -0.85135756121E+03  0.11688656786E+04  0.10100000352E+00 0.  1.
</event>
<event>
 5   0  0.7278657E-07  0.3001726E+04  0.7818609E-02  0.8243238E-01
        2   -1    0    0  501    0  0.00000000000E+00  0.00000000000E+00  0.19676048730E+04  0.19676048730E+04  0.25500000920E-02 0.  1.
       -2   -1    0    0    0  501  0.00000000000E+00  0.00000000000E+00 -0.11448381940E+04  0.11448381940E+04  0.25500000920E-02 0. -1.
    10030    2    1    2    0    0  0.00000000000E+00  0.00000000000E+00  0.82276667892E+03  0.31124430670E+04  0.30017256433E+04 0.  0.
        2    1    3    3  502    0  0.35466299485E+03 -0.13939998373E+04 -0.32867952328E+02  0.14387847958E+04  0.25500000920E-02 0. -1.
       -2    1    3    3    0  502 -0.35466299485E+03  0.13939998373E+04  0.85563463125E+03  0.16736582712E+04  0.25500000920E-02 0.  1.
</event>
<event>
 5   0  0.7307508E-07  0.3019446E+04  0.7818609E-02  0.8238200E-01
        2   -1    0    0  501    0  0.00000000000E+00  0.00000000000E+00  0.21988710777E+04  0.21988710777E+04  0.25500000920E-02 0. -1.
       -2   -1    0    0    0  501  0.00000000000E+00  0.00000000000E+00 -0.10365610811E+04  0.10365610811E+04  0.25500000920E-02 0.  1.
    10030    2    1    2    0    0  0.00000000000E+00  0.00000000000E+00  0.11623099966E+04  0.32354321587E+04  0.30194464270E+04 0.  0.
        1    1    3    3  502    0  0.13568411035E+04  0.16442925988E+03 -0.10597118325E+03  0.13708700351E+04  0.50400001928E-02 0.  1.
       -1    1    3    3    0  502 -0.13568411035E+04 -0.16442925988E+03  0.12682811798E+04  0.18645621236E+04  0.50400001928E-02 0. -1.
</event>
<event>
 5   0  0.2792361E-07  0.2996142E+04  0.7818609E-02  0.8244833E-01
        1   -1    0    0  501    0  0.00000000000E+00  0.00000000000E+00  0.23949043173E+04  0.23949043173E+04  0.50400001928E-02 0.  1.
       -1   -1    0    0    0  501  0.00000000000E+00  0.00000000000E+00 -0.93708013015E+03  0.93708013016E+03  0.50400001928E-02 0. -1.
    10030    2    1    2    0    0  0.00000000000E+00  0.00000000000E+00  0.14578241871E+04  0.33319844474E+04  0.29961423527E+04 0.  0.
        4    1    3    3  502    0  0.75475130798E+03 -0.48443849230E+03  0.20633688135E+04  0.22498494757E+04  0.12699999809E+01 0.  1.
       -4    1    3    3    0  502 -0.75475130798E+03  0.48443849230E+03 -0.60554462637E+03  0.10821349718E+04  0.12699999809E+01 0. -1.
</event>
<event>
 5   0  0.7307508E-07  0.3001324E+04  0.7818609E-02  0.8243353E-01
       -2   -1    0    0    0  501  0.00000000000E+00  0.00000000000E+00  0.12338576494E+04  0.12338576494E+04  0.25500000920E-02 0.  1.
        2   -1    0    0  501    0  0.00000000000E+00  0.00000000000E+00 -0.18251588182E+04  0.18251588182E+04  0.25500000920E-02 0. -1.
    10030    2    1    2    0    0  0.00000000000E+00  0.00000000000E+00 -0.59130116884E+03  0.30590164676E+04  0.30013238207E+04 0.  0.
        1    1    3    3  502    0 -0.12708593448E+04 -0.73150401997E+03  0.29550947782E+02  0.14666474914E+04  0.50400001928E-02 0.  1.
       -1    1    3    3    0  502  0.12708593448E+04  0.73150401997E+03 -0.62085211662E+03  0.15923689762E+04  0.50400001928E-02 0. -1.
</event>
<event>
 5   0  0.2679935E-07  0.2995929E+04  0.7818609E-02  0.8244894E-01
        1   -1    0    0  501    0  0.00000000000E+00  0.00000000000E+00  0.13224031272E+04  0.13224031272E+04  0.50400001928E-02 0.  1.
       -1   -1    0    0    0  501  0.00000000000E+00  0.00000000000E+00 -0.16968334859E+04  0.16968334859E+04  0.50400001928E-02 0. -1.
    10030    2    1    2    0    0  0.00000000000E+00  0.00000000000E+00 -0.37443035871E+03  0.30192366130E+04  0.29959291767E+04 0.  0.
        2    1    3    3  502    0  0.33377525443E+03  0.13387344994E+04  0.40065989823E+03  0.14367130313E+04  0.25500000920E-02 0.  1.
       -2    1    3    3    0  502 -0.33377525443E+03 -0.13387344994E+04 -0.77509025694E+03  0.15825235817E+04  0.25500000920E-02 0. -1.
</event>
<event>
 5   0  0.7208273E-07  0.3003960E+04  0.7818609E-02  0.8242601E-01
        2   -1    0    0  501    0  0.00000000000E+00  0.00000000000E+00  0.19615766562E+04  0.19615766562E+04  0.25500000920E-02 0.  1.
       -2   -1    0    0    0  501  0.00000000000E+00  0.00000000000E+00 -0.11500670456E+04  0.11500670456E+04  0.25500000920E-02 0. -1.
    10030    2    1    2    0    0  0.00000000000E+00  0.00000000000E+00  0.81150961058E+03  0.31116437019E+04  0.30039604990E+04 0.  0.
        4    1    3    3  502    0  0.30898315723E+03 -0.89702119108E+03  0.16118942913E+04  0.18703802896E+04  0.12699999809E+01 0.  1.
       -4    1    3    3    0  502 -0.30898315723E+03  0.89702119108E+03 -0.80038468067E+03  0.12412634123E+04  0.12699999809E+01 0. -1.
</event>
<event>
 5   0  0.7399409E-07  0.3002036E+04  0.7818609E-02  0.8243150E-01
       -2   -1    0    0    0  501  0.00000000000E+00  0.00000000000E+00  0.10172030297E+04  0.10172030297E+04  0.25500000920E-02 0. -1.
        2   -1    0    0  501    0  0.00000000000E+00  0.00000000000E+00 -0.22149513020E+04  0.22149513020E+04  0.25500000920E-02 0.  1.
    10030    2    1    2    0    0  0.00000000000E+00  0.00000000000E+00 -0.11977482723E+04  0.32321543317E+04  0.30020360924E+04 0.  0.
        3    1    3    3  502    0 -0.85238433308E+02  0.81071857262E+03 -0.19558533755E+04  0.21189366746E+04  0.10100000352E+00 0.  1.
       -3    1    3    3    0  502  0.85238433308E+02 -0.81071857262E+03  0.75810510314E+03  0.11132176571E+04  0.10100000352E+00 0. -1.
</event>
<event>
 5   0  0.2679935E-07  0.2992506E+04  0.7818609E-02  0.8245874E-01
       -1   -1    0    0    0  501  0.00000000000E+00  0.00000000000E+00  0.22868910446E+04  0.22868910446E+04  0.50400001928E-02 0.  1.
        1   -1    0    0  501    0  0.00000000000E+00  0.00000000000E+00 -0.97895917312E+03  0.97895917313E+03  0.50400001928E-02 0. -1.
    10030    2    1    2    0    0  0.00000000000E+00  0.00000000000E+00  0.13079318715E+04  0.32658502177E+04  0.29925059506E+04 0.  0.
        2    1    3    3  502    0 -0.50937931890E+03  0.13484680423E+04  0.21614883760E+03  0.14575848763E+04  0.25500000920E-02 0. -1.
       -2    1    3    3    0  502  0.50937931890E+03 -0.13484680423E+04  0.10917830339E+04  0.18082653414E+04  0.25500000920E-02 0.  1.
</event>
<event>
 5   0  0.2792361E-07  0.3011361E+04  0.7818609E-02  0.8240494E-01
       -1   -1    0    0    0  501  0.00000000000E+00  0.00000000000E+00  0.98425290835E+03  0.98425290836E+03  0.50400001928E-02 0. -1.
        1   -1    0    0  501    0  0.00000000000E+00  0.00000000000E+00 -0.23033447470E+04  0.23033447470E+04  0.50400001928E-02 0.  1.
    10030    2    1    2    0    0  0.00000000000E+00  0.00000000000E+00 -0.13190918387E+04  0.32875976554E+04  0.30113609988E+04 0.  0.
        4    1    3    3  502    0 -0.39931465329E+02  0.14951504755E+04 -0.47044400851E+03  0.15679249485E+04  0.12699999809E+01 0.  1.
       -4    1    3    3    0  502  0.39931465329E+02 -0.14951504755E+04 -0.84864783017E+03  0.17196727069E+04  0.12699999809E+01 0. -1.
</event>
<event>
 5   0  0.2621825E-07  0.2997865E+04  0.7818609E-02  0.8244341E-01
        1   -1    0    0  501    0  0.00000000000E+00  0.00000000000E+00  0.27265511100E+04  0.27265511100E+04  0.50400001928E-02 0.  1.
       -1   -1    0    0    0  501  0.00000000000E+00  0.00000000000E+00 -0.82404412223E+03  0.82404412224E+03  0.50400001928E-02 0. -1.
    10030    2    1    2    0    0  0.00000000000E+00  0.00000000000E+00  0.19025069877E+04  0.35505952322E+04  0.29978648510E+04 0.  0.
        3    1    3    3  502    0  0.80329261750E+03  0.63247269215E+03 -0.34697334090E+03  0.10796718229E+04  0.10100000352E+00 0. -1.
       -3    1    3    3    0  502 -0.80329261750E+03 -0.63247269215E+03  0.22494803286E+04  0.24709234093E+04  0.10100000352E+00 0.  1.
</event>
<event>
 5   0  0.2621825E-07  0.2999510E+04  0.7818609E-02  0.8243871E-01
        1   -1    0    0  501    0  0.00000000000E+00  0.00000000000E+00  0.20845827684E+04  0.20845827684E+04  0.50400001928E-02 0. -1.
       -1   -1    0    0    0  501  0.00000000000E+00  0.00000000000E+00 -0.10790000112E+04  0.10790000112E+04  0.50400001928E-02 0.  1.
    10030    2    1    2    0    0  0.00000000000E+00  0.00000000000E+00  0.10055827571E+04  0.31635827796E+04  0.29995098470E+04 0.  0.
        3    1    3    3  502    0 -0.19770997498E+03  0.12880402457E+04  0.12857793927E+04  0.18306735278E+04  0.10100000352E+00 0. -1.
       -3    1    3    3    0  502  0.19770997498E+03 -0.12880402457E+04 -0.28019663555E+03  0.13329092518E+04  0.10100000352E+00 0.  1.
</event>
<event>
 5   0  0.7307508E-07  0.3004451E+04  0.7818609E-02  0.8242461E-01
       -2   -1    0    0    0  501  0.00000000000E+00  0.00000000000E+00  0.33762194715E+04  0.33762194715E+04  0.25500000920E-02 0.  1.
        2   -1    0    0  501    0  0.00000000000E+00  0.00000000000E+00 -0.66840467064E+03  0.66840467064E+03  0.25500000920E-02 0. -1.
    10030    2    1    2    0    0  0.00000000000E+00  0.00000000000E+00  0.27078148008E+04  0.40446241421E+04  0.30044506079E+04 0.  0.
        1    1    3    3  502    0  0.47545215601E+03  0.14243035276E+04  0.14138942387E+04  0.20624723536E+04  0.50400001928E-02 0.  1.
       -1    1    3    3    0  502 -0.47545215601E+03 -0.14243035276E+04  0.12939205621E+04  0.19821517885E+04  0.50400001928E-02 0. -1.
</event>
<event>
 5   0  0.7585823E-07  0.3000964E+04  0.7818609E-02  0.8243456E-01
        2   -1    0    0  501    0  0.00000000000E+00  0.00000000000E+00  0.17377515839E+04  0.17377515839E+04  0.25500000920E-02 0. -1.
       -2   -1    0    0    0  501  0.00000000000E+00  0.00000000000E+00 -0.12956086373E+04  0.12956086373E+04  0.25500000920E-02 0.  1.
    10030    2    1    2    0    0  0.00000000000E+00  0.00000000000E+00  0.44214294668E+03  0.30333602212E+04  0.30009638195E+04 0.  0.
        5    1    3    3  502    0 -0.75596502010E+03  0.12902631612E+04  0.34553373073E+03  0.15348217440E+04  0.46999998093E+01 0.  1.
       -5    1    3    3    0  502  0.75596502010E+03 -0.12902631612E+04  0.96609215950E+02  0.14985384771E+04  0.46999998093E+01 0. -1.
</event>
<event>
 5   0  0.7278657E-07  0.2999140E+04  0.7818609E-02  0.8243976E-01
       -2   -1    0    0    0  501  0.00000000000E+00  0.00000000000E+00  0.14938484615E+04  0.14938484615E+04  0.25500000920E-02 0. -1.
        2   -1    0    0  501    0  0.00000000000E+00  0.00000000000E+00 -0.15053136366E+04  0.15053136366E+04  0.25500000920E-02 0.  1.
    10030    2    1    2    0    0  0.00000000000E+00  0.00000000000E+00 -0.11465175078E+02  0.29991620981E+04  0.29991401835E+04 0.  0.
        2    1    3    3  502    0 -0.46255637702E+03 -0.86717514747E+03  0.11268653411E+04  0.14952513619E+04  0.25500000920E-02 0. -1.
       -2    1    3    3    0  502  0.46255637702E+03  0.86717514747E+03 -0.11383305162E+04  0.15039107362E+04  0.25500000920E-02 0.  1.
</event>
<event>
 5   0  0.2621825E-07  0.3000304E+04  0.7818609E-02  0.8243644E-01
        1   -1    0    0  501    0  0.00000000000E+00  0.00000000000E+00  0.16073582782E+04  0.16073582782E+04  0.50400001928E-02 0.  1.
       -1   -1    0    0    0  501  0.00000000000E+00  0.00000000000E+00 -0.14000960483E+04  0.14000960483E+04  0.50400001928E-02 0. -1.
    10030    2    1    2    0    0  0.00000000000E+00  0.00000000000E+00  0.20726222993E+03  0.30074543265E+04  0.30003039670E+04 0.  0.
        3    1    3    3  502    0  0.54503506186E+03  0.10370836346E+04  0.10428006799E+04  0.15684511315E+04  0.10100000352E+00 0.  1.
       -3    1    3    3    0  502 -0.54503506186E+03 -0.10370836346E+04 -0.83553844993E+03  0.14390031950E+04  0.10100000352E+00 0. -1.
</event>
<event>
 5   0  0.7278657E-07  0.2995087E+04  0.7818609E-02  0.8245135E-01
       -2   -1    0    0    0  501  0.00000000000E+00  0.00000000000E+00  0.11700250002E+04  0.11700250002E+04  0.25500000920E-02 0. -1.
        2   -1    0    0  501    0  0.00000000000E+00  0.00000000000E+00 -0.19167424454E+04  0.19167424454E+04  0.25500000920E-02 0.  1.
    10030    2    1    2    0    0  0.00000000000E+00  0.00000000000E+00 -0.74671744526E+03  0.30867674456E+04  0.29950870305E+04 0.  0.
        2    1    3    3  502    0 -0.17730653010E+03 -0.70727055676E+03 -0.17214376618E+04  0.18694964214E+04  0.25500000920E-02 0.  1.
       -2    1    3    3    0  502  0.17730653010E+03  0.70727055676E+03  0.97472021651E+03  0.12172710243E+04  0.25500000920E-02 0. -1.
</event>
<event>
 5   0  0.2640081E-07  0.3010559E+04  0.7818609E-02  0.8240722E-01
       -1   -1    0    0    0  501  0.00000000000E+00  0.00000000000E+00  0.12972955674E+04  0.12972955674E+04  0.50400001928E-02 0.  1.
        1   -1    0    0  501    0  0.00000000000E+00  0.00000000000E+00 -0.17466076428E+04  0.17466076428E+04  0.50400001928E-02 0. -1.
    10030    2    1    2    0    0  0.00000000000E+00  0.00000000000E+00 -0.44931207546E+03  0.30439032102E+04  0.30105589866E+04 0.  0.
        1    1    3    3  502    0 -0.13377135342E+04 -0.18587818099E+03 -0.89672727037E+03  0.16211563759E+04  0.50400001928E-02 0. -1.
       -1    1    3    3    0  502  0.13377135342E+04  0.18587818099E+03  0.44741519490E+03  0.14227468343E+04  0.50400001928E-02 0.  1.
</event>
<event>
 5   0  0.2602891E-07  0.2999993E+04  0.7818609E-02  0.8243733E-01
        1   -1    0    0  501    0  0.00000000000E+00  0.00000000000E+00  0.13538315367E+04  0.13538315367E+04  0.50400001928E-02 0. -1.
       -1   -1    0    0    0  501  0.00000000000E+00  0.00000000000E+00 -0.16619423155E+04  0.16619423155E+04  0.50400001928E-02 0.  1.
    10030    2    1    2    0    0  0.00000000000E+00  0.00000000000E+00 -0.30811077884E+03  0.30157738522E+04  0.29999932793E+04 0.  0.
        5    1    3    3  502    0 -0.12114551232E+04 -0.29509179546E+03  0.68415631108E+03  0.14222498484E+04  0.46999998093E+01 0. -1.
       -5    1    3    3    0  502  0.12114551232E+04  0.29509179546E+03 -0.99226708992E+03  0.15935240039E+04  0.46999998093E+01 0.  1.
</event>
<event>
 5   0  0.7208273E-07  0.3002600E+04  0.7818609E-02  0.8242989E-01
        2   -1    0    0  501    0  0.00000000000E+00  0.00000000000E+00  0.14928765312E+04  0.14928765312E+04  0.25500000920E-02 0. -1.
       -2   -1    0    0    0  501  0.00000000000E+00  0.00000000000E+00 -0.15097707487E+04  0.15097707487E+04  0.25500000920E-02 0.  1.
    10030    2    1    2    0    0  0.00000000000E+00  0.00000000000E+00 -0.16894217509E+02  0.30026472799E+04  0.30025997524E+04 0.  0.
        4    1    3    3  502    0 -0.10063930402E+04  0.73189539457E+03 -0.84834246944E+03  0.15060492616E+04  0.12699999809E+01 0.  1.
       -4    1    3    3    0  502  0.10063930402E+04 -0.73189539457E+03  0.83144825193E+03  0.14965980183E+04  0.12699999809E+01 0. -1.
</event>
<event>
 5   0  0.2621825E-07  0.3001619E+04  0.7818609E-02  0.8243269E-01
       -1   -1    0    0    0  501  0.00000000000E+00  0.00000000000E+00  0.17254190848E+04  0.17254190848E+04  0.50400001928E-02 0.  1.
        1   -1    0    0  501    0  0.00000000000E+00  0.00000000000E+00 -0.13054386297E+04  0.13054386297E+04  0.50400001928E-02 0. -1.
    10030    2    1    2    0    0  0.00000000000E+00  0.00000000000E+00  0.41998045510E+03  0.30308577144E+04  0.30016187137E+04 0.  0.
        3    1    3    3  502    0  0.42130305234E+03 -0.13964449516E+04 -0.14682711158E+03  0.14659853259E+04  0.10100000352E+00 0. -1.
       -3    1    3    3    0  502 -0.42130305234E+03  0.13964449516E+04  0.56680756668E+03  0.15648723886E+04  0.10100000352E+00 0.  1.
</event>
<event>
 5   0  0.2414250E-07  0.2994723E+04  0.7818609E-02  0.8245239E-01
        3   -1    0    0  501    0  0.00000000000E+00  0.00000000000E+00  0.18160252501E+04  0.18160252529E+04  0.10100000352E+00 0. -1.
       -3   -1    0    0    0  501  0.00000000000E+00  0.00000000000E+00 -0.12346149434E+04  0.12346149475E+04  0.10100000352E+00 0.  1.
    10030    2    1    2    0    0  0.00000000000E+00  0.00000000000E+00  0.58141030674E+03  0.30506402005E+04  0.29947233074E+04 0.  0.
        5    1    3    3  502    0  0.41449656308E+02 -0.11652962367E+04  0.12476259716E+04  0.17076961229E+04  0.46999998093E+01 0. -1.
       -5    1    3    3    0  502 -0.41449656308E+02  0.11652962367E+04 -0.66621566482E+03  0.13429440775E+04  0.46999998093E+01 0.  1.
</event>
<event>
 5   0  0.2640081E-07  0.2984766E+04  0.7818609E-02  0.8248094E-01
        1   -1    0    0  501    0  0.00000000000E+00  0.00000000000E+00  0.24176008048E+04  0.24176008048E+04  0.50400001928E-02 0.  1.
       -1   -1    0    0    0  501  0.00000000000E+00  0.00000000000E+00 -0.92124687875E+03  0.92124687877E+03  0.50400001928E-02 0. -1.
    10030    2    1    2    0    0  0.00000000000E+00  0.00000000000E+00  0.14963539261E+04  0.33388476836E+04  0.29847661185E+04 0.  0.
        1    1    3    3  502    0  0.60481003663E+03 -0.87003452756E+03 -0.42742339983E+03  0.11425611679E+04  0.50400001928E-02 0. -1.
       -1    1    3    3    0  502 -0.60481003663E+03  0.87003452756E+03  0.19237773259E+04  0.21962865158E+04  0.50400001928E-02 0.  1.
</event>
<event>
 5   0  0.2679935E-07  0.3002730E+04  0.7818609E-02  0.8242952E-01
       -1   -1    0    0    0  501  0.00000000000E+00  0.00000000000E+00  0.98326989454E+03  0.98326989455E+03  0.50400001928E-02 0.  1.
        1   -1    0    0  501    0  0.00000000000E+00  0.00000000000E+00 -0.22924500392E+04  0.22924500392E+04  0.50400001928E-02 0. -1.
    10030    2    1    2    0    0  0.00000000000E+00  0.00000000000E+00 -0.13091801446E+04  0.32757199337E+04  0.30027301632E+04 0.  0.
        2    1    3    3  502    0  0.48134593229E+03  0.14149805879E+04 -0.80976518644E+03  0.16998775332E+04  0.25500000920E-02 0. -1.
       -2    1    3    3    0  502 -0.48134593229E+03 -0.14149805879E+04 -0.49941495819E+03  0.15758424005E+04  0.25500000920E-02 0.  1.
</event>
<event>
 5   0  0.2792361E-07  0.3002319E+04  0.7818609E-02  0.8243069E-01
        1   -1    0    0  501    0  0.00000000000E+00  0.00000000000E+00  0.29660575789E+04  0.29660575789E+04  0.50400001928E-02 0. -1.
       -1   -1    0    0    0  501  0.00000000000E+00  0.00000000000E+00 -0.75975568692E+03  0.75975568694E+03  0.50400001928E-02 0.  1.
    10030    2    1    2    0    0  0.00000000000E+00  0.00000000000E+00  0.22063018920E+04  0.37258132659E+04  0.30023185130E+04 0.  0.
        4    1    3    3  502    0 -0.58042879036E+03  0.13817941636E+04  0.99766914997E+03  0.18004438444E+04  0.12699999809E+01 0.  1.
       -4    1    3    3    0  502  0.58042879036E+03 -0.13817941636E+04  0.12086327420E+04  0.19253694215E+04  0.12699999809E+01 0. -1.
</event>
<event>
 5   0  0.2414250E-07  0.3001202E+04  0.7818609E-02  0.8243388E-01
        3   -1    0    0  501    0  0.00000000000E+00  0.00000000000E+00  0.17807796651E+04  0.17807796680E+04  0.10100000352E+00 0. -1.
       -3   -1    0    0    0  501  0.00000000000E+00  0.00000000000E+00 -0.12645040335E+04  0.12645040375E+04  0.10100000352E+00 0.  1.
    10030    2    1    2    0    0  0.00000000000E+00  0.00000000000E+00  0.51627563158E+03  0.30452837055E+04  0.30012018125E+04 0.  0.
        2    1    3    3  502    0 -0.54669111680E+03  0.85347398143E+03 -0.86469332184E+03  0.13322850877E+04  0.25500000920E-02 0.  1.
       -2    1    3    3    0  502  0.54669111680E+03 -0.85347398143E+03  0.13809689534E+04  0.17129986178E+04  0.25500000920E-02 0. -1.
</event>
<event>
 5   0  0.7307508E-07  0.3004596E+04  0.7818609E-02  0.8242420E-01
        2   -1    0    0  501    0  0.00000000000E+00  0.00000000000E+00  0.17681492187E+04  0.17681492187E+04  0.25500000920E-02 0. -1.
       -2   -1    0    0    0  501  0.00000000000E+00  0.00000000000E+00 -0.12764188748E+04  0.12764188748E+04  0.25500000920E-02 0.  1.
    10030    2    1    2    0    0  0.00000000000E+00  0.00000000000E+00  0.49173034386E+03  0.30445680935E+04  0.30045958372E+04 0.  0.
        1    1    3    3  502    0 -0.68115081075E+03 -0.12650187474E+03  0.15966145502E+04  0.17404445332E+04  0.50400001928E-02 0. -1.
       -1    1    3    3    0  502  0.68115081075E+03  0.12650187474E+03 -0.11048842063E+04  0.13041235604E+04  0.50400001928E-02 0.  1.
</event>
<event>
 5   0  0.2679935E-07  0.3030699E+04  0.7818609E-02  0.8235018E-01
       -1   -1    0    0    0  501  0.00000000000E+00  0.00000000000E+00  0.13707647533E+04  0.13707647533E+04  0.50400001928E-02 0. -1.
        1   -1    0    0  501    0  0.00000000000E+00  0.00000000000E+00 -0.16751851837E+04  0.16751851837E+04  0.50400001928E-02 0.  1.
    10030    2    1    2    0    0  0.00000000000E+00  0.00000000000E+00 -0.30442043041E+03  0.30459499370E+04  0.30306994606E+04 0.  0.
        2    1    3    3  502    0 -0.10438829069E+04 -0.10420995321E+04  0.19684399161E+03  0.14880895521E+04  0.25500000920E-02 0. -1.
       -2    1    3    3    0  502  0.10438829069E+04  0.10420995321E+04 -0.50126442203E+03  0.15578603849E+04  0.25500000920E-02 0.  1.
</event>
<event>
 5   0  0.7399409E-07  0.3010864E+04  0.7818609E-02  0.8240635E-01
       -2   -1    0    0    0  501  0.00000000000E+00  0.00000000000E+00  0.98539245731E+03  0.98539245731E+03  0.25500000920E-02 0. -1.
        2   -1    0    0  501    0  0.00000000000E+00  0.00000000000E+00 -0.22999216980E+04  0.22999216980E+04  0.25500000920E-02 0.  1.
    10030    2    1    2    0    0  0.00000000000E+00  0.00000000000E+00 -0.13145292407E+04  0.32853141554E+04  0.30108639914E+04 0.  0.
        3    1    3    3  502    0  0.13120598408E+04  0.60505842372E+03 -0.11185641269E+04  0.18272335478E+04  0.10100000352E+00 0.  1.
       -3    1    3    3    0  502 -0.13120598408E+04 -0.60505842372E+03 -0.19596511384E+03  0.14580806075E+04  0.10100000352E+00 0. -1.
</event>
<event>
 5   0  0.2792361E-07  0.3003183E+04  0.7818609E-02  0.8242823E-01
       -1   -1    0    0    0  501  0.00000000000E+00  0.00000000000E+00  0.26934625250E+04  0.26934625250E+04  0.50400001928E-02 0. -1.
        1   -1    0    0  501    0  0.00000000000E+00  0.00000000000E+00 -0.83712942855E+03  0.83712942856E+03  0.50400001928E-02 0.  1.
    10030    2    1    2    0    0  0.00000000000E+00  0.00000000000E+00  0.18563330964E+04  0.35305919536E+04  0.30031828079E+04 0.  0.
        4    1    3    3  502    0  0.12307983917E+04 -0.64708734692E+03  0.26190355022E+03  0.14149847342E+04  0.12699999809E+01 0.  1.
       -4    1    3    3    0  502 -0.12307983917E+04  0.64708734692E+03  0.15944295462E+04  0.21156072193E+04  0.12699999809E+01 0. -1.
</event>
<event>
 5   0  0.7307508E-07  0.3002761E+04  0.7818609E-02  0.8242943E-01
       -2   -1    0    0    0  501  0.00000000000E+00  0.00000000000E+00  0.12455183163E+04  0.12455183163E+04  0.25500000920E-02 0. -1.
        2   -1    0    0  501    0  0.00000000000E+00  0.00000000000E+00 -0.18098038807E+04  0.18098038807E+04  0.25500000920E-02 0.  1.
    10030    2    1    2    0    0  0.00000000000E+00  0.00000000000E+00 -0.56428556440E+03  0.30553221970E+04  0.30027613174E+04 0.  0.
        1    1    3    3  502    0  0.57455693896E+03 -0.59154931873E+03 -0.15587345292E+04  0.17634340377E+04  0.50400001928E-02 0.  1.
       -1    1    3    3    0  502 -0.57455693896E+03  0.59154931873E+03  0.99444896482E+03  0.12918881593E+04  0.50400001928E-02 0. -1.
</event>
<event>
 5   0  0.2621825E-07  0.3005575E+04  0.7818609E-02  0.8242141E-01
        1   -1    0    0  501    0  0.00000000000E+00  0.00000000000E+00  0.15279434081E+04  0.15279434082E+04  0.50400001928E-02 0.  1.
       -1   -1    0    0    0  501  0.00000000000E+00  0.00000000000E+00 -0.14780457979E+04  0.14780457979E+04  0.50400001928E-02 0. -1.
    10030    2    1    2    0    0  0.00000000000E+00  0.00000000000E+00  0.49897610283E+02  0.30059892060E+04  0.30055750424E+04 0.  0.
        3    1    3    3  502    0  0.30549695462E+03 -0.88607208677E+03  0.11998098688E+04  0.15224965890E+04  0.10100000352E+00 0.  1.
       -3    1    3    3    0  502 -0.30549695462E+03  0.88607208677E+03 -0.11499122585E+04  0.14834926170E+04  0.10100000352E+00 0. -1.
</event>
<event>
 5   0  0.7208273E-07  0.3003142E+04  0.7818609E-02  0.8242834E-01
        2   -1    0    0  501    0  0.00000000000E+00  0.00000000000E+00  0.12560878789E+04  0.12560878789E+04  0.25500000920E-02 0. -1.
       -2   -1    0    0    0  501  0.00000000000E+00  0.00000000000E+00 -0.17950294436E+04  0.17950294436E+04  0.25500000920E-02 0.  1.
    10030    2    1    2    0    0  0.00000000000E+00  0.00000000000E+00 -0.53894156475E+03  0.30511173225E+04  0.30031415061E+04 0.  0.
        4    1    3    3  502    0  0.12200917873E+04 -0.48817815580E+03  0.46861351892E+03  0.13951853369E+04  0.12699999809E+01 0. -1.
       -4    1    3    3    0  502 -0.12200917873E+04  0.48817815580E+03 -0.10075550837E+04  0.16559319856E+04  0.12699999809E+01 0.  1.
</event>
<event>
 5   0  0.7208273E-07  0.2999390E+04  0.7818609E-02  0.8243905E-01
        2   -1    0    0  501    0  0.00000000000E+00  0.00000000000E+00  0.17595291714E+04  0.17595291714E+04  0.25500000920E-02 0.  1.
       -2   -1    0    0    0  501  0.00000000000E+00  0.00000000000E+00 -0.12782311026E+04  0.12782311026E+04  0.25500000920E-02 0. -1.
    10030    2    1    2    0    0  0.00000000000E+00  0.00000000000E+00  0.48129806878E+03  0.30377602741E+04  0.29993898799E+04 0.  0.
        4    1    3    3  502    0 -0.18451791283E+03 -0.93671577746E+03 -0.93069293749E+03  0.13332945154E+04  0.12699999809E+01 0. -1.
       -4    1    3    3    0  502  0.18451791283E+03  0.93671577746E+03  0.14119910063E+04  0.17044657587E+04  0.12699999809E+01 0.  1.
</event>
<event>
 5   0  0.7585823E-07  0.3001404E+04  0.7818609E-02  0.8243330E-01
        2   -1    0    0  501    0  0.00000000000E+00  0.00000000000E+00  0.12142448132E+04  0.12142448132E+04  0.25500000920E-02 0. -1.
       -2   -1    0    0    0  501  0.00000000000E+00  0.00000000000E+00 -0.18547378853E+04  0.18547378853E+04  0.25500000920E-02 0.  1.
    10030    2    1    2    0    0  0.00000000000E+00  0.00000000000E+00 -0.64049307210E+03  0.30689826984E+04  0.30014035763E+04 0.  0.
        5    1    3    3  502    0 -0.84694446877E+03 -0.26603946021E+03  0.91695192847E+03  0.12762894878E+04  0.46999998093E+01 0. -1.
       -5    1    3    3    0  502  0.84694446877E+03  0.26603946021E+03 -0.15574450006E+04  0.17926932106E+04  0.46999998093E+01 0.  1.
</event>
<event>
 5   0  0.7278657E-07  0.3002016E+04  0.7818609E-02  0.8243155E-01
       -2   -1    0    0    0  501  0.00000000000E+00  0.00000000000E+00  0.20482328808E+04  0.20482328808E+04  0.25500000920E-02 0. -1.
        2   -1    0    0  501    0  0.00000000000E+00  0.00000000000E+00 -0.10999851129E+04  0.10999851129E+04  0.25500000920E-02 0.  1.
    10030    2    1    2    0    0  0.00000000000E+00  0.00000000000E+00  0.94824776790E+03  0.31482179937E+04  0.30020164401E+04 0.  0.
        2    1    3    3  502    0  0.60423843695E+03 -0.31571465840E+03 -0.92825493127E+03  0.11517104895E+04  0.25500000920E-02 0.  1.
       -2    1    3    3    0  502 -0.60423843695E+03  0.31571465840E+03  0.18765026992E+04  0.19965075042E+04  0.25500000920E-02 0. -1.
</event>
<event>
 5   0  0.7399409E-07  0.2995730E+04  0.7818609E-02  0.8244951E-01
        2   -1    0    0  501    0  0.00000000000E+00  0.00000000000E+00  0.20187550388E+04  0.20187550388E+04  0.25500000920E-02 0. -1.
       -2   -1    0    0    0  501  0.00000000000E+00  0.00000000000E+00 -0.11113777360E+04  0.11113777360E+04  0.25500000920E-02 0.  1.
    10030    2    1    2    0    0  0.00000000000E+00  0.00000000000E+00  0.90737730280E+03  0.31301327748E+04  0.29957298974E+04 0.  0.
        3    1    3    3  502    0  0.50408991834E+03  0.72839996304E+03 -0.80836196818E+03  0.11992173422E+04  0.10100000352E+00 0.  1.
       -3    1    3    3    0  502 -0.50408991834E+03 -0.72839996304E+03  0.17157392710E+04  0.19309154327E+04  0.10100000352E+00 0. -1.
</event>
<event>
 5   0  0.7399409E-07  0.3004732E+04  0.7818609E-02  0.8242381E-01
       -2   -1    0    0    0  501  0.00000000000E+00  0.00000000000E+00  0.20671155435E+04  0.20671155435E+04  0.25500000920E-02 0. -1.
        2   -1    0    0  501    0  0.00000000000E+00  0.00000000000E+00 -0.10919100877E+04  0.10919100877E+04  0.25500000920E-02 0.  1.
    10030    2    1    2    0    0  0.00000000000E+00  0.00000000000E+00  0.97520545583E+03  0.31590256312E+04  0.30047324769E+04 0.  0.
        3    1    3    3  502    0 -0.74767302682E+03 -0.11415544039E+04  0.11483182193E+04  0.17834786669E+04  0.10100000352E+00 0. -1.
       -3    1    3    3    0  502  0.74767302682E+03  0.11415544039E+04 -0.17311276351E+03  0.13755469644E+04  0.10100000352E+00 0.  1.
</event>
<event>
 5   0  0.7278657E-07  0.2975793E+04  0.7818609E-02  0.8250677E-01
        2   -1    0    0  501    0  0.00000000000E+00  0.00000000000E+00  0.12166741690E+04  0.12166741690E+04  0.25500000920E-02 0.  1.
       -2   -1    0    0    0  501  0.00000000000E+00  0.00000000000E+00 -0.18195805616E+04  0.18195805616E+04  0.25500000920E-02 0. -1.
    10030    2    1    2    0    0  0.00000000000E+00  0.00000000000E+00 -0.60290639258E+03  0.30362547306E+04  0.29757934523E+04 0.  0.
        2    1    3    3  502    0  0.76018113100E+03 -0.16304837544E+02 -0.16063814843E+04  0.17772458110E+04  0.25500000920E-02 0. -1.
       -2    1    3    3    0  502 -0.76018113100E+03  0.16304837544E+02  0.10034750917E+04  0.12590089195E+04  0.25500000920E-02 0.  1.
</event>
<event>
 5   0  0.2414250E-07  0.2994943E+04  0.7818609E-02  0.8245177E-01
       -4   -1    0    0    0  501  0.00000000000E+00  0.00000000000E+00  0.15950111162E+04  0.15950116218E+04  0.12699999809E+01 0.  1.
        4   -1    0    0  501    0  0.00000000000E+00  0.00000000000E+00 -0.14058953324E+04  0.14058959060E+04  0.12699999809E+01 0. -1.
    10030    2    1    2    0    0  0.00000000000E+00  0.00000000000E+00  0.18911578374E+03  0.30009075278E+04  0.29949426056E+04 0.  0.
        2    1    3    3  502    0  0.49929960737E+03  0.64097395932E+03  0.13549473469E+04  0.15798829157E+04  0.25500000920E-02 0.  1.
       -2    1    3    3    0  502 -0.49929960737E+03 -0.64097395932E+03 -0.11658315632E+04  0.14210246121E+04  0.25500000920E-02 0. -1.
</event>
<event>
 5   0  0.7399409E-07  0.3044931E+04  0.7818609E-02  0.8231016E-01
        2   -1    0    0  501    0  0.00000000000E+00  0.00000000000E+00  0.17601038228E+04  0.17601038228E+04  0.25500000920E-02 0. -1.
       -2   -1    0    0    0  501  0.00000000000E+00  0.00000000000E+00 -0.13169116309E+04  0.13169116309E+04  0.25500000920E-02 0.  1.
    10030    2    1    2    0    0  0.00000000000E+00  0.00000000000E+00  0.44319219198E+03  0.30770154537E+04  0.30449309981E+04 0.  0.
        3    1    3    3  502    0 -0.14431921141E+04  0.28182547310E+02  0.71074554078E+03  0.16089614564E+04  0.10100000352E+00 0. -1.
       -3    1    3    3    0  502  0.14431921141E+04 -0.28182547310E+02 -0.26755334880E+03  0.14680539973E+04  0.10100000352E+00 0.  1.
</event>
<event>
 5   0  0.2640081E-07  0.3010599E+04  0.7818609E-02  0.8240711E-01
        1   -1    0    0  501    0  0.00000000000E+00  0.00000000000E+00  0.19199962165E+04  0.19199962165E+04  0.50400001928E-02 0. -1.
       -1   -1    0    0    0  501  0.00000000000E+00  0.00000000000E+00 -0.11801724890E+04  0.11801724890E+04  0.50400001928E-02 0.  1.
    10030    2    1    2    0    0  0.00000000000E+00  0.00000000000E+00  0.73982372749E+03  0.31001687054E+04  0.30105990856E+04 0.  0.
        1    1    3    3  502    0 -0.10790076273E+04  0.27449695826E+03 -0.67330342021E+03  0.13011316365E+04  0.50400001928E-02 0.  1.
       -1    1    3    3    0  502  0.10790076273E+04 -0.27449695826E+03  0.14131271477E+04  0.17990370689E+04  0.50400001928E-02 0. -1.
</event>
<event>
 5   0  0.7307508E-07  0.2994569E+04  0.7818609E-02  0.8245283E-01
        2   -1    0    0  501    0  0.00000000000E+00  0.00000000000E+00  0.18780889877E+04  0.18780889877E+04  0.25500000920E-02 0. -1.
       -2   -1    0    0    0  501  0.00000000000E+00  0.00000000000E+00 -0.11936929272E+04  0.11936929272E+04  0.25500000920E-02 0.  1.
    10030    2    1    2    0    0  0.00000000000E+00  0.00000000000E+00  0.68439606051E+03  0.30717819150E+04  0.29945694458E+04 0.  0.
        1    1    3    3  502    0 -0.82726543322E+03 -0.44458427921E+03  0.15383865188E+04  0.18024029404E+04  0.50400001928E-02 0. -1.
       -1    1    3    3    0  502  0.82726543322E+03  0.44458427921E+03 -0.85399045827E+03  0.12693789746E+04  0.50400001928E-02 0.  1.
</event>
<event>
 5   0  0.7278657E-07  0.2999532E+04  0.7818609E-02  0.8243865E-01
        2   -1    0    0  501    0  0.00000000000E+00  0.00000000000E+00  0.97026101441E+03  0.97026101441E+03  0.25500000920E-02 0.  1.
       -2   -1    0    0    0  501  0.00000000000E+00  0.00000000000E+00 -0.23182396372E+04  0.23182396372E+04  0.25500000920E-02 0. -1.
    10030    2    1    2    0    0  0.00000000000E+00  0.00000000000E+00 -0.13479786228E+04  0.32885006516E+04  0.29995316581E+04 0.  0.
        2    1    3    3  502    0  0.20636539934E+03 -0.14822720745E+04 -0.78129813224E+03  0.16882369361E+04  0.25500000920E-02 0.  1.
       -2    1    3    3    0  502 -0.20636539934E+03  0.14822720745E+04 -0.56668049055E+03  0.16002637155E+04  0.25500000920E-02 0. -1.
</event>
<event>
 5   0  0.2679935E-07  0.3002148E+04  0.7818609E-02  0.8243118E-01
        1   -1    0    0  501    0  0.00000000000E+00  0.00000000000E+00  0.24420639926E+04  0.24420639926E+04  0.50400001928E-02 0. -1.
       -1   -1    0    0    0  501  0.00000000000E+00  0.00000000000E+00 -0.92267164814E+03  0.92267164816E+03  0.50400001928E-02 0.  1.
    10030    2    1    2    0    0  0.00000000000E+00  0.00000000000E+00  0.15193923444E+04  0.33647356407E+04  0.30021480369E+04 0.  0.
        2    1    3    3  502    0  0.34287176315E+03  0.14613464385E+04  0.74697896553E+03  0.16766251920E+04  0.25500000920E-02 0.  1.
       -2    1    3    3    0  502 -0.34287176315E+03 -0.14613464385E+04  0.77241337890E+03  0.16881104488E+04  0.25500000920E-02 0. -1.
</event>
<event>
 5   0  0.7585823E-07  0.2996622E+04  0.7818609E-02  0.8244696E-01
       -2   -1    0    0    0  501  0.00000000000E+00  0.00000000000E+00  0.20328152950E+04  0.20328152950E+04  0.25500000920E-02 0.  1.
        2   -1    0    0  501    0  0.00000000000E+00  0.00000000000E+00 -0.11043483309E+04  0.11043483309E+04  0.25500000920E-02 0. -1.
    10030    2    1    2    0    0  0.00000000000E+00  0.00000000000E+00  0.92846696406E+03  0.31371636259E+04  0.29966222172E+04 0.  0.
        5    1    3    3  502    0 -0.10490330279E+04  0.90450958883E+03  0.10622564134E+04  0.17455711580E+04  0.46999998093E+01 0.  1.
       -5    1    3    3    0  502  0.10490330279E+04 -0.90450958883E+03 -0.13378944938E+03  0.13915924679E+04  0.46999998093E+01 0. -1.
</event>
<event>
 5   0  0.2621825E-07  0.2998553E+04  0.7818609E-02  0.8244144E-01
       -1   -1    0    0    0  501  0.00000000000E+00  0.00000000000E+00  0.14804015937E+04  0.14804015937E+04  0.50400001928E-02 0.  1.
        1   -1    0    0  501    0  0.00000000000E+00  0.00000000000E+00 -0.15183925330E+04  0.15183925330E+04  0.50400001928E-02 0. -1.
    10030    2    1    2    0    0  0.00000000000E+00  0.00000000000E+00 -0.37990939235E+02  0.29987941267E+04  0.29985534684E+04 0.  0.
        3    1    3    3  502    0 -0.10178959917E+04 -0.10922474743E+04 -0.15580528097E+03  0.15011302711E+04  0.10100000352E+00 0. -1.
       -3    1    3    3    0  502  0.10178959917E+04  0.10922474743E+04  0.11781434173E+03  0.14976638556E+04  0.10100000352E+00 0.  1.
</event>
<event>
 5   0  0.2621825E-07  0.3002575E+04  0.7818609E-02  0.8242996E-01
        1   -1    0    0  501    0  0.00000000000E+00  0.00000000000E+00  0.15612072714E+04  0.15612072714E+04  0.50400001928E-02 0.  1.
       -1   -1    0    0    0  501  0.00000000000E+00  0.00000000000E+00 -0.14436671010E+04  0.14436671010E+04  0.50400001928E-02 0. -1.
    10030    2    1    2    0    0  0.00000000000E+00  0.00000000000E+00  0.11754017038E+03  0.30048743724E+04  0.30025746123E+04 0.  0.
        3    1    3    3  502    0 -0.15331986626E+03 -0.13899403356E+03  0.15468646845E+04  0.15606462396E+04  0.10100000352E+00 0.  1.
       -3    1    3    3    0  502  0.15331986626E+03  0.13899403356E+03 -0.14293245141E+04  0.14442281328E+04  0.10100000352E+00 0. -1.
</event>
<event>
 5   0  0.2792361E-07  0.2960818E+04  0.7818609E-02  0.8255009E-01
       -1   -1    0    0    0  501  0.00000000000E+00  0.00000000000E+00  0.16557641286E+04  0.16557641286E+04  0.50400001928E-02 0.  1.
        1   -1    0    0  501    0  0.00000000000E+00  0.00000000000E+00 -0.13236251528E+04  0.13236251528E+04  0.50400001928E-02 0. -1.
    10030    2    1    2    0    0  0.00000000000E+00  0.00000000000E+00  0.33213897579E+03  0.29793892814E+04  0.29608181624E+04 0.  0.
        4    1    3    3  502    0  0.12751442598E+04 -0.43060188257E+02 -0.58948111706E+03  0.14054667066E+04  0.12699999809E+01 0.  1.
       -4    1    3    3    0  502 -0.12751442598E+04  0.43060188257E+02  0.92162009285E+03  0.15739225748E+04  0.12699999809E+01 0. -1.
</event>
<event>
 5   0  0.7208273E-07  0.3011906E+04  0.7818609E-02  0.8240339E-01
       -2   -1    0    0    0  501  0.00000000000E+00  0.00000000000E+00  0.13421282794E+04  0.13421282794E+04  0.25500000920E-02 0. -1.
        2   -1    0    0  501    0  0.00000000000E+00  0.00000000000E+00 -0.16897751610E+04  0.16897751610E+04  0.25500000920E-02 0.  1.
    10030    2    1    2    0    0  0.00000000000E+00  0.00000000000E+00 -0.34764688159E+03  0.30319034405E+04  0.30119063926E+04 0.  0.
        4    1    3    3  502    0  0.21187190528E+03 -0.97896592918E+03 -0.13058471852E+04  0.16457528608E+04  0.12699999809E+01 0.  1.
       -4    1    3    3    0  502 -0.21187190528E+03  0.97896592918E+03  0.95820030363E+03  0.13861505797E+04  0.12699999809E+01 0. -1.
</event>
<event>
 5   0  0.7278657E-07  0.2998227E+04  0.7818609E-02  0.8244237E-01
       -2   -1    0    0    0  501  0.00000000000E+00  0.00000000000E+00  0.19750666268E+04  0.19750666268E+04  0.25500000920E-02 0.  1.
        2   -1    0    0  501    0  0.00000000000E+00  0.00000000000E+00 -0.11378556445E+04  0.11378556445E+04  0.25500000920E-02 0. -1.
    10030    2    1    2    0    0  0.00000000000E+00  0.00000000000E+00  0.83721098229E+03  0.31129222713E+04  0.29982266155E+04 0.  0.
        2    1    3    3  502    0  0.10893457522E+04  0.32831818030E+03  0.14321002213E+04  0.18290374625E+04  0.25500000920E-02 0.  1.
       -2    1    3    3    0  502 -0.10893457522E+04 -0.32831818030E+03 -0.59488923901E+03  0.12838848087E+04  0.25500000920E-02 0. -1.
</event>
<event>
 5   0  0.7208273E-07  0.3000965E+04  0.7818609E-02  0.8243455E-01
       -2   -1    0    0    0  501  0.00000000000E+00  0.00000000000E+00  0.10103214451E+04  0.10103214451E+04  0.25500000920E-02 0. -1.
        2   -1    0    0  501    0  0.00000000000E+00  0.00000000000E+00 -0.22284466500E+04  0.22284466500E+04  0.25500000920E-02 0.  1.
    10030    2    1    2    0    0  0.00000000000E+00  0.00000000000E+00 -0.12181252049E+04  0.32387680951E+04  0.30009648047E+04 0.  0.
        4    1    3    3  502    0 -0.13243960009E+04  0.49151327634E+03 -0.11549456076E+04  0.18246947793E+04  0.12699999809E+01 0.  1.
       -4    1    3    3    0  502  0.13243960009E+04 -0.49151327634E+03 -0.63179597333E+02  0.14140733158E+04  0.12699999809E+01 0. -1.
</event>
<event>
 5   0  0.7307508E-07  0.3004250E+04  0.7818609E-02  0.8242518E-01
       -2   -1    0    0    0  501  0.00000000000E+00  0.00000000000E+00  0.17027877203E+04  0.17027877203E+04  0.25500000920E-02 0.  1.
        2   -1    0    0  501    0  0.00000000000E+00  0.00000000000E+00 -0.13251090492E+04  0.13251090492E+04  0.25500000920E-02 0. -1.
    10030    2    1    2    0    0  0.00000000000E+00  0.00000000000E+00  0.37767867114E+03  0.30278967695E+04  0.30042499344E+04 0.  0.
        1    1    3    3  502    0  0.59055585945E+03  0.35363689331E+03  0.15344753042E+04  0.16817936064E+04  0.50400001928E-02 0.  1.
       -1    1    3    3    0  502 -0.59055585945E+03 -0.35363689331E+03 -0.11567966330E+04  0.13461031631E+04  0.50400001928E-02 0. -1.
</event>
<event>
 5   0  0.7399409E-07  0.3010618E+04  0.7818609E-02  0.8240705E-01
       -2   -1    0    0    0  501  0.00000000000E+00  0.00000000000E+00  0.12290645340E+04  0.12290645340E+04  0.25500000920E-02 0.  1.
        2   -1    0    0  501    0  0.00000000000E+00  0.00000000000E+00 -0.18436424896E+04  0.18436424896E+04  0.25500000920E-02 0. -1.
    10030    2    1    2    0    0  0.00000000000E+00  0.00000000000E+00 -0.61457795564E+03  0.30727070235E+04  0.30106182735E+04 0.  0.
        3    1    3    3  502    0  0.30164350103E+03 -0.14610855867E+04 -0.51191234337E+03  0.15772806190E+04  0.10100000352E+00 0. -1.
       -3    1    3    3    0  502 -0.30164350103E+03  0.14610855867E+04 -0.10266561227E+03  0.14954264046E+04  0.10100000352E+00 0.  1.
</event>
<event>
 5   0  0.2640081E-07  0.2996796E+04  0.7818609E-02  0.8244646E-01
       -1   -1    0    0    0  501  0.00000000000E+00  0.00000000000E+00  0.18183575614E+04  0.18183575614E+04  0.50400001928E-02 0. -1.
        1   -1    0    0  501    0  0.00000000000E+00  0.00000000000E+00 -0.12347390628E+04  0.12347390628E+04  0.50400001928E-02 0.  1.
    10030    2    1    2    0    0  0.00000000000E+00  0.00000000000E+00  0.58361849854E+03  0.30530966242E+04  0.29967963636E+04 0.  0.
        1    1    3    3  502    0 -0.44052231036E+03  0.12033054849E+04  0.10830552064E+04  0.16777999213E+04  0.50400001928E-02 0. -1.
       -1    1    3    3    0  502  0.44052231036E+03 -0.12033054849E+04 -0.49943670782E+03  0.13752967029E+04  0.50400001928E-02 0.  1.
</event>
<event>
 5   0  0.7278657E-07  0.2997470E+04  0.7818609E-02  0.8244454E-01
       -2   -1    0    0    0  501  0.00000000000E+00  0.00000000000E+00  0.17193045698E+04  0.17193045698E+04  0.25500000920E-02 0.  1.
        2   -1    0    0  501    0  0.00000000000E+00  0.00000000000E+00 -0.13064622023E+04  0.13064622023E+04  0.25500000920E-02 0. -1.
    10030    2    1    2    0    0  0.00000000000E+00  0.00000000000E+00  0.41284236752E+03  0.30257667722E+04  0.29974698896E+04 0.  0.
        2    1    3    3  502    0 -0.81100354122E+03  0.31630313983E+03 -0.10251091729E+04  0.13448506372E+04  0.25500000920E-02 0. -1.
       -2    1    3    3    0  502  0.81100354122E+03 -0.31630313983E+03  0.14379515404E+04  0.16809161349E+04  0.25500000920E-02 0.  1.
</event>
<event>
 5   0  0.2679935E-07  0.3000359E+04  0.7818609E-02  0.8243629E-01
        1   -1    0    0  501    0  0.00000000000E+00  0.00000000000E+00  0.14088503448E+04  0.14088503448E+04  0.50400001928E-02 0.  1.
       -1   -1    0    0    0  501  0.00000000000E+00  0.00000000000E+00 -0.15974285927E+04  0.15974285927E+04  0.50400001928E-02 0. -1.
    10030    2    1    2    0    0  0.00000000000E+00  0.00000000000E+00 -0.18857824791E+03  0.30062789375E+04  0.30003585276E+04 0.  0.
        2    1    3    3  502    0  0.81350809773E+03  0.63901971263E+03  0.99431511891E+03  0.14348533632E+04  0.25500000920E-02 0.  1.
       -2    1    3    3    0  502 -0.81350809773E+03 -0.63901971263E+03 -0.11828933668E+04  0.15714255743E+04  0.25500000920E-02 0. -1.
</event>
<event>
 5   0  0.7278657E-07  0.3000317E+04  0.7818609E-02  0.8243640E-01
        2   -1    0    0  501    0  0.00000000000E+00  0.00000000000E+00  0.11645918460E+04  0.11645918460E+04  0.25500000920E-02 0. -1.
       -2   -1    0    0    0  501  0.00000000000E+00  0.00000000000E+00 -0.19324162846E+04  0.19324162846E+04  0.25500000920E-02 0.  1.
    10030    2    1    2    0    0  0.00000000000E+00  0.00000000000E+00 -0.76782443866E+03  0.30970081306E+04  0.30003174819E+04 0.  0.
        2    1    3    3  502    0  0.13480638586E+04  0.69167764915E+02 -0.10595406618E+04  0.17160089628E+04  0.25500000920E-02 0.  1.
       -2    1    3    3    0  502 -0.13480638586E+04 -0.69167764915E+02  0.29171622311E+03  0.13809991678E+04  0.25500000920E-02 0. -1.
</event>
<event>
 5   0  0.7208273E-07  0.3002301E+04  0.7818609E-02  0.8243074E-01
        2   -1    0    0  501    0  0.00000000000E+00  0.00000000000E+00  0.11070796676E+04  0.11070796676E+04  0.25500000920E-02 0. -1.
       -2   -1    0    0    0  501  0.00000000000E+00  0.00000000000E+00 -0.20354926418E+04  0.20354926418E+04  0.25500000920E-02 0.  1.
    10030    2    1    2    0    0  0.00000000000E+00  0.00000000000E+00 -0.92841297420E+03  0.31425723094E+04  0.30023007959E+04 0.  0.
        4    1    3    3  502    0 -0.11873941529E+04 -0.24697976272E+03  0.46174087953E+03  0.12977326883E+04  0.12699999809E+01 0. -1.
       -4    1    3    3    0  502  0.11873941529E+04  0.24697976272E+03 -0.13901538537E+04  0.18448396211E+04  0.12699999809E+01 0.  1.
</event>
<event>
 5   0  0.2640081E-07  0.3007699E+04  0.7818609E-02  0.8241536E-01
        1   -1    0    0  501    0  0.00000000000E+00  0.00000000000E+00  0.16418953703E+04  0.16418953703E+04  0.50400001928E-02 0.  1.
       -1   -1    0    0    0  501  0.00000000000E+00  0.00000000000E+00 -0.13774103562E+04  0.13774103562E+04  0.50400001928E-02 0. -1.
    10030    2    1    2    0    0  0.00000000000E+00  0.00000000000E+00  0.26448501413E+03  0.30193057265E+04  0.30076992448E+04 0.  0.
        1    1    3    3  502    0  0.14079560980E+04 -0.37114467932E+01 -0.39819937699E+03  0.14631872377E+04  0.50400001928E-02 0. -1.
       -1    1    3    3    0  502 -0.14079560980E+04  0.37114467932E+01  0.66268439112E+03  0.15561184888E+04  0.50400001928E-02 0.  1.
</event>
<event>
 5   0  0.2621825E-07  0.2996286E+04  0.7818609E-02  0.8244792E-01
        1   -1    0    0  501    0  0.00000000000E+00  0.00000000000E+00  0.16268540931E+04  0.16268540931E+04  0.50400001928E-02 0. -1.
       -1   -1    0    0    0  501  0.00000000000E+00  0.00000000000E+00 -0.13796152549E+04  0.13796152549E+04  0.50400001928E-02 0.  1.
    10030    2    1    2    0    0  0.00000000000E+00  0.00000000000E+00  0.24723883814E+03  0.30064693480E+04  0.29962861842E+04 0.  0.
        3    1    3    3  502    0  0.74027145921E+03  0.10884423111E+04 -0.59416077981E+03  0.14442075821E+04  0.10100000352E+00 0.  1.
       -3    1    3    3    0  502 -0.74027145921E+03 -0.10884423111E+04  0.84139961795E+03  0.15622617659E+04  0.10100000352E+00 0. -1.
</event>
<event>
 5   0  0.7399409E-07  0.2994422E+04  0.7818609E-02  0.8245325E-01
        2   -1    0    0  501    0  0.00000000000E+00  0.00000000000E+00  0.10228586645E+04  0.10228586645E+04  0.25500000920E-02 0.  1.
       -2   -1    0    0    0  501  0.00000000000E+00  0.00000000000E+00 -0.21915454040E+04  0.21915454040E+04  0.25500000920E-02 0. -1.
    10030    2    1    2    0    0  0.00000000000E+00  0.00000000000E+00 -0.11686867394E+04  0.32144040685E+04  0.29944222850E+04 0.  0.
        3    1    3    3  502    0 -0.66617954095E+02  0.14253391648E+04 -0.97587572761E+02  0.14302283144E+04  0.10100000352E+00 0.  1.
       -3    1    3    3    0  502  0.66617954095E+02 -0.14253391648E+04 -0.10710991666E+04  0.17841757541E+04  0.10100000352E+00 0. -1.
</event>
<event>
 5   0  0.2602891E-07  0.2996580E+04  0.7818609E-02  0.8244708E-01
       -1   -1    0    0    0  501  0.00000000000E+00  0.00000000000E+00  0.14381658612E+04  0.14381658613E+04  0.50400001928E-02 0. -1.
        1   -1    0    0  501    0  0.00000000000E+00  0.00000000000E+00 -0.15609274306E+04  0.15609274306E+04  0.50400001928E-02 0.  1.
    10030    2    1    2    0    0  0.00000000000E+00  0.00000000000E+00 -0.12276156934E+03  0.29990932919E+04  0.29965797454E+04 0.  0.
        5    1    3    3  502    0  0.75923892601E+03 -0.11651155236E+04  0.49668223255E+03  0.14767035113E+04  0.46999998093E+01 0. -1.
       -5    1    3    3    0  502 -0.75923892601E+03  0.11651155236E+04 -0.61944380189E+03  0.15223897805E+04  0.46999998093E+01 0.  1.
</event>
<event>
 5   0  0.2792361E-07  0.2999633E+04  0.7818609E-02  0.8243836E-01
       -1   -1    0    0    0  501  0.00000000000E+00  0.00000000000E+00  0.15061156462E+04  0.15061156462E+04  0.50400001928E-02 0.  1.
        1   -1    0    0  501    0  0.00000000000E+00  0.00000000000E+00 -0.14935433350E+04  0.14935433350E+04  0.50400001928E-02 0. -1.
    10030    2    1    2    0    0  0.00000000000E+00  0.00000000000E+00  0.12572311212E+02  0.29996589813E+04  0.29996326343E+04 0.  0.
        4    1    3    3  502    0  0.51491455018E+03 -0.11614896763E+04 -0.79074788984E+03  0.14964889242E+04  0.12699999809E+01 0. -1.
       -4    1    3    3    0  502 -0.51491455018E+03  0.11614896763E+04  0.80332020105E+03  0.15031700570E+04  0.12699999809E+01 0.  1.
</event>
<event>
 5   0  0.7208273E-07  0.2999984E+04  0.7818609E-02  0.8243735E-01
       -2   -1    0    0    0  501  0.00000000000E+00  0.00000000000E+00  0.11160256301E+04  0.11160256301E+04  0.25500000920E-02 0. -1.
        2   -1    0    0  501    0  0.00000000000E+00  0.00000000000E+00 -0.20160610155E+04  0.20160610155E+04  0.25500000920E-02 0.  1.
    10030    2    1    2    0    0  0.00000000000E+00  0.00000000000E+00 -0.90003538541E+03  0.31320866457E+04  0.29999838435E+04 0.  0.
        4    1    3    3  502    0  0.73752315256E+03 -0.31538003505E+03 -0.17733367546E+04  0.19463118520E+04  0.12699999809E+01 0.  1.
       -4    1    3    3    0  502 -0.73752315256E+03  0.31538003505E+03  0.87330136917E+03  0.11857747937E+04  0.12699999809E+01 0. -1.
</event>
<event>
 5   0  0.7307508E-07  0.2998997E+04  0.7818609E-02  0.8244017E-01
        2   -1    0    0  501    0  0.00000000000E+00  0.00000000000E+00  0.23854475135E+04  0.23854475135E+04  0.25500000920E-02 0.  1.
       -2   -1    0    0    0  501  0.00000000000E+00  0.00000000000E+00 -0.94258843087E+03  0.94258843088E+03  0.25500000920E-02 0. -1.
    10030    2    1    2    0    0  0.00000000000E+00  0.00000000000E+00  0.14428590827E+04  0.33280359444E+04  0.29989966514E+04 0.  0.
        1    1    3    3  502    0  0.30844796007E+03 -0.93797070492E+03 -0.53091193034E+03  0.11210694292E+04  0.50400001928E-02 0. -1.
       -1    1    3    3    0  502 -0.30844796007E+03  0.93797070492E+03  0.19737710130E+04  0.22069665152E+04  0.50400001928E-02 0.  1.
</event>
<event>
 5   0  0.2679935E-07  0.2998324E+04  0.7818609E-02  0.8244210E-01
        1   -1    0    0  501    0  0.00000000000E+00  0.00000000000E+00  0.16482793510E+04  0.16482793510E+04  0.50400001928E-02 0.  1.
       -1   -1    0    0    0  501  0.00000000000E+00  0.00000000000E+00 -0.13635346228E+04  0.13635346228E+04  0.50400001928E-02 0. -1.
    10030    2    1    2    0    0  0.00000000000E+00  0.00000000000E+00  0.28474472818E+03  0.30118139738E+04  0.29983235070E+04 0.  0.
        2    1    3    3  502    0  0.11440841197E+04 -0.57575797508E+03 -0.64027396123E+03  0.14319135673E+04  0.25500000920E-02 0. -1.
       -2    1    3    3    0  502 -0.11440841197E+04  0.57575797508E+03  0.92501868941E+03  0.15799004065E+04  0.25500000920E-02 0.  1.
</event>
<event>
 5   0  0.7278657E-07  0.3000393E+04  0.7818609E-02  0.8243619E-01
        2   -1    0    0  501    0  0.00000000000E+00  0.00000000000E+00  0.19985450580E+04  0.19985450580E+04  0.25500000920E-02 0.  1.
       -2   -1    0    0    0  501  0.00000000000E+00  0.00000000000E+00 -0.11261137777E+04  0.11261137777E+04  0.25500000920E-02 0. -1.
    10030    2    1    2    0    0  0.00000000000E+00  0.00000000000E+00  0.87243128029E+03  0.31246588357E+04  0.30003927244E+04 0.  0.
        2    1    3    3  502    0 -0.97770471548E+03  0.11070241763E+04  0.71013016137E+03  0.16388086782E+04  0.25500000920E-02 0.  1.
       -2    1    3    3    0  502  0.97770471548E+03 -0.11070241763E+04  0.16230111892E+03  0.14858501576E+04  0.25500000920E-02 0. -1.
</event>
<event>
 5   0  0.7307508E-07  0.2997563E+04  0.7818609E-02  0.8244427E-01
        2   -1    0    0  501    0  0.00000000000E+00  0.00000000000E+00  0.14233358666E+04  0.14233358666E+04  0.25500000920E-02 0. -1.
       -2   -1    0    0    0  501  0.00000000000E+00  0.00000000000E+00 -0.15782257028E+04  0.15782257028E+04  0.25500000920E-02 0.  1.
    10030    2    1    2    0    0  0.00000000000E+00  0.00000000000E+00 -0.15488983621E+03  0.30015615695E+04  0.29975625088E+04 0.  0.
        1    1    3    3  502    0 -0.89593584751E+03  0.54818995081E+03 -0.11480448118E+04  0.15560270418E+04  0.50400001928E-02 0.  1.
       -1    1    3    3    0  502  0.89593584751E+03 -0.54818995081E+03  0.99315497558E+03  0.14455345276E+04  0.50400001928E-02 0. -1.
</event>
<event>
 5   0  0.7399409E-07  0.3008045E+04  0.7818609E-02  0.8241437E-01
        2   -1    0    0  501    0  0.00000000000E+00  0.00000000000E+00  0.10806728547E+04  0.10806728547E+04  0.25500000920E-02 0. -1.
       -2   -1    0    0    0  501  0.00000000000E+00  0.00000000000E+00 -0.20932171464E+04  0.20932171464E+04  0.25500000920E-02 0.  1.
    10030    2    1    2    0    0  0.00000000000E+00  0.00000000000E+00 -0.10125442917E+04  0.31738900010E+04  0.30080445136E+04 0.  0.
        3    1    3    3  502    0 -0.13132377074E+03 -0.50559530726E+03 -0.19944264748E+04  0.20617006381E+04  0.10100000352E+00 0.  1.
       -3    1    3    3    0  502  0.13132377074E+03  0.50559530726E+03  0.98188218306E+03  0.11121893630E+04  0.10100000352E+00 0. -1.
</event>
<event>
 5   0  0.7278657E-07  0.2994742E+04  0.7818609E-02  0.8245234E-01
       -2   -1    0    0    0  501  0.00000000000E+00  0.00000000000E+00  0.94061604849E+03  0.94061604850E+03  0.25500000920E-02 0. -1.
        2   -1    0    0  501    0  0.00000000000E+00  0.00000000000E+00 -0.23836711994E+04  0.23836711994E+04  0.25500000920E-02 0.  1.
    10030    2    1    2    0    0  0.00000000000E+00  0.00000000000E+00 -0.14430551509E+04  0.33242872479E+04  0.29947416479E+04 0.  0.
        2    1    3    3  502    0 -0.11436880547E+04 -0.96001846291E+03 -0.59761210202E+03  0.16083525858E+04  0.25500000920E-02 0.  1.
       -2    1    3    3    0  502  0.11436880547E+04  0.96001846291E+03 -0.84544304883E+03  0.17159346621E+04  0.25500000920E-02 0. -1.
</event>
<event>
 5   0  0.2602891E-07  0.2996896E+04  0.7818609E-02  0.8244618E-01
        1   -1    0    0  501    0  0.00000000000E+00  0.00000000000E+00  0.19607417648E+04  0.19607417648E+04  0.50400001928E-02 0.  1.
       -1   -1    0    0    0  501  0.00000000000E+00  0.00000000000E+00 -0.11451518369E+04  0.11451518369E+04  0.50400001928E-02 0. -1.
    10030    2    1    2    0    0  0.00000000000E+00  0.00000000000E+00  0.81558992795E+03  0.31058936017E+04  0.29968964171E+04 0.  0.
        5    1    3    3  502    0  0.21727387529E+03  0.11575509310E+04 -0.55228473653E+03  0.13008353527E+04  0.46999998093E+01 0. -1.
       -5    1    3    3    0  502 -0.21727387529E+03 -0.11575509310E+04  0.13678746645E+04  0.18050582490E+04  0.46999998093E+01 0.  1.
</event>
<event>
 5   0  0.7208273E-07  0.3031882E+04  0.7818609E-02  0.8234685E-01
       -2   -1    0    0    0  501  0.00000000000E+00  0.00000000000E+00  0.76839673004E+03  0.76839673005E+03  0.25500000920E-02 0. -1.
        2   -1    0    0  501    0  0.00000000000E+00  0.00000000000E+00 -0.29907438146E+04  0.29907438146E+04  0.25500000920E-02 0.  1.
    10030    2    1    2    0    0  0.00000000000E+00  0.00000000000E+00 -0.22223470846E+04  0.37591405447E+04  0.30318824302E+04 0.  0.
        4    1    3    3  502    0  0.62344383951E+03 -0.11033384900E+03 -0.28189660227E+04  0.28891913798E+04  0.12699999809E+01 0.  1.
       -4    1    3    3    0  502 -0.62344383951E+03  0.11033384900E+03  0.59661893809E+03  0.86994916486E+03  0.12699999809E+01 0. -1.
</event>
<event>
 5   0  0.2621825E-07  0.2998858E+04  0.7818609E-02  0.8244057E-01
       -1   -1    0    0    0  501  0.00000000000E+00  0.00000000000E+00  0.10621526685E+04  0.10621526685E+04  0.50400001928E-02 0. -1.
        1   -1    0    0  501    0  0.00000000000E+00  0.00000000000E+00 -0.21167269284E+04  0.21167269284E+04  0.50400001928E-02 0.  1.
    10030    2    1    2    0    0  0.00000000000E+00  0.00000000000E+00 -0.10545742599E+04  0.31788795969E+04  0.29988578863E+04 0.  0.
        3    1    3    3  502    0  0.26963751092E+03 -0.96806061534E+03  0.65237034766E+03  0.11980954983E+04  0.10100000352E+00 0. -1.
       -3    1    3    3    0  502 -0.26963751092E+03  0.96806061534E+03 -0.17069446075E+04  0.19807840987E+04  0.10100000352E+00 0.  1.
</event>
<event>
 5   0  0.2621825E-07  0.3002454E+04  0.7818609E-02  0.8243031E-01
        1   -1    0    0  501    0  0.00000000000E+00  0.00000000000E+00  0.27488180763E+04  0.27488180763E+04  0.50400001928E-02 0.  1.
       -1   -1    0    0    0  501  0.00000000000E+00  0.00000000000E+00 -0.81987323401E+03  0.81987323403E+03  0.50400001928E-02 0. -1.
    10030    2    1    2    0    0  0.00000000000E+00  0.00000000000E+00  0.19289448423E+04  0.35686913103E+04  0.30024539070E+04 0.  0.
        3    1    3    3  502    0  0.69195958278E+03  0.18196062294E+03  0.25331271647E+04  0.26322330777E+04  0.10100000352E+00 0.  1.
       -3    1    3    3    0  502 -0.69195958278E+03 -0.18196062294E+03 -0.60418232244E+03  0.93645823263E+03  0.10100000352E+00 0. -1.
</event>
<event>
 5   0  0.7399409E-07  0.3001997E+04  0.7818609E-02  0.8243161E-01
        2   -1    0    0  501    0  0.00000000000E+00  0.00000000000E+00  0.88906444840E+03  0.88906444840E+03  0.25500000920E-02 0. -1.
       -2   -1    0    0    0  501  0.00000000000E+00  0.00000000000E+00 -0.25341210135E+04  0.25341210135E+04  0.25500000920E-02 0.  1.
    10030    2    1    2    0    0  0.00000000000E+00  0.00000000000E+00 -0.16450565651E+04  0.34231854619E+04  0.30019972692E+04 0.  0.
        3    1    3    3  502    0  0.40870777910E+03 -0.98316205652E+03 -0.20289594469E+04  0.22913590128E+04  0.10100000352E+00 0.  1.
       -3    1    3    3    0  502 -0.40870777910E+03  0.98316205652E+03  0.38390288180E+03  0.11318264491E+04  0.10100000352E+00 0. -1.
</event>
<event>
 5   0  0.2414250E-07  0.3008024E+04  0.7818609E-02  0.8241443E-01
       -3   -1    0    0    0  501  0.00000000000E+00  0.00000000000E+00  0.20609948935E+04  0.20609948960E+04  0.10100000352E+00 0. -1.
        3   -1    0    0  501    0  0.00000000000E+00  0.00000000000E+00 -0.10975532757E+04  0.10975532804E+04  0.10100000352E+00 0.  1.
    10030    2    1    2    0    0  0.00000000000E+00  0.00000000000E+00  0.96344161777E+03  0.31585481763E+04  0.30080237418E+04 0.  0.
        5    1    3    3  502    0  0.12126510637E+04 -0.28464670016E+03  0.13668021274E+04  0.18492475474E+04  0.46999998093E+01 0. -1.
       -5    1    3    3    0  502 -0.12126510637E+04  0.28464670016E+03 -0.40336050967E+03  0.13093006289E+04  0.46999998093E+01 0.  1.
</event>
<event>
 5   0  0.2621825E-07  0.2996513E+04  0.7818609E-02  0.8244727E-01
       -1   -1    0    0    0  501  0.00000000000E+00  0.00000000000E+00  0.17061935122E+04  0.17061935122E+04  0.50400001928E-02 0.  1.
        1   -1    0    0  501    0  0.00000000000E+00  0.00000000000E+00 -0.13156607553E+04  0.13156607553E+04  0.50400001928E-02 0. -1.
    10030    2    1    2    0    0  0.00000000000E+00  0.00000000000E+00  0.39053275690E+03  0.30218542675E+04  0.29965125362E+04 0.  0.
        3    1    3    3  502    0 -0.10499295837E+04 -0.46858368656E+03  0.11640409878E+04  0.16361278170E+04  0.10100000352E+00 0.  1.
       -3    1    3    3    0  502  0.10499295837E+04  0.46858368656E+03 -0.77350823088E+03  0.13857264505E+04  0.10100000352E+00 0. -1.
</event>
<event>
 5   0  0.2792361E-07  0.3004630E+04  0.7818609E-02  0.8242410E-01
        1   -1    0    0  501    0  0.00000000000E+00  0.00000000000E+00  0.16503303904E+04  0.16503303904E+04  0.50400001928E-02 0.  1.
       -1   -1    0    0    0  501  0.00000000000E+00  0.00000000000E+00 -0.13675751875E+04  0.13675751876E+04  0.50400001928E-02 0. -1.
    10030    2    1    2    0    0  0.00000000000E+00  0.00000000000E+00  0.28275520285E+03  0.30179055780E+04  0.30046303554E+04 0.  0.
        4    1    3    3  502    0  0.32133958286E+03  0.34004312442E+02 -0.13322562626E+04  0.13708843069E+04  0.12699999809E+01 0. -1.
       -4    1    3    3    0  502 -0.32133958286E+03 -0.34004312442E+02  0.16150114655E+04  0.16470212710E+04  0.12699999809E+01 0.  1.
</event>
<event>
 5   0  0.2602891E-07  0.2994640E+04  0.7818609E-02  0.8245263E-01
        1   -1    0    0  501    0  0.00000000000E+00  0.00000000000E+00  0.19608517035E+04  0.19608517035E+04  0.50400001928E-02 0.  1.
       -1   -1    0    0    0  501  0.00000000000E+00  0.00000000000E+00 -0.11433641279E+04  0.11433641279E+04  0.50400001928E-02 0. -1.
    10030    2    1    2    0    0  0.00000000000E+00  0.00000000000E+00  0.81748757556E+03  0.31042158314E+04  0.29946402107E+04 0.  0.
        5    1    3    3  502    0  0.43230088298E+03  0.16662059891E+03 -0.10671875475E+04  0.11634250423E+04  0.46999998093E+01 0. -1.
       -5    1    3    3    0  502 -0.43230088298E+03 -0.16662059891E+03  0.18846751231E+04  0.19407907891E+04  0.46999998093E+01 0.  1.
</event>
<event>
 5   0  0.2792361E-07  0.2998125E+04  0.7818609E-02  0.8244266E-01
       -1   -1    0    0    0  501  0.00000000000E+00  0.00000000000E+00  0.15339263425E+04  0.15339263425E+04  0.50400001928E-02 0. -1.
        1   -1    0    0  501    0  0.00000000000E+00  0.00000000000E+00 -0.14649912938E+04  0.14649912938E+04  0.50400001928E-02 0.  1.
    10030    2    1    2    0    0  0.00000000000E+00  0.00000000000E+00  0.68935048707E+02  0.29989176363E+04  0.29981252389E+04 0.  0.
        4    1    3    3  502    0 -0.12307712203E+04  0.10131739656E+02  0.89043119741E+03  0.15191345494E+04  0.12699999809E+01 0. -1.
       -4    1    3    3    0  502  0.12307712203E+04 -0.10131739656E+02 -0.82149614871E+03  0.14797830869E+04  0.12699999809E+01 0.  1.
</event>
<event>
 5   0  0.7307508E-07  0.3001946E+04  0.7818609E-02  0.8243175E-01
        2   -1    0    0  501    0  0.00000000000E+00  0.00000000000E+00  0.17254660583E+04  0.17254660583E+04  0.25500000920E-02 0. -1.
       -2   -1    0    0    0  501  0.00000000000E+00  0.00000000000E+00 -0.13056875811E+04  0.13056875811E+04  0.25500000920E-02 0.  1.
    10030    2    1    2    0    0  0.00000000000E+00  0.00000000000E+00  0.41977847724E+03  0.30311536394E+04  0.30019457716E+04 0.  0.
        1    1    3    3  502    0 -0.84916909000E+03  0.62078924977E+03 -0.87125360300E+03  0.13658514842E+04  0.50400001928E-02 0.  1.
       -1    1    3    3    0  502  0.84916909000E+03 -0.62078924977E+03  0.12910320802E+04  0.16653021552E+04  0.50400001928E-02 0. -1.
</event>
<event>
 5   0  0.2640081E-07  0.2999266E+04  0.7818609E-02  0.8243940E-01
       -1   -1    0    0    0  501  0.00000000000E+00  0.00000000000E+00  0.13577692879E+04  0.13577692879E+04  0.50400001928E-02 0. -1.
        1   -1    0    0  501    0  0.00000000000E+00  0.00000000000E+00 -0.16563192081E+04  0.16563192081E+04  0.50400001928E-02 0.  1.
    10030    2    1    2    0    0  0.00000000000E+00  0.00000000000E+00 -0.29854992024E+03  0.30140884960E+04  0.29992661448E+04 0.  0.
        1    1    3    3  502    0  0.30712221379E+03  0.12504992408E+04 -0.92172631850E+03  0.15835566967E+04  0.50400001928E-02 0.  1.
       -1    1    3    3    0  502 -0.30712221379E+03 -0.12504992408E+04  0.62317639826E+03  0.14305317993E+04  0.50400001928E-02 0. -1.
</event>
<event>
 5   0  0.7399409E-07  0.3010609E+04  0.7818609E-02  0.8240708E-01
        2   -1    0    0  501    0  0.00000000000E+00  0.00000000000E+00  0.17216454610E+04  0.17216454610E+04  0.25500000920E-02 0. -1.
       -2   -1    0    0    0  501  0.00000000000E+00  0.00000000000E+00 -0.13161489166E+04  0.13161489166E+04  0.25500000920E-02 0.  1.
    10030    2    1    2    0    0  0.00000000000E+00  0.00000000000E+00  0.40549654435E+03  0.30377943776E+04  0.30106091133E+04 0.  0.
        3    1    3    3  502    0  0.13587912433E+04  0.25880273694E+01  0.85637957977E+03  0.16061464241E+04  0.10100000352E+00 0. -1.
       -3    1    3    3    0  502 -0.13587912433E+04 -0.25880273694E+01 -0.45088303542E+03  0.14316479535E+04  0.10100000352E+00 0.  1.
</event>
<event>
 5   0  0.7208273E-07  0.3004538E+04  0.7818609E-02  0.8242436E-01
       -2   -1    0    0    0  501  0.00000000000E+00  0.00000000000E+00  0.11628375608E+04  0.11628375608E+04  0.25500000920E-02 0.  1.
        2   -1    0    0  501    0  0.00000000000E+00  0.00000000000E+00 -0.19407797411E+04  0.19407797411E+04  0.25500000920E-02 0. -1.
    10030    2    1    2    0    0  0.00000000000E+00  0.00000000000E+00 -0.77794218037E+03  0.31036173019E+04  0.30045376218E+04 0.  0.
        4    1    3    3  502    0 -0.23871565668E+03  0.10641288190E+04 -0.14562188119E+04  0.18193213430E+04  0.12699999809E+01 0. -1.
       -4    1    3    3    0  502  0.23871565668E+03 -0.10641288190E+04  0.67827663148E+03  0.12842959589E+04  0.12699999809E+01 0.  1.
</event>
<event>
 5   0  0.2792361E-07  0.3000402E+04  0.7818609E-02  0.8243616E-01
       -1   -1    0    0    0  501  0.00000000000E+00  0.00000000000E+00  0.23422142654E+04  0.23422142654E+04  0.50400001928E-02 0.  1.
        1   -1    0    0  501    0  0.00000000000E+00  0.00000000000E+00 -0.96088710800E+03  0.96088710802E+03  0.50400001928E-02 0. -1.
    10030    2    1    2    0    0  0.00000000000E+00  0.00000000000E+00  0.13813271574E+04  0.33031013735E+04  0.30004023009E+04 0.  0.
        4    1    3    3  502    0 -0.14170699919E+04  0.17130762441E+03  0.18238285817E+03  0.14389922807E+04  0.12699999809E+01 0.  1.
       -4    1    3    3    0  502  0.14170699919E+04 -0.17130762441E+03  0.11989442993E+04  0.18641090928E+04  0.12699999809E+01 0. -1.
</event>
<event>
 5   0  0.2640081E-07  0.3010299E+04  0.7818609E-02  0.8240796E-01
        1   -1    0    0  501    0  0.00000000000E+00  0.00000000000E+00  0.17878357505E+04  0.17878357505E+04  0.50400001928E-02 0. -1.
       -1   -1    0    0    0  501  0.00000000000E+00  0.00000000000E+00 -0.12671607134E+04  0.12671607134E+04  0.50400001928E-02 0.  1.
    10030    2    1    2    0    0  0.00000000000E+00  0.00000000000E+00  0.52067503709E+03  0.30549964638E+04  0.30102991379E+04 0.  0.
        1    1    3    3  502    0  0.59968932729E+03 -0.13754186948E+04  0.38072156457E+03  0.15480157573E+04  0.50400001928E-02 0. -1.
       -1    1    3    3    0  502 -0.59968932729E+03  0.13754186948E+04  0.13995347252E+03  0.15069807065E+04  0.50400001928E-02 0.  1.
</event>
<event>
 5   0  0.7278657E-07  0.2996883E+04  0.7818609E-02  0.8244622E-01
        2   -1    0    0  501    0  0.00000000000E+00  0.00000000000E+00  0.13182894164E+04  0.13182894164E+04  0.25500000920E-02 0. -1.
       -2   -1    0    0    0  501  0.00000000000E+00  0.00000000000E+00 -0.17032122518E+04  0.17032122518E+04  0.25500000920E-02 0.  1.
    10030    2    1    2    0    0  0.00000000000E+00  0.00000000000E+00 -0.38492283538E+03  0.30215016682E+04  0.29968828375E+04 0.  0.
        2    1    3    3  502    0 -0.53593885919E+03 -0.12816538164E+04 -0.75873334231E+03  0.15828907893E+04  0.25500000920E-02 0.  1.
       -2    1    3    3    0  502  0.53593885919E+03  0.12816538164E+04  0.37381050692E+03  0.14386108790E+04  0.25500000920E-02 0. -1.
</event>
<event>
 5   0  0.7399409E-07  0.2993791E+04  0.7818609E-02  0.8245506E-01
        2   -1    0    0  501    0  0.00000000000E+00  0.00000000000E+00  0.23906816628E+04  0.23906816628E+04  0.25500000920E-02 0.  1.
       -2   -1    0    0    0  501  0.00000000000E+00  0.00000000000E+00 -0.93726247630E+03  0.93726247631E+03  0.25500000920E-02 0. -1.
    10030    2    1    2    0    0  0.00000000000E+00  0.00000000000E+00  0.14534191865E+04  0.33279441391E+04  0.29937910517E+04 0.  0.
        3    1    3    3  502    0  0.49889767998E+03 -0.99400692628E+03 -0.38698673793E+03  0.11775854152E+04  0.10100000352E+00 0. -1.
       -3    1    3    3    0  502 -0.49889767998E+03  0.99400692628E+03  0.18404059244E+04  0.21503587239E+04  0.10100000352E+00 0.  1.
</event>
<event>
 5   0  0.2792361E-07  0.2985122E+04  0.7818609E-02  0.8247992E-01
        1   -1    0    0  501    0  0.00000000000E+00  0.00000000000E+00  0.90157580188E+03  0.90157580189E+03  0.50400001928E-02 0. -1.
       -1   -1    0    0    0  501  0.00000000000E+00  0.00000000000E+00 -0.24709377537E+04  0.24709377537E+04  0.50400001928E-02 0.  1.
    10030    2    1    2    0    0  0.00000000000E+00  0.00000000000E+00 -0.15693619518E+04  0.33725135556E+04  0.29851215631E+04 0.  0.
        4    1    3    3  502    0  0.58560685359E+03  0.24545298001E+03  0.74137332112E+03  0.97612425773E+03  0.12699999809E+01 0. -1.
       -4    1    3    3    0  502 -0.58560685359E+03 -0.24545298001E+03 -0.23107352729E+04  0.23963892978E+04  0.12699999809E+01 0.  1.
</event>
<event>
 5   0  0.2679935E-07  0.3000535E+04  0.7818609E-02  0.8243578E-01
       -1   -1    0    0    0  501  0.00000000000E+00  0.00000000000E+00  0.95611277242E+03  0.95611277244E+03  0.50400001928E-02 0. -1.
        1   -1    0    0  501    0  0.00000000000E+00  0.00000000000E+00 -0.23541178342E+04  0.23541178342E+04  0.50400001928E-02 0.  1.
    10030    2    1    2    0    0  0.00000000000E+00  0.00000000000E+00 -0.13980050617E+04  0.33102306066E+04  0.30005347051E+04 0.  0.
        2    1    3    3  502    0 -0.31657463515E+03 -0.14490860964E+04 -0.94748804661E+03  0.17600578436E+04  0.25500000920E-02 0.  1.
       -2    1    3    3    0  502  0.31657463515E+03  0.14490860964E+04 -0.45051701512E+03  0.15501727630E+04  0.25500000920E-02 0. -1.
</event>
<event>
 5   0  0.2640081E-07  0.2999160E+04  0.7818609E-02  0.8243971E-01
       -1   -1    0    0    0  501  0.00000000000E+00  0.00000000000E+00  0.22109748236E+04  0.22109748236E+04  0.50400001928E-02 0.  1.
        1   -1    0    0  501    0  0.00000000000E+00  0.00000000000E+00 -0.10170805748E+04  0.10170805748E+04  0.50400001928E-02 0. -1.
    10030    2    1    2    0    0  0.00000000000E+00  0.00000000000E+00  0.11938942487E+04  0.32280553984E+04  0.29991595786E+04 0.  0.
        1    1    3    3  502    0 -0.20783052361E+03 -0.14781937674E+04  0.75101210981E+03  0.16710085367E+04  0.50400001928E-02 0.  1.
       -1    1    3    3    0  502  0.20783052361E+03  0.14781937674E+04  0.44288213892E+03  0.15570468617E+04  0.50400001928E-02 0. -1.
</event>
<event>
 5   0  0.7278657E-07  0.3000505E+04  0.7818609E-02  0.8243587E-01
       -2   -1    0    0    0  501  0.00000000000E+00  0.00000000000E+00  0.99781612017E+03  0.99781612017E+03  0.25500000920E-02 0. -1.
        2   -1    0    0  501    0  0.00000000000E+00  0.00000000000E+00 -0.22556835154E+04  0.22556835154E+04  0.25500000920E-02 0.  1.
    10030    2    1    2    0    0  0.00000000000E+00  0.00000000000E+00 -0.12578673952E+04  0.32534996355E+04  0.30005048733E+04 0.  0.
        2    1    3    3  502    0  0.92824660950E+03 -0.84485250921E+02  0.64576331151E+03  0.11339267085E+04  0.25500000920E-02 0. -1.
       -2    1    3    3    0  502 -0.92824660950E+03  0.84485250921E+02 -0.19036307067E+04  0.21195729271E+04  0.25500000920E-02 0.  1.
</event>
<event>
 5   0  0.2602891E-07  0.3002856E+04  0.7818609E-02  0.8242916E-01
       -1   -1    0    0    0  501  0.00000000000E+00  0.00000000000E+00  0.94370888978E+03  0.94370888980E+03  0.50400001928E-02 0.  1.
        1   -1    0    0  501    0  0.00000000000E+00  0.00000000000E+00 -0.23887512061E+04  0.23887512061E+04  0.50400001928E-02 0. -1.
    10030    2    1    2    0    0  0.00000000000E+00  0.00000000000E+00 -0.14450423163E+04  0.33324600959E+04  0.30028558065E+04 0.  0.
        5    1    3    3  502    0 -0.10725495442E+04  0.71162777667E+03 -0.15803383080E+04  0.20382021183E+04  0.46999998093E+01 0. -1.
       -5    1    3    3    0  502  0.10725495442E+04 -0.71162777667E+03  0.13529599166E+03  0.12942579776E+04  0.46999998093E+01 0.  1.
</event>
<event>
 5   0  0.2621825E-07  0.3002138E+04  0.7818609E-02  0.8243121E-01
        1   -1    0    0  501    0  0.00000000000E+00  0.00000000000E+00  0.14215240875E+04  0.14215240875E+04  0.50400001928E-02 0. -1.
       -1   -1    0    0    0  501  0.00000000000E+00  0.00000000000E+00 -0.15850650018E+04  0.15850650018E+04  0.50400001928E-02 0.  1.
    10030    2    1    2    0    0  0.00000000000E+00  0.00000000000E+00 -0.16354091430E+03  0.30065890892E+04  0.30021379583E+04 0.  0.
        3    1    3    3  502    0 -0.47952543738E+03  0.96861626215E+03  0.96142935190E+03  0.14465505582E+04  0.10100000352E+00 0. -1.
       -3    1    3    3    0  502  0.47952543738E+03 -0.96861626215E+03 -0.11249702662E+04  0.15600385311E+04  0.10100000352E+00 0.  1.
</event>
<event>
 5   0  0.7399409E-07  0.3003315E+04  0.7818609E-02  0.8242785E-01
        2   -1    0    0  501    0  0.00000000000E+00  0.00000000000E+00  0.22874644892E+04  0.22874644892E+04  0.25500000920E-02 0.  1.
       -2   -1    0    0    0  501  0.00000000000E+00  0.00000000000E+00 -0.98579696533E+03  0.98579696533E+03  0.25500000920E-02 0. -1.
    10030    2    1    2    0    0  0.00000000000E+00  0.00000000000E+00  0.13016675238E+04  0.32732614545E+04  0.30033152027E+04 0.  0.
        3    1    3    3  502    0 -0.88412471907E+03  0.50193612573E+02  0.19725967424E+04  0.21622520287E+04  0.10100000352E+00 0.  1.
       -3    1    3    3    0  502  0.88412471907E+03 -0.50193612573E+02 -0.67092921854E+03  0.11110094257E+04  0.10100000352E+00 0. -1.
</event>
<event>
 5   0  0.7399409E-07  0.2986060E+04  0.7818609E-02  0.8247723E-01
        2   -1    0    0  501    0  0.00000000000E+00  0.00000000000E+00  0.21381662257E+04  0.21381662257E+04  0.25500000920E-02 0.  1.
       -2   -1    0    0    0  501  0.00000000000E+00  0.00000000000E+00 -0.10425468501E+04  0.10425468501E+04  0.25500000920E-02 0. -1.
    10030    2    1    2    0    0  0.00000000000E+00  0.00000000000E+00  0.10956193756E+04  0.31807130758E+04  0.29860599214E+04 0.  0.
        3    1    3    3  502    0  0.33169365336E+03 -0.37299244315E+03 -0.95103957256E+03  0.10740671865E+04  0.10100000352E+00 0. -1.
       -3    1    3    3    0  502 -0.33169365336E+03  0.37299244315E+03  0.20466589482E+04  0.21066458893E+04  0.10100000352E+00 0.  1.
</event>
<event>
 5   0  0.2640081E-07  0.2998360E+04  0.7818609E-02  0.8244199E-01
       -1   -1    0    0    0  501  0.00000000000E+00  0.00000000000E+00  0.15943994722E+04  0.15943994722E+04  0.50400001928E-02 0.  1.
        1   -1    0    0  501    0  0.00000000000E+00  0.00000000000E+00 -0.14096475909E+04  0.14096475909E+04  0.50400001928E-02 0. -1.
    10030    2    1    2    0    0  0.00000000000E+00  0.00000000000E+00  0.18475188135E+03  0.30040470631E+04  0.29983604686E+04 0.  0.
        1    1    3    3  502    0  0.13226581731E+04  0.70558598928E+03  0.76061820536E+02  0.15010201969E+04  0.50400001928E-02 0.  1.
       -1    1    3    3    0  502 -0.13226581731E+04 -0.70558598928E+03  0.10869006081E+03  0.15030268661E+04  0.50400001928E-02 0. -1.
</event>
<event>
 5   0  0.7307508E-07  0.3000744E+04  0.7818609E-02  0.8243519E-01
        2   -1    0    0  501    0  0.00000000000E+00  0.00000000000E+00  0.14314194492E+04  0.14314194492E+04  0.25500000920E-02 0.  1.
       -2   -1    0    0    0  501  0.00000000000E+00  0.00000000000E+00 -0.15726455605E+04  0.15726455605E+04  0.25500000920E-02 0. -1.
    10030    2    1    2    0    0  0.00000000000E+00  0.00000000000E+00 -0.14122611127E+03  0.30040650097E+04  0.30007435359E+04 0.  0.
        1    1    3    3  502    0  0.12428799596E+03  0.13338871074E+04 -0.74694438892E+03  0.15338279699E+04  0.50400001928E-02 0. -1.
       -1    1    3    3    0  502 -0.12428799596E+03 -0.13338871074E+04  0.60571827766E+03  0.14702370398E+04  0.50400001928E-02 0.  1.
</event>
<event>
 5   0  0.2679935E-07  0.3024274E+04  0.7818609E-02  0.8236833E-01
        1   -1    0    0  501    0  0.00000000000E+00  0.00000000000E+00  0.12987499179E+04  0.12987499179E+04  0.50400001928E-02 0.  1.
       -1   -1    0    0    0  501  0.00000000000E+00  0.00000000000E+00 -0.17605844220E+04  0.17605844220E+04  0.50400001928E-02 0. -1.
    10030    2    1    2    0    0  0.00000000000E+00  0.00000000000E+00 -0.46183450414E+03  0.30593343399E+04  0.30242743748E+04 0.  0.
        2    1    3    3  502    0  0.12647029975E+04 -0.41047348274E+03 -0.95940228835E+03  0.16396386501E+04  0.25500000920E-02 0. -1.
       -2    1    3    3    0  502 -0.12647029975E+04  0.41047348274E+03  0.49756778421E+03  0.14196956899E+04  0.25500000920E-02 0.  1.
</event>
<event>
 5   0  0.2640081E-07  0.2995993E+04  0.7818609E-02  0.8244876E-01
       -1   -1    0    0    0  501  0.00000000000E+00  0.00000000000E+00  0.10005558503E+04  0.10005558503E+04  0.50400001928E-02 0.  1.
        1   -1    0    0  501    0  0.00000000000E+00  0.00000000000E+00 -0.22427461671E+04  0.22427461671E+04  0.50400001928E-02 0. -1.
    10030    2    1    2    0    0  0.00000000000E+00  0.00000000000E+00 -0.12421903169E+04  0.32433020174E+04  0.29959925222E+04 0.  0.
        1    1    3    3  502    0  0.49574804885E+03 -0.30018230508E+03  0.87427667629E+03  0.10489209937E+04  0.50400001928E-02 0.  1.
       -1    1    3    3    0  502 -0.49574804885E+03  0.30018230508E+03 -0.21164669931E+04  0.21943810237E+04  0.50400001928E-02 0. -1.
</event>
<event>
 5   0  0.2414250E-07  0.2994421E+04  0.7818609E-02  0.8245326E-01
       -4   -1    0    0    0  501  0.00000000000E+00  0.00000000000E+00  0.13834783277E+04  0.13834789107E+04  0.12699999809E+01 0.  1.
        4   -1    0    0  501    0  0.00000000000E+00  0.00000000000E+00 -0.16202908294E+04  0.16202913271E+04  0.12699999809E+01 0. -1.
    10030    2    1    2    0    0  0.00000000000E+00  0.00000000000E+00 -0.23681250160E+03  0.30037702377E+04  0.29944207253E+04 0.  0.
        5    1    3    3  502    0  0.14350859198E+04  0.11479043780E+03 -0.53074728536E+03  0.15343934348E+04  0.46999998093E+01 0. -1.
       -5    1    3    3    0  502 -0.14350859198E+04 -0.11479043780E+03  0.29393478375E+03  0.14693768029E+04  0.46999998093E+01 0.  1.
</event>
<event>
 5   0  0.7307508E-07  0.3000469E+04  0.7818609E-02  0.8243597E-01
        2   -1    0    0  501    0  0.00000000000E+00  0.00000000000E+00  0.32419571707E+04  0.32419571707E+04  0.25500000920E-02 0.  1.
       -2   -1    0    0    0  501  0.00000000000E+00  0.00000000000E+00 -0.69424218936E+03  0.69424218936E+03  0.25500000920E-02 0. -1.
    10030    2    1    2    0    0  0.00000000000E+00  0.00000000000E+00  0.25477149813E+04  0.39361993600E+04  0.30004689260E+04 0.  0.
        1    1    3    3  502    0 -0.34276737945E+03  0.65057479677E+03  0.29893220160E+04  0.30784384285E+04  0.50400001928E-02 0.  1.
       -1    1    3    3    0  502  0.34276737945E+03 -0.65057479677E+03 -0.44160703468E+03  0.85776093156E+03  0.50400001928E-02 0. -1.
</event>
<event>
 5   0  0.2792361E-07  0.2999344E+04  0.7818609E-02  0.8243918E-01
        1   -1    0    0  501    0  0.00000000000E+00  0.00000000000E+00  0.13423681432E+04  0.13423681432E+04  0.50400001928E-02 0. -1.
       -1   -1    0    0    0  501  0.00000000000E+00  0.00000000000E+00 -0.16754088311E+04  0.16754088311E+04  0.50400001928E-02 0.  1.
    10030    2    1    2    0    0  0.00000000000E+00  0.00000000000E+00 -0.33304068790E+03  0.30177769743E+04  0.29993435560E+04 0.  0.
        4    1    3    3  502    0  0.12200676194E+04  0.91187709001E+02 -0.10391067270E+04  0.16051867795E+04  0.12699999809E+01 0.  1.
       -4    1    3    3    0  502 -0.12200676194E+04 -0.91187709001E+02  0.70606603908E+03  0.14125901948E+04  0.12699999809E+01 0. -1.
</event>
<event>
 5   0  0.2679935E-07  0.2999509E+04  0.7818609E-02  0.8243871E-01
        1   -1    0    0  501    0  0.00000000000E+00  0.00000000000E+00  0.18833202878E+04  0.18833202878E+04  0.50400001928E-02 0.  1.
       -1   -1    0    0    0  501  0.00000000000E+00  0.00000000000E+00 -0.11943074454E+04  0.11943074454E+04  0.50400001928E-02 0. -1.
    10030    2    1    2    0    0  0.00000000000E+00  0.00000000000E+00  0.68901284242E+03  0.30776277332E+04  0.29995089210E+04 0.  0.
        2    1    3    3  502    0  0.62204697284E+03  0.23126981788E+03 -0.10354502124E+04  0.12298720696E+04  0.25500000920E-02 0. -1.
       -2    1    3    3    0  502 -0.62204697284E+03 -0.23126981788E+03  0.17244630548E+04  0.18477556637E+04  0.25500000920E-02 0.  1.
</event>
<event>
 5   0  0.7278657E-07  0.2996783E+04  0.7818609E-02  0.8244650E-01
        2   -1    0    0  501    0  0.00000000000E+00  0.00000000000E+00  0.22680265222E+04  0.22680265222E+04  0.25500000920E-02 0. -1.
       -2   -1    0    0    0  501  0.00000000000E+00  0.00000000000E+00 -0.98992532415E+03  0.98992532416E+03  0.25500000920E-02 0.  1.
    10030    2    1    2    0    0  0.00000000000E+00  0.00000000000E+00  0.12781011980E+04  0.32579518463E+04  0.29967828684E+04 0.  0.
        2    1    3    3  502    0  0.20998373950E+02 -0.91695630139E+03 -0.64908523637E+03  0.11236375903E+04  0.25500000920E-02 0.  1.
       -2    1    3    3    0  502 -0.20998373950E+02  0.91695630139E+03  0.19271864344E+04  0.21343142560E+04  0.25500000920E-02 0. -1.
</event>
<event>
 5   0  0.2621825E-07  0.2990352E+04  0.7818609E-02  0.8246491E-01
        1   -1    0    0  501    0  0.00000000000E+00  0.00000000000E+00  0.17026016097E+04  0.17026016097E+04  0.50400001928E-02 0.  1.
       -1   -1    0    0    0  501  0.00000000000E+00  0.00000000000E+00 -0.13130205228E+04  0.13130205228E+04  0.50400001928E-02 0. -1.
    10030    2    1    2    0    0  0.00000000000E+00  0.00000000000E+00  0.38958108696E+03  0.30156221325E+04  0.29903517222E+04 0.  0.
        3    1    3    3  502    0 -0.57119754135E+03  0.12420551762E+03  0.15825949577E+04  0.16870982343E+04  0.10100000352E+00 0.  1.
       -3    1    3    3    0  502  0.57119754135E+03 -0.12420551762E+03 -0.11930138708E+04  0.13285238981E+04  0.10100000352E+00 0. -1.
</event>
<event>
 5   0  0.7585823E-07  0.3001616E+04  0.7818609E-02  0.8243269E-01
        2   -1    0    0  501    0  0.00000000000E+00  0.00000000000E+00  0.14623101887E+04  0.14623101887E+04  0.25500000920E-02 0. -1.
       -2   -1    0    0    0  501  0.00000000000E+00  0.00000000000E+00 -0.15403198191E+04  0.15403198191E+04  0.25500000920E-02 0.  1.
    10030    2    1    2    0    0  0.00000000000E+00  0.00000000000E+00 -0.78009630415E+02  0.30026300078E+04  0.30016164747E+04 0.  0.
        5    1    3    3  502    0  0.12094503756E+04  0.19292000465E+03  0.82870662664E+03  0.14787714841E+04  0.46999998093E+01 0. -1.
       -5    1    3    3    0  502 -0.12094503756E+04 -0.19292000465E+03 -0.90671625706E+03  0.15238585236E+04  0.46999998093E+01 0.  1.
</event>
<event>
 5   0  0.2621825E-07  0.2957641E+04  0.7818609E-02  0.8255931E-01
        1   -1    0    0  501    0  0.00000000000E+00  0.00000000000E+00  0.22454435102E+04  0.22454435102E+04  0.50400001928E-02 0. -1.
       -1   -1    0    0    0  501  0.00000000000E+00  0.00000000000E+00 -0.97393239841E+03  0.97393239842E+03  0.50400001928E-02 0.  1.
    10030    2    1    2    0    0  0.00000000000E+00  0.00000000000E+00  0.12715111118E+04  0.32193759087E+04  0.29576410759E+04 0.  0.
        3    1    3    3  502    0 -0.34556104250E+03  0.90637263244E+03  0.18507739983E+04  0.20895665067E+04  0.10100000352E+00 0. -1.
       -3    1    3    3    0  502  0.34556104250E+03 -0.90637263244E+03 -0.57926288648E+03  0.11298094020E+04  0.10100000352E+00 0.  1.
</event>
<event>
 5   0  0.7278657E-07  0.3007505E+04  0.7818609E-02  0.8241591E-01
       -2   -1    0    0    0  501  0.00000000000E+00  0.00000000000E+00  0.18184536650E+04  0.18184536650E+04  0.25500000920E-02 0. -1.
        2   -1    0    0  501    0  0.00000000000E+00  0.00000000000E+00 -0.12435131708E+04  0.12435131708E+04  0.25500000920E-02 0.  1.
    10030    2    1    2    0    0  0.00000000000E+00  0.00000000000E+00  0.57494049424E+03  0.30619668358E+04  0.30075046686E+04 0.  0.
        2    1    3    3  502    0  0.58743416027E+03  0.10411256015E+04  0.12162676423E+04  0.17053821825E+04  0.25500000920E-02 0. -1.
       -2    1    3    3    0  502 -0.58743416027E+03 -0.10411256015E+04 -0.64132714806E+03  0.13565846533E+04  0.25500000920E-02 0.  1.
</event>
<event>
 5   0  0.7278657E-07  0.3001716E+04  0.7818609E-02  0.8243241E-01
       -2   -1    0    0    0  501  0.00000000000E+00  0.00000000000E+00  0.14355497011E+04  0.14355497011E+04  0.25500000920E-02 0. -1.
        2   -1    0    0  501    0  0.00000000000E+00  0.00000000000E+00 -0.15691379291E+04  0.15691379291E+04  0.25500000920E-02 0.  1.
    10030    2    1    2    0    0  0.00000000000E+00  0.00000000000E+00 -0.13358822800E+03  0.30046876302E+04  0.30017164990E+04 0.  0.
        2    1    3    3  502    0  0.11016618060E+04 -0.87072556360E+03 -0.59718058103E+03  0.15259247649E+04  0.25500000920E-02 0.  1.
       -2    1    3    3    0  502 -0.11016618060E+04  0.87072556360E+03  0.46359235303E+03  0.14787628652E+04  0.25500000920E-02 0. -1.
</event>
<event>
 5   0  0.2640081E-07  0.2999531E+04  0.7818609E-02  0.8243865E-01
        1   -1    0    0  501    0  0.00000000000E+00  0.00000000000E+00  0.11630296493E+04  0.11630296493E+04  0.50400001928E-02 0. -1.
       -1   -1    0    0    0  501  0.00000000000E+00  0.00000000000E+00 -0.19339977777E+04  0.19339977777E+04  0.50400001928E-02 0.  1.
    10030    2    1    2    0    0  0.00000000000E+00  0.00000000000E+00 -0.77096812846E+03  0.30970274270E+04  0.29995311348E+04 0.  0.
        1    1    3    3  502    0  0.11307308691E+04 -0.88257235735E+03 -0.83768125258E+03  0.16610828231E+04  0.50400001928E-02 0.  1.
       -1    1    3    3    0  502 -0.11307308691E+04  0.88257235735E+03  0.66713124129E+02  0.14359446038E+04  0.50400001928E-02 0. -1.
</event>
<event>
 5   0  0.7399409E-07  0.3002716E+04  0.7818609E-02  0.8242956E-01
        2   -1    0    0  501    0  0.00000000000E+00  0.00000000000E+00  0.16092527804E+04  0.16092527804E+04  0.25500000920E-02 0. -1.
       -2   -1    0    0    0  501  0.00000000000E+00  0.00000000000E+00 -0.14006971981E+04  0.14006971981E+04  0.25500000920E-02 0.  1.
    10030    2    1    2    0    0  0.00000000000E+00  0.00000000000E+00  0.20855558230E+03  0.30099499785E+04  0.30027160109E+04 0.  0.
        3    1    3    3  502    0  0.65349087101E+02  0.72890630348E+03  0.14183520454E+04  0.15960255128E+04  0.10100000352E+00 0. -1.
       -3    1    3    3    0  502 -0.65349087101E+02 -0.72890630348E+03 -0.12097964631E+04  0.14139244658E+04  0.10100000352E+00 0.  1.
</event>
<event>
 5   0  0.7278657E-07  0.3002182E+04  0.7818609E-02  0.8243108E-01
        2   -1    0    0  501    0  0.00000000000E+00  0.00000000000E+00  0.17256582177E+04  0.17256582177E+04  0.25500000920E-02 0. -1.
       -2   -1    0    0    0  501  0.00000000000E+00  0.00000000000E+00 -0.13057475904E+04  0.13057475904E+04  0.25500000920E-02 0.  1.
    10030    2    1    2    0    0  0.00000000000E+00  0.00000000000E+00  0.41991062727E+03  0.30314058082E+04  0.30021819130E+04 0.  0.
        2    1    3    3  502    0  0.96951189752E+03  0.41290097709E+03 -0.86948481688E+03  0.13661787523E+04  0.25500000920E-02 0.  1.
       -2    1    3    3    0  502 -0.96951189752E+03 -0.41290097709E+03  0.12893954441E+04  0.16652270559E+04  0.25500000920E-02 0. -1.
</event>
<event>
 5   0  0.2621825E-07  0.2980884E+04  0.7818609E-02  0.8249211E-01
       -1   -1    0    0    0  501  0.00000000000E+00  0.00000000000E+00  0.10575392858E+04  0.10575392858E+04  0.50400001928E-02 0. -1.
        1   -1    0    0  501    0  0.00000000000E+00  0.00000000000E+00 -0.21005536462E+04  0.21005536462E+04  0.50400001928E-02 0.  1.
    10030    2    1    2    0    0  0.00000000000E+00  0.00000000000E+00 -0.10430143605E+04  0.31580929320E+04  0.29808844344E+04 0.  0.
        3    1    3    3  502    0  0.14687750903E+00 -0.81553492764E+03  0.80018195739E+03  0.11425359578E+04  0.10100000352E+00 0. -1.
       -3    1    3    3    0  502 -0.14687750903E+00  0.81553492764E+03 -0.18431963179E+04  0.20155569742E+04  0.10100000352E+00 0.  1.
</event>
<event>
 5   0  0.2621825E-07  0.3000348E+04  0.7818609E-02  0.8243632E-01
        1   -1    0    0  501    0  0.00000000000E+00  0.00000000000E+00  0.21311057201E+04  0.21311057201E+04  0.50400001928E-02 0. -1.
       -1   -1    0    0    0  501  0.00000000000E+00  0.00000000000E+00 -0.10560349089E+04  0.10560349089E+04  0.50400001928E-02 0.  1.
    10030    2    1    2    0    0  0.00000000000E+00  0.00000000000E+00  0.10750708113E+04  0.31871406290E+04  0.30003480032E+04 0.  0.
        3    1    3    3  502    0 -0.65178771511E+03 -0.13115687524E+04  0.19253532201E+03  0.14771965604E+04  0.10100000352E+00 0. -1.
       -3    1    3    3    0  502  0.65178771511E+03  0.13115687524E+04  0.88253548925E+03  0.17099440686E+04  0.10100000352E+00 0.  1.
</event>
<event>
 5   0  0.2792361E-07  0.3015384E+04  0.7818609E-02  0.8239351E-01
        1   -1    0    0  501    0  0.00000000000E+00  0.00000000000E+00  0.16134763454E+04  0.16134763454E+04  0.50400001928E-02 0.  1.
       -1   -1    0    0    0  501  0.00000000000E+00  0.00000000000E+00 -0.14088433668E+04  0.14088433668E+04  0.50400001928E-02 0. -1.
    10030    2    1    2    0    0  0.00000000000E+00  0.00000000000E+00  0.20463297858E+03  0.30223197122E+04  0.30153841856E+04 0.  0.
        4    1    3    3  502    0  0.61091167222E+03  0.12958838004E+04  0.57308385613E+03  0.15430342234E+04  0.12699999809E+01 0. -1.
       -4    1    3    3    0  502 -0.61091167222E+03 -0.12958838004E+04 -0.36845087755E+03  0.14792854888E+04  0.12699999809E+01 0.  1.
</event>
<event>
 5   0  0.7399409E-07  0.3003884E+04  0.7818609E-02  0.8242623E-01
       -2   -1    0    0    0  501  0.00000000000E+00  0.00000000000E+00  0.81613537596E+03  0.81613537597E+03  0.25500000920E-02 0.  1.
        2   -1    0    0  501    0  0.00000000000E+00  0.00000000000E+00 -0.27640386337E+04  0.27640386337E+04  0.25500000920E-02 0. -1.
    10030    2    1    2    0    0  0.00000000000E+00  0.00000000000E+00 -0.19479032578E+04  0.35801740097E+04  0.30038839588E+04 0.  0.
        3    1    3    3  502    0  0.26179263493E+03  0.12595537266E+04 -0.18977830167E+04  0.22927257495E+04  0.10100000352E+00 0. -1.
       -3    1    3    3    0  502 -0.26179263493E+03 -0.12595537266E+04 -0.50120241063E+02  0.12874482602E+04  0.10100000352E+00 0.  1.
</event>
<event>
 5   0  0.7278657E-07  0.3000964E+04  0.7818609E-02  0.8243456E-01
       -2   -1    0    0    0  501  0.00000000000E+00  0.00000000000E+00  0.23621721535E+04  0.23621721535E+04  0.25500000920E-02 0. -1.
        2   -1    0    0  501    0  0.00000000000E+00  0.00000000000E+00 -0.95312520036E+03  0.95312520036E+03  0.25500000920E-02 0.  1.
    10030    2    1    2    0    0  0.00000000000E+00  0.00000000000E+00  0.14090469531E+04  0.33152973539E+04  0.30009637166E+04 0.  0.
        2    1    3    3  502    0 -0.30303055959E+03 -0.34723270129E+03  0.22820455297E+04  0.23281172368E+04  0.25500000920E-02 0. -1.
       -2    1    3    3    0  502  0.30303055959E+03  0.34723270129E+03 -0.87299857652E+03  0.98718011705E+03  0.25500000920E-02 0.  1.
</event>
<event>
 5   0  0.7208273E-07  0.3020780E+04  0.7818609E-02  0.8237822E-01
        2   -1    0    0  501    0  0.00000000000E+00  0.00000000000E+00  0.19742580119E+04  0.19742580119E+04  0.25500000920E-02 0.  1.
       -2   -1    0    0    0  501  0.00000000000E+00  0.00000000000E+00 -0.11555118392E+04  0.11555118392E+04  0.25500000920E-02 0. -1.
    10030    2    1    2    0    0  0.00000000000E+00  0.00000000000E+00  0.81874617277E+03  0.31297698511E+04  0.30207803669E+04 0.  0.
        4    1    3    3  502    0 -0.53290725519E+03  0.13826275676E+04  0.10619308937E+03  0.14855731953E+04  0.12699999809E+01 0. -1.
       -4    1    3    3    0  502  0.53290725519E+03 -0.13826275676E+04  0.71255308339E+03  0.16441966558E+04  0.12699999809E+01 0.  1.
</event>
<event>
 5   0  0.2679935E-07  0.3005191E+04  0.7818609E-02  0.8242250E-01
       -1   -1    0    0    0  501  0.00000000000E+00  0.00000000000E+00  0.12559318697E+04  0.12559318697E+04  0.50400001928E-02 0.  1.
        1   -1    0    0  501    0  0.00000000000E+00  0.00000000000E+00 -0.17977029995E+04  0.17977029995E+04  0.50400001928E-02 0. -1.
    10030    2    1    2    0    0  0.00000000000E+00  0.00000000000E+00 -0.54177112975E+03  0.30536348692E+04  0.30051905027E+04 0.  0.
        2    1    3    3  502    0  0.14861333813E+04  0.12542716731E+03 -0.84993628935E+02  0.14938367776E+04  0.25500000920E-02 0. -1.
       -2    1    3    3    0  502 -0.14861333813E+04 -0.12542716731E+03 -0.45677750081E+03  0.15597980916E+04  0.25500000920E-02 0.  1.
</event>
<event>
 5   0  0.7307508E-07  0.3006242E+04  0.7818609E-02  0.8241951E-01
        2   -1    0    0  501    0  0.00000000000E+00  0.00000000000E+00  0.20615428392E+04  0.20615428392E+04  0.25500000920E-02 0. -1.
       -2   -1    0    0    0  501  0.00000000000E+00  0.00000000000E+00 -0.10959618191E+04  0.10959618191E+04  0.25500000920E-02 0.  1.
    10030    2    1    2    0    0  0.00000000000E+00  0.00000000000E+00  0.96558102010E+03  0.31575046583E+04  0.30062416671E+04 0.  0.
        1    1    3    3  502    0  0.75882231844E+03 -0.41018986499E+03 -0.81012506556E+03  0.11833721554E+04  0.50400001928E-02 0.  1.
       -1    1    3    3    0  502 -0.75882231844E+03  0.41018986499E+03  0.17757060857E+04  0.19741325029E+04  0.50400001928E-02 0. -1.
</event>
<event>
 5   0  0.7278657E-07  0.2997969E+04  0.7818609E-02  0.8244311E-01
        2   -1    0    0  501    0  0.00000000000E+00  0.00000000000E+00  0.97094448573E+03  0.97094448573E+03  0.25500000920E-02 0. -1.
       -2   -1    0    0    0  501  0.00000000000E+00  0.00000000000E+00 -0.23141944738E+04  0.23141944739E+04  0.25500000920E-02 0.  1.
    10030    2    1    2    0    0  0.00000000000E+00  0.00000000000E+00 -0.13432499881E+04  0.32851389596E+04  0.29979688880E+04 0.  0.
        2    1    3    3  502    0  0.99760219406E+03  0.10164717323E+04 -0.11838745643E+04  0.18520215722E+04  0.25500000920E-02 0.  1.
       -2    1    3    3    0  502 -0.99760219406E+03 -0.10164717323E+04 -0.15937542385E+03  0.14331173873E+04  0.25500000920E-02 0. -1.
</event>
<event>
 5   0  0.2640081E-07  0.2996732E+04  0.7818609E-02  0.8244665E-01
        1   -1    0    0  501    0  0.00000000000E+00  0.00000000000E+00  0.16872289625E+04  0.16872289625E+04  0.50400001928E-02 0. -1.
       -1   -1    0    0    0  501  0.00000000000E+00  0.00000000000E+00 -0.13306434642E+04  0.13306434642E+04  0.50400001928E-02 0.  1.
    10030    2    1    2    0    0  0.00000000000E+00  0.00000000000E+00  0.35658549834E+03  0.30178724268E+04  0.29967316808E+04 0.  0.
        1    1    3    3  502    0  0.10444563281E+03  0.19405945814E+03  0.16708184140E+04  0.16852899264E+04  0.50400001928E-02 0. -1.
       -1    1    3    3    0  502 -0.10444563281E+03 -0.19405945814E+03 -0.13142329157E+04  0.13325825003E+04  0.50400001928E-02 0.  1.
</event>
<event>
 5   0  0.2602891E-07  0.3010037E+04  0.7818609E-02  0.8240871E-01
        1   -1    0    0  501    0  0.00000000000E+00  0.00000000000E+00  0.23462395963E+04  0.23462395963E+04  0.50400001928E-02 0. -1.
       -1   -1    0    0    0  501  0.00000000000E+00  0.00000000000E+00 -0.96540881142E+03  0.96540881144E+03  0.50400001928E-02 0.  1.
    10030    2    1    2    0    0  0.00000000000E+00  0.00000000000E+00  0.13808307848E+04  0.33116484077E+04  0.30100367971E+04 0.  0.
        5    1    3    3  502    0  0.10469641233E+04 -0.13384843899E+03 -0.48993725658E+03  0.11636622730E+04  0.46999998093E+01 0.  1.
       -5    1    3    3    0  502 -0.10469641233E+04  0.13384843899E+03  0.18707680414E+04  0.21479861347E+04  0.46999998093E+01 0. -1.
</event>
<event>
 5   0  0.2792361E-07  0.3012683E+04  0.7818609E-02  0.8240118E-01
       -1   -1    0    0    0  501  0.00000000000E+00  0.00000000000E+00  0.83272442541E+03  0.83272442543E+03  0.50400001928E-02 0. -1.
        1   -1    0    0  501    0  0.00000000000E+00  0.00000000000E+00 -0.27248685467E+04  0.27248685467E+04  0.50400001928E-02 0.  1.
    10030    2    1    2    0    0  0.00000000000E+00  0.00000000000E+00 -0.18921441213E+04  0.35575929721E+04  0.30126829205E+04 0.  0.
        4    1    3    3  502    0  0.98838442613E+03 -0.11095609318E+04 -0.12378065995E+04  0.19339586412E+04  0.12699999809E+01 0.  1.
       -4    1    3    3    0  502 -0.98838442613E+03  0.11095609318E+04 -0.65433752179E+03  0.16236343309E+04  0.12699999809E+01 0. -1.
</event>
<event>
 5   0  0.2621825E-07  0.2999583E+04  0.7818609E-02  0.8243850E-01
       -1   -1    0    0    0  501  0.00000000000E+00  0.00000000000E+00  0.16285779306E+04  0.16285779306E+04  0.50400001928E-02 0. -1.
        1   -1    0    0  501    0  0.00000000000E+00  0.00000000000E+00 -0.13811891218E+04  0.13811891218E+04  0.50400001928E-02 0.  1.
    10030    2    1    2    0    0  0.00000000000E+00  0.00000000000E+00  0.24738880888E+03  0.30097670524E+04  0.29995827188E+04 0.  0.
        3    1    3    3  502    0 -0.61198339353E+03  0.99211775594E+03 -0.82320071169E+03  0.14270531656E+04  0.10100000352E+00 0.  1.
       -3    1    3    3    0  502  0.61198339353E+03 -0.99211775594E+03  0.10705895206E+04  0.15827138868E+04  0.10100000352E+00 0. -1.
</event>
<event>
 5   0  0.7399409E-07  0.3002785E+04  0.7818609E-02  0.8242936E-01
       -2   -1    0    0    0  501  0.00000000000E+00  0.00000000000E+00  0.10184195243E+04  0.10184195243E+04  0.25500000920E-02 0. -1.
        2   -1    0    0  501    0  0.00000000000E+00  0.00000000000E+00 -0.22134100240E+04  0.22134100240E+04  0.25500000920E-02 0.  1.
    10030    2    1    2    0    0  0.00000000000E+00  0.00000000000E+00 -0.11949904998E+04  0.32318295483E+04  0.30027853628E+04 0.  0.
        3    1    3    3  502    0  0.11344229593E+04 -0.70828070031E+03  0.13690366978E+03  0.13443658825E+04  0.10100000352E+00 0. -1.
       -3    1    3    3    0  502 -0.11344229593E+04  0.70828070031E+03 -0.13318941695E+04  0.18874636659E+04  0.10100000352E+00 0.  1.
</event>
<event>
 5   0  0.2679935E-07  0.3001330E+04  0.7818609E-02  0.8243351E-01
        1   -1    0    0  501    0  0.00000000000E+00  0.00000000000E+00  0.11310410508E+04  0.11310410508E+04  0.50400001928E-02 0. -1.
       -1   -1    0    0    0  501  0.00000000000E+00  0.00000000000E+00 -0.19910819967E+04  0.19910819967E+04  0.50400001928E-02 0.  1.
    10030    2    1    2    0    0  0.00000000000E+00  0.00000000000E+00 -0.86004094586E+03  0.31221230475E+04  0.30013300210E+04 0.  0.
        2    1    3    3  502    0  0.52542896157E+03 -0.10031040448E+04  0.59434620673E+03  0.12788826107E+04  0.25500000920E-02 0. -1.
       -2    1    3    3    0  502 -0.52542896157E+03  0.10031040448E+04 -0.14543871526E+04  0.18432404368E+04  0.25500000920E-02 0.  1.
</event>
<event>
 5   0  0.7307508E-07  0.3001635E+04  0.7818609E-02  0.8243264E-01
        2   -1    0    0  501    0  0.00000000000E+00  0.00000000000E+00  0.24508028508E+04  0.24508028508E+04  0.25500000920E-02 0.  1.
       -2   -1    0    0    0  501  0.00000000000E+00  0.00000000000E+00 -0.91906727509E+03  0.91906727509E+03  0.25500000920E-02 0. -1.
    10030    2    1    2    0    0  0.00000000000E+00  0.00000000000E+00  0.15317355757E+04  0.33698701259E+04  0.30016346866E+04 0.  0.
        1    1    3    3  502    0 -0.13061845602E+04 -0.58030461365E+03  0.25190528488E+03  0.14513193386E+04  0.50400001928E-02 0. -1.
       -1    1    3    3    0  502  0.13061845602E+04  0.58030461365E+03  0.12798302908E+04  0.19185507873E+04  0.50400001928E-02 0.  1.
</event>
<event>
 5   0  0.2679935E-07  0.2995502E+04  0.7818609E-02  0.8245016E-01
       -1   -1    0    0    0  501  0.00000000000E+00  0.00000000000E+00  0.14674680547E+04  0.14674680547E+04  0.50400001928E-02 0.  1.
        1   -1    0    0  501    0  0.00000000000E+00  0.00000000000E+00 -0.15286593752E+04  0.15286593752E+04  0.50400001928E-02 0. -1.
    10030    2    1    2    0    0  0.00000000000E+00  0.00000000000E+00 -0.61191320502E+02  0.29961274298E+04  0.29955024951E+04 0.  0.
        2    1    3    3  502    0 -0.68526211305E+03  0.30668296272E+03 -0.13268676567E+04  0.15245380879E+04  0.25500000920E-02 0. -1.
       -2    1    3    3    0  502  0.68526211305E+03 -0.30668296272E+03  0.12656763362E+04  0.14715893419E+04  0.25500000920E-02 0.  1.
</event>
<event>
 5   0  0.2621825E-07  0.2995827E+04  0.7818609E-02  0.8244923E-01
       -1   -1    0    0    0  501  0.00000000000E+00  0.00000000000E+00  0.16549848309E+04  0.16549848309E+04  0.50400001928E-02 0. -1.
        1   -1    0    0  501    0  0.00000000000E+00  0.00000000000E+00 -0.13557498655E+04  0.13557498655E+04  0.50400001928E-02 0.  1.
    10030    2    1    2    0    0  0.00000000000E+00  0.00000000000E+00  0.29923496543E+03  0.30107346963E+04  0.29958274061E+04 0.  0.
        3    1    3    3  502    0 -0.94973528279E+02  0.83235418361E+03 -0.10982989148E+04  0.13813377482E+04  0.10100000352E+00 0.  1.
       -3    1    3    3    0  502  0.94973528279E+02 -0.83235418361E+03  0.13975338803E+04  0.16293969482E+04  0.10100000352E+00 0. -1.
</event>
<event>
 5   0  0.7208273E-07  0.3000002E+04  0.7818609E-02  0.8243730E-01
        2   -1    0    0  501    0  0.00000000000E+00  0.00000000000E+00  0.11386600290E+04  0.11386600290E+04  0.25500000920E-02 0.  1.
       -2   -1    0    0    0  501  0.00000000000E+00  0.00000000000E+00 -0.19760093888E+04  0.19760093888E+04  0.25500000920E-02 0. -1.
    10030    2    1    2    0    0  0.00000000000E+00  0.00000000000E+00 -0.83734935983E+03  0.31146694178E+04  0.30000019386E+04 0.  0.
        4    1    3    3  502    0 -0.10776022133E+04  0.98231811782E+03 -0.53335596195E+02  0.14591167580E+04  0.12699999809E+01 0.  1.
       -4    1    3    3    0  502  0.10776022133E+04 -0.98231811782E+03 -0.78401376364E+03  0.16555526598E+04  0.12699999809E+01 0. -1.
</event>
<event>
 5   0  0.2792361E-07  0.2999807E+04  0.7818609E-02  0.8243786E-01
       -1   -1    0    0    0  501  0.00000000000E+00  0.00000000000E+00  0.18626173726E+04  0.18626173726E+04  0.50400001928E-02 0.  1.
        1   -1    0    0  501    0  0.00000000000E+00  0.00000000000E+00 -0.12078225002E+04  0.12078225002E+04  0.50400001928E-02 0. -1.
    10030    2    1    2    0    0  0.00000000000E+00  0.00000000000E+00  0.65479487238E+03  0.30704398729E+04  0.29998074418E+04 0.  0.
        4    1    3    3  502    0 -0.11693364178E+04  0.75733337462E+03 -0.24139201475E+03  0.14139212198E+04  0.12699999809E+01 0. -1.
       -4    1    3    3    0  502  0.11693364178E+04 -0.75733337462E+03  0.89618688713E+03  0.16565186530E+04  0.12699999809E+01 0.  1.
</event>
<event>
 5   0  0.7278657E-07  0.3001434E+04  0.7818609E-02  0.8243321E-01
        2   -1    0    0  501    0  0.00000000000E+00  0.00000000000E+00  0.23869224499E+04  0.23869224499E+04  0.25500000920E-02 0. -1.
       -2   -1    0    0    0  501  0.00000000000E+00  0.00000000000E+00 -0.94353792175E+03  0.94353792175E+03  0.25500000920E-02 0.  1.
    10030    2    1    2    0    0  0.00000000000E+00  0.00000000000E+00  0.14433845282E+04  0.33304603717E+04  0.30014342224E+04 0.  0.
        2    1    3    3  502    0 -0.74037238947E+03  0.67116955474E+03  0.19640399437E+04  0.22036498694E+04  0.25500000920E-02 0. -1.
       -2    1    3    3    0  502  0.74037238947E+03 -0.67116955474E+03 -0.52065541556E+03  0.11268105023E+04  0.25500000920E-02 0.  1.
</event>
<event>
 5   0  0.2602891E-07  0.2999682E+04  0.7818609E-02  0.8243822E-01
        1   -1    0    0  501    0  0.00000000000E+00  0.00000000000E+00  0.22045685477E+04  0.22045685477E+04  0.50400001928E-02 0. -1.
       -1   -1    0    0    0  501  0.00000000000E+00  0.00000000000E+00 -0.10203911908E+04  0.10203911908E+04  0.50400001928E-02 0.  1.
    10030    2    1    2    0    0  0.00000000000E+00  0.00000000000E+00  0.11841773569E+04  0.32249597385E+04  0.29996815335E+04 0.  0.
        5    1    3    3  502    0  0.73314088466E+02  0.81764647376E+03  0.19415775629E+04  0.21080005299E+04  0.46999998093E+01 0. -1.
       -5    1    3    3    0  502 -0.73314088466E+02 -0.81764647376E+03 -0.75740020600E+03  0.11169592086E+04  0.46999998093E+01 0.  1.
</event>
<event>
 5   0  0.7399409E-07  0.2997663E+04  0.7818609E-02  0.8244398E-01
       -2   -1    0    0    0  501  0.00000000000E+00  0.00000000000E+00  0.11507387146E+04  0.11507387146E+04  0.25500000920E-02 0.  1.
        2   -1    0    0  501    0  0.00000000000E+00  0.00000000000E+00 -0.19522209546E+04  0.19522209546E+04  0.25500000920E-02 0. -1.
    10030    2    1    2    0    0  0.00000000000E+00  0.00000000000E+00 -0.80148223994E+03  0.31029596692E+04  0.29976632446E+04 0.  0.
        3    1    3    3  502    0  0.14945359454E+04  0.60946594699E+02 -0.49972452678E+03  0.15770468581E+04  0.10100000352E+00 0.  1.
       -3    1    3    3    0  502 -0.14945359454E+04 -0.60946594699E+02 -0.30175771317E+03  0.15259128112E+04  0.10100000352E+00 0. -1.
</event>
<event>
 5   0  0.2679935E-07  0.2989943E+04  0.7818609E-02  0.8246609E-01
       -1   -1    0    0    0  501  0.00000000000E+00  0.00000000000E+00  0.13696394562E+04  0.13696394562E+04  0.50400001928E-02 0. -1.
        1   -1    0    0  501    0  0.00000000000E+00  0.00000000000E+00 -0.16317723167E+04  0.16317723167E+04  0.50400001928E-02 0.  1.
    10030    2    1    2    0    0  0.00000000000E+00  0.00000000000E+00 -0.26213286048E+03  0.30014117729E+04  0.29899429750E+04 0.  0.
        2    1    3    3  502    0  0.12255073918E+04 -0.18127635265E+02  0.72822097690E+03  0.14256587143E+04  0.25500000920E-02 0. -1.
       -2    1    3    3    0  502 -0.12255073918E+04  0.18127635265E+02 -0.99035383738E+03  0.15757530586E+04  0.25500000920E-02 0.  1.
</event>
<event>
 5   0  0.7278657E-07  0.3002973E+04  0.7818609E-02  0.8242882E-01
        2   -1    0    0  501    0  0.00000000000E+00  0.00000000000E+00  0.12320808260E+04  0.12320808260E+04  0.25500000920E-02 0. -1.
       -2   -1    0    0    0  501  0.00000000000E+00  0.00000000000E+00 -0.18298004698E+04  0.18298004698E+04  0.25500000920E-02 0.  1.
    10030    2    1    2    0    0  0.00000000000E+00  0.00000000000E+00 -0.59771964384E+03  0.30618812958E+04  0.30029732428E+04 0.  0.
        2    1    3    3  502    0  0.43918419632E+03  0.14201711484E+04 -0.83305003638E+02  0.14888615022E+04  0.25500000920E-02 0.  1.
       -2    1    3    3    0  502 -0.43918419632E+03 -0.14201711484E+04 -0.51441464020E+03  0.15730197936E+04  0.25500000920E-02 0. -1.
</event>
<event>
 5   0  0.7307508E-07  0.3008228E+04  0.7818609E-02  0.8241385E-01
       -2   -1    0    0    0  501  0.00000000000E+00  0.00000000000E+00  0.11000661000E+04  0.11000661000E+04  0.25500000920E-02 0.  1.
        2   -1    0    0  501    0  0.00000000000E+00  0.00000000000E+00 -0.20565659714E+04  0.20565659714E+04  0.25500000920E-02 0. -1.
    10030    2    1    2    0    0  0.00000000000E+00  0.00000000000E+00 -0.95649987138E+03  0.31566320714E+04  0.30082277225E+04 0.  0.
        1    1    3    3  502    0  0.11798893937E+04  0.19168613064E+03 -0.14362373262E+04  0.18685984618E+04  0.50400001928E-02 0. -1.
       -1    1    3    3    0  502 -0.11798893937E+04 -0.19168613064E+03  0.47973745484E+03  0.12880336097E+04  0.50400001928E-02 0.  1.
</event>
<event>
 5   0  0.2621825E-07  0.3017729E+04  0.7818609E-02  0.8238686E-01
        1   -1    0    0  501    0  0.00000000000E+00  0.00000000000E+00  0.21059976939E+04  0.21059976939E+04  0.50400001928E-02 0.  1.
       -1   -1    0    0    0  501  0.00000000000E+00  0.00000000000E+00 -0.10810420878E+04  0.10810420878E+04  0.50400001928E-02 0. -1.
    10030    2    1    2    0    0  0.00000000000E+00  0.00000000000E+00  0.10249556061E+04  0.31870397817E+04  0.30177290428E+04 0.  0.
        3    1    3    3  502    0  0.81518743335E+03  0.45152615842E+02  0.18525680540E+04  0.20244944345E+04  0.10100000352E+00 0.  1.
       -3    1    3    3    0  502 -0.81518743335E+03 -0.45152615842E+02 -0.82761244797E+03  0.11625453473E+04  0.10100000352E+00 0. -1.
</event>
<event>
 5   0  0.2792361E-07  0.2996809E+04  0.7818609E-02  0.8244643E-01
       -1   -1    0    0    0  501  0.00000000000E+00  0.00000000000E+00  0.98884794120E+03  0.98884794121E+03  0.50400001928E-02 0. -1.
        1   -1    0    0  501    0  0.00000000000E+00  0.00000000000E+00 -0.22705378054E+04  0.22705378054E+04  0.50400001928E-02 0.  1.
    10030    2    1    2    0    0  0.00000000000E+00  0.00000000000E+00 -0.12816898642E+04  0.32593857466E+04  0.29968093929E+04 0.  0.
        4    1    3    3  502    0  0.77615794468E+03 -0.12763018120E+04 -0.76883112724E+03  0.16800209479E+04  0.12699999809E+01 0.  1.
       -4    1    3    3    0  502 -0.77615794468E+03  0.12763018120E+04 -0.51285873695E+03  0.15793647987E+04  0.12699999809E+01 0. -1.
</event>
<event>
 5   0  0.7278657E-07  0.2999956E+04  0.7818609E-02  0.8243743E-01
       -2   -1    0    0    0  501  0.00000000000E+00  0.00000000000E+00  0.11636604728E+04  0.11636604728E+04  0.25500000920E-02 0. -1.
        2   -1    0    0  501    0  0.00000000000E+00  0.00000000000E+00 -0.19334975608E+04  0.19334975608E+04  0.25500000920E-02 0.  1.
    10030    2    1    2    0    0  0.00000000000E+00  0.00000000000E+00 -0.76983708798E+03  0.30971580336E+04  0.29999564569E+04 0.  0.
        2    1    3    3  502    0 -0.12462789626E+04  0.28550225203E+03  0.42484976731E+03  0.13473010478E+04  0.25500000920E-02 0. -1.
       -2    1    3    3    0  502  0.12462789626E+04 -0.28550225203E+03 -0.11946868553E+04  0.17498569858E+04  0.25500000920E-02 0.  1.
</event>
<event>
 5   0  0.7208273E-07  0.3000919E+04  0.7818609E-02  0.8243469E-01
       -2   -1    0    0    0  501  0.00000000000E+00  0.00000000000E+00  0.88049033863E+03  0.88049033864E+03  0.25500000920E-02 0. -1.
        2   -1    0    0  501    0  0.00000000000E+00  0.00000000000E+00 -0.25569597709E+04  0.25569597709E+04  0.25500000920E-02 0.  1.
    10030    2    1    2    0    0  0.00000000000E+00  0.00000000000E+00 -0.16764694323E+04  0.34374501096E+04  0.30009187757E+04 0.  0.
        4    1    3    3  502    0  0.14895535216E+04 -0.10093597156E+03 -0.10097450361E+04  0.18023718859E+04  0.12699999809E+01 0. -1.
       -4    1    3    3    0  502 -0.14895535216E+04  0.10093597156E+03 -0.66672439624E+03  0.16350782237E+04  0.12699999809E+01 0.  1.
</event>
<event>
 5   0  0.7399409E-07  0.3002109E+04  0.7818609E-02  0.8243129E-01
        2   -1    0    0  501    0  0.00000000000E+00  0.00000000000E+00  0.16419509621E+04  0.16419509621E+04  0.25500000920E-02 0.  1.
       -2   -1    0    0    0  501  0.00000000000E+00  0.00000000000E+00 -0.13722484500E+04  0.13722484500E+04  0.25500000920E-02 0. -1.
    10030    2    1    2    0    0  0.00000000000E+00  0.00000000000E+00  0.26970251207E+03  0.30141994121E+04  0.30021090338E+04 0.  0.
        3    1    3    3  502    0 -0.48512883527E+03 -0.40664400779E+03 -0.12316794349E+04  0.13848261900E+04  0.10100000352E+00 0. -1.
       -3    1    3    3    0  502  0.48512883527E+03  0.40664400779E+03  0.15013819470E+04  0.16293732221E+04  0.10100000352E+00 0.  1.
</event>
<event>
 5   0  0.7585823E-07  0.3003344E+04  0.7818609E-02  0.8242776E-01
        2   -1    0    0  501    0  0.00000000000E+00  0.00000000000E+00  0.14630174753E+04  0.14630174753E+04  0.25500000920E-02 0.  1.
       -2   -1    0    0    0  501  0.00000000000E+00  0.00000000000E+00 -0.15413483283E+04  0.15413483283E+04  0.25500000920E-02 0. -1.
    10030    2    1    2    0    0  0.00000000000E+00  0.00000000000E+00 -0.78330852988E+02  0.30043658036E+04  0.30033444956E+04 0.  0.
        5    1    3    3  502    0 -0.43112268502E+03  0.93975927440E+03 -0.11285643099E+04  0.15305860822E+04  0.46999998093E+01 0. -1.
       -5    1    3    3    0  502  0.43112268502E+03 -0.93975927440E+03  0.10502334569E+04  0.14737797214E+04  0.46999998093E+01 0.  1.
</event>
<event>
 5   0  0.2792361E-07  0.2999417E+04  0.7818609E-02  0.8243897E-01
       -1   -1    0    0    0  501  0.00000000000E+00  0.00000000000E+00  0.12722337024E+04  0.12722337024E+04  0.50400001928E-02 0. -1.
        1   -1    0    0  501    0  0.00000000000E+00  0.00000000000E+00 -0.17678558224E+04  0.17678558224E+04  0.50400001928E-02 0.  1.
    10030    2    1    2    0    0  0.00000000000E+00  0.00000000000E+00 -0.49562211996E+03  0.30400895248E+04  0.29994171156E+04 0.  0.
        4    1    3    3  502    0 -0.19776184132E+03  0.13218991191E+01 -0.17545807922E+04  0.17656916103E+04  0.12699999809E+01 0.  1.
       -4    1    3    3    0  502  0.19776184132E+03 -0.13218991191E+01  0.12589586722E+04  0.12743979146E+04  0.12699999809E+01 0. -1.
</event>
<event>
 5   0  0.2602891E-07  0.3009292E+04  0.7818609E-02  0.8241082E-01
        1   -1    0    0  501    0  0.00000000000E+00  0.00000000000E+00  0.12157077346E+04  0.12157077346E+04  0.50400001928E-02 0.  1.
       -1   -1    0    0    0  501  0.00000000000E+00  0.00000000000E+00 -0.18622567261E+04  0.18622567261E+04  0.50400001928E-02 0. -1.
    10030    2    1    2    0    0  0.00000000000E+00  0.00000000000E+00 -0.64654899152E+03  0.30779644607E+04  0.30092922130E+04 0.  0.
        5    1    3    3  502    0 -0.30540973938E+03  0.21481942617E+02  0.11835034073E+04  0.12224724896E+04  0.46999998093E+01 0.  1.
       -5    1    3    3    0  502  0.30540973938E+03 -0.21481942617E+02 -0.18300523988E+04  0.18554919712E+04  0.46999998093E+01 0. -1.
</event>
<event>
 5   0  0.2640081E-07  0.2995961E+04  0.7818609E-02  0.8244885E-01
       -1   -1    0    0    0  501  0.00000000000E+00  0.00000000000E+00  0.10110362319E+04  0.10110362319E+04  0.50400001928E-02 0. -1.
        1   -1    0    0  501    0  0.00000000000E+00  0.00000000000E+00 -0.22194519404E+04  0.22194519405E+04  0.50400001928E-02 0.  1.
    10030    2    1    2    0    0  0.00000000000E+00  0.00000000000E+00 -0.12084157086E+04  0.32304881723E+04  0.29959614996E+04 0.  0.
        1    1    3    3  502    0  0.45024150666E+03 -0.13991892953E+03  0.92894369000E+03  0.10417442586E+04  0.50400001928E-02 0. -1.
       -1    1    3    3    0  502 -0.45024150666E+03  0.13991892953E+03 -0.21373593986E+04  0.21887439137E+04  0.50400001928E-02 0.  1.
</event>
<event>
 5   0  0.7208273E-07  0.2994743E+04  0.7818609E-02  0.8245234E-01
        2   -1    0    0  501    0  0.00000000000E+00  0.00000000000E+00  0.21298988417E+04  0.21298988417E+04  0.25500000920E-02 0. -1.
       -2   -1    0    0    0  501  0.00000000000E+00  0.00000000000E+00 -0.10526891804E+04  0.10526891804E+04  0.25500000920E-02 0.  1.
    10030    2    1    2    0    0  0.00000000000E+00  0.00000000000E+00  0.10772096613E+04  0.31825880221E+04  0.29947430381E+04 0.  0.
        4    1    3    3  502    0  0.59314498625E+03  0.13247781274E+04  0.14775635018E+03  0.14590036372E+04  0.12699999809E+01 0. -1.
       -4    1    3    3    0  502 -0.59314498625E+03 -0.13247781274E+04  0.92945331111E+03  0.17235843849E+04  0.12699999809E+01 0.  1.
</event>
<event>
 5   0  0.7208273E-07  0.3001907E+04  0.7818609E-02  0.8243187E-01
       -2   -1    0    0    0  501  0.00000000000E+00  0.00000000000E+00  0.87487359815E+03  0.87487359815E+03  0.25500000920E-02 0. -1.
        2   -1    0    0  501    0  0.00000000000E+00  0.00000000000E+00 -0.25750705679E+04  0.25750705679E+04  0.25500000920E-02 0.  1.
    10030    2    1    2    0    0  0.00000000000E+00  0.00000000000E+00 -0.17001969698E+04  0.34499441661E+04  0.30019068961E+04 0.  0.
        4    1    3    3  502    0  0.84531840705E+03  0.10410361491E+04 -0.75278200601E+02  0.13431261644E+04  0.12699999809E+01 0. -1.
       -4    1    3    3    0  502 -0.84531840705E+03 -0.10410361491E+04 -0.16249187692E+04  0.21068180017E+04  0.12699999809E+01 0.  1.
</event>
<event>
 5   0  0.2414250E-07  0.2996074E+04  0.7818609E-02  0.8244853E-01
        3   -1    0    0  501    0  0.00000000000E+00  0.00000000000E+00  0.11803718625E+04  0.11803718668E+04  0.10100000352E+00 0. -1.
       -3   -1    0    0    0  501  0.00000000000E+00  0.00000000000E+00 -0.19011935387E+04  0.19011935414E+04  0.10100000352E+00 0.  1.
    10030    2    1    2    0    0  0.00000000000E+00  0.00000000000E+00 -0.72082167623E+03  0.30815654081E+04  0.29960743442E+04 0.  0.
        1    1    3    3  502    0  0.51326423306E+02 -0.67379616247E+03 -0.17355269279E+04  0.18624417811E+04  0.50400001928E-02 0.  1.
       -1    1    3    3    0  502 -0.51326423306E+02  0.67379616247E+03  0.10147052517E+04  0.12191236271E+04  0.50400001928E-02 0. -1.
</event>
<event>
 5   0  0.7278657E-07  0.3004363E+04  0.7818609E-02  0.8242486E-01
       -2   -1    0    0    0  501  0.00000000000E+00  0.00000000000E+00  0.11353335107E+04  0.11353335108E+04  0.25500000920E-02 0. -1.
        2   -1    0    0  501    0  0.00000000000E+00  0.00000000000E+00 -0.19875652051E+04  0.19875652051E+04  0.25500000920E-02 0.  1.
    10030    2    1    2    0    0  0.00000000000E+00  0.00000000000E+00 -0.85223169436E+03  0.31228987159E+04  0.30043630820E+04 0.  0.
        2    1    3    3  502    0  0.13989696487E+04 -0.46071193453E+03 -0.73302403754E+03  0.16452038793E+04  0.25500000920E-02 0.  1.
       -2    1    3    3    0  502 -0.13989696487E+04  0.46071193453E+03 -0.11920765682E+03  0.14776948366E+04  0.25500000920E-02 0. -1.
</event>
<event>
 5   0  0.2679935E-07  0.3001172E+04  0.7818609E-02  0.8243396E-01
        1   -1    0    0  501    0  0.00000000000E+00  0.00000000000E+00  0.25297689294E+04  0.25297689294E+04  0.50400001928E-02 0. -1.
       -1   -1    0    0    0  501  0.00000000000E+00  0.00000000000E+00 -0.89010430738E+03  0.89010430739E+03  0.50400001928E-02 0.  1.
    10030    2    1    2    0    0  0.00000000000E+00  0.00000000000E+00  0.16396646220E+04  0.34198732368E+04  0.30011719183E+04 0.  0.
        2    1    3    3  502    0  0.37704317106E+03  0.10080220685E+04 -0.37175585186E+03  0.11386274442E+04  0.25500000920E-02 0.  1.
       -2    1    3    3    0  502 -0.37704317106E+03 -0.10080220685E+04  0.20114204739E+04  0.22812457926E+04  0.25500000920E-02 0. -1.
</event>
<event>
 5   0  0.2621825E-07  0.3014627E+04  0.7818609E-02  0.8239566E-01
        1   -1    0    0  501    0  0.00000000000E+00  0.00000000000E+00  0.22200557897E+04  0.22200557897E+04  0.50400001928E-02 0. -1.
       -1   -1    0    0    0  501  0.00000000000E+00  0.00000000000E+00 -0.10233946745E+04  0.10233946745E+04  0.50400001928E-02 0.  1.
    10030    2    1    2    0    0  0.00000000000E+00  0.00000000000E+00  0.11966611153E+04  0.32434504642E+04  0.30146265256E+04 0.  0.
        3    1    3    3  502    0 -0.10053836270E+04  0.11197532581E+04  0.69056806207E+03  0.16557559769E+04  0.10100000352E+00 0.  1.
       -3    1    3    3    0  502  0.10053836270E+04 -0.11197532581E+04  0.50609305320E+03  0.15876944873E+04  0.10100000352E+00 0. -1.
</event>
<event>
 5   0  0.7585823E-07  0.3015518E+04  0.7818609E-02  0.8239314E-01
       -2   -1    0    0    0  501  0.00000000000E+00  0.00000000000E+00  0.12152493115E+04  0.12152493115E+04  0.25500000920E-02 0.  1.
        2   -1    0    0  501    0  0.00000000000E+00  0.00000000000E+00 -0.18706751886E+04  0.18706751886E+04  0.25500000920E-02 0. -1.
    10030    2    1    2    0    0  0.00000000000E+00  0.00000000000E+00 -0.65542587716E+03  0.30859245001E+04  0.30155176902E+04 0.  0.
        5    1    3    3  502    0 -0.88141960378E+03 -0.22125627218E+03  0.90348156995E+03  0.12814663059E+04  0.46999998093E+01 0.  1.
       -5    1    3    3    0  502  0.88141960378E+03  0.22125627218E+03 -0.15589074471E+04  0.18044581942E+04  0.46999998093E+01 0. -1.
</event>
<event>
 5   0  0.7307508E-07  0.3001906E+04  0.7818609E-02  0.8243187E-01
       -2   -1    0    0    0  501  0.00000000000E+00  0.00000000000E+00  0.11670552162E+04  0.11670552162E+04  0.25500000920E-02 0. -1.
        2   -1    0    0  501    0  0.00000000000E+00  0.00000000000E+00 -0.19303795507E+04  0.19303795507E+04  0.25500000920E-02 0.  1.
    10030    2    1    2    0    0  0.00000000000E+00  0.00000000000E+00 -0.76332433443E+03  0.30974347669E+04  0.30019057439E+04 0.  0.
        1    1    3    3  502    0 -0.14454956360E+04  0.19506661243E+03 -0.16346029716E+02  0.14586897578E+04  0.50400001928E-02 0. -1.
       -1    1    3    3    0  502  0.14454956360E+04 -0.19506661243E+03 -0.74697830472E+03  0.16387450090E+04  0.50400001928E-02 0.  1.
</event>
<event>
 5   0  0.2792361E-07  0.2995375E+04  0.7818609E-02  0.8245053E-01
        1   -1    0    0  501    0  0.00000000000E+00  0.00000000000E+00  0.15144006744E+04  0.15144006744E+04  0.50400001928E-02 0.  1.
       -1   -1    0    0    0  501  0.00000000000E+00  0.00000000000E+00 -0.14811587591E+04  0.14811587591E+04  0.50400001928E-02 0. -1.
    10030    2    1    2    0    0  0.00000000000E+00  0.00000000000E+00  0.33241915235E+02  0.29955594335E+04  0.29953749840E+04 0.  0.
        4    1    3    3  502    0 -0.12415256579E+04  0.42794772449E+03 -0.70352129231E+03  0.14897882520E+04  0.12699999809E+01 0. -1.
       -4    1    3    3    0  502  0.12415256579E+04 -0.42794772449E+03  0.73676320755E+03  0.15057711815E+04  0.12699999809E+01 0.  1.
</event>
<event>
 5   0  0.2792361E-07  0.2998397E+04  0.7818609E-02  0.8244189E-01
       -1   -1    0    0    0  501  0.00000000000E+00  0.00000000000E+00  0.12524062881E+04  0.12524062881E+04  0.50400001928E-02 0. -1.
        1   -1    0    0  501    0  0.00000000000E+00  0.00000000000E+00 -0.17946219714E+04  0.17946219714E+04  0.50400001928E-02 0.  1.
    10030    2    1    2    0    0  0.00000000000E+00  0.00000000000E+00 -0.54221568331E+03  0.30470282595E+04  0.29983967995E+04 0.  0.
        4    1    3    3  502    0  0.51728786355E+03  0.10031022807E+04  0.73170703874E+03  0.13450642077E+04  0.12699999809E+01 0.  1.
       -4    1    3    3    0  502 -0.51728786355E+03 -0.10031022807E+04 -0.12739227221E+04  0.17019640519E+04  0.12699999809E+01 0. -1.
</event>
<event>
 5   0  0.2602891E-07  0.3000394E+04  0.7818609E-02  0.8243618E-01
        1   -1    0    0  501    0  0.00000000000E+00  0.00000000000E+00  0.17234201475E+04  0.17234201476E+04  0.50400001928E-02 0. -1.
       -1   -1    0    0    0  501  0.00000000000E+00  0.00000000000E+00 -0.13058867075E+04  0.13058867075E+04  0.50400001928E-02 0.  1.
    10030    2    1    2    0    0  0.00000000000E+00  0.00000000000E+00  0.41753344009E+03  0.30293068550E+04  0.30003942821E+04 0.  0.
        5    1    3    3  502    0  0.13145902741E+04  0.71159648446E+03  0.80848449549E+02  0.14970222802E+04  0.46999998093E+01 0.  1.
       -5    1    3    3    0  502 -0.13145902741E+04 -0.71159648446E+03  0.33668499054E+03  0.15322845749E+04  0.46999998093E+01 0. -1.
</event>
<event>
 5   0  0.7208273E-07  0.2996885E+04  0.7818609E-02  0.8244621E-01
        2   -1    0    0  501    0  0.00000000000E+00  0.00000000000E+00  0.16601169880E+04  0.16601169880E+04  0.25500000920E-02 0. -1.
       -2   -1    0    0    0  501  0.00000000000E+00  0.00000000000E+00 -0.13525133175E+04  0.13525133175E+04  0.25500000920E-02 0.  1.
    10030    2    1    2    0    0  0.00000000000E+00  0.00000000000E+00  0.30760367048E+03  0.30126303055E+04  0.29968852730E+04 0.  0.
        4    1    3    3  502    0 -0.26733782350E+03  0.14338363098E+04 -0.19147415893E+03  0.14710608559E+04  0.12699999809E+01 0.  1.
       -4    1    3    3    0  502  0.26733782350E+03 -0.14338363098E+04  0.49907782942E+03  0.15415694496E+04  0.12699999809E+01 0. -1.
</event>
<event>
 5   0  0.2602891E-07  0.2936315E+04  0.7818609E-02  0.8262154E-01
       -1   -1    0    0    0  501  0.00000000000E+00  0.00000000000E+00  0.15757537273E+04  0.15757537273E+04  0.50400001928E-02 0. -1.
        1   -1    0    0  501    0  0.00000000000E+00  0.00000000000E+00 -0.13679086586E+04  0.13679086586E+04  0.50400001928E-02 0.  1.
    10030    2    1    2    0    0  0.00000000000E+00  0.00000000000E+00  0.20784506867E+03  0.29436623859E+04  0.29363154922E+04 0.  0.
        5    1    3    3  502    0 -0.13484428093E+04 -0.55519782766E+03  0.27441403884E+03  0.14838691966E+04  0.46999998093E+01 0. -1.
       -5    1    3    3    0  502  0.13484428093E+04  0.55519782766E+03 -0.66568970162E+02  0.14597931893E+04  0.46999998093E+01 0.  1.
</event>
<event>
 5   0  0.7399409E-07  0.2993987E+04  0.7818609E-02  0.8245450E-01
        2   -1    0    0  501    0  0.00000000000E+00  0.00000000000E+00  0.13805211446E+04  0.13805211446E+04  0.25500000920E-02 0.  1.
       -2   -1    0    0    0  501  0.00000000000E+00  0.00000000000E+00 -0.16232927210E+04  0.16232927210E+04  0.25500000920E-02 0. -1.
    10030    2    1    2    0    0  0.00000000000E+00  0.00000000000E+00 -0.24277157642E+03  0.30038138655E+04  0.29939872579E+04 0.  0.
        3    1    3    3  502    0 -0.70453121032E+01  0.13134189145E+04 -0.84198476520E+03  0.15601465433E+04  0.10100000352E+00 0. -1.
       -3    1    3    3    0  502  0.70453121032E+01 -0.13134189145E+04  0.59921318878E+03  0.14436673222E+04  0.10100000352E+00 0.  1.
</event>
<event>
 5   0  0.7399409E-07  0.2991325E+04  0.7818609E-02  0.8246212E-01
       -2   -1    0    0    0  501  0.00000000000E+00  0.00000000000E+00  0.11309567702E+04  0.11309567702E+04  0.25500000920E-02 0. -1.
        2   -1    0    0  501    0  0.00000000000E+00  0.00000000000E+00 -0.19779771543E+04  0.19779771543E+04  0.25500000920E-02 0.  1.
    10030    2    1    2    0    0  0.00000000000E+00  0.00000000000E+00 -0.84702038415E+03  0.31089339245E+04  0.29913252274E+04 0.  0.
        3    1    3    3  502    0  0.29544668734E+03  0.27863228679E+03  0.10725577668E+04  0.11468674159E+04  0.10100000352E+00 0. -1.
       -3    1    3    3    0  502 -0.29544668734E+03 -0.27863228679E+03 -0.19195781510E+04  0.19620665086E+04  0.10100000352E+00 0.  1.
</event>
<event>
 5   0  0.2414250E-07  0.2995422E+04  0.7818609E-02  0.8245039E-01
        3   -1    0    0  501    0  0.00000000000E+00  0.00000000000E+00  0.18944546992E+04  0.18944547019E+04  0.10100000352E+00 0. -1.
       -3   -1    0    0    0  501  0.00000000000E+00  0.00000000000E+00 -0.11840551261E+04  0.11840551304E+04  0.10100000352E+00 0.  1.
    10030    2    1    2    0    0  0.00000000000E+00  0.00000000000E+00  0.71039957314E+03  0.30785098323E+04  0.29954223799E+04 0.  0.
        5    1    3    3  502    0 -0.12567087522E+04  0.79292133548E+03  0.16272008141E+03  0.14948381341E+04  0.46999998093E+01 0. -1.
       -5    1    3    3    0  502  0.12567087522E+04 -0.79292133548E+03  0.54767949173E+03  0.15836716982E+04  0.46999998093E+01 0.  1.
</event>
<event>
 5   0  0.2602891E-07  0.3004154E+04  0.7818609E-02  0.8242546E-01
        1   -1    0    0  501    0  0.00000000000E+00  0.00000000000E+00  0.16697417946E+04  0.16697417946E+04  0.50400001928E-02 0. -1.
       -1   -1    0    0    0  501  0.00000000000E+00  0.00000000000E+00 -0.13512484129E+04  0.13512484129E+04  0.50400001928E-02 0.  1.
    10030    2    1    2    0    0  0.00000000000E+00  0.00000000000E+00  0.31849338170E+03  0.30209902074E+04  0.30041544233E+04 0.  0.
        5    1    3    3  502    0 -0.42488700040E+03 -0.52036002764E+03 -0.11917518523E+04  0.13680636276E+04  0.46999998093E+01 0.  1.
       -5    1    3    3    0  502  0.42488700040E+03  0.52036002764E+03  0.15102452341E+04  0.16529265799E+04  0.46999998093E+01 0. -1.
</event>
<event>
 5   0  0.7399409E-07  0.3002082E+04  0.7818609E-02  0.8243137E-01
        2   -1    0    0  501    0  0.00000000000E+00  0.00000000000E+00  0.29914591399E+04  0.29914591399E+04  0.25500000920E-02 0.  1.
       -2   -1    0    0    0  501  0.00000000000E+00  0.00000000000E+00 -0.75318553286E+03  0.75318553287E+03  0.25500000920E-02 0. -1.
    10030    2    1    2    0    0  0.00000000000E+00  0.00000000000E+00  0.22382736070E+04  0.37446446727E+04  0.30020817752E+04 0.  0.
        3    1    3    3  502    0  0.95110056001E+03  0.49262103037E+03 -0.19257184390E+03  0.10882792289E+04  0.10100000352E+00 0. -1.
       -3    1    3    3    0  502 -0.95110056001E+03 -0.49262103037E+03  0.24308454509E+04  0.26563654438E+04  0.10100000352E+00 0.  1.
</event>
<event>
 5   0  0.7278657E-07  0.2996317E+04  0.7818609E-02  0.8244783E-01
       -2   -1    0    0    0  501  0.00000000000E+00  0.00000000000E+00  0.96773555110E+03  0.96773555110E+03  0.25500000920E-02 0.  1.
        2   -1    0    0  501    0  0.00000000000E+00  0.00000000000E+00 -0.23193103479E+04  0.23193103479E+04  0.25500000920E-02 0. -1.
    10030    2    1    2    0    0  0.00000000000E+00  0.00000000000E+00 -0.13515747968E+04  0.32870458990E+04  0.29963171246E+04 0.  0.
        2    1    3    3  502    0 -0.89026943792E+03 -0.91129383603E+02 -0.19938640068E+04  0.21854926022E+04  0.25500000920E-02 0. -1.
       -2    1    3    3    0  502  0.89026943792E+03  0.91129383603E+02  0.64228920993E+03  0.11015532969E+04  0.25500000920E-02 0.  1.
</event>
<event>
 5   0  0.7307508E-07  0.3001181E+04  0.7818609E-02  0.8243394E-01
       -2   -1    0    0    0  501  0.00000000000E+00  0.00000000000E+00  0.12041643772E+04  0.12041643772E+04  0.25500000920E-02 0.  1.
        2   -1    0    0  501    0  0.00000000000E+00  0.00000000000E+00 -0.18699869174E+04  0.18699869174E+04  0.25500000920E-02 0. -1.
    10030    2    1    2    0    0  0.00000000000E+00  0.00000000000E+00 -0.66582254012E+03  0.30741512946E+04  0.30011808554E+04 0.  0.
        1    1    3    3  502    0 -0.11852015121E+04 -0.42088127851E+03 -0.11713032612E+04  0.17186608172E+04  0.50400001928E-02 0. -1.
       -1    1    3    3    0  502  0.11852015121E+04  0.42088127851E+03  0.50548072108E+03  0.13554904774E+04  0.50400001928E-02 0.  1.
</event>
<event>
 5   0  0.2640081E-07  0.2997323E+04  0.7818609E-02  0.8244496E-01
        1   -1    0    0  501    0  0.00000000000E+00  0.00000000000E+00  0.21773317482E+04  0.21773317482E+04  0.50400001928E-02 0. -1.
       -1   -1    0    0    0  501  0.00000000000E+00  0.00000000000E+00 -0.10315316272E+04  0.10315316272E+04  0.50400001928E-02 0.  1.
    10030    2    1    2    0    0  0.00000000000E+00  0.00000000000E+00  0.11458001210E+04  0.32088633754E+04  0.29973231799E+04 0.  0.
        1    1    3    3  502    0  0.49408948003E+03  0.98069730600E+03 -0.51892773442E+03  0.12145689004E+04  0.50400001928E-02 0.  1.
       -1    1    3    3    0  502 -0.49408948003E+03 -0.98069730600E+03  0.16647278554E+04  0.19942944749E+04  0.50400001928E-02 0. -1.
</event>
<event>
 5   0  0.7208273E-07  0.3013665E+04  0.7818609E-02  0.8239840E-01
        2   -1    0    0  501    0  0.00000000000E+00  0.00000000000E+00  0.15209090484E+04  0.15209090484E+04  0.25500000920E-02 0.  1.
       -2   -1    0    0    0  501  0.00000000000E+00  0.00000000000E+00 -0.14928858973E+04  0.14928858973E+04  0.25500000920E-02 0. -1.
    10030    2    1    2    0    0  0.00000000000E+00  0.00000000000E+00  0.28023151081E+02  0.30137949457E+04  0.30136646591E+04 0.  0.
        4    1    3    3  502    0  0.37596341243E+02 -0.12792990555E+04  0.80935878894E+03  0.15142928450E+04  0.12699999809E+01 0.  1.
       -4    1    3    3    0  502 -0.37596341243E+02  0.12792990555E+04 -0.78133563785E+03  0.14995021007E+04  0.12699999809E+01 0. -1.
</event>
<event>
 5   0  0.7208273E-07  0.2995073E+04  0.7818609E-02  0.8245139E-01
       -2   -1    0    0    0  501  0.00000000000E+00  0.00000000000E+00  0.10708664970E+04  0.10708664970E+04  0.25500000920E-02 0.  1.
        2   -1    0    0  501    0  0.00000000000E+00  0.00000000000E+00 -0.20942071366E+04  0.20942071366E+04  0.25500000920E-02 0. -1.
    10030    2    1    2    0    0  0.00000000000E+00  0.00000000000E+00 -0.10233406396E+04  0.31650736335E+04  0.29950734617E+04 0.  0.
        4    1    3    3  502    0  0.10949644515E+04 -0.91569096502E+03 -0.32994750015E+02  0.14277700655E+04  0.12699999809E+01 0.  1.
       -4    1    3    3    0  502 -0.10949644515E+04  0.91569096502E+03 -0.99034588959E+03  0.17373035680E+04  0.12699999809E+01 0. -1.
</event>
<event>
 5   0  0.7399409E-07  0.3037199E+04  0.7818609E-02  0.8233188E-01
        2   -1    0    0  501    0  0.00000000000E+00  0.00000000000E+00  0.20506615702E+04  0.20506615702E+04  0.25500000920E-02 0. -1.
       -2   -1    0    0    0  501  0.00000000000E+00  0.00000000000E+00 -0.11245853443E+04  0.11245853443E+04  0.25500000920E-02 0.  1.
    10030    2    1    2    0    0  0.00000000000E+00  0.00000000000E+00  0.92607622588E+03  0.31752469146E+04  0.30371986752E+04 0.  0.
        3    1    3    3  502    0  0.73224788555E+03  0.67924092637E+03  0.16589684693E+04  0.19364223698E+04  0.10100000352E+00 0. -1.
       -3    1    3    3    0  502 -0.73224788555E+03 -0.67924092637E+03 -0.73289224346E+03  0.12388245447E+04  0.10100000352E+00 0.  1.
</event>
<event>
 5   0  0.2792361E-07  0.3002050E+04  0.7818609E-02  0.8243146E-01
       -1   -1    0    0    0  501  0.00000000000E+00  0.00000000000E+00  0.11330735850E+04  0.11330735850E+04  0.50400001928E-02 0.  1.
        1   -1    0    0  501    0  0.00000000000E+00  0.00000000000E+00 -0.19884642291E+04  0.19884642291E+04  0.50400001928E-02 0. -1.
    10030    2    1    2    0    0  0.00000000000E+00  0.00000000000E+00 -0.85539064415E+03  0.31215378141E+04  0.30020501612E+04 0.  0.
        4    1    3    3  502    0 -0.62201640885E+03  0.13638599415E+04 -0.50861521748E+03  0.15829432729E+04  0.12699999809E+01 0.  1.
       -4    1    3    3    0  502  0.62201640885E+03 -0.13638599415E+04 -0.34677542667E+03  0.15385945412E+04  0.12699999809E+01 0. -1.
</event>
<event>
 5   0  0.2679935E-07  0.3000161E+04  0.7818609E-02  0.8243685E-01
        1   -1    0    0  501    0  0.00000000000E+00  0.00000000000E+00  0.28757765429E+04  0.28757765429E+04  0.50400001928E-02 0.  1.
       -1   -1    0    0    0  501  0.00000000000E+00  0.00000000000E+00 -0.78248151727E+03  0.78248151729E+03  0.50400001928E-02 0. -1.
    10030    2    1    2    0    0  0.00000000000E+00  0.00000000000E+00  0.20932950256E+04  0.36582580602E+04  0.30001613241E+04 0.  0.
        2    1    3    3  502    0  0.21151250266E+03 -0.10168463067E+04 -0.27314625822E+03  0.10739286888E+04  0.25500000920E-02 0. -1.
       -2    1    3    3    0  502 -0.21151250266E+03  0.10168463067E+04  0.23664412839E+04  0.25843293715E+04  0.25500000920E-02 0.  1.
</event>
<event>
 5   0  0.7399409E-07  0.2996997E+04  0.7818609E-02  0.8244589E-01
        2   -1    0    0  501    0  0.00000000000E+00  0.00000000000E+00  0.22453829595E+04  0.22453829595E+04  0.25500000920E-02 0. -1.
       -2   -1    0    0    0  501  0.00000000000E+00  0.00000000000E+00 -0.10000508186E+04  0.10000508186E+04  0.25500000920E-02 0.  1.
    10030    2    1    2    0    0  0.00000000000E+00  0.00000000000E+00  0.12453321409E+04  0.32454337781E+04  0.29969965411E+04 0.  0.
        3    1    3    3  502    0 -0.73328104649E+03 -0.89871928958E+03 -0.40471555713E+03  0.12284918180E+04  0.10100000352E+00 0.  1.
       -3    1    3    3    0  502  0.73328104649E+03  0.89871928958E+03  0.16500476980E+04  0.20169419601E+04  0.10100000352E+00 0. -1.
</event>
<event>
 5   0  0.7208273E-07  0.2999434E+04  0.7818609E-02  0.8243892E-01
        2   -1    0    0  501    0  0.00000000000E+00  0.00000000000E+00  0.18313940811E+04  0.18313940811E+04  0.25500000920E-02 0. -1.
       -2   -1    0    0    0  501  0.00000000000E+00  0.00000000000E+00 -0.12281089221E+04  0.12281089221E+04  0.25500000920E-02 0.  1.
    10030    2    1    2    0    0  0.00000000000E+00  0.00000000000E+00  0.60328515900E+03  0.30595030032E+04  0.29994342206E+04 0.  0.
        4    1    3    3  502    0  0.10078540126E+04 -0.10844319261E+04  0.54599696457E+03  0.15779342862E+04  0.12699999809E+01 0.  1.
       -4    1    3    3    0  502 -0.10078540126E+04  0.10844319261E+04  0.57288194430E+02  0.14815687170E+04  0.12699999809E+01 0. -1.
</event>
<event>
 5   0  0.7208273E-07  0.2998685E+04  0.7818609E-02  0.8244107E-01
        2   -1    0    0  501    0  0.00000000000E+00  0.00000000000E+00  0.95002323107E+03  0.95002323107E+03  0.25500000920E-02 0. -1.
       -2   -1    0    0    0  501  0.00000000000E+00  0.00000000000E+00 -0.23662870392E+04  0.23662870392E+04  0.25500000920E-02 0.  1.
    10030    2    1    2    0    0  0.00000000000E+00  0.00000000000E+00 -0.14162638081E+04  0.33163102703E+04  0.29986848175E+04 0.  0.
        4    1    3    3  502    0 -0.97758148827E+03 -0.37862611851E+03 -0.18935863441E+04  0.21644154313E+04  0.12699999809E+01 0.  1.
       -4    1    3    3    0  502  0.97758148827E+03  0.37862611851E+03  0.47732253595E+03  0.11518948390E+04  0.12699999809E+01 0. -1.
</event>
<event>
 5   0  0.2621825E-07  0.2998332E+04  0.7818609E-02  0.8244207E-01
        1   -1    0    0  501    0  0.00000000000E+00  0.00000000000E+00  0.22226732411E+04  0.22226732411E+04  0.50400001928E-02 0. -1.
       -1   -1    0    0    0  501  0.00000000000E+00  0.00000000000E+00 -0.10111691483E+04  0.10111691483E+04  0.50400001928E-02 0.  1.
    10030    2    1    2    0    0  0.00000000000E+00  0.00000000000E+00  0.12115040928E+04  0.32338423894E+04  0.29983319417E+04 0.  0.
        3    1    3    3  502    0 -0.89794864754E+03  0.11922628313E+04  0.75711861953E+03  0.16736281089E+04  0.10100000352E+00 0. -1.
       -3    1    3    3    0  502  0.89794864754E+03 -0.11922628313E+04  0.45438547329E+03  0.15602142805E+04  0.10100000352E+00 0.  1.
</event>
<event>
 5   0  0.2640081E-07  0.3002413E+04  0.7818609E-02  0.8243042E-01
       -1   -1    0    0    0  501  0.00000000000E+00  0.00000000000E+00  0.12990676719E+04  0.12990676719E+04  0.50400001928E-02 0. -1.
        1   -1    0    0  501    0  0.00000000000E+00  0.00000000000E+00 -0.17347986179E+04  0.17347986179E+04  0.50400001928E-02 0.  1.
    10030    2    1    2    0    0  0.00000000000E+00  0.00000000000E+00 -0.43573094601E+03  0.30338662897E+04  0.30024128974E+04 0.  0.
        1    1    3    3  502    0  0.43751043679E+03 -0.11745035945E+04 -0.10528065591E+04  0.16368493292E+04  0.50400001928E-02 0.  1.
       -1    1    3    3    0  502 -0.43751043679E+03  0.11745035945E+04  0.61707561306E+03  0.13970169605E+04  0.50400001928E-02 0. -1.
</event>
<event>
 5   0  0.2792361E-07  0.2994612E+04  0.7818609E-02  0.8245271E-01
       -1   -1    0    0    0  501  0.00000000000E+00  0.00000000000E+00  0.13693849118E+04  0.13693849118E+04  0.50400001928E-02 0. -1.
        1   -1    0    0  501    0  0.00000000000E+00  0.00000000000E+00 -0.16371767470E+04  0.16371767470E+04  0.50400001928E-02 0.  1.
    10030    2    1    2    0    0  0.00000000000E+00  0.00000000000E+00 -0.26779183522E+03  0.30065616589E+04  0.29946119183E+04 0.  0.
        4    1    3    3  502    0  0.38638570710E+03 -0.75676518223E+03  0.11038805634E+04  0.13930331535E+04  0.12699999809E+01 0. -1.
       -4    1    3    3    0  502 -0.38638570710E+03  0.75676518223E+03 -0.13716723986E+04  0.16135285054E+04  0.12699999809E+01 0.  1.
</event>
<event>
 5   0  0.7307508E-07  0.3020428E+04  0.7818609E-02  0.8237922E-01
       -2   -1    0    0    0  501  0.00000000000E+00  0.00000000000E+00  0.14426002372E+04  0.14426002372E+04  0.25500000920E-02 0. -1.
        2   -1    0    0  501    0  0.00000000000E+00  0.00000000000E+00 -0.15809966000E+04  0.15809966000E+04  0.25500000920E-02 0.  1.
    10030    2    1    2    0    0  0.00000000000E+00  0.00000000000E+00 -0.13839636282E+03  0.30235968373E+04  0.30204278308E+04 0.  0.
        1    1    3    3  502    0 -0.32881287851E+03 -0.23866031646E+02 -0.15445350156E+04  0.15793276769E+04  0.50400001928E-02 0.  1.
       -1    1    3    3    0  502  0.32881287851E+03  0.23866031646E+02  0.14061386528E+04  0.14442691603E+04  0.50400001928E-02 0. -1.
</event>
<event>
 5   0  0.7208273E-07  0.3001790E+04  0.7818609E-02  0.8243220E-01
       -2   -1    0    0    0  501  0.00000000000E+00  0.00000000000E+00  0.17376655543E+04  0.17376655543E+04  0.25500000920E-02 0.  1.
        2   -1    0    0  501    0  0.00000000000E+00  0.00000000000E+00 -0.12963861425E+04  0.12963861426E+04  0.25500000920E-02 0. -1.
    10030    2    1    2    0    0  0.00000000000E+00  0.00000000000E+00  0.44127941170E+03  0.30340516968E+04  0.30017898294E+04 0.  0.
        4    1    3    3  502    0  0.60633676604E+03 -0.11592704805E+04  0.96416225990E+03  0.16251654676E+04  0.12699999809E+01 0. -1.
       -4    1    3    3    0  502 -0.60633676604E+03  0.11592704805E+04 -0.52288284820E+03  0.14088862292E+04  0.12699999809E+01 0.  1.
</event>
<event>
 5   0  0.2602891E-07  0.2999106E+04  0.7818609E-02  0.8243986E-01
        1   -1    0    0  501    0  0.00000000000E+00  0.00000000000E+00  0.10137304704E+04  0.10137304704E+04  0.50400001928E-02 0. -1.
       -1   -1    0    0    0  501  0.00000000000E+00  0.00000000000E+00 -0.22182015999E+04  0.22182015999E+04  0.50400001928E-02 0.  1.
    10030    2    1    2    0    0  0.00000000000E+00  0.00000000000E+00 -0.12044711294E+04  0.32319320703E+04  0.29991055676E+04 0.  0.
        5    1    3    3  502    0  0.84569540347E+03  0.12273567250E+04 -0.42506023108E+03  0.15499366232E+04  0.46999998093E+01 0.  1.
       -5    1    3    3    0  502 -0.84569540347E+03 -0.12273567250E+04 -0.77941089837E+03  0.16819954472E+04  0.46999998093E+01 0. -1.
</event>
<event>
 5   0  0.7307508E-07  0.3004026E+04  0.7818609E-02  0.8242582E-01
        2   -1    0    0  501    0  0.00000000000E+00  0.00000000000E+00  0.12244835267E+04  0.12244835267E+04  0.25500000920E-02 0. -1.
       -2   -1    0    0    0  501  0.00000000000E+00  0.00000000000E+00 -0.18424439948E+04  0.18424439948E+04  0.25500000920E-02 0.  1.
    10030    2    1    2    0    0  0.00000000000E+00  0.00000000000E+00 -0.61796046804E+03  0.30669275215E+04  0.30040255129E+04 0.  0.
        1    1    3    3  502    0  0.82869519201E+03  0.10368291620E+04 -0.10267607042E+04  0.16780905745E+04  0.50400001928E-02 0.  1.
       -1    1    3    3    0  502 -0.82869519201E+03 -0.10368291620E+04  0.40880023616E+03  0.13888369470E+04  0.50400001928E-02 0. -1.
</event>
<event>
 5   0  0.2621825E-07  0.2994025E+04  0.7818609E-02  0.8245439E-01
        1   -1    0    0  501    0  0.00000000000E+00  0.00000000000E+00  0.20108369265E+04  0.20108369265E+04  0.50400001928E-02 0.  1.
       -1   -1    0    0    0  501  0.00000000000E+00  0.00000000000E+00 -0.11144840609E+04  0.11144840609E+04  0.50400001928E-02 0. -1.
    10030    2    1    2    0    0  0.00000000000E+00  0.00000000000E+00  0.89635286557E+03  0.31253209873E+04  0.29940245180E+04 0.  0.
        3    1    3    3  502    0 -0.11832655772E+03 -0.45271170345E+03 -0.10361869382E+04  0.11369399464E+04  0.10100000352E+00 0. -1.
       -3    1    3    3    0  502  0.11832655772E+03  0.45271170345E+03  0.19325398037E+04  0.19883810409E+04  0.10100000352E+00 0.  1.
</event>
<event>
 5   0  0.2414250E-07  0.2994655E+04  0.7818609E-02  0.8245259E-01
       -3   -1    0    0    0  501  0.00000000000E+00  0.00000000000E+00  0.11897573519E+04  0.11897573562E+04  0.10100000352E+00 0.  1.
        3   -1    0    0  501    0  0.00000000000E+00  0.00000000000E+00 -0.18844087693E+04  0.18844087720E+04  0.10100000352E+00 0. -1.
    10030    2    1    2    0    0  0.00000000000E+00  0.00000000000E+00 -0.69465141739E+03  0.30741661282E+04  0.29946547033E+04 0.  0.
        2    1    3    3  502    0 -0.30099971244E+03  0.13322319334E+04  0.28260075870E+03  0.13947422487E+04  0.25500000920E-02 0.  1.
       -2    1    3    3    0  502  0.30099971244E+03 -0.13322319334E+04 -0.97725217609E+03  0.16794238795E+04  0.25500000920E-02 0. -1.
</event>
<event>
 5   0  0.2602891E-07  0.2990418E+04  0.7818609E-02  0.8246472E-01
       -1   -1    0    0    0  501  0.00000000000E+00  0.00000000000E+00  0.11177197700E+04  0.11177197700E+04  0.50400001928E-02 0.  1.
        1   -1    0    0  501    0  0.00000000000E+00  0.00000000000E+00 -0.20001887895E+04  0.20001887895E+04  0.50400001928E-02 0. -1.
    10030    2    1    2    0    0  0.00000000000E+00  0.00000000000E+00 -0.88246901944E+03  0.31179085595E+04  0.29904184013E+04 0.  0.
        5    1    3    3  502    0  0.14235181649E+04  0.39763380292E+03 -0.67695223767E+03  0.16256700247E+04  0.46999998093E+01 0. -1.
       -5    1    3    3    0  502 -0.14235181649E+04 -0.39763380292E+03 -0.20551678177E+03  0.14922385348E+04  0.46999998093E+01 0.  1.
</event>
<event>
 5   0  0.7585823E-07  0.2990399E+04  0.7818609E-02  0.8246478E-01
        2   -1    0    0  501    0  0.00000000000E+00  0.00000000000E+00  0.25750339311E+04  0.25750339311E+04  0.25500000920E-02 0. -1.
       -2   -1    0    0    0  501  0.00000000000E+00  0.00000000000E+00 -0.86819105151E+03  0.86819105151E+03  0.25500000920E-02 0.  1.
    10030    2    1    2    0    0  0.00000000000E+00  0.00000000000E+00  0.17068428796E+04  0.34432249827E+04  0.29903989141E+04 0.  0.
        5    1    3    3  502    0  0.94008760205E+03  0.72325159285E+03 -0.19478273752E+03  0.12020066435E+04  0.46999998093E+01 0.  1.
       -5    1    3    3    0  502 -0.94008760205E+03 -0.72325159285E+03  0.19016256172E+04  0.22412183392E+04  0.46999998093E+01 0. -1.
</event>
<event>
 5   0  0.7585823E-07  0.3030627E+04  0.7818609E-02  0.8235039E-01
        2   -1    0    0  501    0  0.00000000000E+00  0.00000000000E+00  0.13446011069E+04  0.13446011069E+04  0.25500000920E-02 0.  1.
       -2   -1    0    0    0  501  0.00000000000E+00  0.00000000000E+00 -0.17077001768E+04  0.17077001768E+04  0.25500000920E-02 0. -1.
    10030    2    1    2    0    0  0.00000000000E+00  0.00000000000E+00 -0.36309906993E+03  0.30523012837E+04  0.30306273595E+04 0.  0.
        5    1    3    3  502    0  0.32141346007E+03 -0.83571878191E+03 -0.14127572700E+04  0.16726140286E+04  0.46999998093E+01 0. -1.
       -5    1    3    3    0  502 -0.32141346007E+03  0.83571878191E+03  0.10496582001E+04  0.13796872551E+04  0.46999998093E+01 0.  1.
</event>
<event>
 5   0  0.7208273E-07  0.2992904E+04  0.7818609E-02  0.8245760E-01
       -2   -1    0    0    0  501  0.00000000000E+00  0.00000000000E+00  0.15182630058E+04  0.15182630058E+04  0.25500000920E-02 0. -1.
        2   -1    0    0  501    0  0.00000000000E+00  0.00000000000E+00 -0.14749542462E+04  0.14749542462E+04  0.25500000920E-02 0.  1.
    10030    2    1    2    0    0  0.00000000000E+00  0.00000000000E+00  0.43308759597E+02  0.29932172521E+04  0.29929039192E+04 0.  0.
        4    1    3    3  502    0 -0.20727544412E+03 -0.77818993319E+02 -0.14584829775E+04  0.14751925685E+04  0.12699999809E+01 0.  1.
       -4    1    3    3    0  502  0.20727544412E+03  0.77818993319E+02  0.15017917371E+04  0.15180246836E+04  0.12699999809E+01 0. -1.
</event>
<event>
 5   0  0.2640081E-07  0.2994131E+04  0.7818609E-02  0.8245409E-01
        1   -1    0    0  501    0  0.00000000000E+00  0.00000000000E+00  0.21735878527E+04  0.21735878527E+04  0.50400001928E-02 0.  1.
       -1   -1    0    0    0  501  0.00000000000E+00  0.00000000000E+00 -0.10311082801E+04  0.10311082801E+04  0.50400001928E-02 0. -1.
    10030    2    1    2    0    0  0.00000000000E+00  0.00000000000E+00  0.11424795726E+04  0.32046961328E+04  0.29941305466E+04 0.  0.
        1    1    3    3  502    0 -0.77514228784E+03 -0.73317156981E+03  0.16952444400E+04  0.20030576199E+04  0.50400001928E-02 0.  1.
       -1    1    3    3    0  502  0.77514228784E+03  0.73317156981E+03 -0.55276486738E+03  0.12016385129E+04  0.50400001928E-02 0. -1.
</event>
<event>
 5   0  0.7585823E-07  0.2997860E+04  0.7818609E-02  0.8244342E-01
       -2   -1    0    0    0  501  0.00000000000E+00  0.00000000000E+00  0.11295199747E+04  0.11295199747E+04  0.25500000920E-02 0. -1.
        2   -1    0    0  501    0  0.00000000000E+00  0.00000000000E+00 -0.19891559118E+04  0.19891559118E+04  0.25500000920E-02 0.  1.
    10030    2    1    2    0    0  0.00000000000E+00  0.00000000000E+00 -0.85963593710E+03  0.31186758865E+04  0.29978601270E+04 0.  0.
        5    1    3    3  502    0  0.10918652161E+04  0.28365939550E+03  0.59694189421E+03  0.12763204997E+04  0.46999998093E+01 0. -1.
       -5    1    3    3    0  502 -0.10918652161E+04 -0.28365939550E+03 -0.14565778313E+04  0.18423553869E+04  0.46999998093E+01 0.  1.
</event>
<event>
 5   0  0.2602891E-07  0.3008045E+04  0.7818609E-02  0.8241437E-01
       -1   -1    0    0    0  501  0.00000000000E+00  0.00000000000E+00  0.11392567528E+04  0.11392567528E+04  0.50400001928E-02 0.  1.
        1   -1    0    0  501    0  0.00000000000E+00  0.00000000000E+00 -0.19855785158E+04  0.19855785158E+04  0.50400001928E-02 0. -1.
    10030    2    1    2    0    0  0.00000000000E+00  0.00000000000E+00 -0.84632176298E+03  0.31248352686E+04  0.30080450344E+04 0.  0.
        5    1    3    3  502    0 -0.13877741721E+04  0.40084386407E+03  0.11992743541E+02  0.14445618270E+04  0.46999998093E+01 0.  1.
       -5    1    3    3    0  502  0.13877741721E+04 -0.40084386407E+03 -0.85831450652E+03  0.16802734415E+04  0.46999998093E+01 0. -1.
</event>
<event>
 5   0  0.7399409E-07  0.2996634E+04  0.7818609E-02  0.8244693E-01
        2   -1    0    0  501    0  0.00000000000E+00  0.00000000000E+00  0.23662947766E+04  0.23662947766E+04  0.25500000920E-02 0. -1.
       -2   -1    0    0    0  501  0.00000000000E+00  0.00000000000E+00 -0.94872143699E+03  0.94872143699E+03  0.25500000920E-02 0.  1.
    10030    2    1    2    0    0  0.00000000000E+00  0.00000000000E+00  0.14175733396E+04  0.33150162136E+04  0.29966344995E+04 0.  0.
        3    1    3    3  502    0 -0.79707642734E+03 -0.89995814415E+03  0.16980574451E+04  0.20805418980E+04  0.10100000352E+00 0. -1.
       -3    1    3    3    0  502  0.79707642734E+03  0.89995814415E+03 -0.28048410549E+03  0.12344743156E+04  0.10100000352E+00 0.  1.
</event>
<event>
 5   0  0.7585823E-07  0.2996465E+04  0.7818609E-02  0.8244741E-01
        2   -1    0    0  501    0  0.00000000000E+00  0.00000000000E+00  0.18521532686E+04  0.18521532686E+04  0.25500000920E-02 0. -1.
       -2   -1    0    0    0  501  0.00000000000E+00  0.00000000000E+00 -0.12119407457E+04  0.12119407457E+04  0.25500000920E-02 0.  1.
    10030    2    1    2    0    0  0.00000000000E+00  0.00000000000E+00  0.64021252285E+03  0.30640940143E+04  0.29964645925E+04 0.  0.
        5    1    3    3  502    0  0.76217289440E+03  0.12638095423E+04  0.56299433909E+02  0.14769271466E+04  0.46999998093E+01 0.  1.
       -5    1    3    3    0  502 -0.76217289440E+03 -0.12638095423E+04  0.58391308894E+03  0.15871668676E+04  0.46999998093E+01 0. -1.
</event>
<event>
 5   0  0.2792361E-07  0.3000329E+04  0.7818609E-02  0.8243637E-01
        1   -1    0    0  501    0  0.00000000000E+00  0.00000000000E+00  0.19055743311E+04  0.19055743311E+04  0.50400001928E-02 0.  1.
       -1   -1    0    0    0  501  0.00000000000E+00  0.00000000000E+00 -0.11810052898E+04  0.11810052898E+04  0.50400001928E-02 0. -1.
    10030    2    1    2    0    0  0.00000000000E+00  0.00000000000E+00  0.72456904126E+03  0.30865796209E+04  0.30003288921E+04 0.  0.
        4    1    3    3  502    0  0.29693973997E+03  0.80080911916E+03  0.16310359761E+04  0.18411269436E+04  0.12699999809E+01 0.  1.
       -4    1    3    3    0  502 -0.29693973997E+03 -0.80080911916E+03 -0.90646693481E+03  0.12454526773E+04  0.12699999809E+01 0. -1.
</event>
<event>
 5   0  0.7399409E-07  0.3002488E+04  0.7818609E-02  0.8243021E-01
       -2   -1    0    0    0  501  0.00000000000E+00  0.00000000000E+00  0.15485672515E+04  0.15485672515E+04  0.25500000920E-02 0. -1.
        2   -1    0    0  501    0  0.00000000000E+00  0.00000000000E+00 -0.14553668184E+04  0.14553668184E+04  0.25500000920E-02 0.  1.
    10030    2    1    2    0    0  0.00000000000E+00  0.00000000000E+00  0.93200433078E+02  0.30039340699E+04  0.30024878977E+04 0.  0.
        3    1    3    3  502    0  0.14468874625E+04 -0.10385735735E+03 -0.34019135452E+03  0.14899663914E+04  0.10100000352E+00 0. -1.
       -3    1    3    3    0  502 -0.14468874625E+04  0.10385735735E+03  0.43339178760E+03  0.15139676785E+04  0.10100000352E+00 0.  1.
</event>
<event>
 5   0  0.7278657E-07  0.2997704E+04  0.7818609E-02  0.8244387E-01
       -2   -1    0    0    0  501  0.00000000000E+00  0.00000000000E+00  0.87809743623E+03  0.87809743623E+03  0.25500000920E-02 0. -1.
        2   -1    0    0  501    0  0.00000000000E+00  0.00000000000E+00 -0.25584372846E+04  0.25584372846E+04  0.25500000920E-02 0.  1.
    10030    2    1    2    0    0  0.00000000000E+00  0.00000000000E+00 -0.16803398484E+04  0.34365347208E+04  0.29977039349E+04 0.  0.
        2    1    3    3  502    0  0.32115236349E+03  0.41955661065E+03  0.76779769021E+03  0.93202997978E+03  0.25500000920E-02 0. -1.
       -2    1    3    3    0  502 -0.32115236349E+03 -0.41955661065E+03 -0.24481375386E+04  0.25045047411E+04  0.25500000920E-02 0.  1.
</event>
<event>
 5   0  0.7208273E-07  0.3001818E+04  0.7818609E-02  0.8243212E-01
       -2   -1    0    0    0  501  0.00000000000E+00  0.00000000000E+00  0.13576299788E+04  0.13576299788E+04  0.25500000920E-02 0.  1.
        2   -1    0    0  501    0  0.00000000000E+00  0.00000000000E+00 -0.16593090125E+04  0.16593090125E+04  0.25500000920E-02 0. -1.
    10030    2    1    2    0    0  0.00000000000E+00  0.00000000000E+00 -0.30167903364E+03  0.30169389913E+04  0.30018178889E+04 0.  0.
        4    1    3    3  502    0 -0.14659711060E+04 -0.36063606505E+02  0.17070046030E+03  0.14763170823E+04  0.12699999809E+01 0.  1.
       -4    1    3    3    0  502  0.14659711060E+04  0.36063606505E+02 -0.47237949395E+03  0.15406219090E+04  0.12699999809E+01 0. -1.
</event>
<event>
 5   0  0.7399409E-07  0.2960468E+04  0.7818609E-02  0.8255110E-01
        2   -1    0    0  501    0  0.00000000000E+00  0.00000000000E+00  0.17216231514E+04  0.17216231514E+04  0.25500000920E-02 0.  1.
       -2   -1    0    0    0  501  0.00000000000E+00  0.00000000000E+00 -0.12726902812E+04  0.12726902812E+04  0.25500000920E-02 0. -1.
    10030    2    1    2    0    0  0.00000000000E+00  0.00000000000E+00  0.44893287020E+03  0.29943134327E+04  0.29604682419E+04 0.  0.
        3    1    3    3  502    0  0.11851894177E+03  0.13054391859E+03 -0.12620310844E+04  0.12742883984E+04  0.10100000352E+00 0. -1.
       -3    1    3    3    0  502 -0.11851894177E+03 -0.13054391859E+03  0.17109639546E+04  0.17200250342E+04  0.10100000352E+00 0.  1.
</event>
<event>
 5   0  0.7307508E-07  0.3001098E+04  0.7818609E-02  0.8243417E-01
        2   -1    0    0  501    0  0.00000000000E+00  0.00000000000E+00  0.11846436074E+04  0.11846436074E+04  0.25500000920E-02 0.  1.
       -2   -1    0    0    0  501  0.00000000000E+00  0.00000000000E+00 -0.19006956002E+04  0.19006956002E+04  0.25500000920E-02 0. -1.
    10030    2    1    2    0    0  0.00000000000E+00  0.00000000000E+00 -0.71605199274E+03  0.30853392076E+04  0.30010977275E+04 0.  0.
        1    1    3    3  502    0  0.47561942747E+02  0.66824777969E+03  0.10223586726E+04  0.12223070354E+04  0.50400001928E-02 0.  1.
       -1    1    3    3    0  502 -0.47561942747E+02 -0.66824777969E+03 -0.17384106653E+04  0.18630321722E+04  0.50400001928E-02 0. -1.
</event>
<event>
 5   0  0.7307508E-07  0.3017821E+04  0.7818609E-02  0.8238660E-01
       -2   -1    0    0    0  501  0.00000000000E+00  0.00000000000E+00  0.82047333639E+03  0.82047333639E+03  0.25500000920E-02 0. -1.
        2   -1    0    0  501    0  0.00000000000E+00  0.00000000000E+00 -0.27749973088E+04  0.27749973088E+04  0.25500000920E-02 0.  1.
    10030    2    1    2    0    0  0.00000000000E+00  0.00000000000E+00 -0.19545239725E+04  0.35954706452E+04  0.30178212674E+04 0.  0.
        1    1    3    3  502    0 -0.46986316512E+03 -0.12938400962E+04 -0.24087859925E+03  0.13974319619E+04  0.50400001928E-02 0. -1.
       -1    1    3    3    0  502  0.46986316512E+03  0.12938400962E+04 -0.17136453732E+04  0.21980386834E+04  0.50400001928E-02 0.  1.
</event>
<event>
 5   0  0.2640081E-07  0.3001455E+04  0.7818609E-02  0.8243316E-01
       -1   -1    0    0    0  501  0.00000000000E+00  0.00000000000E+00  0.18743966064E+04  0.18743966064E+04  0.50400001928E-02 0.  1.
        1   -1    0    0  501    0  0.00000000000E+00  0.00000000000E+00 -0.12015506884E+04  0.12015506884E+04  0.50400001928E-02 0. -1.
    10030    2    1    2    0    0  0.00000000000E+00  0.00000000000E+00  0.67284591801E+03  0.30759472948E+04  0.30014546692E+04 0.  0.
        1    1    3    3  502    0 -0.17314702975E+03  0.82652434223E+03 -0.93495564342E+03  0.12598668332E+04  0.50400001928E-02 0. -1.
       -1    1    3    3    0  502  0.17314702975E+03 -0.82652434223E+03  0.16078015614E+04  0.18160804616E+04  0.50400001928E-02 0.  1.
</event>
<event>
 5   0  0.2679935E-07  0.2997729E+04  0.7818609E-02  0.8244380E-01
       -1   -1    0    0    0  501  0.00000000000E+00  0.00000000000E+00  0.85216804426E+03  0.85216804427E+03  0.50400001928E-02 0.  1.
        1   -1    0    0  501    0  0.00000000000E+00  0.00000000000E+00 -0.26363291911E+04  0.26363291911E+04  0.50400001928E-02 0. -1.
    10030    2    1    2    0    0  0.00000000000E+00  0.00000000000E+00 -0.17841611468E+04  0.34884972353E+04  0.29977294680E+04 0.  0.
        2    1    3    3  502    0  0.73370837530E+03  0.41254213853E+03  0.55114731906E+03  0.10061224395E+04  0.25500000920E-02 0.  1.
       -2    1    3    3    0  502 -0.73370837530E+03 -0.41254213853E+03 -0.23353084659E+04  0.24823747958E+04  0.25500000920E-02 0. -1.
</event>
<event>
 5   0  0.7307508E-07  0.2998384E+04  0.7818609E-02  0.8244192E-01
        2   -1    0    0  501    0  0.00000000000E+00  0.00000000000E+00  0.16609594251E+04  0.16609594251E+04  0.25500000920E-02 0. -1.
       -2   -1    0    0    0  501  0.00000000000E+00  0.00000000000E+00 -0.13531797355E+04  0.13531797355E+04  0.25500000920E-02 0.  1.
    10030    2    1    2    0    0  0.00000000000E+00  0.00000000000E+00  0.30777968957E+03  0.30141391606E+04  0.29983839885E+04 0.  0.
        1    1    3    3  502    0 -0.32884576499E+03  0.22609503877E+03  0.16065846352E+04  0.16554071081E+04  0.50400001928E-02 0. -1.
       -1    1    3    3    0  502  0.32884576499E+03 -0.22609503877E+03 -0.12988049456E+04  0.13587320525E+04  0.50400001928E-02 0.  1.
</event>
<event>
 5   0  0.2602891E-07  0.2995442E+04  0.7818609E-02  0.8245034E-01
        1   -1    0    0  501    0  0.00000000000E+00  0.00000000000E+00  0.15168995691E+04  0.15168995691E+04  0.50400001928E-02 0.  1.
       -1   -1    0    0    0  501  0.00000000000E+00  0.00000000000E+00 -0.14787851574E+04  0.14787851575E+04  0.50400001928E-02 0. -1.
    10030    2    1    2    0    0  0.00000000000E+00  0.00000000000E+00  0.38114411684E+02  0.29956847266E+04  0.29954422500E+04 0.  0.
        5    1    3    3  502    0 -0.10820603338E+04 -0.19840377217E+03  0.10354700601E+04  0.15107742909E+04  0.46999998093E+01 0.  1.
       -5    1    3    3    0  502  0.10820603338E+04  0.19840377217E+03 -0.99735564838E+03  0.14849104357E+04  0.46999998093E+01 0. -1.
</event>
<event>
 5   0  0.7585823E-07  0.3002027E+04  0.7818609E-02  0.8243152E-01
        2   -1    0    0  501    0  0.00000000000E+00  0.00000000000E+00  0.16679117205E+04  0.16679117205E+04  0.25500000920E-02 0. -1.
       -2   -1    0    0    0  501  0.00000000000E+00  0.00000000000E+00 -0.13508157805E+04  0.13508157805E+04  0.25500000920E-02 0.  1.
    10030    2    1    2    0    0  0.00000000000E+00  0.00000000000E+00  0.31709594000E+03  0.30187275011E+04  0.30020269637E+04 0.  0.
        5    1    3    3  502    0  0.69395388803E+03  0.60964915113E+03  0.13482507734E+04  0.16343336024E+04  0.46999998093E+01 0. -1.
       -5    1    3    3    0  502 -0.69395388803E+03 -0.60964915113E+03 -0.10311548334E+04  0.13843938986E+04  0.46999998093E+01 0.  1.
</event>
<event>
 5   0  0.2621825E-07  0.2992099E+04  0.7818609E-02  0.8245991E-01
       -1   -1    0    0    0  501  0.00000000000E+00  0.00000000000E+00  0.84769532219E+03  0.84769532221E+03  0.50400001928E-02 0.  1.
        1   -1    0    0  501    0  0.00000000000E+00  0.00000000000E+00 -0.26402922777E+04  0.26402922777E+04  0.50400001928E-02 0. -1.
    10030    2    1    2    0    0  0.00000000000E+00  0.00000000000E+00 -0.17925969555E+04  0.34879875999E+04  0.29920985365E+04 0.  0.
        3    1    3    3  502    0 -0.14319203511E+04 -0.38376488006E+03 -0.66172235528E+03  0.16234370517E+04  0.10100000352E+00 0.  1.
       -3    1    3    3    0  502  0.14319203511E+04  0.38376488006E+03 -0.11308746003E+04  0.18645505482E+04  0.10100000352E+00 0. -1.
</event>
<event>
 5   0  0.7278657E-07  0.2908658E+04  0.7818609E-02  0.8270306E-01
       -2   -1    0    0    0  501  0.00000000000E+00  0.00000000000E+00  0.15370152500E+04  0.15370152500E+04  0.25500000920E-02 0.  1.
        2   -1    0    0  501    0  0.00000000000E+00  0.00000000000E+00 -0.13760907180E+04  0.13760907180E+04  0.25500000920E-02 0. -1.
    10030    2    1    2    0    0  0.00000000000E+00  0.00000000000E+00  0.16092453194E+03  0.29131059680E+04  0.29086577103E+04 0.  0.
        2    1    3    3  502    0 -0.51395478821E+03  0.13225613740E+04 -0.23901507863E+03  0.14389045556E+04  0.25500000920E-02 0. -1.
       -2    1    3    3    0  502  0.51395478821E+03 -0.13225613740E+04  0.39993961057E+03  0.14742014124E+04  0.25500000920E-02 0.  1.
</event>
<event>
 5   0  0.2792361E-07  0.3010817E+04  0.7818609E-02  0.8240649E-01
        1   -1    0    0  501    0  0.00000000000E+00  0.00000000000E+00  0.19894667036E+04  0.19894667036E+04  0.50400001928E-02 0.  1.
       -1   -1    0    0    0  501  0.00000000000E+00  0.00000000000E+00 -0.11391270808E+04  0.11391270808E+04  0.50400001928E-02 0. -1.
    10030    2    1    2    0    0  0.00000000000E+00  0.00000000000E+00  0.85033962280E+03  0.31285937843E+04  0.30108174294E+04 0.  0.
        4    1    3    3  502    0 -0.43935601780E+03  0.13133792211E+04 -0.18804621574E+03  0.13976271609E+04  0.12699999809E+01 0. -1.
       -4    1    3    3    0  502  0.43935601780E+03 -0.13133792211E+04  0.10383858385E+04  0.17309666234E+04  0.12699999809E+01 0.  1.
</event>
<event>
 5   0  0.2602891E-07  0.2997536E+04  0.7818609E-02  0.8244435E-01
       -1   -1    0    0    0  501  0.00000000000E+00  0.00000000000E+00  0.11900633894E+04  0.11900633894E+04  0.50400001928E-02 0.  1.
        1   -1    0    0  501    0  0.00000000000E+00  0.00000000000E+00 -0.18875506648E+04  0.18875506648E+04  0.50400001928E-02 0. -1.
    10030    2    1    2    0    0  0.00000000000E+00  0.00000000000E+00 -0.69748727545E+03  0.30776140542E+04  0.29975356157E+04 0.  0.
        5    1    3    3  502    0 -0.21348577992E+03  0.14820039510E+04 -0.28086418113E+03  0.15234233382E+04  0.46999998093E+01 0.  1.
       -5    1    3    3    0  502  0.21348577992E+03 -0.14820039510E+04 -0.41662309432E+03  0.15541907160E+04  0.46999998093E+01 0. -1.
</event>
<event>
 5   0  0.2640081E-07  0.2993729E+04  0.7818609E-02  0.8245524E-01
        1   -1    0    0  501    0  0.00000000000E+00  0.00000000000E+00  0.14932274125E+04  0.14932274125E+04  0.50400001928E-02 0.  1.
       -1   -1    0    0    0  501  0.00000000000E+00  0.00000000000E+00 -0.15005100808E+04  0.15005100808E+04  0.50400001928E-02 0. -1.
    10030    2    1    2    0    0  0.00000000000E+00  0.00000000000E+00 -0.72826682641E+01  0.29937374934E+04  0.29937286353E+04 0.  0.
        1    1    3    3  502    0 -0.27180207499E+03 -0.97274066566E+03 -0.11084079328E+04  0.14995562397E+04  0.50400001928E-02 0. -1.
       -1    1    3    3    0  502  0.27180207499E+03  0.97274066566E+03  0.11011252645E+04  0.14941812536E+04  0.50400001928E-02 0.  1.
</event>
<event>
 5   0  0.2679935E-07  0.2998778E+04  0.7818609E-02  0.8244080E-01
       -1   -1    0    0    0  501  0.00000000000E+00  0.00000000000E+00  0.16764352308E+04  0.16764352308E+04  0.50400001928E-02 0. -1.
        1   -1    0    0  501    0  0.00000000000E+00  0.00000000000E+00 -0.13410403058E+04  0.13410403058E+04  0.50400001928E-02 0.  1.
    10030    2    1    2    0    0  0.00000000000E+00  0.00000000000E+00  0.33539492502E+03  0.30174755366E+04  0.29987778941E+04 0.  0.
        2    1    3    3  502    0  0.13159933195E+04  0.56185018708E+03  0.61843368878E+03  0.15588374761E+04  0.25500000920E-02 0.  1.
       -2    1    3    3    0  502 -0.13159933195E+04 -0.56185018708E+03 -0.28303876376E+03  0.14586380604E+04  0.25500000920E-02 0. -1.
</event>
<event>
 5   0  0.7399409E-07  0.2996907E+04  0.7818609E-02  0.8244615E-01
        2   -1    0    0  501    0  0.00000000000E+00  0.00000000000E+00  0.22774158092E+04  0.22774158092E+04  0.25500000920E-02 0.  1.
       -2   -1    0    0    0  501  0.00000000000E+00  0.00000000000E+00 -0.98592607971E+03  0.98592607971E+03  0.25500000920E-02 0. -1.
    10030    2    1    2    0    0  0.00000000000E+00  0.00000000000E+00  0.12914897295E+04  0.32633418889E+04  0.29969074998E+04 0.  0.
        3    1    3    3  502    0 -0.94895657597E+03  0.82271596383E+03 -0.24421844287E+03  0.12794619175E+04  0.10100000352E+00 0. -1.
       -3    1    3    3    0  502  0.94895657597E+03 -0.82271596383E+03  0.15357081723E+04  0.19838799714E+04  0.10100000352E+00 0.  1.
</event>
<event>
 5   0  0.7307508E-07  0.3001673E+04  0.7818609E-02  0.8243253E-01
       -2   -1    0    0    0  501  0.00000000000E+00  0.00000000000E+00  0.12303231900E+04  0.12303231900E+04  0.25500000920E-02 0. -1.
        2   -1    0    0  501    0  0.00000000000E+00  0.00000000000E+00 -0.18308284942E+04  0.18308284942E+04  0.25500000920E-02 0.  1.
    10030    2    1    2    0    0  0.00000000000E+00  0.00000000000E+00 -0.60050530421E+03  0.30611516842E+04  0.30016733688E+04 0.  0.
        1    1    3    3  502    0  0.13775907927E+04 -0.51985148756E+03 -0.37883785441E+01  0.14724185251E+04  0.50400001928E-02 0. -1.
       -1    1    3    3    0  502 -0.13775907927E+04  0.51985148756E+03 -0.59671692567E+03  0.15887331591E+04  0.50400001928E-02 0.  1.
</event>
<event>
 5   0  0.2679935E-07  0.2994023E+04  0.7818609E-02  0.8245440E-01
        1   -1    0    0  501    0  0.00000000000E+00  0.00000000000E+00  0.13515186254E+04  0.13515186254E+04  0.50400001928E-02 0.  1.
       -1   -1    0    0    0  501  0.00000000000E+00  0.00000000000E+00 -0.16581673672E+04  0.16581673672E+04  0.50400001928E-02 0. -1.
    10030    2    1    2    0    0  0.00000000000E+00  0.00000000000E+00 -0.30664874182E+03  0.30096859926E+04  0.29940234340E+04 0.  0.
        2    1    3    3  502    0 -0.94830071396E+03 -0.56871338065E+03 -0.11677292085E+04  0.16081979536E+04  0.25500000920E-02 0. -1.
       -2    1    3    3    0  502  0.94830071396E+03  0.56871338065E+03  0.86108046670E+03  0.14014880390E+04  0.25500000920E-02 0.  1.
</event>
<event>
 5   0  0.2792361E-07  0.3027117E+04  0.7818609E-02  0.8236030E-01
        1   -1    0    0  501    0  0.00000000000E+00  0.00000000000E+00  0.16088291768E+04  0.16088291768E+04  0.50400001928E-02 0. -1.
       -1   -1    0    0    0  501  0.00000000000E+00  0.00000000000E+00 -0.14239295797E+04  0.14239295797E+04  0.50400001928E-02 0.  1.
    10030    2    1    2    0    0  0.00000000000E+00  0.00000000000E+00  0.18489959711E+03  0.30327587565E+04  0.30271170797E+04 0.  0.
        4    1    3    3  502    0  0.90234039563E+03  0.11040460799E+04  0.60105911708E+03  0.15473879963E+04  0.12699999809E+01 0. -1.
       -4    1    3    3    0  502 -0.90234039563E+03 -0.11040460799E+04 -0.41615951997E+03  0.14853707601E+04  0.12699999809E+01 0.  1.
</event>
<event>
 5   0  0.2621825E-07  0.2987562E+04  0.7818609E-02  0.8247292E-01
        1   -1    0    0  501    0  0.00000000000E+00  0.00000000000E+00  0.16378051330E+04  0.16378051330E+04  0.50400001928E-02 0. -1.
       -1   -1    0    0    0  501  0.00000000000E+00  0.00000000000E+00 -0.13624216735E+04  0.13624216736E+04  0.50400001928E-02 0.  1.
    10030    2    1    2    0    0  0.00000000000E+00  0.00000000000E+00  0.27538345944E+03  0.30002268065E+04  0.29875616882E+04 0.  0.
        3    1    3    3  502    0 -0.13148592974E+04  0.16378052366E+03  0.83032726819E+03  0.15636887204E+04  0.10100000352E+00 0. -1.
       -3    1    3    3    0  502  0.13148592974E+04 -0.16378052366E+03 -0.55494380875E+03  0.14365380861E+04  0.10100000352E+00 0.  1.
</event>
<event>
 5   0  0.2792361E-07  0.2992364E+04  0.7818609E-02  0.8245915E-01
        1   -1    0    0  501    0  0.00000000000E+00  0.00000000000E+00  0.20090936725E+04  0.20090936725E+04  0.50400001928E-02 0. -1.
       -1   -1    0    0    0  501  0.00000000000E+00  0.00000000000E+00 -0.11142138562E+04  0.11142138562E+04  0.50400001928E-02 0.  1.
    10030    2    1    2    0    0  0.00000000000E+00  0.00000000000E+00  0.89487981633E+03  0.31233075288E+04  0.29923636199E+04 0.  0.
        4    1    3    3  502    0 -0.12927532633E+04 -0.13732195019E+03  0.12204492987E+04  0.17831338764E+04  0.12699999809E+01 0.  1.
       -4    1    3    3    0  502  0.12927532633E+04  0.13732195019E+03 -0.32556948232E+03  0.13401736524E+04  0.12699999809E+01 0. -1.
</event>
<event>
 5   0  0.7278657E-07  0.2993731E+04  0.7818609E-02  0.8245523E-01
       -2   -1    0    0    0  501  0.00000000000E+00  0.00000000000E+00  0.14561224611E+04  0.14561224611E+04  0.25500000920E-02 0. -1.
        2   -1    0    0  501    0  0.00000000000E+00  0.00000000000E+00 -0.15387481901E+04  0.15387481901E+04  0.25500000920E-02 0.  1.
    10030    2    1    2    0    0  0.00000000000E+00  0.00000000000E+00 -0.82625728960E+02  0.29948706512E+04  0.29937306502E+04 0.  0.
        2    1    3    3  502    0  0.34358235982E+03  0.25294276138E+03  0.13940076634E+04  0.14578361513E+04  0.25500000920E-02 0. -1.
       -2    1    3    3    0  502 -0.34358235982E+03 -0.25294276138E+03 -0.14766333923E+04  0.15370344999E+04  0.25500000920E-02 0.  1.
</event>
<event>
 5   0  0.7307508E-07  0.3000947E+04  0.7818609E-02  0.8243460E-01
        2   -1    0    0  501    0  0.00000000000E+00  0.00000000000E+00  0.21693880998E+04  0.21693880998E+04  0.25500000920E-02 0.  1.
       -2   -1    0    0    0  501  0.00000000000E+00  0.00000000000E+00 -0.10378139118E+04  0.10378139118E+04  0.25500000920E-02 0. -1.
    10030    2    1    2    0    0  0.00000000000E+00  0.00000000000E+00  0.11315741880E+04  0.32072020116E+04  0.30009472838E+04 0.  0.
        1    1    3    3  502    0  0.69177246326E+03 -0.11229979385E+04  0.13303194554E+04  0.18733455005E+04  0.50400001928E-02 0.  1.
       -1    1    3    3    0  502 -0.69177246326E+03  0.11229979385E+04 -0.19874526745E+03  0.13338565111E+04  0.50400001928E-02 0. -1.
</event>
<event>
 5   0  0.2640081E-07  0.3020050E+04  0.7818609E-02  0.8238029E-01
       -1   -1    0    0    0  501  0.00000000000E+00  0.00000000000E+00  0.93306012676E+03  0.93306012678E+03  0.50400001928E-02 0.  1.
        1   -1    0    0  501    0  0.00000000000E+00  0.00000000000E+00 -0.24437604835E+04  0.24437604835E+04  0.50400001928E-02 0. -1.
    10030    2    1    2    0    0  0.00000000000E+00  0.00000000000E+00 -0.15107003568E+04  0.33768206103E+04  0.30200499774E+04 0.  0.
        1    1    3    3  502    0 -0.12258117217E+04  0.86780020261E+03 -0.58039204402E+03  0.16101386566E+04  0.50400001928E-02 0. -1.
       -1    1    3    3    0  502  0.12258117217E+04 -0.86780020261E+03 -0.93030831274E+03  0.17666819537E+04  0.50400001928E-02 0.  1.
</event>
<event>
 5   0  0.7278657E-07  0.3003291E+04  0.7818609E-02  0.8242792E-01
       -2   -1    0    0    0  501  0.00000000000E+00  0.00000000000E+00  0.11075909722E+04  0.11075909722E+04  0.25500000920E-02 0. -1.
        2   -1    0    0  501    0  0.00000000000E+00  0.00000000000E+00 -0.20358958203E+04  0.20358958203E+04  0.25500000920E-02 0.  1.
    10030    2    1    2    0    0  0.00000000000E+00  0.00000000000E+00 -0.92830484812E+03  0.31434867925E+04  0.30032914151E+04 0.  0.
        2    1    3    3  502    0  0.11240430430E+04 -0.82687902752E+03  0.11648473925E+03  0.14002751098E+04  0.25500000920E-02 0.  1.
       -2    1    3    3    0  502 -0.11240430430E+04  0.82687902752E+03 -0.10447895874E+04  0.17432116827E+04  0.25500000920E-02 0. -1.
</event>
<event>
 5   0  0.2621825E-07  0.3007705E+04  0.7818609E-02  0.8241534E-01
        1   -1    0    0  501    0  0.00000000000E+00  0.00000000000E+00  0.27654030885E+04  0.27654030885E+04  0.50400001928E-02 0. -1.
       -1   -1    0    0    0  501  0.00000000000E+00  0.00000000000E+00 -0.81780943965E+03  0.81780943966E+03  0.50400001928E-02 0.  1.
    10030    2    1    2    0    0  0.00000000000E+00  0.00000000000E+00  0.19475936488E+04  0.35832125282E+04  0.30077052716E+04 0.  0.
        3    1    3    3  502    0 -0.54544323348E+03  0.11056694762E+04 -0.52115557528E+02  0.12339892029E+04  0.10100000352E+00 0.  1.
       -3    1    3    3    0  502  0.54544323348E+03 -0.11056694762E+04  0.19997092064E+04  0.23492233252E+04  0.10100000352E+00 0. -1.
</event>
<event>
 5   0  0.7307508E-07  0.2999160E+04  0.7818609E-02  0.8243971E-01
       -2   -1    0    0    0  501  0.00000000000E+00  0.00000000000E+00  0.12718621859E+04  0.12718621859E+04  0.25500000920E-02 0.  1.
        2   -1    0    0  501    0  0.00000000000E+00  0.00000000000E+00 -0.17680689188E+04  0.17680689188E+04  0.25500000920E-02 0. -1.
    10030    2    1    2    0    0  0.00000000000E+00  0.00000000000E+00 -0.49620673297E+03  0.30399311047E+04  0.29991598823E+04 0.  0.
        1    1    3    3  502    0  0.73841096851E+02 -0.10817286769E+04 -0.12981158238E+04  0.16913586639E+04  0.50400001928E-02 0. -1.
       -1    1    3    3    0  502 -0.73841096851E+02  0.10817286769E+04  0.80190909083E+03  0.13485724408E+04  0.50400001928E-02 0.  1.
</event>
<event>
 5   0  0.2621825E-07  0.2973958E+04  0.7818609E-02  0.8251207E-01
        1   -1    0    0  501    0  0.00000000000E+00  0.00000000000E+00  0.11263855342E+04  0.11263855342E+04  0.50400001928E-02 0.  1.
       -1   -1    0    0    0  501  0.00000000000E+00  0.00000000000E+00 -0.19630108296E+04  0.19630108296E+04  0.50400001928E-02 0. -1.
    10030    2    1    2    0    0  0.00000000000E+00  0.00000000000E+00 -0.83662529541E+03  0.30893963637E+04  0.29739583063E+04 0.  0.
        3    1    3    3  502    0 -0.77990684383E+03  0.21587091926E+03 -0.17142342343E+04  0.18956407779E+04  0.10100000352E+00 0. -1.
       -3    1    3    3    0  502  0.77990684383E+03 -0.21587091926E+03  0.87760893887E+03  0.11937555858E+04  0.10100000352E+00 0.  1.
</event>
<event>
 5   0  0.7585823E-07  0.3010657E+04  0.7818609E-02  0.8240694E-01
       -2   -1    0    0    0  501  0.00000000000E+00  0.00000000000E+00  0.11093728965E+04  0.11093728965E+04  0.25500000920E-02 0.  1.
        2   -1    0    0  501    0  0.00000000000E+00  0.00000000000E+00 -0.20426072720E+04  0.20426072720E+04  0.25500000920E-02 0. -1.
    10030    2    1    2    0    0  0.00000000000E+00  0.00000000000E+00 -0.93323437551E+03  0.31519801685E+04  0.30106565036E+04 0.  0.
        5    1    3    3  502    0  0.58111528816E+02 -0.45413033348E+03 -0.19679394586E+04  0.20204997185E+04  0.46999998093E+01 0. -1.
       -5    1    3    3    0  502 -0.58111528816E+02  0.45413033348E+03  0.10347050831E+04  0.11314804500E+04  0.46999998093E+01 0.  1.
</event>
<event>
 5   0  0.7307508E-07  0.3004468E+04  0.7818609E-02  0.8242456E-01
        2   -1    0    0  501    0  0.00000000000E+00  0.00000000000E+00  0.23727655229E+04  0.23727655229E+04  0.25500000920E-02 0.  1.
       -2   -1    0    0    0  501  0.00000000000E+00  0.00000000000E+00 -0.95108751136E+03  0.95108751136E+03  0.25500000920E-02 0. -1.
    10030    2    1    2    0    0  0.00000000000E+00  0.00000000000E+00  0.14216780115E+04  0.33238530342E+04  0.30044684430E+04 0.  0.
        1    1    3    3  502    0  0.16187651270E+03 -0.96283643266E+03  0.19738911977E+04  0.22021590455E+04  0.50400001928E-02 0.  1.
       -1    1    3    3    0  502 -0.16187651270E+03  0.96283643266E+03 -0.55221318614E+03  0.11216939887E+04  0.50400001928E-02 0. -1.
</event>
<event>
 5   0  0.2679935E-07  0.2998957E+04  0.7818609E-02  0.8244029E-01
       -1   -1    0    0    0  501  0.00000000000E+00  0.00000000000E+00  0.12490636232E+04  0.12490636232E+04  0.50400001928E-02 0.  1.
        1   -1    0    0  501    0  0.00000000000E+00  0.00000000000E+00 -0.18000975054E+04  0.18000975054E+04  0.50400001928E-02 0. -1.
    10030    2    1    2    0    0  0.00000000000E+00  0.00000000000E+00 -0.55103388218E+03  0.30491611286E+04  0.29989573603E+04 0.  0.
        2    1    3    3  502    0 -0.41720182117E+03 -0.13171910607E+04  0.31680452105E+03  0.14175382727E+04  0.25500000920E-02 0.  1.
       -2    1    3    3    0  502  0.41720182117E+03  0.13171910607E+04 -0.86783840322E+03  0.16316228559E+04  0.25500000920E-02 0. -1.
</event>
<event>
 5   0  0.7278657E-07  0.2986425E+04  0.7818609E-02  0.8247618E-01
       -2   -1    0    0    0  501  0.00000000000E+00  0.00000000000E+00  0.22917269160E+04  0.22917269160E+04  0.25500000920E-02 0. -1.
        2   -1    0    0  501    0  0.00000000000E+00  0.00000000000E+00 -0.97292692635E+03  0.97292692635E+03  0.25500000920E-02 0.  1.
    10030    2    1    2    0    0  0.00000000000E+00  0.00000000000E+00  0.13187999896E+04  0.32646538423E+04  0.29864245006E+04 0.  0.
        2    1    3    3  502    0 -0.38294471106E+03  0.77278122849E+03 -0.67311591529E+03  0.10940395396E+04  0.25500000920E-02 0.  1.
       -2    1    3    3    0  502  0.38294471106E+03 -0.77278122849E+03  0.19919159049E+04  0.21706143027E+04  0.25500000920E-02 0. -1.
</event>
<event>
 5   0  0.7307508E-07  0.2993675E+04  0.7818609E-02  0.8245539E-01
       -2   -1    0    0    0  501  0.00000000000E+00  0.00000000000E+00  0.78498463542E+03  0.78498463542E+03  0.25500000920E-02 0. -1.
        2   -1    0    0  501    0  0.00000000000E+00  0.00000000000E+00 -0.28542244530E+04  0.28542244530E+04  0.25500000920E-02 0.  1.
    10030    2    1    2    0    0  0.00000000000E+00  0.00000000000E+00 -0.20692398176E+04  0.36392090885E+04  0.29936748933E+04 0.  0.
        1    1    3    3  502    0  0.67814137585E+03 -0.47148458863E+03 -0.25521409535E+04  0.26824609763E+04  0.50400001928E-02 0.  1.
       -1    1    3    3    0  502 -0.67814137585E+03  0.47148458863E+03  0.48290113591E+03  0.95674811211E+03  0.50400001928E-02 0. -1.
</event>
<event>
 5   0  0.2679935E-07  0.2995887E+04  0.7818609E-02  0.8244906E-01
        1   -1    0    0  501    0  0.00000000000E+00  0.00000000000E+00  0.25920623748E+04  0.25920623748E+04  0.50400001928E-02 0.  1.
       -1   -1    0    0    0  501  0.00000000000E+00  0.00000000000E+00 -0.86565641507E+03  0.86565641508E+03  0.50400001928E-02 0. -1.
    10030    2    1    2    0    0  0.00000000000E+00  0.00000000000E+00  0.17264059597E+04  0.34577187899E+04  0.29958874632E+04 0.  0.
        2    1    3    3  502    0 -0.45695725052E+03  0.84431267341E+03 -0.46390556297E+03  0.10662467776E+04  0.25500000920E-02 0. -1.
       -2    1    3    3    0  502  0.45695725052E+03 -0.84431267341E+03  0.21903115227E+04  0.23914720123E+04  0.25500000920E-02 0.  1.
</event>
<event>
 5   0  0.2792361E-07  0.2998204E+04  0.7818609E-02  0.8244244E-01
        1   -1    0    0  501    0  0.00000000000E+00  0.00000000000E+00  0.23311564436E+04  0.23311564436E+04  0.50400001928E-02 0.  1.
       -1   -1    0    0    0  501  0.00000000000E+00  0.00000000000E+00 -0.96403065045E+03  0.96403065046E+03  0.50400001928E-02 0. -1.
    10030    2    1    2    0    0  0.00000000000E+00  0.00000000000E+00  0.13671257931E+04  0.32951870941E+04  0.29982036373E+04 0.  0.
        4    1    3    3  502    0 -0.65490847405E+03  0.81879427619E+03  0.18611288920E+04  0.21361487639E+04  0.12699999809E+01 0.  1.
       -4    1    3    3    0  502  0.65490847405E+03 -0.81879427619E+03 -0.49400309886E+03  0.11590383301E+04  0.12699999809E+01 0. -1.
</event>
<event>
 5   0  0.7585823E-07  0.2969523E+04  0.7818609E-02  0.8252488E-01
       -2   -1    0    0    0  501  0.00000000000E+00  0.00000000000E+00  0.16224788019E+04  0.16224788019E+04  0.25500000920E-02 0.  1.
        2   -1    0    0  501    0  0.00000000000E+00  0.00000000000E+00 -0.13587334493E+04  0.13587334493E+04  0.25500000920E-02 0. -1.
    10030    2    1    2    0    0  0.00000000000E+00  0.00000000000E+00  0.26374535253E+03  0.29812122512E+04  0.29695226680E+04 0.  0.
        5    1    3    3  502    0 -0.30063589569E+03  0.93330569432E+03  0.12511843095E+04  0.15896306889E+04  0.46999998093E+01 0.  1.
       -5    1    3    3    0  502  0.30063589569E+03 -0.93330569432E+03 -0.98743895694E+03  0.13915815623E+04  0.46999998093E+01 0. -1.
</event>
<event>
 5   0  0.2602891E-07  0.3005037E+04  0.7818609E-02  0.8242294E-01
       -1   -1    0    0    0  501  0.00000000000E+00  0.00000000000E+00  0.13055782030E+04  0.13055782030E+04  0.50400001928E-02 0.  1.
        1   -1    0    0  501    0  0.00000000000E+00  0.00000000000E+00 -0.17291668006E+04  0.17291668006E+04  0.50400001928E-02 0. -1.
    10030    2    1    2    0    0  0.00000000000E+00  0.00000000000E+00 -0.42358859757E+03  0.30347450036E+04  0.30050374269E+04 0.  0.
        5    1    3    3  502    0 -0.13696118357E+04  0.13211616021E+02  0.41199259931E+03  0.14303045547E+04  0.46999998093E+01 0. -1.
       -5    1    3    3    0  502  0.13696118357E+04 -0.13211616021E+02 -0.83558119688E+03  0.16044404489E+04  0.46999998093E+01 0.  1.
</event>
<event>
 5   0  0.2621825E-07  0.3003732E+04  0.7818609E-02  0.8242666E-01
       -1   -1    0    0    0  501  0.00000000000E+00  0.00000000000E+00  0.20481716536E+04  0.20481716536E+04  0.50400001928E-02 0.  1.
        1   -1    0    0  501    0  0.00000000000E+00  0.00000000000E+00 -0.11012755826E+04  0.11012755827E+04  0.50400001928E-02 0. -1.
    10030    2    1    2    0    0  0.00000000000E+00  0.00000000000E+00  0.94689607094E+03  0.31494472362E+04  0.30037319662E+04 0.  0.
        3    1    3    3  502    0  0.85849857925E+03  0.58945021845E+03  0.16081341044E+04  0.19158723023E+04  0.10100000352E+00 0.  1.
       -3    1    3    3    0  502 -0.85849857925E+03 -0.58945021845E+03 -0.66123803348E+03  0.12335749340E+04  0.10100000352E+00 0. -1.
</event>
<event>
 5   0  0.7399409E-07  0.2994925E+04  0.7818609E-02  0.8245182E-01
        2   -1    0    0  501    0  0.00000000000E+00  0.00000000000E+00  0.13857243216E+04  0.13857243216E+04  0.25500000920E-02 0. -1.
       -2   -1    0    0    0  501  0.00000000000E+00  0.00000000000E+00 -0.16182108831E+04  0.16182108831E+04  0.25500000920E-02 0.  1.
    10030    2    1    2    0    0  0.00000000000E+00  0.00000000000E+00 -0.23248656155E+03  0.30039352047E+04  0.29949251598E+04 0.  0.
        3    1    3    3  502    0  0.11619090678E+04  0.42697246590E+03  0.72893997986E+03  0.14365554890E+04  0.10100000352E+00 0. -1.
       -3    1    3    3    0  502 -0.11619090678E+04 -0.42697246590E+03 -0.96142654141E+03  0.15673797157E+04  0.10100000352E+00 0.  1.
</event>
<event>
 5   0  0.7585823E-07  0.3013293E+04  0.7818609E-02  0.8239945E-01
       -2   -1    0    0    0  501  0.00000000000E+00  0.00000000000E+00  0.10537468783E+04  0.10537468783E+04  0.25500000920E-02 0.  1.
        2   -1    0    0  501    0  0.00000000000E+00  0.00000000000E+00 -0.21542023350E+04  0.21542023350E+04  0.25500000920E-02 0. -1.
    10030    2    1    2    0    0  0.00000000000E+00  0.00000000000E+00 -0.11004554567E+04  0.32079492134E+04  0.30132932057E+04 0.  0.
        5    1    3    3  502    0 -0.68145803571E+03  0.13375503839E+04 -0.41332917653E+03  0.15570129036E+04  0.46999998093E+01 0.  1.
       -5    1    3    3    0  502  0.68145803571E+03 -0.13375503839E+04 -0.68712628017E+03  0.16509363097E+04  0.46999998093E+01 0. -1.
</event>
<event>
 5   0  0.2602891E-07  0.2957313E+04  0.7818609E-02  0.8256027E-01
       -1   -1    0    0    0  501  0.00000000000E+00  0.00000000000E+00  0.25204424278E+04  0.25204424278E+04  0.50400001928E-02 0. -1.
        1   -1    0    0  501    0  0.00000000000E+00  0.00000000000E+00 -0.86747642870E+03  0.86747642872E+03  0.50400001928E-02 0.  1.
    10030    2    1    2    0    0  0.00000000000E+00  0.00000000000E+00  0.16529659991E+04  0.33879188565E+04  0.29573125611E+04 0.  0.
        5    1    3    3  502    0 -0.93270197530E+03 -0.56296180568E+02  0.21393410030E+04  0.23345029989E+04  0.46999998093E+01 0. -1.
       -5    1    3    3    0  502  0.93270197530E+03  0.56296180568E+02 -0.48637500392E+03  0.10534158576E+04  0.46999998093E+01 0.  1.
</event>
<event>
 5   0  0.2679935E-07  0.3000992E+04  0.7818609E-02  0.8243448E-01
        1   -1    0    0  501    0  0.00000000000E+00  0.00000000000E+00  0.22128158193E+04  0.22128158193E+04  0.50400001928E-02 0. -1.
       -1   -1    0    0    0  501  0.00000000000E+00  0.00000000000E+00 -0.10174767767E+04  0.10174767767E+04  0.50400001928E-02 0.  1.
    10030    2    1    2    0    0  0.00000000000E+00  0.00000000000E+00  0.11953390426E+04  0.32302925960E+04  0.30009923074E+04 0.  0.
        2    1    3    3  502    0  0.17246715238E+03 -0.19909732630E+02 -0.10066291392E+04  0.10214908418E+04  0.25500000920E-02 0.  1.
       -2    1    3    3    0  502 -0.17246715238E+03  0.19909732630E+02  0.22019681817E+04  0.22088017542E+04  0.25500000920E-02 0. -1.
</event>
<event>
 5   0  0.7208273E-07  0.2986794E+04  0.7818609E-02  0.8247512E-01
       -2   -1    0    0    0  501  0.00000000000E+00  0.00000000000E+00  0.10798624218E+04  0.10798624218E+04  0.25500000920E-02 0. -1.
        2   -1    0    0  501    0  0.00000000000E+00  0.00000000000E+00 -0.20652944399E+04  0.20652944399E+04  0.25500000920E-02 0.  1.
    10030    2    1    2    0    0  0.00000000000E+00  0.00000000000E+00 -0.98543201814E+03  0.31451568617E+04  0.29867935018E+04 0.  0.
        4    1    3    3  502    0  0.43978362423E+03 -0.12198195447E+04 -0.12728497193E+04  0.18170078092E+04  0.12699999809E+01 0.  1.
       -4    1    3    3    0  502 -0.43978362423E+03  0.12198195447E+04  0.28741770119E+03  0.13281490525E+04  0.12699999809E+01 0. -1.
</event>
<event>
 5   0  0.7585823E-07  0.3030577E+04  0.7818609E-02  0.8235053E-01
       -2   -1    0    0    0  501  0.00000000000E+00  0.00000000000E+00  0.14093899912E+04  0.14093899912E+04  0.25500000920E-02 0. -1.
        2   -1    0    0  501    0  0.00000000000E+00  0.00000000000E+00 -0.16291435960E+04  0.16291435960E+04  0.25500000920E-02 0.  1.
    10030    2    1    2    0    0  0.00000000000E+00  0.00000000000E+00 -0.21975360472E+03  0.30385335872E+04  0.30305766306E+04 0.  0.
        5    1    3    3  502    0 -0.11872528042E+04  0.93919733104E+03 -0.17650231272E+03  0.15240853008E+04  0.46999998093E+01 0.  1.
       -5    1    3    3    0  502  0.11872528042E+04 -0.93919733104E+03 -0.43251292007E+02  0.15144482864E+04  0.46999998093E+01 0. -1.
</event>
<event>
 5   0  0.2640081E-07  0.3013336E+04  0.7818609E-02  0.8239933E-01
        1   -1    0    0  501    0  0.00000000000E+00  0.00000000000E+00  0.11930177701E+04  0.11930177701E+04  0.50400001928E-02 0.  1.
       -1   -1    0    0    0  501  0.00000000000E+00  0.00000000000E+00 -0.19027780435E+04  0.19027780435E+04  0.50400001928E-02 0. -1.
    10030    2    1    2    0    0  0.00000000000E+00  0.00000000000E+00 -0.70976027334E+03  0.30957958136E+04  0.30133357055E+04 0.  0.
        1    1    3    3  502    0  0.77443614735E+03 -0.69112341178E+03 -0.14768479687E+04  0.18051268208E+04  0.50400001928E-02 0. -1.
       -1    1    3    3    0  502 -0.77443614735E+03  0.69112341178E+03  0.76708769534E+03  0.12906689928E+04  0.50400001928E-02 0.  1.
</event>
<event>
 5   0  0.7278657E-07  0.3004164E+04  0.7818609E-02  0.8242543E-01
       -2   -1    0    0    0  501  0.00000000000E+00  0.00000000000E+00  0.12699172494E+04  0.12699172494E+04  0.25500000920E-02 0.  1.
        2   -1    0    0  501    0  0.00000000000E+00  0.00000000000E+00 -0.17766913665E+04  0.17766913665E+04  0.25500000920E-02 0. -1.
    10030    2    1    2    0    0  0.00000000000E+00  0.00000000000E+00 -0.50677411706E+03  0.30466086159E+04  0.30041644517E+04 0.  0.
        2    1    3    3  502    0 -0.12190791232E+04  0.41912465535E+03 -0.10352739237E+04  0.16533636873E+04  0.25500000920E-02 0.  1.
       -2    1    3    3    0  502  0.12190791232E+04 -0.41912465535E+03  0.52849980667E+03  0.13932449286E+04  0.25500000920E-02 0. -1.
</event>
<event>
 5   0  0.2679935E-07  0.3009170E+04  0.7818609E-02  0.8241117E-01
       -1   -1    0    0    0  501  0.00000000000E+00  0.00000000000E+00  0.11588172333E+04  0.11588172333E+04  0.50400001928E-02 0.  1.
        1   -1    0    0  501    0  0.00000000000E+00  0.00000000000E+00 -0.19535227599E+04  0.19535227599E+04  0.50400001928E-02 0. -1.
    10030    2    1    2    0    0  0.00000000000E+00  0.00000000000E+00 -0.79470552659E+03  0.31123399931E+04  0.30091698787E+04 0.  0.
        2    1    3    3  502    0 -0.66621018248E+03 -0.13243456132E+04 -0.13154240340E+03  0.14882979252E+04  0.25500000920E-02 0.  1.
       -2    1    3    3    0  502  0.66621018248E+03  0.13243456132E+04 -0.66316312319E+03  0.16240420679E+04  0.25500000920E-02 0. -1.
</event>
<event>
 5   0  0.7307508E-07  0.3003371E+04  0.7818609E-02  0.8242769E-01
       -2   -1    0    0    0  501  0.00000000000E+00  0.00000000000E+00  0.20110953095E+04  0.20110953095E+04  0.25500000920E-02 0. -1.
        2   -1    0    0  501    0  0.00000000000E+00  0.00000000000E+00 -0.11213093405E+04  0.11213093405E+04  0.25500000920E-02 0.  1.
    10030    2    1    2    0    0  0.00000000000E+00  0.00000000000E+00  0.88978596900E+03  0.31324046501E+04  0.30033714091E+04 0.  0.
        1    1    3    3  502    0  0.13902397815E+03  0.92073609881E+03  0.16736330046E+04  0.19152362947E+04  0.50400001928E-02 0. -1.
       -1    1    3    3    0  502 -0.13902397815E+03 -0.92073609881E+03 -0.78384703563E+03  0.12171683554E+04  0.50400001928E-02 0.  1.
</event>
<event>
 5   0  0.2621825E-07  0.2992656E+04  0.7818609E-02  0.8245831E-01
       -1   -1    0    0    0  501  0.00000000000E+00  0.00000000000E+00  0.15135198473E+04  0.15135198473E+04  0.50400001928E-02 0.  1.
        1   -1    0    0  501    0  0.00000000000E+00  0.00000000000E+00 -0.14793317727E+04  0.14793317727E+04  0.50400001928E-02 0. -1.
    10030    2    1    2    0    0  0.00000000000E+00  0.00000000000E+00  0.34188074598E+02  0.29928516200E+04  0.29926563443E+04 0.  0.
        3    1    3    3  502    0 -0.98450774142E+03 -0.34294542054E+03 -0.10563496249E+04  0.14841636010E+04  0.10100000352E+00 0. -1.
       -3    1    3    3    0  502  0.98450774142E+03  0.34294542054E+03  0.10905376995E+04  0.15086880190E+04  0.10100000352E+00 0.  1.
</event>
<event>
 5   0  0.2621825E-07  0.3003213E+04  0.7818609E-02  0.8242814E-01
       -1   -1    0    0    0  501  0.00000000000E+00  0.00000000000E+00  0.18847180536E+04  0.18847180536E+04  0.50400001928E-02 0. -1.
        1   -1    0    0  501    0  0.00000000000E+00  0.00000000000E+00 -0.11963713066E+04  0.11963713066E+04  0.50400001928E-02 0.  1.
    10030    2    1    2    0    0  0.00000000000E+00  0.00000000000E+00  0.68834674696E+03  0.30810893602E+04  0.30032133459E+04 0.  0.
        3    1    3    3  502    0  0.10003432359E+04  0.45985157169E+03  0.13917651377E+04  0.17745873509E+04  0.10100000352E+00 0. -1.
       -3    1    3    3    0  502 -0.10003432359E+04 -0.45985157169E+03 -0.70341839071E+03  0.13065020092E+04  0.10100000352E+00 0.  1.
</event>
<event>
 5   0  0.7208273E-07  0.2997732E+04  0.7818609E-02  0.8244379E-01
       -2   -1    0    0    0  501  0.00000000000E+00  0.00000000000E+00  0.17947246770E+04  0.17947246770E+04  0.25500000920E-02 0. -1.
        2   -1    0    0  501    0  0.00000000000E+00  0.00000000000E+00 -0.12517796410E+04  0.12517796410E+04  0.25500000920E-02 0.  1.
    10030    2    1    2    0    0  0.00000000000E+00  0.00000000000E+00  0.54294503601E+03  0.30465043181E+04  0.29977323510E+04 0.  0.
        4    1    3    3  502    0 -0.70852675614E+03  0.12932822626E+04  0.54418336133E+03  0.15718544203E+04  0.12699999809E+01 0. -1.
       -4    1    3    3    0  502  0.70852675614E+03 -0.12932822626E+04 -0.12383253264E+01  0.14746498978E+04  0.12699999809E+01 0.  1.
</event>
<event>
 5   0  0.7307508E-07  0.2970793E+04  0.7818609E-02  0.8252121E-01
        2   -1    0    0  501    0  0.00000000000E+00  0.00000000000E+00  0.22658718076E+04  0.22658718076E+04  0.25500000920E-02 0. -1.
       -2   -1    0    0    0  501  0.00000000000E+00  0.00000000000E+00 -0.97375451658E+03  0.97375451658E+03  0.25500000920E-02 0.  1.
    10030    2    1    2    0    0  0.00000000000E+00  0.00000000000E+00  0.12921172910E+04  0.32396263242E+04  0.29707930972E+04 0.  0.
        1    1    3    3  502    0 -0.64801129467E+03 -0.51432166418E+03  0.19913729960E+04  0.21563886064E+04  0.50400001928E-02 0. -1.
       -1    1    3    3    0  502  0.64801129467E+03  0.51432166418E+03 -0.69925570502E+03  0.10832377178E+04  0.50400001928E-02 0.  1.
</event>
<event>
 5   0  0.2679935E-07  0.3010099E+04  0.7818609E-02  0.8240853E-01
        1   -1    0    0  501    0  0.00000000000E+00  0.00000000000E+00  0.14846760896E+04  0.14846760897E+04  0.50400001928E-02 0.  1.
       -1   -1    0    0    0  501  0.00000000000E+00  0.00000000000E+00 -0.15257020026E+04  0.15257020026E+04  0.50400001928E-02 0. -1.
    10030    2    1    2    0    0  0.00000000000E+00  0.00000000000E+00 -0.41025912949E+02  0.30103780923E+04  0.30100985254E+04 0.  0.
        2    1    3    3  502    0 -0.85474074472E+03  0.69500572978E+03 -0.10460634998E+04  0.15191654126E+04  0.25500000920E-02 0. -1.
       -2    1    3    3    0  502  0.85474074472E+03 -0.69500572978E+03  0.10050375868E+04  0.14912126797E+04  0.25500000920E-02 0.  1.
</event>
<event>
 5   0  0.2792361E-07  0.3004221E+04  0.7818609E-02  0.8242527E-01
        1   -1    0    0  501    0  0.00000000000E+00  0.00000000000E+00  0.24557124841E+04  0.24557124841E+04  0.50400001928E-02 0.  1.
       -1   -1    0    0    0  501  0.00000000000E+00  0.00000000000E+00 -0.91881111043E+03  0.91881111045E+03  0.50400001928E-02 0. -1.
    10030    2    1    2    0    0  0.00000000000E+00  0.00000000000E+00  0.15369013737E+04  0.33745235946E+04  0.30042209735E+04 0.  0.
        4    1    3    3  502    0  0.12393348661E+04  0.69197060613E+03  0.13205194438E+04  0.19386973576E+04  0.12699999809E+01 0.  1.
       -4    1    3    3    0  502 -0.12393348661E+04 -0.69197060613E+03  0.21638192990E+03  0.14358262369E+04  0.12699999809E+01 0. -1.
</event>
<event>
 5   0  0.2602891E-07  0.2967668E+04  0.7818609E-02  0.8253024E-01
        1   -1    0    0  501    0  0.00000000000E+00  0.00000000000E+00  0.16082904318E+04  0.16082904318E+04  0.50400001928E-02 0.  1.
       -1   -1    0    0    0  501  0.00000000000E+00  0.00000000000E+00 -0.13690082831E+04  0.13690082831E+04  0.50400001928E-02 0. -1.
    10030    2    1    2    0    0  0.00000000000E+00  0.00000000000E+00  0.23928214866E+03  0.29772987149E+04  0.29676677191E+04 0.  0.
        5    1    3    3  502    0 -0.75521171570E+03 -0.10070587557E+04 -0.66854764379E+03  0.14253035168E+04  0.46999998093E+01 0. -1.
       -5    1    3    3    0  502  0.75521171570E+03  0.10070587557E+04  0.90782979245E+03  0.15519951981E+04  0.46999998093E+01 0.  1.
</event>
<event>
 5   0  0.7278657E-07  0.2997222E+04  0.7818609E-02  0.8244525E-01
       -2   -1    0    0    0  501  0.00000000000E+00  0.00000000000E+00  0.19062335060E+04  0.19062335060E+04  0.25500000920E-02 0.  1.
        2   -1    0    0  501    0  0.00000000000E+00  0.00000000000E+00 -0.11781527357E+04  0.11781527357E+04  0.25500000920E-02 0. -1.
    10030    2    1    2    0    0  0.00000000000E+00  0.00000000000E+00  0.72808077030E+03  0.30843862418E+04  0.29972215268E+04 0.  0.
        2    1    3    3  502    0 -0.10718815900E+04  0.27705132029E+03 -0.67535603447E+03  0.12968397551E+04  0.25500000920E-02 0. -1.
       -2    1    3    3    0  502  0.10718815900E+04 -0.27705132029E+03  0.14034368048E+04  0.17875464867E+04  0.25500000920E-02 0.  1.
</event>
<event>
 5   0  0.2792361E-07  0.2999441E+04  0.7818609E-02  0.8243890E-01
        1   -1    0    0  501    0  0.00000000000E+00  0.00000000000E+00  0.17109775441E+04  0.17109775442E+04  0.50400001928E-02 0. -1.
       -1   -1    0    0    0  501  0.00000000000E+00  0.00000000000E+00 -0.13145479815E+04  0.13145479815E+04  0.50400001928E-02 0.  1.
    10030    2    1    2    0    0  0.00000000000E+00  0.00000000000E+00  0.39642956265E+03  0.30255255257E+04  0.29994413327E+04 0.  0.
        4    1    3    3  502    0  0.63544992266E+02 -0.14085197521E+04  0.71373125932E+03  0.15803100270E+04  0.12699999809E+01 0. -1.
       -4    1    3    3    0  502 -0.63544992266E+02  0.14085197521E+04 -0.31730169667E+03  0.14452154987E+04  0.12699999809E+01 0.  1.
</event>
<event>
 5   0  0.7585823E-07  0.2999687E+04  0.7818609E-02  0.8243820E-01
       -2   -1    0    0    0  501  0.00000000000E+00  0.00000000000E+00  0.99843666451E+03  0.99843666452E+03  0.25500000920E-02 0.  1.
        2   -1    0    0  501    0  0.00000000000E+00  0.00000000000E+00 -0.22530526346E+04  0.22530526346E+04  0.25500000920E-02 0. -1.
    10030    2    1    2    0    0  0.00000000000E+00  0.00000000000E+00 -0.12546159701E+04  0.32514892992E+04  0.29996868887E+04 0.  0.
        5    1    3    3  502    0 -0.33294883267E+03 -0.88797219133E+03  0.63219389066E+03  0.11397546855E+04  0.46999998093E+01 0.  1.
       -5    1    3    3    0  502  0.33294883267E+03  0.88797219133E+03 -0.18868098608E+04  0.21117346137E+04  0.46999998093E+01 0. -1.
</event>
<event>
 5   0  0.2602891E-07  0.2966061E+04  0.7818609E-02  0.8253489E-01
       -1   -1    0    0    0  501  0.00000000000E+00  0.00000000000E+00  0.92839806775E+03  0.92839806777E+03  0.50400001928E-02 0.  1.
        1   -1    0    0  501    0  0.00000000000E+00  0.00000000000E+00 -0.23690040268E+04  0.23690040268E+04  0.50400001928E-02 0. -1.
    10030    2    1    2    0    0  0.00000000000E+00  0.00000000000E+00 -0.14406059590E+04  0.32974020945E+04  0.29660605260E+04 0.  0.
        5    1    3    3  502    0  0.12748452623E+04 -0.66306182631E+03 -0.31262892873E+03  0.14705918419E+04  0.46999998093E+01 0. -1.
       -5    1    3    3    0  502 -0.12748452623E+04  0.66306182631E+03 -0.11279770303E+04  0.18268102527E+04  0.46999998093E+01 0.  1.
</event>
<event>
 5   0  0.2640081E-07  0.2999403E+04  0.7818609E-02  0.8243901E-01
       -1   -1    0    0    0  501  0.00000000000E+00  0.00000000000E+00  0.10419129887E+04  0.10419129887E+04  0.50400001928E-02 0. -1.
        1   -1    0    0  501    0  0.00000000000E+00  0.00000000000E+00 -0.21586303700E+04  0.21586303700E+04  0.50400001928E-02 0.  1.
    10030    2    1    2    0    0  0.00000000000E+00  0.00000000000E+00 -0.11167173813E+04  0.32005433587E+04  0.29994032875E+04 0.  0.
        1    1    3    3  502    0  0.14534843336E+04 -0.36146347200E+03 -0.63985072080E+03  0.16287054658E+04  0.50400001928E-02 0. -1.
       -1    1    3    3    0  502 -0.14534843336E+04  0.36146347200E+03 -0.47686666047E+03  0.15718378929E+04  0.50400001928E-02 0.  1.
</event>
<event>
 5   0  0.7278657E-07  0.3001189E+04  0.7818609E-02  0.8243391E-01
       -2   -1    0    0    0  501  0.00000000000E+00  0.00000000000E+00  0.12257730388E+04  0.12257730388E+04  0.25500000920E-02 0.  1.
        2   -1    0    0  501    0  0.00000000000E+00  0.00000000000E+00 -0.18370319631E+04  0.18370319631E+04  0.25500000920E-02 0. -1.
    10030    2    1    2    0    0  0.00000000000E+00  0.00000000000E+00 -0.61125892428E+03  0.30628050019E+04  0.30011892655E+04 0.  0.
        2    1    3    3  502    0 -0.11046623646E+04 -0.94859672766E+03  0.64683279918E+02  0.14574973819E+04  0.25500000920E-02 0.  1.
       -2    1    3    3    0  502  0.11046623646E+04  0.94859672766E+03 -0.67594220419E+03  0.16053076200E+04  0.25500000920E-02 0. -1.
</event>
<event>
 5   0  0.2602891E-07  0.3004105E+04  0.7818609E-02  0.8242560E-01
       -1   -1    0    0    0  501  0.00000000000E+00  0.00000000000E+00  0.83618734887E+03  0.83618734889E+03  0.50400001928E-02 0. -1.
        1   -1    0    0  501    0  0.00000000000E+00  0.00000000000E+00 -0.26981536111E+04  0.26981536111E+04  0.50400001928E-02 0.  1.
    10030    2    1    2    0    0  0.00000000000E+00  0.00000000000E+00 -0.18619662622E+04  0.35343409600E+04  0.30041051346E+04 0.  0.
        5    1    3    3  502    0  0.73288509272E+03 -0.98413856220E+03 -0.19501984255E+04  0.23041148534E+04  0.46999998093E+01 0.  1.
       -5    1    3    3    0  502 -0.73288509272E+03  0.98413856220E+03  0.88232163277E+02  0.12302261066E+04  0.46999998093E+01 0. -1.
</event>
<event>
 5   0  0.7307508E-07  0.2998714E+04  0.7818609E-02  0.8244098E-01
       -2   -1    0    0    0  501  0.00000000000E+00  0.00000000000E+00  0.16909634287E+04  0.16909634287E+04  0.25500000920E-02 0.  1.
        2   -1    0    0  501    0  0.00000000000E+00  0.00000000000E+00 -0.13294622111E+04  0.13294622111E+04  0.25500000920E-02 0. -1.
    10030    2    1    2    0    0  0.00000000000E+00  0.00000000000E+00  0.36150121763E+03  0.30204256398E+04  0.29987143771E+04 0.  0.
        1    1    3    3  502    0 -0.50161190977E+03  0.16797123049E+03  0.15938490563E+04  0.16793402444E+04  0.50400001928E-02 0.  1.
       -1    1    3    3    0  502  0.50161190977E+03 -0.16797123049E+03 -0.12323478386E+04  0.13410853954E+04  0.50400001928E-02 0. -1.
</event>
<event>
 5   0  0.2640081E-07  0.2995799E+04  0.7818609E-02  0.8244931E-01
       -1   -1    0    0    0  501  0.00000000000E+00  0.00000000000E+00  0.13951672015E+04  0.13951672015E+04  0.50400001928E-02 0. -1.
        1   -1    0    0  501    0  0.00000000000E+00  0.00000000000E+00 -0.16081965251E+04  0.16081965251E+04  0.50400001928E-02 0.  1.
    10030    2    1    2    0    0  0.00000000000E+00  0.00000000000E+00 -0.21302932361E+03  0.30033637266E+04  0.29957990890E+04 0.  0.
        1    1    3    3  502    0  0.47482967382E+03  0.97152331840E+01  0.13176869646E+04  0.14006628937E+04  0.50400001928E-02 0. -1.
       -1    1    3    3    0  502 -0.47482967382E+03 -0.97152331840E+01 -0.15307162882E+04  0.16027008330E+04  0.50400001928E-02 0.  1.
</event>
<event>
 5   0  0.2679935E-07  0.3002321E+04  0.7818609E-02  0.8243068E-01
        1   -1    0    0  501    0  0.00000000000E+00  0.00000000000E+00  0.13336558111E+04  0.13336558111E+04  0.50400001928E-02 0.  1.
       -1   -1    0    0    0  501  0.00000000000E+00  0.00000000000E+00 -0.16897039728E+04  0.16897039728E+04  0.50400001928E-02 0. -1.
    10030    2    1    2    0    0  0.00000000000E+00  0.00000000000E+00 -0.35604816174E+03  0.30233597839E+04  0.30023214501E+04 0.  0.
        2    1    3    3  502    0 -0.56053719817E+03  0.13855384746E+04 -0.31887812520E+03  0.15282676708E+04  0.25500000920E-02 0. -1.
       -2    1    3    3    0  502  0.56053719817E+03 -0.13855384746E+04 -0.37170036540E+02  0.14950921131E+04  0.25500000920E-02 0.  1.
</event>
<event>
 5   0  0.7208273E-07  0.2997583E+04  0.7818609E-02  0.8244422E-01
        2   -1    0    0  501    0  0.00000000000E+00  0.00000000000E+00  0.19094384919E+04  0.19094384919E+04  0.25500000920E-02 0.  1.
       -2   -1    0    0    0  501  0.00000000000E+00  0.00000000000E+00 -0.11764586460E+04  0.11764586460E+04  0.25500000920E-02 0. -1.
    10030    2    1    2    0    0  0.00000000000E+00  0.00000000000E+00  0.73297984584E+03  0.30858971379E+04  0.29975826412E+04 0.  0.
        4    1    3    3  502    0  0.50618586480E+02  0.15480706571E+03  0.19003005314E+04  0.19072679915E+04  0.12699999809E+01 0.  1.
       -4    1    3    3    0  502 -0.50618586480E+02 -0.15480706571E+03 -0.11673206855E+04  0.11786291464E+04  0.12699999809E+01 0. -1.
</event>
<event>
 5   0  0.7278657E-07  0.3001213E+04  0.7818609E-02  0.8243385E-01
       -2   -1    0    0    0  501  0.00000000000E+00  0.00000000000E+00  0.14363443398E+04  0.14363443398E+04  0.25500000920E-02 0.  1.
        2   -1    0    0  501    0  0.00000000000E+00  0.00000000000E+00 -0.15677433466E+04  0.15677433466E+04  0.25500000920E-02 0. -1.
    10030    2    1    2    0    0  0.00000000000E+00  0.00000000000E+00 -0.13139900680E+03  0.30040876864E+04  0.30012126097E+04 0.  0.
        2    1    3    3  502    0 -0.93214757583E+03 -0.32047569003E+01  0.11113989439E+04  0.14505574743E+04  0.25500000920E-02 0.  1.
       -2    1    3    3    0  502  0.93214757583E+03  0.32047569003E+01 -0.12427979507E+04  0.15535302121E+04  0.25500000920E-02 0. -1.
</event>
<event>
 5   0  0.7208273E-07  0.3003656E+04  0.7818609E-02  0.8242688E-01
       -2   -1    0    0    0  501  0.00000000000E+00  0.00000000000E+00  0.12570544925E+04  0.12570544925E+04  0.25500000920E-02 0.  1.
        2   -1    0    0  501    0  0.00000000000E+00  0.00000000000E+00 -0.17942634625E+04  0.17942634625E+04  0.25500000920E-02 0. -1.
    10030    2    1    2    0    0  0.00000000000E+00  0.00000000000E+00 -0.53720897003E+03  0.30513179550E+04  0.30036557367E+04 0.  0.
        4    1    3    3  502    0  0.13615282771E+02 -0.14709205664E+04 -0.57621739606E+03  0.15798166947E+04  0.12699999809E+01 0. -1.
       -4    1    3    3    0  502 -0.13615282771E+02  0.14709205664E+04  0.39008426037E+02  0.14715012602E+04  0.12699999809E+01 0.  1.
</event>
<event>
 5   0  0.2679935E-07  0.2990887E+04  0.7818609E-02  0.8246338E-01
        1   -1    0    0  501    0  0.00000000000E+00  0.00000000000E+00  0.13974806620E+04  0.13974806621E+04  0.50400001928E-02 0.  1.
       -1   -1    0    0    0  501  0.00000000000E+00  0.00000000000E+00 -0.16002731166E+04  0.16002731166E+04  0.50400001928E-02 0. -1.
    10030    2    1    2    0    0  0.00000000000E+00  0.00000000000E+00 -0.20279245457E+03  0.29977537787E+04  0.29908866475E+04 0.  0.
        2    1    3    3  502    0 -0.79800717657E+03  0.96687527313E+03 -0.91855181863E+03  0.15541559417E+04  0.25500000920E-02 0.  1.
       -2    1    3    3    0  502  0.79800717657E+03 -0.96687527313E+03  0.71575936405E+03  0.14435978370E+04  0.25500000920E-02 0. -1.
</event>
<event>
 5   0  0.7307508E-07  0.2998815E+04  0.7818609E-02  0.8244069E-01
        2   -1    0    0  501    0  0.00000000000E+00  0.00000000000E+00  0.20682169835E+04  0.20682169835E+04  0.25500000920E-02 0.  1.
       -2   -1    0    0    0  501  0.00000000000E+00  0.00000000000E+00 -0.10870340567E+04  0.10870340567E+04  0.25500000920E-02 0. -1.
    10030    2    1    2    0    0  0.00000000000E+00  0.00000000000E+00  0.98118292681E+03  0.31552510402E+04  0.29988146309E+04 0.  0.
        1    1    3    3  502    0 -0.13773914056E+04  0.59225459301E+03  0.47396488787E+03  0.15724551828E+04  0.50400001928E-02 0. -1.
       -1    1    3    3    0  502  0.13773914056E+04 -0.59225459301E+03  0.50721803894E+03  0.15827958574E+04  0.50400001928E-02 0.  1.
</event>
<event>
 5   0  0.2792361E-07  0.2998348E+04  0.7818609E-02  0.8244203E-01
        1   -1    0    0  501    0  0.00000000000E+00  0.00000000000E+00  0.11940523157E+04  0.11940523157E+04  0.50400001928E-02 0.  1.
       -1   -1    0    0    0  501  0.00000000000E+00  0.00000000000E+00 -0.18822654029E+04  0.18822654029E+04  0.50400001928E-02 0. -1.
    10030    2    1    2    0    0  0.00000000000E+00  0.00000000000E+00 -0.68821308722E+03  0.30763177185E+04  0.29983484541E+04 0.  0.
        4    1    3    3  502    0 -0.10570625969E+04 -0.64336186054E+03  0.52420206075E+03  0.13439067046E+04  0.12699999809E+01 0.  1.
       -4    1    3    3    0  502  0.10570625969E+04  0.64336186054E+03 -0.12124151480E+04  0.17324110139E+04  0.12699999809E+01 0. -1.
</event>
<event>
 5   0  0.2679935E-07  0.2998960E+04  0.7818609E-02  0.8244028E-01
        1   -1    0    0  501    0  0.00000000000E+00  0.00000000000E+00  0.84095489203E+03  0.84095489205E+03  0.50400001928E-02 0.  1.
       -1   -1    0    0    0  501  0.00000000000E+00  0.00000000000E+00 -0.26736758138E+04  0.26736758138E+04  0.50400001928E-02 0. -1.
    10030    2    1    2    0    0  0.00000000000E+00  0.00000000000E+00 -0.18327209218E+04  0.35146307059E+04  0.29989603234E+04 0.  0.
        2    1    3    3  502    0  0.10619029281E+04 -0.58966457659E+03 -0.19468092809E+04  0.22946477981E+04  0.25500000920E-02 0. -1.
       -2    1    3    3    0  502 -0.10619029281E+04  0.58966457659E+03  0.11408835904E+03  0.12199829077E+04  0.25500000920E-02 0.  1.
</event>
<event>
 5   0  0.2640081E-07  0.2995949E+04  0.7818609E-02  0.8244888E-01
        1   -1    0    0  501    0  0.00000000000E+00  0.00000000000E+00  0.30654720302E+04  0.30654720302E+04  0.50400001928E-02 0.  1.
       -1   -1    0    0    0  501  0.00000000000E+00  0.00000000000E+00 -0.73200090844E+03  0.73200090846E+03  0.50400001928E-02 0. -1.
    10030    2    1    2    0    0  0.00000000000E+00  0.00000000000E+00  0.23334711218E+04  0.37974729387E+04  0.29959494728E+04 0.  0.
        1    1    3    3  502    0 -0.72543142622E+03  0.13504730993E+03 -0.48565647495E+03  0.88337463273E+03  0.50400001928E-02 0. -1.
       -1    1    3    3    0  502  0.72543142622E+03 -0.13504730993E+03  0.28191275967E+04  0.29140983059E+04  0.50400001928E-02 0.  1.
</event>
<event>
 5   0  0.7307508E-07  0.3000414E+04  0.7818609E-02  0.8243613E-01
        2   -1    0    0  501    0  0.00000000000E+00  0.00000000000E+00  0.19093069637E+04  0.19093069637E+04  0.25500000920E-02 0. -1.
       -2   -1    0    0    0  501  0.00000000000E+00  0.00000000000E+00 -0.11787634591E+04  0.11787634591E+04  0.25500000920E-02 0.  1.
    10030    2    1    2    0    0  0.00000000000E+00  0.00000000000E+00  0.73054350461E+03  0.30880704228E+04  0.30004141587E+04 0.  0.
        1    1    3    3  502    0 -0.74419758886E+03 -0.12119031033E+04 -0.12626001266E+03  0.14277537511E+04  0.50400001928E-02 0.  1.
       -1    1    3    3    0  502  0.74419758886E+03  0.12119031033E+04  0.85680351728E+03  0.16603166717E+04  0.50400001928E-02 0. -1.
</event>
<event>
 5   0  0.2621825E-07  0.3006419E+04  0.7818609E-02  0.8241900E-01
        1   -1    0    0  501    0  0.00000000000E+00  0.00000000000E+00  0.19921630360E+04  0.19921630360E+04  0.50400001928E-02 0.  1.
       -1   -1    0    0    0  501  0.00000000000E+00  0.00000000000E+00 -0.11342638375E+04  0.11342638375E+04  0.50400001928E-02 0. -1.
    10030    2    1    2    0    0  0.00000000000E+00  0.00000000000E+00  0.85789919854E+03  0.31264268735E+04  0.30064187932E+04 0.  0.
        3    1    3    3  502    0  0.24291223631E+03  0.91197351873E+03 -0.78776981406E+03  0.12293426469E+04  0.10100000352E+00 0. -1.
       -3    1    3    3    0  502 -0.24291223631E+03 -0.91197351873E+03  0.16456690126E+04  0.18970842265E+04  0.10100000352E+00 0.  1.
</event>
<event>
 5   0  0.2602891E-07  0.2991010E+04  0.7818609E-02  0.8246303E-01
       -1   -1    0    0    0  501  0.00000000000E+00  0.00000000000E+00  0.91474981594E+03  0.91474981595E+03  0.50400001928E-02 0. -1.
        1   -1    0    0  501    0  0.00000000000E+00  0.00000000000E+00 -0.24449692191E+04  0.24449692191E+04  0.50400001928E-02 0.  1.
    10030    2    1    2    0    0  0.00000000000E+00  0.00000000000E+00 -0.15302194032E+04  0.33597190351E+04  0.29910099587E+04 0.  0.
        5    1    3    3  502    0  0.12432145085E+03 -0.35220985194E+03 -0.23917251048E+04  0.24207186268E+04  0.46999998093E+01 0.  1.
       -5    1    3    3    0  502 -0.12432145085E+03  0.35220985194E+03  0.86150570162E+03  0.93900040834E+03  0.46999998093E+01 0. -1.
</event>
<event>
 5   0  0.2621825E-07  0.3002577E+04  0.7818609E-02  0.8242996E-01
        1   -1    0    0  501    0  0.00000000000E+00  0.00000000000E+00  0.92800633721E+03  0.92800633722E+03  0.50400001928E-02 0.  1.
       -1   -1    0    0    0  501  0.00000000000E+00  0.00000000000E+00 -0.24287189262E+04  0.24287189262E+04  0.50400001928E-02 0. -1.
    10030    2    1    2    0    0  0.00000000000E+00  0.00000000000E+00 -0.15007125890E+04  0.33567252634E+04  0.30025765967E+04 0.  0.
        3    1    3    3  502    0 -0.53811481324E+02 -0.84209706858E+03  0.63781108420E+03  0.10577457813E+04  0.10100000352E+00 0.  1.
       -3    1    3    3    0  502  0.53811481324E+02  0.84209706858E+03 -0.21385236732E+04  0.22989794821E+04  0.10100000352E+00 0. -1.
</event>
<event>
 5   0  0.7278657E-07  0.3010547E+04  0.7818609E-02  0.8240725E-01
       -2   -1    0    0    0  501  0.00000000000E+00  0.00000000000E+00  0.14106904774E+04  0.14106904774E+04  0.25500000920E-02 0.  1.
        2   -1    0    0  501    0  0.00000000000E+00  0.00000000000E+00 -0.16061984771E+04  0.16061984771E+04  0.25500000920E-02 0. -1.
    10030    2    1    2    0    0  0.00000000000E+00  0.00000000000E+00 -0.19550799968E+03  0.30168889545E+04  0.30105473898E+04 0.  0.
        2    1    3    3  502    0  0.72167936934E+03  0.13138352562E+01 -0.14215309517E+04  0.15942311893E+04  0.25500000920E-02 0. -1.
       -2    1    3    3    0  502 -0.72167936934E+03 -0.13138352562E+01  0.12260229520E+04  0.14226577653E+04  0.25500000920E-02 0.  1.
</event>
<event>
 5   0  0.7278657E-07  0.2998296E+04  0.7818609E-02  0.8244218E-01
        2   -1    0    0  501    0  0.00000000000E+00  0.00000000000E+00  0.13997992845E+04  0.13997992845E+04  0.25500000920E-02 0.  1.
       -2   -1    0    0    0  501  0.00000000000E+00  0.00000000000E+00 -0.16055478711E+04  0.16055478711E+04  0.25500000920E-02 0. -1.
    10030    2    1    2    0    0  0.00000000000E+00  0.00000000000E+00 -0.20574858657E+03  0.30053471556E+04  0.29982960236E+04 0.  0.
        2    1    3    3  502    0 -0.67443734148E+03 -0.18219607672E+03  0.12266626504E+04  0.14116523637E+04  0.25500000920E-02 0.  1.
       -2    1    3    3    0  502  0.67443734148E+03  0.18219607672E+03 -0.14324112370E+04  0.15936947919E+04  0.25500000920E-02 0. -1.
</event>
<event>
 5   0  0.7208273E-07  0.3001950E+04  0.7818609E-02  0.8243174E-01
       -2   -1    0    0    0  501  0.00000000000E+00  0.00000000000E+00  0.15190359945E+04  0.15190359945E+04  0.25500000920E-02 0. -1.
        2   -1    0    0  501    0  0.00000000000E+00  0.00000000000E+00 -0.14831284020E+04  0.14831284020E+04  0.25500000920E-02 0.  1.
    10030    2    1    2    0    0  0.00000000000E+00  0.00000000000E+00  0.35907592482E+02  0.30021643964E+04  0.30019496511E+04 0.  0.
        4    1    3    3  502    0 -0.77802722375E+02 -0.66257713016E+03 -0.13267100124E+04  0.14849992548E+04  0.12699999809E+01 0.  1.
       -4    1    3    3    0  502  0.77802722375E+02  0.66257713016E+03  0.13626176048E+04  0.15171651416E+04  0.12699999809E+01 0. -1.
</event>
<event>
 5   0  0.2414250E-07  0.3004118E+04  0.7818609E-02  0.8242556E-01
       -3   -1    0    0    0  501  0.00000000000E+00  0.00000000000E+00  0.14416876201E+04  0.14416876236E+04  0.10100000352E+00 0. -1.
        3   -1    0    0  501    0  0.00000000000E+00  0.00000000000E+00 -0.15649583090E+04  0.15649583123E+04  0.10100000352E+00 0.  1.
    10030    2    1    2    0    0  0.00000000000E+00  0.00000000000E+00 -0.12327068899E+03  0.30066459359E+04  0.30041178607E+04 0.  0.
        5    1    3    3  502    0  0.65077719708E+03 -0.44608285790E+03  0.12175866015E+04  0.14508756316E+04  0.46999998093E+01 0. -1.
       -5    1    3    3    0  502 -0.65077719708E+03  0.44608285790E+03 -0.13408572904E+04  0.15557703043E+04  0.46999998093E+01 0.  1.
</event>
<event>
 5   0  0.2621825E-07  0.3000581E+04  0.7818609E-02  0.8243565E-01
       -1   -1    0    0    0  501  0.00000000000E+00  0.00000000000E+00  0.13953240152E+04  0.13953240152E+04  0.50400001928E-02 0.  1.
        1   -1    0    0  501    0  0.00000000000E+00  0.00000000000E+00 -0.16131533943E+04  0.16131533943E+04  0.50400001928E-02 0. -1.
    10030    2    1    2    0    0  0.00000000000E+00  0.00000000000E+00 -0.21782937910E+03  0.30084774095E+04  0.30005810579E+04 0.  0.
        3    1    3    3  502    0  0.10909002937E+03 -0.82466923392E+03 -0.13607562367E+04  0.15948785301E+04  0.10100000352E+00 0. -1.
       -3    1    3    3    0  502 -0.10909002937E+03  0.82466923392E+03  0.11429268576E+04  0.14135988794E+04  0.10100000352E+00 0.  1.
</event>
<event>
 5   0  0.2792361E-07  0.3029235E+04  0.7818609E-02  0.8235432E-01
        1   -1    0    0  501    0  0.00000000000E+00  0.00000000000E+00  0.21337543255E+04  0.21337543255E+04  0.50400001928E-02 0.  1.
       -1   -1    0    0    0  501  0.00000000000E+00  0.00000000000E+00 -0.10751313235E+04  0.10751313235E+04  0.50400001928E-02 0. -1.
    10030    2    1    2    0    0  0.00000000000E+00  0.00000000000E+00  0.10586230020E+04  0.32088856490E+04  0.30292349608E+04 0.  0.
        4    1    3    3  502    0 -0.12991504204E+04 -0.65616193244E+03  0.97336681450E+03  0.17509382813E+04  0.12699999809E+01 0.  1.
       -4    1    3    3    0  502  0.12991504204E+04  0.65616193244E+03  0.85256187524E+02  0.14579473677E+04  0.12699999809E+01 0. -1.
</event>
<event>
 5   0  0.7585823E-07  0.3011838E+04  0.7818609E-02  0.8240359E-01
        2   -1    0    0  501    0  0.00000000000E+00  0.00000000000E+00  0.14566844778E+04  0.14566844778E+04  0.25500000920E-02 0. -1.
       -2   -1    0    0    0  501  0.00000000000E+00  0.00000000000E+00 -0.15568176767E+04  0.15568176767E+04  0.25500000920E-02 0.  1.
    10030    2    1    2    0    0  0.00000000000E+00  0.00000000000E+00 -0.10013319889E+03  0.30135021545E+04  0.30118380730E+04 0.  0.
        5    1    3    3  502    0  0.34864157378E+03 -0.98345359581E+03 -0.11365017616E+04  0.15428513429E+04  0.46999998093E+01 0.  1.
       -5    1    3    3    0  502 -0.34864157378E+03  0.98345359581E+03  0.10363685627E+04  0.14706508117E+04  0.46999998093E+01 0. -1.
</event>
<event>
 5   0  0.2602891E-07  0.3003357E+04  0.7818609E-02  0.8242773E-01
       -1   -1    0    0    0  501  0.00000000000E+00  0.00000000000E+00  0.85947221460E+03  0.85947221462E+03  0.50400001928E-02 0.  1.
        1   -1    0    0  501    0  0.00000000000E+00  0.00000000000E+00 -0.26237473752E+04  0.26237473752E+04  0.50400001928E-02 0. -1.
    10030    2    1    2    0    0  0.00000000000E+00  0.00000000000E+00 -0.17642751606E+04  0.34832195898E+04  0.30033567668E+04 0.  0.
        5    1    3    3  502    0 -0.14882950293E+03 -0.14785292107E+04 -0.63119413541E+03  0.16145051794E+04  0.46999998093E+01 0. -1.
       -5    1    3    3    0  502  0.14882950293E+03  0.14785292107E+04 -0.11330810252E+04  0.18687144104E+04  0.46999998093E+01 0.  1.
</event>
<event>
 5   0  0.2679935E-07  0.3002093E+04  0.7818609E-02  0.8243134E-01
       -1   -1    0    0    0  501  0.00000000000E+00  0.00000000000E+00  0.15876092333E+04  0.15876092333E+04  0.50400001928E-02 0. -1.
        1   -1    0    0  501    0  0.00000000000E+00  0.00000000000E+00 -0.14192032730E+04  0.14192032730E+04  0.50400001928E-02 0.  1.
    10030    2    1    2    0    0  0.00000000000E+00  0.00000000000E+00  0.16840596037E+03  0.30068125063E+04  0.30020927502E+04 0.  0.
        2    1    3    3  502    0 -0.11708633767E+04 -0.49403303934E+03  0.88430213041E+03  0.15482183143E+04  0.25500000920E-02 0. -1.
       -2    1    3    3    0  502  0.11708633767E+04  0.49403303934E+03 -0.71589617004E+03  0.14585941920E+04  0.25500000920E-02 0.  1.
</event>
<event>
 5   0  0.7399409E-07  0.2997895E+04  0.7818609E-02  0.8244332E-01
        2   -1    0    0  501    0  0.00000000000E+00  0.00000000000E+00  0.17016421440E+04  0.17016421440E+04  0.25500000920E-02 0.  1.
       -2   -1    0    0    0  501  0.00000000000E+00  0.00000000000E+00 -0.13203972955E+04  0.13203972955E+04  0.25500000920E-02 0. -1.
    10030    2    1    2    0    0  0.00000000000E+00  0.00000000000E+00  0.38124484851E+03  0.30220394395E+04  0.29978950514E+04 0.  0.
        3    1    3    3  502    0 -0.58919472201E+03 -0.11191024008E+04  0.10016535768E+04  0.16133352107E+04  0.10100000352E+00 0. -1.
       -3    1    3    3    0  502  0.58919472201E+03  0.11191024008E+04 -0.62040872827E+03  0.14087042288E+04  0.10100000352E+00 0.  1.
</event>
<event>
 5   0  0.2621825E-07  0.2980516E+04  0.7818609E-02  0.8249317E-01
       -1   -1    0    0    0  501  0.00000000000E+00  0.00000000000E+00  0.15727323370E+04  0.15727323370E+04  0.50400001928E-02 0.  1.
        1   -1    0    0  501    0  0.00000000000E+00  0.00000000000E+00 -0.14121084517E+04  0.14121084518E+04  0.50400001928E-02 0. -1.
    10030    2    1    2    0    0  0.00000000000E+00  0.00000000000E+00  0.16062388529E+03  0.29848407888E+04  0.29805158114E+04 0.  0.
        3    1    3    3  502    0 -0.28936639471E+03  0.14494381365E+04  0.27102144979E+03  0.15026830865E+04  0.10100000352E+00 0.  1.
       -3    1    3    3    0  502  0.28936639471E+03 -0.14494381365E+04 -0.11039756450E+03  0.14821577023E+04  0.10100000352E+00 0. -1.
</event>
<event>
 5   0  0.2621825E-07  0.2968296E+04  0.7818609E-02  0.8252843E-01
       -1   -1    0    0    0  501  0.00000000000E+00  0.00000000000E+00  0.15244934103E+04  0.15244934103E+04  0.50400001928E-02 0. -1.
        1   -1    0    0  501    0  0.00000000000E+00  0.00000000000E+00 -0.14448702423E+04  0.14448702423E+04  0.50400001928E-02 0.  1.
    10030    2    1    2    0    0  0.00000000000E+00  0.00000000000E+00  0.79623168015E+02  0.29693636527E+04  0.29682959173E+04 0.  0.
        3    1    3    3  502    0 -0.46862239249E+03  0.13618402230E+04  0.39838077046E+03  0.14942968206E+04  0.10100000352E+00 0. -1.
       -3    1    3    3    0  502  0.46862239249E+03 -0.13618402230E+04 -0.31875760244E+03  0.14750668320E+04  0.10100000352E+00 0.  1.
</event>
<event>
 5   0  0.2621825E-07  0.2999350E+04  0.7818609E-02  0.8243916E-01
        1   -1    0    0  501    0  0.00000000000E+00  0.00000000000E+00  0.16058290238E+04  0.16058290238E+04  0.50400001928E-02 0.  1.
       -1   -1    0    0    0  501  0.00000000000E+00  0.00000000000E+00 -0.14005387872E+04  0.14005387872E+04  0.50400001928E-02 0. -1.
    10030    2    1    2    0    0  0.00000000000E+00  0.00000000000E+00  0.20529023655E+03  0.30063678110E+04  0.29993504853E+04 0.  0.
        3    1    3    3  502    0 -0.14609273014E+04  0.57505578356E+02  0.43720793202E+03  0.15260295729E+04  0.10100000352E+00 0. -1.
       -3    1    3    3    0  502  0.14609273014E+04 -0.57505578356E+02 -0.23191769547E+03  0.14803382381E+04  0.10100000352E+00 0.  1.
</event>
<event>
 5   0  0.2679935E-07  0.3022568E+04  0.7818609E-02  0.8237316E-01
       -1   -1    0    0    0  501  0.00000000000E+00  0.00000000000E+00  0.12385798425E+04  0.12385798425E+04  0.50400001928E-02 0.  1.
        1   -1    0    0  501    0  0.00000000000E+00  0.00000000000E+00 -0.18440308629E+04  0.18440308629E+04  0.50400001928E-02 0. -1.
    10030    2    1    2    0    0  0.00000000000E+00  0.00000000000E+00 -0.60545102045E+03  0.30826107054E+04  0.30225680841E+04 0.  0.
        2    1    3    3  502    0 -0.98039467832E+03  0.20965383793E+03  0.85060176687E+03  0.13147820439E+04  0.25500000920E-02 0.  1.
       -2    1    3    3    0  502  0.98039467832E+03 -0.20965383793E+03 -0.14560527873E+04  0.17678286615E+04  0.25500000920E-02 0. -1.
</event>
<event>
 5   0  0.2792361E-07  0.3002721E+04  0.7818609E-02  0.8242954E-01
        1   -1    0    0  501    0  0.00000000000E+00  0.00000000000E+00  0.14676127112E+04  0.14676127112E+04  0.50400001928E-02 0.  1.
       -1   -1    0    0    0  501  0.00000000000E+00  0.00000000000E+00 -0.15358844606E+04  0.15358844606E+04  0.50400001928E-02 0. -1.
    10030    2    1    2    0    0  0.00000000000E+00  0.00000000000E+00 -0.68271749413E+02  0.30034971718E+04  0.30027211374E+04 0.  0.
        4    1    3    3  502    0 -0.14567628654E+04 -0.36249355543E+03 -0.11275630508E+02  0.15012289553E+04  0.12699999809E+01 0.  1.
       -4    1    3    3    0  502  0.14567628654E+04  0.36249355543E+03 -0.56996118905E+02  0.15022682164E+04  0.12699999809E+01 0. -1.
</event>
<event>
 5   0  0.2792361E-07  0.2997783E+04  0.7818609E-02  0.8244364E-01
       -1   -1    0    0    0  501  0.00000000000E+00  0.00000000000E+00  0.20601613825E+04  0.20601613825E+04  0.50400001928E-02 0. -1.
        1   -1    0    0  501    0  0.00000000000E+00  0.00000000000E+00 -0.10905335679E+04  0.10905335679E+04  0.50400001928E-02 0.  1.
    10030    2    1    2    0    0  0.00000000000E+00  0.00000000000E+00  0.96962781467E+03  0.31506949504E+04  0.29977826091E+04 0.  0.
        4    1    3    3  502    0  0.40453413456E+03 -0.38533881035E+03  0.19466377481E+04  0.20252244320E+04  0.12699999809E+01 0. -1.
       -4    1    3    3    0  502 -0.40453413456E+03  0.38533881035E+03 -0.97700993346E+03  0.11254705184E+04  0.12699999809E+01 0.  1.
</event>
<event>
 5   0  0.7399409E-07  0.2999398E+04  0.7818609E-02  0.8243903E-01
       -2   -1    0    0    0  501  0.00000000000E+00  0.00000000000E+00  0.95563755896E+03  0.95563755897E+03  0.25500000920E-02 0. -1.
        2   -1    0    0  501    0  0.00000000000E+00  0.00000000000E+00 -0.23535042844E+04  0.23535042844E+04  0.25500000920E-02 0.  1.
    10030    2    1    2    0    0  0.00000000000E+00  0.00000000000E+00 -0.13978667255E+04  0.33091418434E+04  0.29993979992E+04 0.  0.
        3    1    3    3  502    0  0.14150850040E+04 -0.39758883612E+02 -0.15278668461E+03  0.14238645015E+04  0.10100000352E+00 0. -1.
       -3    1    3    3    0  502 -0.14150850040E+04  0.39758883612E+02 -0.12450800409E+04  0.18852773419E+04  0.10100000352E+00 0.  1.
</event>
<event>
 5   0  0.7208273E-07  0.2999534E+04  0.7818609E-02  0.8243864E-01
        2   -1    0    0  501    0  0.00000000000E+00  0.00000000000E+00  0.12385304794E+04  0.12385304794E+04  0.25500000920E-02 0. -1.
       -2   -1    0    0    0  501  0.00000000000E+00  0.00000000000E+00 -0.18161048484E+04  0.18161048484E+04  0.25500000920E-02 0.  1.
    10030    2    1    2    0    0  0.00000000000E+00  0.00000000000E+00 -0.57757436896E+03  0.30546353278E+04  0.29995341028E+04 0.  0.
        4    1    3    3  502    0 -0.94939506344E+03  0.11300835383E+04 -0.17702148881E+02  0.14760605574E+04  0.12699999809E+01 0.  1.
       -4    1    3    3    0  502  0.94939506344E+03 -0.11300835383E+04 -0.55987222008E+03  0.15785747704E+04  0.12699999809E+01 0. -1.
</event>
<event>
 5   0  0.7208273E-07  0.3002341E+04  0.7818609E-02  0.8243063E-01
       -2   -1    0    0    0  501  0.00000000000E+00  0.00000000000E+00  0.11988170661E+04  0.11988170661E+04  0.25500000920E-02 0. -1.
        2   -1    0    0  501    0  0.00000000000E+00  0.00000000000E+00 -0.18797805821E+04  0.18797805821E+04  0.25500000920E-02 0.  1.
    10030    2    1    2    0    0  0.00000000000E+00  0.00000000000E+00 -0.68096351603E+03  0.30785976482E+04  0.30023411147E+04 0.  0.
        4    1    3    3  502    0 -0.52581567827E+03 -0.11660411669E+04  0.46520871406E+03  0.13610859235E+04  0.12699999809E+01 0. -1.
       -4    1    3    3    0  502  0.52581567827E+03  0.11660411669E+04 -0.11461722301E+04  0.17175117247E+04  0.12699999809E+01 0.  1.
</event>
<event>
 5   0  0.2602891E-07  0.3001472E+04  0.7818609E-02  0.8243311E-01
       -1   -1    0    0    0  501  0.00000000000E+00  0.00000000000E+00  0.98980164502E+03  0.98980164504E+03  0.50400001928E-02 0.  1.
        1   -1    0    0  501    0  0.00000000000E+00  0.00000000000E+00 -0.22754142966E+04  0.22754142966E+04  0.50400001928E-02 0. -1.
    10030    2    1    2    0    0  0.00000000000E+00  0.00000000000E+00 -0.12856126516E+04  0.32652159416E+04  0.30014721814E+04 0.  0.
        5    1    3    3  502    0 -0.67942019026E+03  0.23262724130E+03  0.79073400043E+03  0.10681804987E+04  0.46999998093E+01 0.  1.
       -5    1    3    3    0  502  0.67942019026E+03 -0.23262724130E+03 -0.20763466520E+04  0.21970354430E+04  0.46999998093E+01 0. -1.
</event>
<event>
 5   0  0.2621825E-07  0.3000459E+04  0.7818609E-02  0.8243600E-01
       -1   -1    0    0    0  501  0.00000000000E+00  0.00000000000E+00  0.17251916026E+04  0.17251916026E+04  0.50400001928E-02 0.  1.
        1   -1    0    0  501    0  0.00000000000E+00  0.00000000000E+00 -0.13046023476E+04  0.13046023476E+04  0.50400001928E-02 0. -1.
    10030    2    1    2    0    0  0.00000000000E+00  0.00000000000E+00  0.42058925501E+03  0.30297939503E+04  0.30004593081E+04 0.  0.
        3    1    3    3  502    0 -0.12165286656E+04  0.83246586523E+03 -0.71263994518E+02  0.14758116337E+04  0.10100000352E+00 0. -1.
       -3    1    3    3    0  502  0.12165286656E+04 -0.83246586523E+03  0.49185324953E+03  0.15539823166E+04  0.10100000352E+00 0.  1.
</event>
<event>
 5   0  0.7208273E-07  0.3004307E+04  0.7818609E-02  0.8242502E-01
        2   -1    0    0  501    0  0.00000000000E+00  0.00000000000E+00  0.21091310990E+04  0.21091310990E+04  0.25500000920E-02 0.  1.
       -2   -1    0    0    0  501  0.00000000000E+00  0.00000000000E+00 -0.10698550378E+04  0.10698550378E+04  0.25500000920E-02 0. -1.
    10030    2    1    2    0    0  0.00000000000E+00  0.00000000000E+00  0.10392760612E+04  0.31789861368E+04  0.30043065966E+04 0.  0.
        4    1    3    3  502    0 -0.13124340260E+04  0.61417685640E+03  0.93859671880E+03  0.17264592949E+04  0.12699999809E+01 0.  1.
       -4    1    3    3    0  502  0.13124340260E+04 -0.61417685640E+03  0.10067934241E+03  0.14525268419E+04  0.12699999809E+01 0. -1.
</event>
<event>
 5   0  0.7585823E-07  0.3000532E+04  0.7818609E-02  0.8243579E-01
        2   -1    0    0  501    0  0.00000000000E+00  0.00000000000E+00  0.26264729082E+04  0.26264729082E+04  0.25500000920E-02 0.  1.
       -2   -1    0    0    0  501  0.00000000000E+00  0.00000000000E+00 -0.85696626352E+03  0.85696626352E+03  0.25500000920E-02 0. -1.
    10030    2    1    2    0    0  0.00000000000E+00  0.00000000000E+00  0.17695066446E+04  0.34834391717E+04  0.30005324023E+04 0.  0.
        5    1    3    3  502    0 -0.21674201638E+03  0.10353920429E+04 -0.35030543011E+03  0.11143382649E+04  0.46999998093E+01 0. -1.
       -5    1    3    3    0  502  0.21674201638E+03 -0.10353920429E+04  0.21198120748E+04  0.23691009068E+04  0.46999998093E+01 0.  1.
</event>
<event>
 5   0  0.2602891E-07  0.3006790E+04  0.7818609E-02  0.8241795E-01
        1   -1    0    0  501    0  0.00000000000E+00  0.00000000000E+00  0.12639365469E+04  0.12639365469E+04  0.50400001928E-02 0.  1.
       -1   -1    0    0    0  501  0.00000000000E+00  0.00000000000E+00 -0.17882196944E+04  0.17882196944E+04  0.50400001928E-02 0. -1.
    10030    2    1    2    0    0  0.00000000000E+00  0.00000000000E+00 -0.52428314751E+03  0.30521562412E+04  0.30067898001E+04 0.  0.
        5    1    3    3  502    0 -0.92099116906E+03  0.31607437561E+03  0.90058684872E+03  0.13263508233E+04  0.46999998093E+01 0.  1.
       -5    1    3    3    0  502  0.92099116906E+03 -0.31607437561E+03 -0.14248699962E+04  0.17258054179E+04  0.46999998093E+01 0. -1.
</event>
<event>
 5   0  0.2621825E-07  0.2998688E+04  0.7818609E-02  0.8244106E-01
        1   -1    0    0  501    0  0.00000000000E+00  0.00000000000E+00  0.14191239226E+04  0.14191239227E+04  0.50400001928E-02 0.  1.
       -1   -1    0    0    0  501  0.00000000000E+00  0.00000000000E+00 -0.15840984948E+04  0.15840984948E+04  0.50400001928E-02 0. -1.
    10030    2    1    2    0    0  0.00000000000E+00  0.00000000000E+00 -0.16497457216E+03  0.30032224175E+04  0.29986877595E+04 0.  0.
        3    1    3    3  502    0 -0.13821717943E+04 -0.56008121184E+03 -0.23745403440E+03  0.15101239226E+04  0.10100000352E+00 0. -1.
       -3    1    3    3    0  502  0.13821717943E+04  0.56008121184E+03  0.72479462239E+02  0.14930984949E+04  0.10100000352E+00 0.  1.
</event>
<event>
 5   0  0.7278657E-07  0.3001438E+04  0.7818609E-02  0.8243320E-01
        2   -1    0    0  501    0  0.00000000000E+00  0.00000000000E+00  0.18526411830E+04  0.18526411830E+04  0.25500000920E-02 0. -1.
       -2   -1    0    0    0  501  0.00000000000E+00  0.00000000000E+00 -0.12156471709E+04  0.12156471709E+04  0.25500000920E-02 0.  1.
    10030    2    1    2    0    0  0.00000000000E+00  0.00000000000E+00  0.63699401204E+03  0.30682883539E+04  0.30014383304E+04 0.  0.
        2    1    3    3  502    0 -0.77667792768E+03  0.15442207879E+03  0.16216774424E+04  0.18046918044E+04  0.25500000920E-02 0. -1.
       -2    1    3    3    0  502  0.77667792768E+03 -0.15442207879E+03 -0.98468343036E+03  0.12635965495E+04  0.25500000920E-02 0.  1.
</event>
<event>
 5   0  0.7585823E-07  0.2997887E+04  0.7818609E-02  0.8244334E-01
       -2   -1    0    0    0  501  0.00000000000E+00  0.00000000000E+00  0.10590427440E+04  0.10590427440E+04  0.25500000920E-02 0.  1.
        2   -1    0    0  501    0  0.00000000000E+00  0.00000000000E+00 -0.21215690373E+04  0.21215690373E+04  0.25500000920E-02 0. -1.
    10030    2    1    2    0    0  0.00000000000E+00  0.00000000000E+00 -0.10625262933E+04  0.31806117812E+04  0.29978874527E+04 0.  0.
        5    1    3    3  502    0  0.13479427876E+04  0.62534638626E+03 -0.74025257358E+03  0.16601216294E+04  0.46999998093E+01 0.  1.
       -5    1    3    3    0  502 -0.13479427876E+04 -0.62534638626E+03 -0.32227371971E+03  0.15204901519E+04  0.46999998093E+01 0. -1.
</event>
<event>
 5   0  0.7307508E-07  0.2999540E+04  0.7818609E-02  0.8243862E-01
       -2   -1    0    0    0  501  0.00000000000E+00  0.00000000000E+00  0.79928885227E+03  0.79928885227E+03  0.25500000920E-02 0. -1.
        2   -1    0    0  501    0  0.00000000000E+00  0.00000000000E+00 -0.28141394302E+04  0.28141394302E+04  0.25500000920E-02 0.  1.
    10030    2    1    2    0    0  0.00000000000E+00  0.00000000000E+00 -0.20148505779E+04  0.36134282825E+04  0.29995401483E+04 0.  0.
        1    1    3    3  502    0 -0.38819882870E+03  0.10352112273E+04 -0.22282107204E+04  0.24874251004E+04  0.50400001928E-02 0.  1.
       -1    1    3    3    0  502  0.38819882870E+03 -0.10352112273E+04  0.21336014244E+03  0.11260031821E+04  0.50400001928E-02 0. -1.
</event>
<event>
 5   0  0.7208273E-07  0.3002493E+04  0.7818609E-02  0.8243019E-01
       -2   -1    0    0    0  501  0.00000000000E+00  0.00000000000E+00  0.78160552347E+03  0.78160552348E+03  0.25500000920E-02 0.  1.
        2   -1    0    0  501    0  0.00000000000E+00  0.00000000000E+00 -0.28834768782E+04  0.28834768782E+04  0.25500000920E-02 0. -1.
    10030    2    1    2    0    0  0.00000000000E+00  0.00000000000E+00 -0.21018713547E+04  0.36650824016E+04  0.30024932671E+04 0.  0.
        4    1    3    3  502    0 -0.14271234210E+04 -0.24592419106E+03 -0.15339607480E+04  0.21095490408E+04  0.12699999809E+01 0. -1.
       -4    1    3    3    0  502  0.14271234210E+04  0.24592419106E+03 -0.56791060670E+03  0.15555333608E+04  0.12699999809E+01 0.  1.
</event>
<event>
 5   0  0.7585823E-07  0.2997489E+04  0.7818609E-02  0.8244448E-01
       -2   -1    0    0    0  501  0.00000000000E+00  0.00000000000E+00  0.10223442807E+04  0.10223442807E+04  0.25500000920E-02 0.  1.
        2   -1    0    0  501    0  0.00000000000E+00  0.00000000000E+00 -0.21971415469E+04  0.21971415469E+04  0.25500000920E-02 0. -1.
    10030    2    1    2    0    0  0.00000000000E+00  0.00000000000E+00 -0.11747972662E+04  0.32194858276E+04  0.29974890121E+04 0.  0.
        5    1    3    3  502    0  0.51336311759E+03 -0.58053668897E+03 -0.19652343945E+04  0.21125181309E+04  0.46999998093E+01 0. -1.
       -5    1    3    3    0  502 -0.51336311759E+03  0.58053668897E+03  0.79043712840E+03  0.11069676968E+04  0.46999998093E+01 0.  1.
</event>
<event>
 5   0  0.7399409E-07  0.2997158E+04  0.7818609E-02  0.8244543E-01
       -2   -1    0    0    0  501  0.00000000000E+00  0.00000000000E+00  0.10650723407E+04  0.10650723407E+04  0.25500000920E-02 0.  1.
        2   -1    0    0  501    0  0.00000000000E+00  0.00000000000E+00 -0.21085321703E+04  0.21085321703E+04  0.25500000920E-02 0. -1.
    10030    2    1    2    0    0  0.00000000000E+00  0.00000000000E+00 -0.10434598296E+04  0.31736045111E+04  0.29971581835E+04 0.  0.
        3    1    3    3  502    0  0.74214736812E+03 -0.16303438325E+03 -0.18894277313E+04  0.20364921037E+04  0.10100000352E+00 0. -1.
       -3    1    3    3    0  502 -0.74214736812E+03  0.16303438325E+03  0.84596790172E+03  0.11371124074E+04  0.10100000352E+00 0.  1.
</event>
<event>
 5   0  0.2792361E-07  0.3001390E+04  0.7818609E-02  0.8243334E-01
       -1   -1    0    0    0  501  0.00000000000E+00  0.00000000000E+00  0.12090748064E+04  0.12090748064E+04  0.50400001928E-02 0.  1.
        1   -1    0    0  501    0  0.00000000000E+00  0.00000000000E+00 -0.18626517325E+04  0.18626517325E+04  0.50400001928E-02 0. -1.
    10030    2    1    2    0    0  0.00000000000E+00  0.00000000000E+00 -0.65357692608E+03  0.30717265390E+04  0.30013898667E+04 0.  0.
        4    1    3    3  502    0  0.89838746451E+03 -0.11406982252E+04  0.61296022300E+02  0.14532898171E+04  0.12699999809E+01 0.  1.
       -4    1    3    3    0  502 -0.89838746451E+03  0.11406982252E+04 -0.71487294838E+03  0.16184367218E+04  0.12699999809E+01 0. -1.
</event>
<event>
 5   0  0.7585823E-07  0.2980665E+04  0.7818609E-02  0.8249274E-01
        2   -1    0    0  501    0  0.00000000000E+00  0.00000000000E+00  0.20062257747E+04  0.20062257747E+04  0.25500000920E-02 0.  1.
       -2   -1    0    0    0  501  0.00000000000E+00  0.00000000000E+00 -0.11070992284E+04  0.11070992284E+04  0.25500000920E-02 0. -1.
    10030    2    1    2    0    0  0.00000000000E+00  0.00000000000E+00  0.89912654630E+03  0.31133250031E+04  0.29806650313E+04 0.  0.
        5    1    3    3  502    0  0.99504763023E+03 -0.88465036638E+03  0.11489484379E+04  0.17586445519E+04  0.46999998093E+01 0.  1.
       -5    1    3    3    0  502 -0.99504763023E+03  0.88465036638E+03 -0.24982189159E+03  0.13546804511E+04  0.46999998093E+01 0. -1.
</event>
<event>
 5   0  0.2602891E-07  0.3002663E+04  0.7818609E-02  0.8242971E-01
       -1   -1    0    0    0  501  0.00000000000E+00  0.00000000000E+00  0.10207100305E+04  0.10207100305E+04  0.50400001928E-02 0. -1.
        1   -1    0    0  501    0  0.00000000000E+00  0.00000000000E+00 -0.22082633735E+04  0.22082633735E+04  0.50400001928E-02 0.  1.
    10030    2    1    2    0    0  0.00000000000E+00  0.00000000000E+00 -0.11875533430E+04  0.32289734040E+04  0.30026632014E+04 0.  0.
        5    1    3    3  502    0 -0.73123334615E+03 -0.42340360682E+03 -0.19282762515E+04  0.21052895793E+04  0.46999998093E+01 0.  1.
       -5    1    3    3    0  502  0.73123334615E+03  0.42340360682E+03  0.74072290844E+03  0.11236838247E+04  0.46999998093E+01 0. -1.
</event>
<event>
 5   0  0.2602891E-07  0.2992174E+04  0.7818609E-02  0.8245969E-01
       -1   -1    0    0    0  501  0.00000000000E+00  0.00000000000E+00  0.10269158660E+04  0.10269158660E+04  0.50400001928E-02 0.  1.
        1   -1    0    0  501    0  0.00000000000E+00  0.00000000000E+00 -0.21796098852E+04  0.21796098852E+04  0.50400001928E-02 0. -1.
    10030    2    1    2    0    0  0.00000000000E+00  0.00000000000E+00 -0.11526940191E+04  0.32065257512E+04  0.29921737736E+04 0.  0.
        5    1    3    3  502    0  0.25550506777E+03  0.62574143685E+02 -0.21546241062E+04  0.21706279027E+04  0.46999998093E+01 0. -1.
       -5    1    3    3    0  502 -0.25550506777E+03 -0.62574143685E+02  0.10019300871E+04  0.10358978485E+04  0.46999998093E+01 0.  1.
</event>
<event>
 5   0  0.2602891E-07  0.2998793E+04  0.7818609E-02  0.8244076E-01
       -1   -1    0    0    0  501  0.00000000000E+00  0.00000000000E+00  0.12141505229E+04  0.12141505229E+04  0.50400001928E-02 0.  1.
        1   -1    0    0  501    0  0.00000000000E+00  0.00000000000E+00 -0.18516567748E+04  0.18516567748E+04  0.50400001928E-02 0. -1.
    10030    2    1    2    0    0  0.00000000000E+00  0.00000000000E+00 -0.63750625183E+03  0.30658072977E+04  0.29987931182E+04 0.  0.
        5    1    3    3  502    0  0.13694102760E+04 -0.59952107144E+03 -0.43735389872E+03  0.15575655818E+04  0.46999998093E+01 0. -1.
       -5    1    3    3    0  502 -0.13694102760E+04  0.59952107144E+03 -0.20015235310E+03  0.15082417159E+04  0.46999998093E+01 0.  1.
</event>
<event>
 5   0  0.2640081E-07  0.2996041E+04  0.7818609E-02  0.8244862E-01
        1   -1    0    0  501    0  0.00000000000E+00  0.00000000000E+00  0.12301441190E+04  0.12301441190E+04  0.50400001928E-02 0.  1.
       -1   -1    0    0    0  501  0.00000000000E+00  0.00000000000E+00 -0.18242301162E+04  0.18242301162E+04  0.50400001928E-02 0. -1.
    10030    2    1    2    0    0  0.00000000000E+00  0.00000000000E+00 -0.59408599720E+03  0.30543742352E+04  0.29960413543E+04 0.  0.
        1    1    3    3  502    0 -0.13499503539E+04  0.33732094466E+03 -0.86274740908E+03  0.16372185162E+04  0.50400001928E-02 0. -1.
       -1    1    3    3    0  502  0.13499503539E+04 -0.33732094466E+03  0.26866141188E+03  0.14171557191E+04  0.50400001928E-02 0.  1.
</event>
<event>
 5   0  0.7399409E-07  0.2991695E+04  0.7818609E-02  0.8246107E-01
        2   -1    0    0  501    0  0.00000000000E+00  0.00000000000E+00  0.31681893246E+04  0.31681893246E+04  0.25500000920E-02 0.  1.
       -2   -1    0    0    0  501  0.00000000000E+00  0.00000000000E+00 -0.70625801536E+03  0.70625801537E+03  0.25500000920E-02 0. -1.
    10030    2    1    2    0    0  0.00000000000E+00  0.00000000000E+00  0.24619313092E+04  0.38744473399E+04  0.29916945731E+04 0.  0.
        3    1    3    3  502    0 -0.88410696022E+02 -0.16937690030E+03  0.31523217761E+04  0.31581066441E+04  0.10100000352E+00 0.  1.
       -3    1    3    3    0  502  0.88410696022E+02  0.16937690030E+03 -0.69039046687E+03  0.71634069581E+03  0.10100000352E+00 0. -1.
</event>
<event>
 5   0  0.2414250E-07  0.2998941E+04  0.7818609E-02  0.8244033E-01
        4   -1    0    0  501    0  0.00000000000E+00  0.00000000000E+00  0.17790755201E+04  0.17790759734E+04  0.12699999809E+01 0.  1.
       -4   -1    0    0    0  501  0.00000000000E+00  0.00000000000E+00 -0.12638080927E+04  0.12638087308E+04  0.12699999809E+01 0. -1.
    10030    2    1    2    0    0  0.00000000000E+00  0.00000000000E+00  0.51526742734E+03  0.30428847042E+04  0.29989409466E+04 0.  0.
        1    1    3    3  502    0  0.39747208037E+03 -0.34939853882E+03 -0.11659026274E+04  0.12803875704E+04  0.50400001928E-02 0. -1.
       -1    1    3    3    0  502 -0.39747208037E+03  0.34939853882E+03  0.16811700548E+04  0.17624971338E+04  0.50400001928E-02 0.  1.
</event>
<event>
 5   0  0.2792361E-07  0.2991337E+04  0.7818609E-02  0.8246209E-01
       -1   -1    0    0    0  501  0.00000000000E+00  0.00000000000E+00  0.11325828819E+04  0.11325828819E+04  0.50400001928E-02 0.  1.
        1   -1    0    0  501    0  0.00000000000E+00  0.00000000000E+00 -0.19751524254E+04  0.19751524254E+04  0.50400001928E-02 0. -1.
    10030    2    1    2    0    0  0.00000000000E+00  0.00000000000E+00 -0.84256954347E+03  0.31077353073E+04  0.29913367087E+04 0.  0.
        4    1    3    3  502    0 -0.10581467832E+04  0.96465815080E+03  0.27715416701E+02  0.14321346724E+04  0.12699999809E+01 0.  1.
       -4    1    3    3    0  502  0.10581467832E+04 -0.96465815080E+03 -0.87028496017E+03  0.16756006349E+04  0.12699999809E+01 0. -1.
</event>
<event>
 5   0  0.7278657E-07  0.2999153E+04  0.7818609E-02  0.8243973E-01
       -2   -1    0    0    0  501  0.00000000000E+00  0.00000000000E+00  0.11928625067E+04  0.11928625067E+04  0.25500000920E-02 0. -1.
        2   -1    0    0  501    0  0.00000000000E+00  0.00000000000E+00 -0.18851543226E+04  0.18851543226E+04  0.25500000920E-02 0.  1.
    10030    2    1    2    0    0  0.00000000000E+00  0.00000000000E+00 -0.69229181590E+03  0.30780168293E+04  0.29991531543E+04 0.  0.
        2    1    3    3  502    0  0.88480656247E+03 -0.12092459461E+04 -0.28481242301E+03  0.15252136006E+04  0.25500000920E-02 0.  1.
       -2    1    3    3    0  502 -0.88480656247E+03  0.12092459461E+04 -0.40747939289E+03  0.15528032286E+04  0.25500000920E-02 0. -1.
</event>
<event>
 5   0  0.7278657E-07  0.2998022E+04  0.7818609E-02  0.8244296E-01
       -2   -1    0    0    0  501  0.00000000000E+00  0.00000000000E+00  0.11412916401E+04  0.11412916401E+04  0.25500000920E-02 0. -1.
        2   -1    0    0  501    0  0.00000000000E+00  0.00000000000E+00 -0.19688520198E+04  0.19688520198E+04  0.25500000920E-02 0.  1.
    10030    2    1    2    0    0  0.00000000000E+00  0.00000000000E+00 -0.82756037969E+03  0.31101436599E+04  0.29980222486E+04 0.  0.
        2    1    3    3  502    0  0.30990073286E+03 -0.13257179113E+04 -0.10645093304E+04  0.17282206339E+04  0.25500000920E-02 0.  1.
       -2    1    3    3    0  502 -0.30990073286E+03  0.13257179113E+04  0.23694895076E+03  0.13819230261E+04  0.25500000920E-02 0. -1.
</event>
<event>
 5   0  0.2640081E-07  0.2998373E+04  0.7818609E-02  0.8244196E-01
       -1   -1    0    0    0  501  0.00000000000E+00  0.00000000000E+00  0.16078385786E+04  0.16078385786E+04  0.50400001928E-02 0. -1.
        1   -1    0    0  501    0  0.00000000000E+00  0.00000000000E+00 -0.13978769252E+04  0.13978769252E+04  0.50400001928E-02 0.  1.
    10030    2    1    2    0    0  0.00000000000E+00  0.00000000000E+00  0.20996165339E+03  0.30057155037E+04  0.29983731912E+04 0.  0.
        1    1    3    3  502    0  0.87390058632E+03  0.86098650631E+03 -0.75884879480E+03  0.14425156818E+04  0.50400001928E-02 0.  1.
       -1    1    3    3    0  502 -0.87390058632E+03 -0.86098650631E+03  0.96881044818E+03  0.15631998220E+04  0.50400001928E-02 0. -1.
</event>
<event>
 5   0  0.7585823E-07  0.2997087E+04  0.7818609E-02  0.8244563E-01
        2   -1    0    0  501    0  0.00000000000E+00  0.00000000000E+00  0.17212366764E+04  0.17212366764E+04  0.25500000920E-02 0.  1.
       -2   -1    0    0    0  501  0.00000000000E+00  0.00000000000E+00 -0.13046622656E+04  0.13046622656E+04  0.25500000920E-02 0. -1.
    10030    2    1    2    0    0  0.00000000000E+00  0.00000000000E+00  0.41657441079E+03  0.30258989420E+04  0.29970869470E+04 0.  0.
        5    1    3    3  502    0  0.14322546484E+04 -0.27666205467E+03 -0.13810755629E+03  0.14652614297E+04  0.46999998093E+01 0. -1.
       -5    1    3    3    0  502 -0.14322546484E+04  0.27666205467E+03  0.55468196708E+03  0.15606375123E+04  0.46999998093E+01 0.  1.
</event>
<event>
 5   0  0.2621825E-07  0.3001470E+04  0.7818609E-02  0.8243311E-01
       -1   -1    0    0    0  501  0.00000000000E+00  0.00000000000E+00  0.11979421894E+04  0.11979421894E+04  0.50400001928E-02 0. -1.
        1   -1    0    0  501    0  0.00000000000E+00  0.00000000000E+00 -0.18800623652E+04  0.18800623652E+04  0.50400001928E-02 0.  1.
    10030    2    1    2    0    0  0.00000000000E+00  0.00000000000E+00 -0.68212017579E+03  0.30780045546E+04  0.30014703237E+04 0.  0.
        3    1    3    3  502    0 -0.72645277405E+01 -0.45658580825E+03 -0.18070869654E+04  0.18638902018E+04  0.10100000352E+00 0.  1.
       -3    1    3    3    0  502  0.72645277405E+01  0.45658580825E+03  0.11249667896E+04  0.12141143528E+04  0.10100000352E+00 0. -1.
</event>
<event>
 5   0  0.7208273E-07  0.2999497E+04  0.7818609E-02  0.8243875E-01
       -2   -1    0    0    0  501  0.00000000000E+00  0.00000000000E+00  0.13350956396E+04  0.13350956397E+04  0.25500000920E-02 0.  1.
        2   -1    0    0  501    0  0.00000000000E+00  0.00000000000E+00 -0.16847075577E+04  0.16847075577E+04  0.25500000920E-02 0. -1.
    10030    2    1    2    0    0  0.00000000000E+00  0.00000000000E+00 -0.34961191807E+03  0.30198031974E+04  0.29994971008E+04 0.  0.
        4    1    3    3  502    0 -0.38215238543E+03 -0.10166440254E+04 -0.12160408769E+04  0.16304485724E+04  0.12699999809E+01 0. -1.
       -4    1    3    3    0  502  0.38215238543E+03  0.10166440254E+04  0.86642895888E+03  0.13893546249E+04  0.12699999809E+01 0.  1.
</event>
<event>
 5   0  0.2414250E-07  0.2999200E+04  0.7818609E-02  0.8243959E-01
       -4   -1    0    0    0  501  0.00000000000E+00  0.00000000000E+00  0.15151146433E+04  0.15151151756E+04  0.12699999809E+01 0. -1.
        4   -1    0    0  501    0  0.00000000000E+00  0.00000000000E+00 -0.14842432864E+04  0.14842438298E+04  0.12699999809E+01 0.  1.
    10030    2    1    2    0    0  0.00000000000E+00  0.00000000000E+00  0.30871356920E+02  0.29993590054E+04  0.29992001271E+04 0.  0.
        1    1    3    3  502    0  0.40812934616E+03  0.14207532623E+04 -0.23694836042E+03  0.14970818017E+04  0.50400001928E-02 0.  1.
       -1    1    3    3    0  502 -0.40812934616E+03 -0.14207532623E+04  0.26781971734E+03  0.15022772036E+04  0.50400001928E-02 0. -1.
</event>
<event>
 5   0  0.2621825E-07  0.2999411E+04  0.7818609E-02  0.8243899E-01
        1   -1    0    0  501    0  0.00000000000E+00  0.00000000000E+00  0.11333808418E+04  0.11333808418E+04  0.50400001928E-02 0.  1.
       -1   -1    0    0    0  501  0.00000000000E+00  0.00000000000E+00 -0.19844318629E+04  0.19844318629E+04  0.50400001928E-02 0. -1.
    10030    2    1    2    0    0  0.00000000000E+00  0.00000000000E+00 -0.85105102113E+03  0.31178127048E+04  0.29994113125E+04 0.  0.
        3    1    3    3  502    0  0.55946960973E+03  0.44759558588E+03  0.94396794201E+03  0.11850837685E+04  0.10100000352E+00 0.  1.
       -3    1    3    3    0  502 -0.55946960973E+03 -0.44759558588E+03 -0.17950189631E+04  0.19327289362E+04  0.10100000352E+00 0. -1.
</event>
<event>
 5   0  0.2640081E-07  0.3002044E+04  0.7818609E-02  0.8243147E-01
        1   -1    0    0  501    0  0.00000000000E+00  0.00000000000E+00  0.25033440474E+04  0.25033440474E+04  0.50400001928E-02 0.  1.
       -1   -1    0    0    0  501  0.00000000000E+00  0.00000000000E+00 -0.90002310730E+03  0.90002310731E+03  0.50400001928E-02 0. -1.
    10030    2    1    2    0    0  0.00000000000E+00  0.00000000000E+00  0.16033209401E+04  0.34033671547E+04  0.30020442956E+04 0.  0.
        1    1    3    3  502    0  0.22177821303E+03  0.57940829040E+02 -0.88006397979E+03  0.90942582105E+03  0.50400001928E-02 0. -1.
       -1    1    3    3    0  502 -0.22177821303E+03 -0.57940829040E+02  0.24833849199E+04  0.24939413337E+04  0.50400001928E-02 0.  1.
</event>
<event>
 5   0  0.2621825E-07  0.2996204E+04  0.7818609E-02  0.8244816E-01
        1   -1    0    0  501    0  0.00000000000E+00  0.00000000000E+00  0.25736750732E+04  0.25736750732E+04  0.50400001928E-02 0. -1.
       -1   -1    0    0    0  501  0.00000000000E+00  0.00000000000E+00 -0.87202497948E+03  0.87202497949E+03  0.50400001928E-02 0.  1.
    10030    2    1    2    0    0  0.00000000000E+00  0.00000000000E+00  0.17016500937E+04  0.34457000527E+04  0.29962035664E+04 0.  0.
        3    1    3    3  502    0  0.10414799393E+04  0.41364694514E+03 -0.29257949233E+03  0.11581826405E+04  0.10100000352E+00 0.  1.
       -3    1    3    3    0  502 -0.10414799393E+04 -0.41364694514E+03  0.19942295860E+04  0.22875174122E+04  0.10100000352E+00 0. -1.
</event>
<event>
 5   0  0.7208273E-07  0.3003474E+04  0.7818609E-02  0.8242739E-01
        2   -1    0    0  501    0  0.00000000000E+00  0.00000000000E+00  0.14058666535E+04  0.14058666535E+04  0.25500000920E-02 0. -1.
       -2   -1    0    0    0  501  0.00000000000E+00  0.00000000000E+00 -0.16041453422E+04  0.16041453422E+04  0.25500000920E-02 0.  1.
    10030    2    1    2    0    0  0.00000000000E+00  0.00000000000E+00 -0.19827868869E+03  0.30100119956E+04  0.30034742841E+04 0.  0.
        4    1    3    3  502    0  0.29101164672E+03  0.28237471776E+03  0.13499643749E+04  0.14095491074E+04  0.12699999809E+01 0. -1.
       -4    1    3    3    0  502 -0.29101164672E+03 -0.28237471776E+03 -0.15482430636E+04  0.16004628882E+04  0.12699999809E+01 0.  1.
</event>
<event>
 5   0  0.7307508E-07  0.3061857E+04  0.7818609E-02  0.8226285E-01
        2   -1    0    0  501    0  0.00000000000E+00  0.00000000000E+00  0.27292884109E+04  0.27292884109E+04  0.25500000920E-02 0.  1.
       -2   -1    0    0    0  501  0.00000000000E+00  0.00000000000E+00 -0.85873727068E+03  0.85873727068E+03  0.25500000920E-02 0. -1.
    10030    2    1    2    0    0  0.00000000000E+00  0.00000000000E+00  0.18705511402E+04  0.35880256816E+04  0.30618567444E+04 0.  0.
        1    1    3    3  502    0 -0.10392426778E+04 -0.15280897355E+03  0.22403808876E+04  0.24744054735E+04  0.50400001928E-02 0.  1.
       -1    1    3    3    0  502  0.10392426778E+04  0.15280897355E+03 -0.36982974741E+03  0.11136202081E+04  0.50400001928E-02 0. -1.
</event>
<event>
 5   0  0.2414250E-07  0.3000948E+04  0.7818609E-02  0.8243460E-01
        4   -1    0    0  501    0  0.00000000000E+00  0.00000000000E+00  0.14413234049E+04  0.14413239645E+04  0.12699999809E+01 0.  1.
       -4   -1    0    0    0  501  0.00000000000E+00  0.00000000000E+00 -0.15620507144E+04  0.15620512307E+04  0.12699999809E+01 0. -1.
    10030    2    1    2    0    0  0.00000000000E+00  0.00000000000E+00 -0.12072730946E+03  0.30033751951E+04  0.30009477635E+04 0.  0.
        3    1    3    3  502    0 -0.56156639321E+03 -0.12023852161E+04 -0.76116919907E+03  0.15298580266E+04  0.10100000352E+00 0. -1.
       -3    1    3    3    0  502  0.56156639321E+03  0.12023852161E+04  0.64044188961E+03  0.14735171685E+04  0.10100000352E+00 0.  1.
</event>
<event>
 5   0  0.2679935E-07  0.3006039E+04  0.7818609E-02  0.8242009E-01
       -1   -1    0    0    0  501  0.00000000000E+00  0.00000000000E+00  0.14098577492E+04  0.14098577492E+04  0.50400001928E-02 0.  1.
        1   -1    0    0  501    0  0.00000000000E+00  0.00000000000E+00 -0.16023369293E+04  0.16023369293E+04  0.50400001928E-02 0. -1.
    10030    2    1    2    0    0  0.00000000000E+00  0.00000000000E+00 -0.19247918009E+03  0.30121946784E+04  0.30060386801E+04 0.  0.
        2    1    3    3  502    0 -0.91886207036E+03  0.37221482501E+03 -0.12282502680E+04  0.15784327990E+04  0.25500000920E-02 0. -1.
       -2    1    3    3    0  502  0.91886207036E+03 -0.37221482501E+03  0.10357710879E+04  0.14337618794E+04  0.25500000920E-02 0.  1.
</event>
<event>
 5   0  0.2414250E-07  0.3003485E+04  0.7818609E-02  0.8242736E-01
       -3   -1    0    0    0  501  0.00000000000E+00  0.00000000000E+00  0.15259530973E+04  0.15259531006E+04  0.10100000352E+00 0. -1.
        3   -1    0    0  501    0  0.00000000000E+00  0.00000000000E+00 -0.14779164871E+04  0.14779164906E+04  0.10100000352E+00 0.  1.
    10030    2    1    2    0    0  0.00000000000E+00  0.00000000000E+00  0.48036610165E+02  0.30038695912E+04  0.30034854761E+04 0.  0.
        4    1    3    3  502    0  0.11734613061E+04 -0.82855590560E+03  0.46192508996E+03  0.15089376154E+04  0.12699999809E+01 0.  1.
       -4    1    3    3    0  502 -0.11734613061E+04  0.82855590560E+03 -0.41388847979E+03  0.14949319758E+04  0.12699999809E+01 0. -1.
</event>
<event>
 5   0  0.7208273E-07  0.2948265E+04  0.7818609E-02  0.8258660E-01
       -2   -1    0    0    0  501  0.00000000000E+00  0.00000000000E+00  0.12913649560E+04  0.12913649560E+04  0.25500000920E-02 0. -1.
        2   -1    0    0  501    0  0.00000000000E+00  0.00000000000E+00 -0.16827674777E+04  0.16827674777E+04  0.25500000920E-02 0.  1.
    10030    2    1    2    0    0  0.00000000000E+00  0.00000000000E+00 -0.39140252173E+03  0.29741324337E+04  0.29482652186E+04 0.  0.
        4    1    3    3  502    0 -0.12199432389E+04 -0.22640877007E+03  0.60723628831E+03  0.13813978283E+04  0.12699999809E+01 0. -1.
       -4    1    3    3    0  502  0.12199432389E+04  0.22640877007E+03 -0.99863881004E+03  0.15927346054E+04  0.12699999809E+01 0.  1.
</event>
<event>
 5   0  0.2621825E-07  0.2996537E+04  0.7818609E-02  0.8244721E-01
       -1   -1    0    0    0  501  0.00000000000E+00  0.00000000000E+00  0.19088909011E+04  0.19088909011E+04  0.50400001928E-02 0.  1.
        1   -1    0    0  501    0  0.00000000000E+00  0.00000000000E+00 -0.11759749640E+04  0.11759749640E+04  0.50400001928E-02 0. -1.
    10030    2    1    2    0    0  0.00000000000E+00  0.00000000000E+00  0.73291593707E+03  0.30848658652E+04  0.29965366067E+04 0.  0.
        3    1    3    3  502    0  0.32869517189E+03  0.14503073450E+04  0.55453413315E+03  0.15871168911E+04  0.10100000352E+00 0.  1.
       -3    1    3    3    0  502 -0.32869517189E+03 -0.14503073450E+04  0.17838180393E+03  0.14977489740E+04  0.10100000352E+00 0. -1.
</event>
<event>
 5   0  0.7208273E-07  0.2985887E+04  0.7818609E-02  0.8247773E-01
       -2   -1    0    0    0  501  0.00000000000E+00  0.00000000000E+00  0.10431071718E+04  0.10431071718E+04  0.25500000920E-02 0. -1.
        2   -1    0    0  501    0  0.00000000000E+00  0.00000000000E+00 -0.21367696940E+04  0.21367696940E+04  0.25500000920E-02 0.  1.
    10030    2    1    2    0    0  0.00000000000E+00  0.00000000000E+00 -0.10936625222E+04  0.31798768658E+04  0.29858866639E+04 0.  0.
        4    1    3    3  502    0 -0.51004434712E+03 -0.26187846295E+03  0.92118621545E+03  0.10850397328E+04  0.12699999809E+01 0. -1.
       -4    1    3    3    0  502  0.51004434712E+03  0.26187846295E+03 -0.20148487376E+04  0.20948371330E+04  0.12699999809E+01 0.  1.
</event>
<event>
 5   0  0.2621825E-07  0.3009598E+04  0.7818609E-02  0.8240995E-01
       -1   -1    0    0    0  501  0.00000000000E+00  0.00000000000E+00  0.10912711673E+04  0.10912711673E+04  0.50400001928E-02 0.  1.
        1   -1    0    0  501    0  0.00000000000E+00  0.00000000000E+00 -0.20750295956E+04  0.20750295956E+04  0.50400001928E-02 0. -1.
    10030    2    1    2    0    0  0.00000000000E+00  0.00000000000E+00 -0.98375842829E+03  0.31663007629E+04  0.30095979591E+04 0.  0.
        3    1    3    3  502    0  0.75507848458E+03  0.59252484294E+03 -0.17111847013E+04  0.19619842761E+04  0.10100000352E+00 0. -1.
       -3    1    3    3    0  502 -0.75507848458E+03 -0.59252484294E+03  0.72742627305E+03  0.12043164868E+04  0.10100000352E+00 0.  1.
</event>
<event>
 5   0  0.2621825E-07  0.2998288E+04  0.7818609E-02  0.8244220E-01
       -1   -1    0    0    0  501  0.00000000000E+00  0.00000000000E+00  0.92394121434E+03  0.92394121435E+03  0.50400001928E-02 0.  1.
        1   -1    0    0  501    0  0.00000000000E+00  0.00000000000E+00 -0.24324414938E+04  0.24324414938E+04  0.50400001928E-02 0. -1.
    10030    2    1    2    0    0  0.00000000000E+00  0.00000000000E+00 -0.15085002795E+04  0.33563827082E+04  0.29982881434E+04 0.  0.
        3    1    3    3  502    0  0.12500934290E+04  0.17344066509E+03  0.15146572881E+03  0.12711243538E+04  0.10100000352E+00 0.  1.
       -3    1    3    3    0  502 -0.12500934290E+04 -0.17344066509E+03 -0.16599660083E+04  0.20852583544E+04  0.10100000352E+00 0. -1.
</event>
<event>
 5   0  0.7208273E-07  0.2984979E+04  0.7818609E-02  0.8248033E-01
       -2   -1    0    0    0  501  0.00000000000E+00  0.00000000000E+00  0.14268403072E+04  0.14268403072E+04  0.25500000920E-02 0.  1.
        2   -1    0    0  501    0  0.00000000000E+00  0.00000000000E+00 -0.15611589145E+04  0.15611589145E+04  0.25500000920E-02 0. -1.
    10030    2    1    2    0    0  0.00000000000E+00  0.00000000000E+00 -0.13431860730E+03  0.29879992217E+04  0.29849787036E+04 0.  0.
        4    1    3    3  502    0  0.44907509399E+03  0.64114783840E+02 -0.14904784550E+04  0.15579816376E+04  0.12699999809E+01 0. -1.
       -4    1    3    3    0  502 -0.44907509399E+03 -0.64114783840E+02  0.13561598477E+04  0.14300175841E+04  0.12699999809E+01 0.  1.
</event>
<event>
 5   0  0.7307508E-07  0.3001474E+04  0.7818609E-02  0.8243310E-01
        2   -1    0    0  501    0  0.00000000000E+00  0.00000000000E+00  0.12221697625E+04  0.12221697625E+04  0.25500000920E-02 0.  1.
       -2   -1    0    0    0  501  0.00000000000E+00  0.00000000000E+00 -0.18427975673E+04  0.18427975673E+04  0.25500000920E-02 0. -1.
    10030    2    1    2    0    0  0.00000000000E+00  0.00000000000E+00 -0.62062780479E+03  0.30649673297E+04  0.30014739480E+04 0.  0.
        1    1    3    3  502    0 -0.22165146664E+03 -0.10922901274E+04 -0.13365530982E+04  0.17402877002E+04  0.50400001928E-02 0. -1.
       -1    1    3    3    0  502  0.22165146664E+03  0.10922901274E+04  0.71592529340E+03  0.13246796295E+04  0.50400001928E-02 0.  1.
</event>
<event>
 5   0  0.7278657E-07  0.3001481E+04  0.7818609E-02  0.8243308E-01
       -2   -1    0    0    0  501  0.00000000000E+00  0.00000000000E+00  0.11242948391E+04  0.11242948391E+04  0.25500000920E-02 0. -1.
        2   -1    0    0  501    0  0.00000000000E+00  0.00000000000E+00 -0.20032301922E+04  0.20032301922E+04  0.25500000920E-02 0.  1.
    10030    2    1    2    0    0  0.00000000000E+00  0.00000000000E+00 -0.87893535306E+03  0.31275250313E+04  0.30014805458E+04 0.  0.
        2    1    3    3  502    0 -0.73764692506E+03  0.12408418859E+04 -0.86707874180E+03  0.16839350095E+04  0.25500000920E-02 0. -1.
       -2    1    3    3    0  502  0.73764692506E+03 -0.12408418859E+04 -0.11856611259E+02  0.14435900218E+04  0.25500000920E-02 0.  1.
</event>
<event>
 5   0  0.7208273E-07  0.2982368E+04  0.7818609E-02  0.8248784E-01
       -2   -1    0    0    0  501  0.00000000000E+00  0.00000000000E+00  0.13914971684E+04  0.13914971684E+04  0.25500000920E-02 0. -1.
        2   -1    0    0  501    0  0.00000000000E+00  0.00000000000E+00 -0.15980128500E+04  0.15980128500E+04  0.25500000920E-02 0.  1.
    10030    2    1    2    0    0  0.00000000000E+00  0.00000000000E+00 -0.20651568162E+03  0.29895100185E+04  0.29823684252E+04 0.  0.
        4    1    3    3  502    0 -0.34364888211E+03 -0.51785152811E+03  0.12554820313E+04  0.14008931091E+04  0.12699999809E+01 0. -1.
       -4    1    3    3    0  502  0.34364888211E+03  0.51785152811E+03 -0.14619977129E+04  0.15886169094E+04  0.12699999809E+01 0.  1.
</event>
<event>
 5   0  0.2640081E-07  0.3002746E+04  0.7818609E-02  0.8242947E-01
        1   -1    0    0  501    0  0.00000000000E+00  0.00000000000E+00  0.72673554544E+03  0.72673554546E+03  0.50400001928E-02 0. -1.
       -1   -1    0    0    0  501  0.00000000000E+00  0.00000000000E+00 -0.31017073318E+04  0.31017073318E+04  0.50400001928E-02 0.  1.
    10030    2    1    2    0    0  0.00000000000E+00  0.00000000000E+00 -0.23749717864E+04  0.38284428773E+04  0.30027460563E+04 0.  0.
        1    1    3    3  502    0 -0.33124752651E+03 -0.41633858537E+03  0.60251518835E+03  0.80379555467E+03  0.50400001928E-02 0. -1.
       -1    1    3    3    0  502  0.33124752651E+03  0.41633858537E+03 -0.29774869747E+04  0.30246473226E+04  0.50400001928E-02 0.  1.
</event>
<event>
 5   0  0.2621825E-07  0.2998541E+04  0.7818609E-02  0.8244148E-01
       -1   -1    0    0    0  501  0.00000000000E+00  0.00000000000E+00  0.11560948390E+04  0.11560948390E+04  0.50400001928E-02 0. -1.
        1   -1    0    0  501    0  0.00000000000E+00  0.00000000000E+00 -0.19443143248E+04  0.19443143248E+04  0.50400001928E-02 0.  1.
    10030    2    1    2    0    0  0.00000000000E+00  0.00000000000E+00 -0.78821948574E+03  0.31004091638E+04  0.29985408160E+04 0.  0.
        3    1    3    3  502    0  0.13754396423E+03  0.19976103827E+02  0.11494193394E+04  0.11577919566E+04  0.10100000352E+00 0. -1.
       -3    1    3    3    0  502 -0.13754396423E+03 -0.19976103827E+02 -0.19376388251E+04  0.19426172072E+04  0.10100000352E+00 0.  1.
</event>
<event>
 5   0  0.7278657E-07  0.3024982E+04  0.7818609E-02  0.8236633E-01
       -2   -1    0    0    0  501  0.00000000000E+00  0.00000000000E+00  0.98542367017E+03  0.98542367017E+03  0.25500000920E-02 0. -1.
        2   -1    0    0  501    0  0.00000000000E+00  0.00000000000E+00 -0.23214670013E+04  0.23214670013E+04  0.25500000920E-02 0.  1.
    10030    2    1    2    0    0  0.00000000000E+00  0.00000000000E+00 -0.13360433311E+04  0.33068906715E+04  0.30249816744E+04 0.  0.
        2    1    3    3  502    0 -0.87271313644E+03 -0.10844368818E+04 -0.13147609284E+04  0.19147396345E+04  0.25500000920E-02 0.  1.
       -2    1    3    3    0  502  0.87271313644E+03  0.10844368818E+04 -0.21282402711E+02  0.13921510370E+04  0.25500000920E-02 0. -1.
</event>
<event>
 5   0  0.2679935E-07  0.2999225E+04  0.7818609E-02  0.8243952E-01
       -1   -1    0    0    0  501  0.00000000000E+00  0.00000000000E+00  0.99819260404E+03  0.99819260405E+03  0.50400001928E-02 0. -1.
        1   -1    0    0  501    0  0.00000000000E+00  0.00000000000E+00 -0.22529095601E+04  0.22529095601E+04  0.50400001928E-02 0.  1.
    10030    2    1    2    0    0  0.00000000000E+00  0.00000000000E+00 -0.12547169561E+04  0.32511021642E+04  0.29992250069E+04 0.  0.
        2    1    3    3  502    0 -0.10502758691E+04 -0.93628215567E+03 -0.11897073638E+04  0.18425816910E+04  0.25500000920E-02 0. -1.
       -2    1    3    3    0  502  0.10502758691E+04  0.93628215567E+03 -0.65009592259E+02  0.14085204732E+04  0.25500000920E-02 0.  1.
</event>
<event>
 5   0  0.2792361E-07  0.3006294E+04  0.7818609E-02  0.8241936E-01
        1   -1    0    0  501    0  0.00000000000E+00  0.00000000000E+00  0.12780204547E+04  0.12780204547E+04  0.50400001928E-02 0.  1.
       -1   -1    0    0    0  501  0.00000000000E+00  0.00000000000E+00 -0.17679301706E+04  0.17679301706E+04  0.50400001928E-02 0. -1.
    10030    2    1    2    0    0  0.00000000000E+00  0.00000000000E+00 -0.48990971590E+03  0.30459506254E+04  0.30062940113E+04 0.  0.
        4    1    3    3  502    0  0.11871256021E+04  0.29741210083E+03 -0.11292381341E+04  0.16652031496E+04  0.12699999809E+01 0. -1.
       -4    1    3    3    0  502 -0.11871256021E+04 -0.29741210083E+03  0.63932841825E+03  0.13807474758E+04  0.12699999809E+01 0.  1.
</event>
<event>
 5   0  0.2792361E-07  0.2995743E+04  0.7818609E-02  0.8244948E-01
       -1   -1    0    0    0  501  0.00000000000E+00  0.00000000000E+00  0.14328753162E+04  0.14328753162E+04  0.50400001928E-02 0.  1.
        1   -1    0    0  501    0  0.00000000000E+00  0.00000000000E+00 -0.15658155162E+04  0.15658155162E+04  0.50400001928E-02 0. -1.
    10030    2    1    2    0    0  0.00000000000E+00  0.00000000000E+00 -0.13294020000E+03  0.29986908324E+04  0.29957425810E+04 0.  0.
        4    1    3    3  502    0 -0.66639741540E+03  0.20849829280E+03  0.12599980978E+04  0.14405394381E+04  0.12699999809E+01 0.  1.
       -4    1    3    3    0  502  0.66639741540E+03 -0.20849829280E+03 -0.13929382978E+04  0.15581513943E+04  0.12699999809E+01 0. -1.
</event>
<event>
 5   0  0.7278657E-07  0.2994286E+04  0.7818609E-02  0.8245364E-01
       -2   -1    0    0    0  501  0.00000000000E+00  0.00000000000E+00  0.10127152815E+04  0.10127152815E+04  0.25500000920E-02 0. -1.
        2   -1    0    0  501    0  0.00000000000E+00  0.00000000000E+00 -0.22132951260E+04  0.22132951260E+04  0.25500000920E-02 0.  1.
    10030    2    1    2    0    0  0.00000000000E+00  0.00000000000E+00 -0.12005798445E+04  0.32260104075E+04  0.29942864236E+04 0.  0.
        2    1    3    3  502    0  0.73696527015E+03  0.94752133051E+03  0.36367097147E+03  0.12542611597E+04  0.25500000920E-02 0. -1.
       -2    1    3    3    0  502 -0.73696527015E+03 -0.94752133051E+03 -0.15642508159E+04  0.19717492478E+04  0.25500000920E-02 0.  1.
</event>
<event>
 5   0  0.2640081E-07  0.3000763E+04  0.7818609E-02  0.8243513E-01
        1   -1    0    0  501    0  0.00000000000E+00  0.00000000000E+00  0.21647548850E+04  0.21647548850E+04  0.50400001928E-02 0.  1.
       -1   -1    0    0    0  501  0.00000000000E+00  0.00000000000E+00 -0.10399071243E+04  0.10399071243E+04  0.50400001928E-02 0. -1.
    10030    2    1    2    0    0  0.00000000000E+00  0.00000000000E+00  0.11248477607E+04  0.32046620094E+04  0.30007625880E+04 0.  0.
        1    1    3    3  502    0  0.51019568859E+03 -0.40314366505E+03 -0.88160756142E+03  0.10954708338E+04  0.50400001928E-02 0. -1.
       -1    1    3    3    0  502 -0.51019568859E+03  0.40314366505E+03  0.20064553221E+04  0.21091911756E+04  0.50400001928E-02 0.  1.
</event>
<event>
 5   0  0.7278657E-07  0.2995061E+04  0.7818609E-02  0.8245143E-01
        2   -1    0    0  501    0  0.00000000000E+00  0.00000000000E+00  0.12093829064E+04  0.12093829064E+04  0.25500000920E-02 0. -1.
       -2   -1    0    0    0  501  0.00000000000E+00  0.00000000000E+00 -0.18543317044E+04  0.18543317044E+04  0.25500000920E-02 0.  1.
    10030    2    1    2    0    0  0.00000000000E+00  0.00000000000E+00 -0.64494879802E+03  0.30637146109E+04  0.29950606446E+04 0.  0.
        2    1    3    3  502    0 -0.71554449302E+03  0.70482178688E+03  0.81376143937E+03  0.12926659866E+04  0.25500000920E-02 0. -1.
       -2    1    3    3    0  502  0.71554449302E+03 -0.70482178688E+03 -0.14587102374E+04  0.17710486242E+04  0.25500000920E-02 0.  1.
</event>
<event>
 5   0  0.7278657E-07  0.3000018E+04  0.7818609E-02  0.8243726E-01
        2   -1    0    0  501    0  0.00000000000E+00  0.00000000000E+00  0.18490416053E+04  0.18490416053E+04  0.25500000920E-02 0. -1.
       -2   -1    0    0    0  501  0.00000000000E+00  0.00000000000E+00 -0.12168610141E+04  0.12168610141E+04  0.25500000920E-02 0.  1.
    10030    2    1    2    0    0  0.00000000000E+00  0.00000000000E+00  0.63218059115E+03  0.30659026194E+04  0.30000177619E+04 0.  0.
        2    1    3    3  502    0  0.79736879210E+03 -0.12378169952E+04  0.60880464821E+03  0.15933081949E+04  0.25500000920E-02 0.  1.
       -2    1    3    3    0  502 -0.79736879210E+03  0.12378169952E+04  0.23375942946E+02  0.14725944245E+04  0.25500000920E-02 0. -1.
</event>
<event>
 5   0  0.7278657E-07  0.3007338E+04  0.7818609E-02  0.8241639E-01
       -2   -1    0    0    0  501  0.00000000000E+00  0.00000000000E+00  0.20827963139E+04  0.20827963139E+04  0.25500000920E-02 0.  1.
        2   -1    0    0  501    0  0.00000000000E+00  0.00000000000E+00 -0.10855697415E+04  0.10855697415E+04  0.25500000920E-02 0. -1.
    10030    2    1    2    0    0  0.00000000000E+00  0.00000000000E+00  0.99722657243E+03  0.31683660555E+04  0.30073381294E+04 0.  0.
        2    1    3    3  502    0  0.14651055025E+04 -0.20896299527E+03  0.77898492855E+03  0.16724285294E+04  0.25500000920E-02 0.  1.
       -2    1    3    3    0  502 -0.14651055025E+04  0.20896299527E+03  0.21824164388E+03  0.14959375261E+04  0.25500000920E-02 0. -1.
</event>
<event>
 5   0  0.7307508E-07  0.3001526E+04  0.7818609E-02  0.8243295E-01
        2   -1    0    0  501    0  0.00000000000E+00  0.00000000000E+00  0.19808342880E+04  0.19808342880E+04  0.25500000920E-02 0. -1.
       -2   -1    0    0    0  501  0.00000000000E+00  0.00000000000E+00 -0.11370412024E+04  0.11370412024E+04  0.25500000920E-02 0.  1.
    10030    2    1    2    0    0  0.00000000000E+00  0.00000000000E+00  0.84379308560E+03  0.31178754904E+04  0.30015264121E+04 0.  0.
        1    1    3    3  502    0  0.24665484599E+03 -0.13364135751E+04  0.10833288977E+04  0.17379417014E+04  0.50400001928E-02 0. -1.
       -1    1    3    3    0  502 -0.24665484599E+03  0.13364135751E+04 -0.23953581213E+03  0.13799337890E+04  0.50400001928E-02 0.  1.
</event>
<event>
 5   0  0.2679935E-07  0.2999634E+04  0.7818609E-02  0.8243835E-01
       -1   -1    0    0    0  501  0.00000000000E+00  0.00000000000E+00  0.11931731848E+04  0.11931731848E+04  0.50400001928E-02 0. -1.
        1   -1    0    0  501    0  0.00000000000E+00  0.00000000000E+00 -0.18852682270E+04  0.18852682270E+04  0.50400001928E-02 0.  1.
    10030    2    1    2    0    0  0.00000000000E+00  0.00000000000E+00 -0.69209504218E+03  0.30784414118E+04  0.29996343075E+04 0.  0.
        2    1    3    3  502    0 -0.11728651688E+04  0.93270128669E+02 -0.13006128243E+04  0.17538260290E+04  0.25500000920E-02 0.  1.
       -2    1    3    3    0  502  0.11728651688E+04 -0.93270128669E+02  0.60851778216E+03  0.13246153828E+04  0.25500000920E-02 0. -1.
</event>
<event>
 5   0  0.7208273E-07  0.2998680E+04  0.7818609E-02  0.8244108E-01
        2   -1    0    0  501    0  0.00000000000E+00  0.00000000000E+00  0.22901663261E+04  0.22901663261E+04  0.25500000920E-02 0. -1.
       -2   -1    0    0    0  501  0.00000000000E+00  0.00000000000E+00 -0.98159727833E+03  0.98159727833E+03  0.25500000920E-02 0.  1.
    10030    2    1    2    0    0  0.00000000000E+00  0.00000000000E+00  0.13085690478E+04  0.32717636044E+04  0.29986803982E+04 0.  0.
        4    1    3    3  502    0  0.35545675680E+03  0.54244522394E+03 -0.82064507296E+03  0.10459714507E+04  0.12699999809E+01 0.  1.
       -4    1    3    3    0  502 -0.35545675680E+03 -0.54244522394E+03  0.21292141207E+04  0.22257921537E+04  0.12699999809E+01 0. -1.
</event>
<event>
 5   0  0.7585823E-07  0.2944165E+04  0.7818609E-02  0.8259857E-01
        2   -1    0    0  501    0  0.00000000000E+00  0.00000000000E+00  0.26119942646E+04  0.26119942646E+04  0.25500000920E-02 0.  1.
       -2   -1    0    0    0  501  0.00000000000E+00  0.00000000000E+00 -0.82964434298E+03  0.82964434299E+03  0.25500000920E-02 0. -1.
    10030    2    1    2    0    0  0.00000000000E+00  0.00000000000E+00  0.17823499216E+04  0.34416386076E+04  0.29441645780E+04 0.  0.
        5    1    3    3  502    0 -0.98594319135E+03 -0.10755268018E+04  0.11195351732E+04  0.18390821004E+04  0.46999998093E+01 0.  1.
       -5    1    3    3    0  502  0.98594319135E+03  0.10755268018E+04  0.66281474846E+03  0.16025565072E+04  0.46999998093E+01 0. -1.
</event>
<event>
 5   0  0.2621825E-07  0.2990902E+04  0.7818609E-02  0.8246334E-01
       -1   -1    0    0    0  501  0.00000000000E+00  0.00000000000E+00  0.16414161416E+04  0.16414161416E+04  0.50400001928E-02 0.  1.
        1   -1    0    0  501    0  0.00000000000E+00  0.00000000000E+00 -0.13624660589E+04  0.13624660589E+04  0.50400001928E-02 0. -1.
    10030    2    1    2    0    0  0.00000000000E+00  0.00000000000E+00  0.27895008271E+03  0.30038822004E+04  0.29909020588E+04 0.  0.
        3    1    3    3  502    0  0.70143942211E+03  0.14547751027E+03 -0.11789263168E+04  0.13795101448E+04  0.10100000352E+00 0. -1.
       -3    1    3    3    0  502 -0.70143942211E+03 -0.14547751027E+03  0.14578763995E+04  0.16243720557E+04  0.10100000352E+00 0.  1.
</event>
<event>
 5   0  0.7585823E-07  0.2998962E+04  0.7818609E-02  0.8244027E-01
        2   -1    0    0  501    0  0.00000000000E+00  0.00000000000E+00  0.21293991769E+04  0.21293991769E+04  0.25500000920E-02 0.  1.
       -2   -1    0    0    0  501  0.00000000000E+00  0.00000000000E+00 -0.10559049593E+04  0.10559049593E+04  0.25500000920E-02 0. -1.
    10030    2    1    2    0    0  0.00000000000E+00  0.00000000000E+00  0.10734942176E+04  0.31853041362E+04  0.29989619212E+04 0.  0.
        5    1    3    3  502    0 -0.54483015387E+02  0.11169076128E+04  0.15978040906E+04  0.19502438351E+04  0.46999998093E+01 0.  1.
       -5    1    3    3    0  502  0.54483015387E+02 -0.11169076128E+04 -0.52430987297E+03  0.12350603011E+04  0.46999998093E+01 0. -1.
</event>
<event>
 5   0  0.2602891E-07  0.3002457E+04  0.7818609E-02  0.8243030E-01
        1   -1    0    0  501    0  0.00000000000E+00  0.00000000000E+00  0.16905594772E+04  0.16905594772E+04  0.50400001928E-02 0.  1.
       -1   -1    0    0    0  501  0.00000000000E+00  0.00000000000E+00 -0.13331010587E+04  0.13331010587E+04  0.50400001928E-02 0. -1.
    10030    2    1    2    0    0  0.00000000000E+00  0.00000000000E+00  0.35745841857E+03  0.30236605359E+04  0.30024567466E+04 0.  0.
        5    1    3    3  502    0  0.14535077919E+04  0.17650263668E+03 -0.15501194106E+03  0.14723752490E+04  0.46999998093E+01 0. -1.
       -5    1    3    3    0  502 -0.14535077919E+04 -0.17650263668E+03  0.51247035963E+03  0.15512852869E+04  0.46999998093E+01 0.  1.
</event>
<event>
 5   0  0.7585823E-07  0.2996112E+04  0.7818609E-02  0.8244842E-01
        2   -1    0    0  501    0  0.00000000000E+00  0.00000000000E+00  0.16896219605E+04  0.16896219605E+04  0.25500000920E-02 0. -1.
       -2   -1    0    0    0  501  0.00000000000E+00  0.00000000000E+00 -0.13282092538E+04  0.13282092538E+04  0.25500000920E-02 0.  1.
    10030    2    1    2    0    0  0.00000000000E+00  0.00000000000E+00  0.36141270665E+03  0.30178312143E+04  0.29961118293E+04 0.  0.
        5    1    3    3  502    0  0.14235203119E+04 -0.25811564768E+03 -0.21084765478E+03  0.14620234572E+04  0.46999998093E+01 0.  1.
       -5    1    3    3    0  502 -0.14235203119E+04  0.25811564768E+03  0.57226036143E+03  0.15558077571E+04  0.46999998093E+01 0. -1.
</event>
<event>
 5   0  0.7278657E-07  0.2997243E+04  0.7818609E-02  0.8244519E-01
       -2   -1    0    0    0  501  0.00000000000E+00  0.00000000000E+00  0.68925565451E+03  0.68925565451E+03  0.25500000920E-02 0.  1.
        2   -1    0    0  501    0  0.00000000000E+00  0.00000000000E+00 -0.32583941201E+04  0.32583941201E+04  0.25500000920E-02 0. -1.
    10030    2    1    2    0    0  0.00000000000E+00  0.00000000000E+00 -0.25691384656E+04  0.39476497746E+04  0.29972431145E+04 0.  0.
        2    1    3    3  502    0  0.11935572186E+03 -0.12043450006E+04 -0.12046864607E+03  0.12162258687E+04  0.25500000920E-02 0. -1.
       -2    1    3    3    0  502 -0.11935572186E+03  0.12043450006E+04 -0.24486698195E+04  0.27314239060E+04  0.25500000920E-02 0.  1.
</event>
<event>
 5   0  0.2640081E-07  0.2986943E+04  0.7818609E-02  0.8247469E-01
       -1   -1    0    0    0  501  0.00000000000E+00  0.00000000000E+00  0.13245548850E+04  0.13245548850E+04  0.50400001928E-02 0.  1.
        1   -1    0    0  501    0  0.00000000000E+00  0.00000000000E+00 -0.16839293974E+04  0.16839293974E+04  0.50400001928E-02 0. -1.
    10030    2    1    2    0    0  0.00000000000E+00  0.00000000000E+00 -0.35937451241E+03  0.30084842825E+04  0.29869428581E+04 0.  0.
        1    1    3    3  502    0 -0.21343558938E+02 -0.13641816695E+04  0.43215538919E+03  0.14311552869E+04  0.50400001928E-02 0. -1.
       -1    1    3    3    0  502  0.21343558938E+02  0.13641816695E+04 -0.79152990161E+03  0.15773289955E+04  0.50400001928E-02 0.  1.
</event>
<event>
 5   0  0.2621825E-07  0.2995535E+04  0.7818609E-02  0.8245007E-01
       -1   -1    0    0    0  501  0.00000000000E+00  0.00000000000E+00  0.14455742041E+04  0.14455742041E+04  0.50400001928E-02 0. -1.
        1   -1    0    0  501    0  0.00000000000E+00  0.00000000000E+00 -0.15518449412E+04  0.15518449412E+04  0.50400001928E-02 0.  1.
    10030    2    1    2    0    0  0.00000000000E+00  0.00000000000E+00 -0.10627073705E+03  0.29974191453E+04  0.29955346874E+04 0.  0.
        3    1    3    3  502    0  0.37323026769E+03  0.85620767967E+03  0.11184618231E+04  0.14571716725E+04  0.10100000352E+00 0.  1.
       -3    1    3    3    0  502 -0.37323026769E+03 -0.85620767967E+03 -0.12247325601E+04  0.15402474728E+04  0.10100000352E+00 0. -1.
</event>
<event>
 5   0  0.7208273E-07  0.2990849E+04  0.7818609E-02  0.8246349E-01
       -2   -1    0    0    0  501  0.00000000000E+00  0.00000000000E+00  0.12223886019E+04  0.12223886019E+04  0.25500000920E-02 0.  1.
        2   -1    0    0  501    0  0.00000000000E+00  0.00000000000E+00 -0.18294468700E+04  0.18294468700E+04  0.25500000920E-02 0. -1.
    10030    2    1    2    0    0  0.00000000000E+00  0.00000000000E+00 -0.60705826809E+03  0.30518354719E+04  0.29908493788E+04 0.  0.
        4    1    3    3  502    0 -0.13052283320E+04  0.53015325321E+03 -0.81536469083E+03  0.16277299108E+04  0.12699999809E+01 0. -1.
       -4    1    3    3    0  502  0.13052283320E+04 -0.53015325321E+03  0.20830642274E+03  0.14241055611E+04  0.12699999809E+01 0.  1.
</event>
<event>
 5   0  0.7208273E-07  0.3013473E+04  0.7818609E-02  0.8239894E-01
        2   -1    0    0  501    0  0.00000000000E+00  0.00000000000E+00  0.18100303723E+04  0.18100303723E+04  0.25500000920E-02 0. -1.
       -2   -1    0    0    0  501  0.00000000000E+00  0.00000000000E+00 -0.12542630852E+04  0.12542630852E+04  0.25500000920E-02 0.  1.
    10030    2    1    2    0    0  0.00000000000E+00  0.00000000000E+00  0.55576728708E+03  0.30642934575E+04  0.30134726009E+04 0.  0.
        4    1    3    3  502    0 -0.42254565928E+03  0.11559760710E+04  0.11616946444E+04  0.16924424866E+04  0.12699999809E+01 0. -1.
       -4    1    3    3    0  502  0.42254565928E+03 -0.11559760710E+04 -0.60592735730E+03  0.13718509708E+04  0.12699999809E+01 0.  1.
</event>
<event>
 5   0  0.7307508E-07  0.3008063E+04  0.7818609E-02  0.8241432E-01
       -2   -1    0    0    0  501  0.00000000000E+00  0.00000000000E+00  0.13781385451E+04  0.13781385451E+04  0.25500000920E-02 0.  1.
        2   -1    0    0  501    0  0.00000000000E+00  0.00000000000E+00 -0.16414246469E+04  0.16414246469E+04  0.25500000920E-02 0. -1.
    10030    2    1    2    0    0  0.00000000000E+00  0.00000000000E+00 -0.26328610174E+03  0.30195631920E+04  0.30080628815E+04 0.  0.
        1    1    3    3  502    0 -0.83876865107E+02 -0.91337659107E+03 -0.13281810794E+04  0.16141118627E+04  0.50400001928E-02 0. -1.
       -1    1    3    3    0  502  0.83876865107E+02  0.91337659107E+03  0.10648949777E+04  0.14054513293E+04  0.50400001928E-02 0.  1.
</event>
<event>
 5   0  0.7585823E-07  0.3038224E+04  0.7818609E-02  0.8232899E-01
        2   -1    0    0  501    0  0.00000000000E+00  0.00000000000E+00  0.19660196240E+04  0.19660196240E+04  0.25500000920E-02 0.  1.
       -2   -1    0    0    0  501  0.00000000000E+00  0.00000000000E+00 -0.11737939029E+04  0.11737939029E+04  0.25500000920E-02 0. -1.
    10030    2    1    2    0    0  0.00000000000E+00  0.00000000000E+00  0.79222572108E+03  0.31398135269E+04  0.30382243813E+04 0.  0.
        5    1    3    3  502    0  0.67804781538E+03  0.13309349585E+04  0.68202783691E+03  0.16420477350E+04  0.46999998093E+01 0. -1.
       -5    1    3    3    0  502 -0.67804781538E+03 -0.13309349585E+04  0.11019788416E+03  0.14977657919E+04  0.46999998093E+01 0.  1.
</event>
<event>
 5   0  0.2621825E-07  0.3043509E+04  0.7818609E-02  0.8231415E-01
       -1   -1    0    0    0  501  0.00000000000E+00  0.00000000000E+00  0.17627146378E+04  0.17627146378E+04  0.50400001928E-02 0. -1.
        1   -1    0    0  501    0  0.00000000000E+00  0.00000000000E+00 -0.13137333185E+04  0.13137333186E+04  0.50400001928E-02 0.  1.
    10030    2    1    2    0    0  0.00000000000E+00  0.00000000000E+00  0.44898131926E+03  0.30764479564E+04  0.30435091265E+04 0.  0.
        3    1    3    3  502    0  0.58822039433E+03 -0.46435476704E+03 -0.11142707133E+04  0.13428431832E+04  0.10100000352E+00 0.  1.
       -3    1    3    3    0  502 -0.58822039433E+03  0.46435476704E+03  0.15632520326E+04  0.17336047732E+04  0.10100000352E+00 0. -1.
</event>
<event>
 5   0  0.2640081E-07  0.2997937E+04  0.7818609E-02  0.8244320E-01
        1   -1    0    0  501    0  0.00000000000E+00  0.00000000000E+00  0.20890324807E+04  0.20890324808E+04  0.50400001928E-02 0. -1.
       -1   -1    0    0    0  501  0.00000000000E+00  0.00000000000E+00 -0.10755729314E+04  0.10755729314E+04  0.50400001928E-02 0.  1.
    10030    2    1    2    0    0  0.00000000000E+00  0.00000000000E+00  0.10134595494E+04  0.31646054121E+04  0.29979371502E+04 0.  0.
        1    1    3    3  502    0 -0.59076479775E+03  0.32417779743E+03 -0.90666824398E+03  0.11296643728E+04  0.50400001928E-02 0.  1.
       -1    1    3    3    0  502  0.59076479775E+03 -0.32417779743E+03  0.19201277933E+04  0.20349410393E+04  0.50400001928E-02 0. -1.
</event>
<event>
 5   0  0.7278657E-07  0.2992761E+04  0.7818609E-02  0.8245801E-01
       -2   -1    0    0    0  501  0.00000000000E+00  0.00000000000E+00  0.11028050073E+04  0.11028050073E+04  0.25500000920E-02 0.  1.
        2   -1    0    0  501    0  0.00000000000E+00  0.00000000000E+00 -0.20304174803E+04  0.20304174803E+04  0.25500000920E-02 0. -1.
    10030    2    1    2    0    0  0.00000000000E+00  0.00000000000E+00 -0.92761247305E+03  0.31332224876E+04  0.29927609755E+04 0.  0.
        2    1    3    3  502    0 -0.77524621110E+03 -0.92584761711E+03 -0.13889984050E+04  0.18405208684E+04  0.25500000920E-02 0. -1.
       -2    1    3    3    0  502  0.77524621110E+03  0.92584761711E+03  0.46138593199E+03  0.12927016192E+04  0.25500000920E-02 0.  1.
</event>
<event>
 5   0  0.2602891E-07  0.3019808E+04  0.7818609E-02  0.8238097E-01
        1   -1    0    0  501    0  0.00000000000E+00  0.00000000000E+00  0.22702208679E+04  0.22702208679E+04  0.50400001928E-02 0.  1.
       -1   -1    0    0    0  501  0.00000000000E+00  0.00000000000E+00 -0.10042239748E+04  0.10042239748E+04  0.50400001928E-02 0. -1.
    10030    2    1    2    0    0  0.00000000000E+00  0.00000000000E+00  0.12659968931E+04  0.32744448428E+04  0.30198080891E+04 0.  0.
        5    1    3    3  502    0 -0.12636745285E+04  0.34490367408E+03  0.14472921038E+04  0.19520523512E+04  0.46999998093E+01 0. -1.
       -5    1    3    3    0  502  0.12636745285E+04 -0.34490367408E+03 -0.18129521067E+03  0.13223924916E+04  0.46999998093E+01 0.  1.
</event>
<event>
 5   0  0.2621825E-07  0.2995495E+04  0.7818609E-02  0.8245018E-01
       -1   -1    0    0    0  501  0.00000000000E+00  0.00000000000E+00  0.82588328872E+03  0.82588328873E+03  0.50400001928E-02 0.  1.
        1   -1    0    0  501    0  0.00000000000E+00  0.00000000000E+00 -0.27161807459E+04  0.27161807459E+04  0.50400001928E-02 0. -1.
    10030    2    1    2    0    0  0.00000000000E+00  0.00000000000E+00 -0.18902974572E+04  0.35420640347E+04  0.29954954764E+04 0.  0.
        3    1    3    3  502    0  0.71510578542E+03 -0.13094654667E+04 -0.79019554244E+03  0.16883379692E+04  0.10100000352E+00 0.  1.
       -3    1    3    3    0  502 -0.71510578542E+03  0.13094654667E+04 -0.11001019148E+04  0.18537260655E+04  0.10100000352E+00 0. -1.
</event>
<event>
 5   0  0.2679935E-07  0.2939047E+04  0.7818609E-02  0.8261354E-01
        1   -1    0    0  501    0  0.00000000000E+00  0.00000000000E+00  0.15113741035E+04  0.15113741035E+04  0.50400001928E-02 0. -1.
       -1   -1    0    0    0  501  0.00000000000E+00  0.00000000000E+00 -0.14288314238E+04  0.14288314238E+04  0.50400001928E-02 0.  1.
    10030    2    1    2    0    0  0.00000000000E+00  0.00000000000E+00  0.82542679776E+02  0.29402055273E+04  0.29390466564E+04 0.  0.
        2    1    3    3  502    0 -0.96033075309E+03  0.37149630898E+03  0.10901379642E+04  0.14995484133E+04  0.25500000920E-02 0. -1.
       -2    1    3    3    0  502  0.96033075309E+03 -0.37149630898E+03 -0.10075952844E+04  0.14406571140E+04  0.25500000920E-02 0.  1.
</event>
<event>
 5   0  0.7278657E-07  0.3000836E+04  0.7818609E-02  0.8243492E-01
        2   -1    0    0  501    0  0.00000000000E+00  0.00000000000E+00  0.14003070418E+04  0.14003070418E+04  0.25500000920E-02 0. -1.
       -2   -1    0    0    0  501  0.00000000000E+00  0.00000000000E+00 -0.16076859381E+04  0.16076859381E+04  0.25500000920E-02 0.  1.
    10030    2    1    2    0    0  0.00000000000E+00  0.00000000000E+00 -0.20737889630E+03  0.30079929798E+04  0.30008358436E+04 0.  0.
        2    1    3    3  502    0 -0.15405275476E+03  0.76968598810E+03 -0.13854515466E+04  0.15923645184E+04  0.25500000920E-02 0.  1.
       -2    1    3    3    0  502  0.15405275476E+03 -0.76968598810E+03  0.11780726503E+04  0.14156284614E+04  0.25500000920E-02 0. -1.
</event>
<event>
 5   0  0.7399409E-07  0.3001316E+04  0.7818609E-02  0.8243355E-01
       -2   -1    0    0    0  501  0.00000000000E+00  0.00000000000E+00  0.11183048098E+04  0.11183048098E+04  0.25500000920E-02 0. -1.
        2   -1    0    0  501    0  0.00000000000E+00  0.00000000000E+00 -0.20137392480E+04  0.20137392480E+04  0.25500000920E-02 0.  1.
    10030    2    1    2    0    0  0.00000000000E+00  0.00000000000E+00 -0.89543443821E+03  0.31320440579E+04  0.30013159026E+04 0.  0.
        3    1    3    3  502    0  0.13448346438E+04 -0.65697366887E+03 -0.33445568096E+03  0.15336411684E+04  0.10100000352E+00 0. -1.
       -3    1    3    3    0  502 -0.13448346438E+04  0.65697366887E+03 -0.56097875725E+03  0.15984028895E+04  0.10100000352E+00 0.  1.
</event>
<event>
 5   0  0.2602891E-07  0.2997662E+04  0.7818609E-02  0.8244399E-01
       -1   -1    0    0    0  501  0.00000000000E+00  0.00000000000E+00  0.28539673478E+04  0.28539673478E+04  0.50400001928E-02 0.  1.
        1   -1    0    0  501    0  0.00000000000E+00  0.00000000000E+00 -0.78714814435E+03  0.78714814436E+03  0.50400001928E-02 0. -1.
    10030    2    1    2    0    0  0.00000000000E+00  0.00000000000E+00  0.20668192035E+04  0.36411154922E+04  0.29976624906E+04 0.  0.
        5    1    3    3  502    0 -0.11929492068E+03  0.86991126174E+03 -0.44202769747E+03  0.98305007844E+03  0.46999998093E+01 0. -1.
       -5    1    3    3    0  502  0.11929492068E+03 -0.86991126174E+03  0.25088469009E+04  0.26580654137E+04  0.46999998093E+01 0.  1.
</event>
<event>
 5   0  0.2640081E-07  0.2998829E+04  0.7818609E-02  0.8244065E-01
        1   -1    0    0  501    0  0.00000000000E+00  0.00000000000E+00  0.23332502063E+04  0.23332502063E+04  0.50400001928E-02 0. -1.
       -1   -1    0    0    0  501  0.00000000000E+00  0.00000000000E+00 -0.96356767658E+03  0.96356767660E+03  0.50400001928E-02 0.  1.
    10030    2    1    2    0    0  0.00000000000E+00  0.00000000000E+00  0.13696825297E+04  0.32968178829E+04  0.29988294251E+04 0.  0.
        1    1    3    3  502    0 -0.11910050742E+04 -0.87866913837E+03  0.94890013459E+03  0.17581137640E+04  0.50400001928E-02 0.  1.
       -1    1    3    3    0  502  0.11910050742E+04  0.87866913837E+03  0.42078239511E+03  0.15387041189E+04  0.50400001928E-02 0. -1.
</event>
<event>
 5   0  0.2602891E-07  0.3002097E+04  0.7818609E-02  0.8243132E-01
       -1   -1    0    0    0  501  0.00000000000E+00  0.00000000000E+00  0.84859724012E+03  0.84859724013E+03  0.50400001928E-02 0. -1.
        1   -1    0    0  501    0  0.00000000000E+00  0.00000000000E+00 -0.26551417353E+04  0.26551417353E+04  0.50400001928E-02 0.  1.
    10030    2    1    2    0    0  0.00000000000E+00  0.00000000000E+00 -0.18065444952E+04  0.35037389754E+04  0.30020965666E+04 0.  0.
        5    1    3    3  502    0  0.70128353299E+03 -0.10624407103E+03 -0.24472134574E+04  0.25479329254E+04  0.46999998093E+01 0.  1.
       -5    1    3    3    0  502 -0.70128353299E+03  0.10624407103E+03  0.64066896217E+03  0.95580605008E+03  0.46999998093E+01 0. -1.
</event>
<event>
 5   0  0.7585823E-07  0.2999748E+04  0.7818609E-02  0.8243803E-01
        2   -1    0    0  501    0  0.00000000000E+00  0.00000000000E+00  0.18184771932E+04  0.18184771932E+04  0.25500000920E-02 0. -1.
       -2   -1    0    0    0  501  0.00000000000E+00  0.00000000000E+00 -0.12370914097E+04  0.12370914097E+04  0.25500000920E-02 0.  1.
    10030    2    1    2    0    0  0.00000000000E+00  0.00000000000E+00  0.58138578352E+03  0.30555686028E+04  0.29997483323E+04 0.  0.
        5    1    3    3  502    0  0.67278809743E+03 -0.13397065311E+04  0.24353879821E+03  0.15188122497E+04  0.46999998093E+01 0.  1.
       -5    1    3    3    0  502 -0.67278809743E+03  0.13397065311E+04  0.33784698531E+03  0.15367563532E+04  0.46999998093E+01 0. -1.
</event>
<event>
 5   0  0.2414250E-07  0.3001255E+04  0.7818609E-02  0.8243373E-01
        3   -1    0    0  501    0  0.00000000000E+00  0.00000000000E+00  0.18175858654E+04  0.18175858682E+04  0.10100000352E+00 0.  1.
       -3   -1    0    0    0  501  0.00000000000E+00  0.00000000000E+00 -0.12389415703E+04  0.12389415744E+04  0.10100000352E+00 0. -1.
    10030    2    1    2    0    0  0.00000000000E+00  0.00000000000E+00  0.57864429508E+03  0.30565274426E+04  0.30012548688E+04 0.  0.
        5    1    3    3  502    0 -0.39483052840E+03  0.34255521723E+03 -0.11432193454E+04  0.12570631586E+04  0.46999998093E+01 0. -1.
       -5    1    3    3    0  502  0.39483052840E+03 -0.34255521723E+03  0.17218636405E+04  0.17994642840E+04  0.46999998093E+01 0.  1.
</event>
<event>
 5   0  0.7278657E-07  0.2998104E+04  0.7818609E-02  0.8244273E-01
        2   -1    0    0  501    0  0.00000000000E+00  0.00000000000E+00  0.12884738984E+04  0.12884738984E+04  0.25500000920E-02 0. -1.
       -2   -1    0    0    0  501  0.00000000000E+00  0.00000000000E+00 -0.17440448159E+04  0.17440448159E+04  0.25500000920E-02 0.  1.
    10030    2    1    2    0    0  0.00000000000E+00  0.00000000000E+00 -0.45557091754E+03  0.30325187143E+04  0.29981035492E+04 0.  0.
        2    1    3    3  502    0  0.73252283206E+03 -0.49825697468E+03 -0.14509251741E+04  0.17000098744E+04  0.25500000920E-02 0.  1.
       -2    1    3    3    0  502 -0.73252283206E+03  0.49825697468E+03  0.99535425655E+03  0.13325088399E+04  0.25500000920E-02 0. -1.
</event>
<event>
 5   0  0.7278657E-07  0.3008218E+04  0.7818609E-02  0.8241388E-01
       -2   -1    0    0    0  501  0.00000000000E+00  0.00000000000E+00  0.75564080615E+03  0.75564080616E+03  0.25500000920E-02 0.  1.
        2   -1    0    0  501    0  0.00000000000E+00  0.00000000000E+00 -0.29939407958E+04  0.29939407958E+04  0.25500000920E-02 0. -1.
    10030    2    1    2    0    0  0.00000000000E+00  0.00000000000E+00 -0.22382999897E+04  0.37495816020E+04  0.30082179685E+04 0.  0.
        2    1    3    3  502    0  0.61057035535E+03 -0.23795779532E+03 -0.28066574869E+04  0.28821426613E+04  0.25500000920E-02 0. -1.
       -2    1    3    3    0  502 -0.61057035535E+03  0.23795779532E+03  0.56835749723E+03  0.86743894071E+03  0.25500000920E-02 0.  1.
</event>
<event>
 5   0  0.7585823E-07  0.2978457E+04  0.7818609E-02  0.8249909E-01
       -2   -1    0    0    0  501  0.00000000000E+00  0.00000000000E+00  0.18295555051E+04  0.18295555051E+04  0.25500000920E-02 0. -1.
        2   -1    0    0  501    0  0.00000000000E+00  0.00000000000E+00 -0.12122080272E+04  0.12122080272E+04  0.25500000920E-02 0.  1.
    10030    2    1    2    0    0  0.00000000000E+00  0.00000000000E+00  0.61734747795E+03  0.30417635323E+04  0.29784572312E+04 0.  0.
        5    1    3    3  502    0 -0.53985306292E+03 -0.18166309875E+03  0.17139057615E+04  0.18060835696E+04  0.46999998093E+01 0. -1.
       -5    1    3    3    0  502  0.53985306292E+03  0.18166309875E+03 -0.10965582836E+04  0.12356799627E+04  0.46999998093E+01 0.  1.
</event>
<event>
 5   0  0.7307508E-07  0.3002756E+04  0.7818609E-02  0.8242944E-01
       -2   -1    0    0    0  501  0.00000000000E+00  0.00000000000E+00  0.12204078552E+04  0.12204078552E+04  0.25500000920E-02 0. -1.
        2   -1    0    0  501    0  0.00000000000E+00  0.00000000000E+00 -0.18470347179E+04  0.18470347179E+04  0.25500000920E-02 0.  1.
    10030    2    1    2    0    0  0.00000000000E+00  0.00000000000E+00 -0.62662686265E+03  0.30674425731E+04  0.30027558533E+04 0.  0.
        1    1    3    3  502    0  0.53340605477E+03  0.11867355307E+04  0.45200694670E+03  0.13773792212E+04  0.50400001928E-02 0. -1.
       -1    1    3    3    0  502 -0.53340605477E+03 -0.11867355307E+04 -0.10786338093E+04  0.16900633520E+04  0.50400001928E-02 0.  1.
</event>
<event>
 5   0  0.7278657E-07  0.2997797E+04  0.7818609E-02  0.8244360E-01
       -2   -1    0    0    0  501  0.00000000000E+00  0.00000000000E+00  0.10264355128E+04  0.10264355128E+04  0.25500000920E-02 0.  1.
        2   -1    0    0  501    0  0.00000000000E+00  0.00000000000E+00 -0.21888339868E+04  0.21888339868E+04  0.25500000920E-02 0. -1.
    10030    2    1    2    0    0  0.00000000000E+00  0.00000000000E+00 -0.11623984740E+04  0.32152694995E+04  0.29977971483E+04 0.  0.
        2    1    3    3  502    0  0.72771212317E+02 -0.14874538891E+04 -0.39892286395E+03  0.15417373878E+04  0.25500000920E-02 0.  1.
       -2    1    3    3    0  502 -0.72771212317E+02  0.14874538891E+04 -0.76347561007E+03  0.16735321117E+04  0.25500000920E-02 0. -1.
</event>
<event>
 5   0  0.7307508E-07  0.3001506E+04  0.7818609E-02  0.8243301E-01
       -2   -1    0    0    0  501  0.00000000000E+00  0.00000000000E+00  0.10918163106E+04  0.10918163106E+04  0.25500000920E-02 0. -1.
        2   -1    0    0  501    0  0.00000000000E+00  0.00000000000E+00 -0.20628561229E+04  0.20628561229E+04  0.25500000920E-02 0.  1.
    10030    2    1    2    0    0  0.00000000000E+00  0.00000000000E+00 -0.97103981228E+03  0.31546724335E+04  0.30015062628E+04 0.  0.
        1    1    3    3  502    0 -0.13988507476E+04 -0.19938886498E+03  0.45973520721E+02  0.14137372098E+04  0.50400001928E-02 0. -1.
       -1    1    3    3    0  502  0.13988507476E+04  0.19938886498E+03 -0.10170133330E+04  0.17409352237E+04  0.50400001928E-02 0.  1.
</event>
<event>
 5   0  0.2792361E-07  0.2997981E+04  0.7818609E-02  0.8244308E-01
        1   -1    0    0  501    0  0.00000000000E+00  0.00000000000E+00  0.18465638537E+04  0.18465638537E+04  0.50400001928E-02 0.  1.
       -1   -1    0    0    0  501  0.00000000000E+00  0.00000000000E+00 -0.12168399915E+04  0.12168399915E+04  0.50400001928E-02 0. -1.
    10030    2    1    2    0    0  0.00000000000E+00  0.00000000000E+00  0.62972386214E+03  0.30634038452E+04  0.29979811501E+04 0.  0.
        4    1    3    3  502    0 -0.34968804842E+03 -0.11432926189E+04  0.12387900768E+04  0.17216277795E+04  0.12699999809E+01 0.  1.
       -4    1    3    3    0  502  0.34968804842E+03  0.11432926189E+04 -0.60906621471E+03  0.13417760657E+04  0.12699999809E+01 0. -1.
</event>
<event>
 5   0  0.2640081E-07  0.3002805E+04  0.7818609E-02  0.8242930E-01
        1   -1    0    0  501    0  0.00000000000E+00  0.00000000000E+00  0.21884431693E+04  0.21884431693E+04  0.50400001928E-02 0.  1.
       -1   -1    0    0    0  501  0.00000000000E+00  0.00000000000E+00 -0.10300514647E+04  0.10300514647E+04  0.50400001928E-02 0. -1.
    10030    2    1    2    0    0  0.00000000000E+00  0.00000000000E+00  0.11583917046E+04  0.32184946341E+04  0.30028047503E+04 0.  0.
        1    1    3    3  502    0 -0.10579048388E+04  0.55420260892E+03 -0.39605466016E+03  0.12582378446E+04  0.50400001928E-02 0. -1.
       -1    1    3    3    0  502  0.10579048388E+04 -0.55420260892E+03  0.15544463648E+04  0.19602567895E+04  0.50400001928E-02 0.  1.
</event>
<event>
 5   0  0.2792361E-07  0.2992866E+04  0.7818609E-02  0.8245771E-01
       -1   -1    0    0    0  501  0.00000000000E+00  0.00000000000E+00  0.10187080570E+04  0.10187080570E+04  0.50400001928E-02 0. -1.
        1   -1    0    0  501    0  0.00000000000E+00  0.00000000000E+00 -0.21981873808E+04  0.21981873808E+04  0.50400001928E-02 0.  1.
    10030    2    1    2    0    0  0.00000000000E+00  0.00000000000E+00 -0.11794793238E+04  0.32168954378E+04  0.29928656472E+04 0.  0.
        4    1    3    3  502    0  0.11431285883E+03 -0.14694210000E+04 -0.86805038128E+03  0.17104907431E+04  0.12699999809E+01 0.  1.
       -4    1    3    3    0  502 -0.11431285883E+03  0.14694210000E+04 -0.31142894248E+03  0.15064046947E+04  0.12699999809E+01 0. -1.
</event>
<event>
 5   0  0.7208273E-07  0.2999161E+04  0.7818609E-02  0.8243971E-01
        2   -1    0    0  501    0  0.00000000000E+00  0.00000000000E+00  0.14674743697E+04  0.14674743697E+04  0.25500000920E-02 0. -1.
       -2   -1    0    0    0  501  0.00000000000E+00  0.00000000000E+00 -0.15323885697E+04  0.15323885697E+04  0.25500000920E-02 0.  1.
    10030    2    1    2    0    0  0.00000000000E+00  0.00000000000E+00 -0.64914200024E+02  0.29998629394E+04  0.29991605162E+04 0.  0.
        4    1    3    3  502    0 -0.52265119644E+03  0.14046665765E+04  0.17423140632E+02  0.14988521084E+04  0.12699999809E+01 0. -1.
       -4    1    3    3    0  502  0.52265119644E+03 -0.14046665765E+04 -0.82337340656E+02  0.15010108310E+04  0.12699999809E+01 0.  1.
</event>
<event>
 5   0  0.2602891E-07  0.3000378E+04  0.7818609E-02  0.8243623E-01
       -1   -1    0    0    0  501  0.00000000000E+00  0.00000000000E+00  0.13049010941E+04  0.13049010941E+04  0.50400001928E-02 0. -1.
        1   -1    0    0  501    0  0.00000000000E+00  0.00000000000E+00 -0.17247033304E+04  0.17247033304E+04  0.50400001928E-02 0.  1.
    10030    2    1    2    0    0  0.00000000000E+00  0.00000000000E+00 -0.41980223629E+03  0.30296044246E+04  0.30003781515E+04 0.  0.
        5    1    3    3  502    0 -0.15291190934E+03  0.14040504538E+04 -0.72059990196E+03  0.15855680488E+04  0.46999998093E+01 0.  1.
       -5    1    3    3    0  502  0.15291190934E+03 -0.14040504538E+04  0.30079766567E+03  0.14440363757E+04  0.46999998093E+01 0. -1.
</event>
<event>
 5   0  0.2679935E-07  0.2990731E+04  0.7818609E-02  0.8246383E-01
        1   -1    0    0  501    0  0.00000000000E+00  0.00000000000E+00  0.89863988851E+03  0.89863988852E+03  0.50400001928E-02 0. -1.
       -1   -1    0    0    0  501  0.00000000000E+00  0.00000000000E+00 -0.24883368007E+04  0.24883368007E+04  0.50400001928E-02 0.  1.
    10030    2    1    2    0    0  0.00000000000E+00  0.00000000000E+00 -0.15896969122E+04  0.33869766893E+04  0.29907314859E+04 0.  0.
        2    1    3    3  502    0 -0.10878572959E+04  0.99403426648E+03 -0.10826462474E+04  0.18285678867E+04  0.25500000920E-02 0.  1.
       -2    1    3    3    0  502  0.10878572959E+04 -0.99403426648E+03 -0.50705066481E+03  0.15584088026E+04  0.25500000920E-02 0. -1.
</event>
<event>
 5   0  0.2792361E-07  0.2994606E+04  0.7818609E-02  0.8245273E-01
       -1   -1    0    0    0  501  0.00000000000E+00  0.00000000000E+00  0.12107544118E+04  0.12107544118E+04  0.50400001928E-02 0. -1.
        1   -1    0    0  501    0  0.00000000000E+00  0.00000000000E+00 -0.18516685937E+04  0.18516685937E+04  0.50400001928E-02 0.  1.
    10030    2    1    2    0    0  0.00000000000E+00  0.00000000000E+00 -0.64091418186E+03  0.30624230055E+04  0.29946057631E+04 0.  0.
        4    1    3    3  502    0 -0.35518935759E+03 -0.12926496150E+04  0.36158891813E+03  0.13884706211E+04  0.12699999809E+01 0.  1.
       -4    1    3    3    0  502  0.35518935759E+03  0.12926496150E+04 -0.10025031000E+04  0.16739523844E+04  0.12699999809E+01 0. -1.
</event>
<event>
 5   0  0.2792361E-07  0.2999893E+04  0.7818609E-02  0.8243761E-01
        1   -1    0    0  501    0  0.00000000000E+00  0.00000000000E+00  0.12228443624E+04  0.12228443624E+04  0.50400001928E-02 0.  1.
       -1   -1    0    0    0  501  0.00000000000E+00  0.00000000000E+00 -0.18398417080E+04  0.18398417080E+04  0.50400001928E-02 0. -1.
    10030    2    1    2    0    0  0.00000000000E+00  0.00000000000E+00 -0.61699734556E+03  0.30626860704E+04  0.29998933716E+04 0.  0.
        4    1    3    3  502    0 -0.45703784923E+03 -0.15519731686E+03  0.11413927210E+04  0.12392533072E+04  0.12699999809E+01 0.  1.
       -4    1    3    3    0  502  0.45703784923E+03  0.15519731686E+03 -0.17583900666E+04  0.18234327632E+04  0.12699999809E+01 0. -1.
</event>
<event>
 5   0  0.7399409E-07  0.3019594E+04  0.7818609E-02  0.8238158E-01
        2   -1    0    0  501    0  0.00000000000E+00  0.00000000000E+00  0.86239221551E+03  0.86239221551E+03  0.25500000920E-02 0. -1.
       -2   -1    0    0    0  501  0.00000000000E+00  0.00000000000E+00 -0.26432139519E+04  0.26432139519E+04  0.25500000920E-02 0.  1.
    10030    2    1    2    0    0  0.00000000000E+00  0.00000000000E+00 -0.17808217364E+04  0.35056061674E+04  0.30195941026E+04 0.  0.
        3    1    3    3  502    0  0.11560614794E+04  0.78507603977E+03 -0.22687319103E+03  0.14157309022E+04  0.10100000352E+00 0. -1.
       -3    1    3    3    0  502 -0.11560614794E+04 -0.78507603977E+03 -0.15539485454E+04  0.20898752652E+04  0.10100000352E+00 0.  1.
</event>
<event>
 5   0  0.2679935E-07  0.3017139E+04  0.7818609E-02  0.8238854E-01
       -1   -1    0    0    0  501  0.00000000000E+00  0.00000000000E+00  0.19496510318E+04  0.19496510318E+04  0.50400001928E-02 0. -1.
        1   -1    0    0  501    0  0.00000000000E+00  0.00000000000E+00 -0.11672767640E+04  0.11672767640E+04  0.50400001928E-02 0.  1.
    10030    2    1    2    0    0  0.00000000000E+00  0.00000000000E+00  0.78237426778E+03  0.31169277958E+04  0.30171392725E+04 0.  0.
        2    1    3    3  502    0  0.11482670512E+03  0.13205330733E+04  0.11352797678E+04  0.17452372105E+04  0.25500000920E-02 0. -1.
       -2    1    3    3    0  502 -0.11482670512E+03 -0.13205330733E+04 -0.35290550002E+03  0.13716905853E+04  0.25500000920E-02 0.  1.
</event>
<event>
 5   0  0.7399409E-07  0.3001103E+04  0.7818609E-02  0.8243416E-01
        2   -1    0    0  501    0  0.00000000000E+00  0.00000000000E+00  0.18422719238E+04  0.18422719238E+04  0.25500000920E-02 0. -1.
       -2   -1    0    0    0  501  0.00000000000E+00  0.00000000000E+00 -0.12222159883E+04  0.12222159883E+04  0.25500000920E-02 0.  1.
    10030    2    1    2    0    0  0.00000000000E+00  0.00000000000E+00  0.62005593552E+03  0.30644879120E+04  0.30011025973E+04 0.  0.
        3    1    3    3  502    0 -0.60498982949E+03  0.12709349813E+04  0.84097710878E+03  0.16396740311E+04  0.10100000352E+00 0. -1.
       -3    1    3    3    0  502  0.60498982949E+03 -0.12709349813E+04 -0.22092117326E+03  0.14248138810E+04  0.10100000352E+00 0.  1.
</event>
<event>
 5   0  0.2602891E-07  0.3004844E+04  0.7818609E-02  0.8242349E-01
       -1   -1    0    0    0  501  0.00000000000E+00  0.00000000000E+00  0.93515919674E+03  0.93515919675E+03  0.50400001928E-02 0.  1.
        1   -1    0    0  501    0  0.00000000000E+00  0.00000000000E+00 -0.24137840863E+04  0.24137840863E+04  0.50400001928E-02 0. -1.
    10030    2    1    2    0    0  0.00000000000E+00  0.00000000000E+00 -0.14786248896E+04  0.33489432831E+04  0.30048443469E+04 0.  0.
        5    1    3    3  502    0 -0.81065349410E+03  0.11249041403E+04 -0.94546760448E+02  0.13897948022E+04  0.46999998093E+01 0.  1.
       -5    1    3    3    0  502  0.81065349410E+03 -0.11249041403E+04 -0.13840781292E+04  0.19591484809E+04  0.46999998093E+01 0. -1.
</event>
<event>
 5   0  0.7399409E-07  0.3009652E+04  0.7818609E-02  0.8240980E-01
       -2   -1    0    0    0  501  0.00000000000E+00  0.00000000000E+00  0.10334107614E+04  0.10334107614E+04  0.25500000920E-02 0. -1.
        2   -1    0    0  501    0  0.00000000000E+00  0.00000000000E+00 -0.21912887136E+04  0.21912887136E+04  0.25500000920E-02 0.  1.
    10030    2    1    2    0    0  0.00000000000E+00  0.00000000000E+00 -0.11578779522E+04  0.32246994750E+04  0.30096520317E+04 0.  0.
        3    1    3    3  502    0 -0.39474161657E+02 -0.12913877954E+04 -0.14055982811E+04  0.19091744775E+04  0.10100000352E+00 0.  1.
       -3    1    3    3    0  502  0.39474161657E+02  0.12913877954E+04  0.24772032888E+03  0.13155249975E+04  0.10100000352E+00 0. -1.
</event>
<event>
 5   0  0.2621825E-07  0.2993693E+04  0.7818609E-02  0.8245534E-01
       -1   -1    0    0    0  501  0.00000000000E+00  0.00000000000E+00  0.69817468480E+03  0.69817468482E+03  0.50400001928E-02 0. -1.
        1   -1    0    0  501    0  0.00000000000E+00  0.00000000000E+00 -0.32091527484E+04  0.32091527484E+04  0.50400001928E-02 0.  1.
    10030    2    1    2    0    0  0.00000000000E+00  0.00000000000E+00 -0.25109780636E+04  0.39073274332E+04  0.29936928424E+04 0.  0.
        3    1    3    3  502    0 -0.22055915038E+03 -0.14766384067E+04 -0.11158775379E+04  0.18639447451E+04  0.10100000352E+00 0. -1.
       -3    1    3    3    0  502  0.22055915038E+03  0.14766384067E+04 -0.13951005257E+04  0.20433826881E+04  0.10100000352E+00 0.  1.
</event>
<event>
 5   0  0.2602891E-07  0.2998217E+04  0.7818609E-02  0.8244240E-01
       -1   -1    0    0    0  501  0.00000000000E+00  0.00000000000E+00  0.30710198902E+04  0.30710198902E+04  0.50400001928E-02 0.  1.
        1   -1    0    0  501    0  0.00000000000E+00  0.00000000000E+00 -0.73178480340E+03  0.73178480342E+03  0.50400001928E-02 0. -1.
    10030    2    1    2    0    0  0.00000000000E+00  0.00000000000E+00  0.23392350868E+04  0.38028046936E+04  0.29982165943E+04 0.  0.
        5    1    3    3  502    0  0.54404922793E+03  0.87740046571E+03 -0.20903446068E+03  0.10533463986E+04  0.46999998093E+01 0. -1.
       -5    1    3    3    0  502 -0.54404922793E+03 -0.87740046571E+03  0.25482695475E+04  0.27494582951E+04  0.46999998093E+01 0.  1.
</event>
<event>
 5   0  0.7585823E-07  0.3003845E+04  0.7818609E-02  0.8242634E-01
       -2   -1    0    0    0  501  0.00000000000E+00  0.00000000000E+00  0.10232075940E+04  0.10232075940E+04  0.25500000920E-02 0. -1.
        2   -1    0    0  501    0  0.00000000000E+00  0.00000000000E+00 -0.22046080813E+04  0.22046080813E+04  0.25500000920E-02 0.  1.
    10030    2    1    2    0    0  0.00000000000E+00  0.00000000000E+00 -0.11814004873E+04  0.32278156754E+04  0.30038453560E+04 0.  0.
        5    1    3    3  502    0  0.13930453270E+04  0.87978555028E+00  0.12561882899E+02  0.13931101708E+04  0.46999998093E+01 0. -1.
       -5    1    3    3    0  502 -0.13930453270E+04 -0.87978555028E+00 -0.11939623702E+04  0.18347055046E+04  0.46999998093E+01 0.  1.
</event>
<event>
 5   0  0.2621825E-07  0.2993553E+04  0.7818609E-02  0.8245574E-01
        1   -1    0    0  501    0  0.00000000000E+00  0.00000000000E+00  0.20945684628E+04  0.20945684628E+04  0.50400001928E-02 0.  1.
       -1   -1    0    0    0  501  0.00000000000E+00  0.00000000000E+00 -0.10695952849E+04  0.10695952849E+04  0.50400001928E-02 0. -1.
    10030    2    1    2    0    0  0.00000000000E+00  0.00000000000E+00  0.10249731779E+04  0.31641637477E+04  0.29935534415E+04 0.  0.
        3    1    3    3  502    0  0.73744444657E+03  0.14634297403E+03  0.18805061251E+04  0.20252268699E+04  0.10100000352E+00 0.  1.
       -3    1    3    3    0  502 -0.73744444657E+03 -0.14634297403E+03 -0.85553294719E+03  0.11389368779E+04  0.10100000352E+00 0. -1.
</event>
<event>
 5   0  0.2679935E-07  0.2995969E+04  0.7818609E-02  0.8244883E-01
       -1   -1    0    0    0  501  0.00000000000E+00  0.00000000000E+00  0.13685569423E+04  0.13685569423E+04  0.50400001928E-02 0.  1.
        1   -1    0    0  501    0  0.00000000000E+00  0.00000000000E+00 -0.16396523875E+04  0.16396523876E+04  0.50400001928E-02 0. -1.
    10030    2    1    2    0    0  0.00000000000E+00  0.00000000000E+00 -0.27109544527E+03  0.30082093298E+04  0.29959690639E+04 0.  0.
        2    1    3    3  502    0  0.38617834408E+03 -0.11566589501E+04  0.73804367173E+03  0.14253778803E+04  0.25500000920E-02 0.  1.
       -2    1    3    3    0  502 -0.38617834408E+03  0.11566589501E+04 -0.10091391170E+04  0.15828314496E+04  0.25500000920E-02 0. -1.
</event>
<event>
 5   0  0.7278657E-07  0.2996910E+04  0.7818609E-02  0.8244614E-01
        2   -1    0    0  501    0  0.00000000000E+00  0.00000000000E+00  0.17970093143E+04  0.17970093143E+04  0.25500000920E-02 0.  1.
       -2   -1    0    0    0  501  0.00000000000E+00  0.00000000000E+00 -0.12495024377E+04  0.12495024377E+04  0.25500000920E-02 0. -1.
    10030    2    1    2    0    0  0.00000000000E+00  0.00000000000E+00  0.54750687664E+03  0.30465117520E+04  0.29969100879E+04 0.  0.
        2    1    3    3  502    0 -0.83236660139E+03 -0.85351772199E+00  0.15403826876E+04  0.17508894059E+04  0.25500000920E-02 0.  1.
       -2    1    3    3    0  502  0.83236660139E+03  0.85351772199E+00 -0.99287581093E+03  0.12956223460E+04  0.25500000920E-02 0. -1.
</event>
<event>
 5   0  0.7278657E-07  0.2999130E+04  0.7818609E-02  0.8243979E-01
        2   -1    0    0  501    0  0.00000000000E+00  0.00000000000E+00  0.11908359415E+04  0.11908359415E+04  0.25500000920E-02 0.  1.
       -2   -1    0    0    0  501  0.00000000000E+00  0.00000000000E+00 -0.18883329598E+04  0.18883329598E+04  0.25500000920E-02 0. -1.
    10030    2    1    2    0    0  0.00000000000E+00  0.00000000000E+00 -0.69749701833E+03  0.30791689012E+04  0.29991297124E+04 0.  0.
        2    1    3    3  502    0 -0.49126216096E+03  0.17987260212E+02 -0.18032544092E+04  0.18690608649E+04  0.25500000920E-02 0. -1.
       -2    1    3    3    0  502  0.49126216096E+03 -0.17987260212E+02  0.11057573908E+04  0.12101080364E+04  0.25500000920E-02 0.  1.
</event>
<event>
 5   0  0.7208273E-07  0.3003953E+04  0.7818609E-02  0.8242603E-01
       -2   -1    0    0    0  501  0.00000000000E+00  0.00000000000E+00  0.15218035815E+04  0.15218035815E+04  0.25500000920E-02 0.  1.
        2   -1    0    0  501    0  0.00000000000E+00  0.00000000000E+00 -0.14824074962E+04  0.14824074962E+04  0.25500000920E-02 0. -1.
    10030    2    1    2    0    0  0.00000000000E+00  0.00000000000E+00  0.39396085339E+02  0.30042110777E+04  0.30039527540E+04 0.  0.
        4    1    3    3  502    0  0.14072305389E+04  0.52309954347E+03  0.64428861967E+02  0.15026921219E+04  0.12699999809E+01 0. -1.
       -4    1    3    3    0  502 -0.14072305389E+04 -0.52309954347E+03 -0.25032776628E+02  0.15015189559E+04  0.12699999809E+01 0.  1.
</event>
<event>
 5   0  0.7307508E-07  0.3002713E+04  0.7818609E-02  0.8242957E-01
        2   -1    0    0  501    0  0.00000000000E+00  0.00000000000E+00  0.16985788418E+04  0.16985788418E+04  0.25500000920E-02 0.  1.
       -2   -1    0    0    0  501  0.00000000000E+00  0.00000000000E+00 -0.13270334901E+04  0.13270334901E+04  0.25500000920E-02 0. -1.
    10030    2    1    2    0    0  0.00000000000E+00  0.00000000000E+00  0.37154535166E+03  0.30256123320E+04  0.30027127793E+04 0.  0.
        1    1    3    3  502    0  0.25017563816E+03 -0.13167329820E+04  0.86746549325E+03  0.15965180794E+04  0.50400001928E-02 0.  1.
       -1    1    3    3    0  502 -0.25017563816E+03  0.13167329820E+04 -0.49592014158E+03  0.14290942526E+04  0.50400001928E-02 0. -1.
</event>
<event>
 5   0  0.2414250E-07  0.2990172E+04  0.7818609E-02  0.8246543E-01
        4   -1    0    0  501    0  0.00000000000E+00  0.00000000000E+00  0.10201578139E+04  0.10201586044E+04  0.12699999809E+01 0.  1.
       -4   -1    0    0    0  501  0.00000000000E+00  0.00000000000E+00 -0.21911127351E+04  0.21911131032E+04  0.12699999809E+01 0. -1.
    10030    2    1    2    0    0  0.00000000000E+00  0.00000000000E+00 -0.11709549212E+04  0.32112717076E+04  0.29901723282E+04 0.  0.
        5    1    3    3  502    0 -0.64510220350E+03  0.31776757443E+03  0.82221739961E+03  0.10923354002E+04  0.46999998093E+01 0.  1.
       -5    1    3    3    0  502  0.64510220350E+03 -0.31776757443E+03 -0.19931723208E+04  0.21189363074E+04  0.46999998093E+01 0. -1.
</event>
<event>
 5   0  0.7278657E-07  0.2988594E+04  0.7818609E-02  0.8246995E-01
       -2   -1    0    0    0  501  0.00000000000E+00  0.00000000000E+00  0.10661838468E+04  0.10661838468E+04  0.25500000920E-02 0. -1.
        2   -1    0    0  501    0  0.00000000000E+00  0.00000000000E+00 -0.20943142049E+04  0.20943142049E+04  0.25500000920E-02 0.  1.
    10030    2    1    2    0    0  0.00000000000E+00  0.00000000000E+00 -0.10281303581E+04  0.31604980518E+04  0.29885943020E+04 0.  0.
        2    1    3    3  502    0 -0.98890894799E+03 -0.81635812458E+03  0.29722733841E+03  0.13163303482E+04  0.25500000920E-02 0. -1.
       -2    1    3    3    0  502  0.98890894799E+03  0.81635812458E+03 -0.13253576965E+04  0.18441677035E+04  0.25500000920E-02 0.  1.
</event>
<event>
 5   0  0.7307508E-07  0.3009104E+04  0.7818609E-02  0.8241136E-01
       -2   -1    0    0    0  501  0.00000000000E+00  0.00000000000E+00  0.85208076048E+03  0.85208076048E+03  0.25500000920E-02 0.  1.
        2   -1    0    0  501    0  0.00000000000E+00  0.00000000000E+00 -0.26566456083E+04  0.26566456083E+04  0.25500000920E-02 0. -1.
    10030    2    1    2    0    0  0.00000000000E+00  0.00000000000E+00 -0.18045648478E+04  0.35087263687E+04  0.30091039266E+04 0.  0.
        1    1    3    3  502    0  0.80037630517E+03  0.10894017832E+04 -0.16724656172E+04  0.21504743002E+04  0.50400001928E-02 0. -1.
       -1    1    3    3    0  502 -0.80037630517E+03 -0.10894017832E+04 -0.13209923063E+03  0.13582520686E+04  0.50400001928E-02 0.  1.
</event>
<event>
 5   0  0.2621825E-07  0.3029800E+04  0.7818609E-02  0.8235272E-01
       -1   -1    0    0    0  501  0.00000000000E+00  0.00000000000E+00  0.13660171499E+04  0.13660171499E+04  0.50400001928E-02 0. -1.
        1   -1    0    0  501    0  0.00000000000E+00  0.00000000000E+00 -0.16800098259E+04  0.16800098259E+04  0.50400001928E-02 0.  1.
    10030    2    1    2    0    0  0.00000000000E+00  0.00000000000E+00 -0.31399267604E+03  0.30460269758E+04  0.30298001480E+04 0.  0.
        3    1    3    3  502    0 -0.65984367132E+03 -0.28666357813E+03 -0.14973103352E+04  0.16611766697E+04  0.10100000352E+00 0.  1.
       -3    1    3    3    0  502  0.65984367132E+03  0.28666357813E+03  0.11833176592E+04  0.13848503061E+04  0.10100000352E+00 0. -1.
</event>
<event>
 5   0  0.7585823E-07  0.2997745E+04  0.7818609E-02  0.8244375E-01
       -2   -1    0    0    0  501  0.00000000000E+00  0.00000000000E+00  0.16534330911E+04  0.16534330911E+04  0.25500000920E-02 0. -1.
        2   -1    0    0  501    0  0.00000000000E+00  0.00000000000E+00 -0.13587600961E+04  0.13587600961E+04  0.25500000920E-02 0.  1.
    10030    2    1    2    0    0  0.00000000000E+00  0.00000000000E+00  0.29467299499E+03  0.30121931871E+04  0.29977450897E+04 0.  0.
        5    1    3    3  502    0  0.64800145611E+03 -0.23835666944E+03  0.14841156614E+04  0.16368693214E+04  0.46999998093E+01 0. -1.
       -5    1    3    3    0  502 -0.64800145611E+03  0.23835666944E+03 -0.11894426664E+04  0.13753238657E+04  0.46999998093E+01 0.  1.
</event>
<event>
 5   0  0.2792361E-07  0.3002214E+04  0.7818609E-02  0.8243099E-01
       -1   -1    0    0    0  501  0.00000000000E+00  0.00000000000E+00  0.11883276973E+04  0.11883276973E+04  0.50400001928E-02 0. -1.
        1   -1    0    0  501    0  0.00000000000E+00  0.00000000000E+00 -0.18962134335E+04  0.18962134335E+04  0.50400001928E-02 0.  1.
    10030    2    1    2    0    0  0.00000000000E+00  0.00000000000E+00 -0.70788573622E+03  0.30845411307E+04  0.30022144780E+04 0.  0.
        4    1    3    3  502    0 -0.37505366513E+03  0.73932860785E+03 -0.16396781570E+04  0.18373399559E+04  0.12699999809E+01 0.  1.
       -4    1    3    3    0  502  0.37505366513E+03 -0.73932860785E+03  0.93179242080E+03  0.12472011748E+04  0.12699999809E+01 0. -1.
</event>
<event>
 5   0  0.7307508E-07  0.3004856E+04  0.7818609E-02  0.8242346E-01
        2   -1    0    0  501    0  0.00000000000E+00  0.00000000000E+00  0.15280330857E+04  0.15280330857E+04  0.25500000920E-02 0. -1.
       -2   -1    0    0    0  501  0.00000000000E+00  0.00000000000E+00 -0.14772520110E+04  0.14772520110E+04  0.25500000920E-02 0.  1.
    10030    2    1    2    0    0  0.00000000000E+00  0.00000000000E+00  0.50781074691E+02  0.30052850967E+04  0.30048560356E+04 0.  0.
        1    1    3    3  502    0  0.58138253205E+03  0.45461528392E+03 -0.12834632982E+04  0.14805265087E+04  0.50400001928E-02 0.  1.
       -1    1    3    3    0  502 -0.58138253205E+03 -0.45461528392E+03  0.13342443729E+04  0.15247585880E+04  0.50400001928E-02 0. -1.
</event>
<event>
 5   0  0.7278657E-07  0.3019186E+04  0.7818609E-02  0.8238273E-01
       -2   -1    0    0    0  501  0.00000000000E+00  0.00000000000E+00  0.14493554313E+04  0.14493554313E+04  0.25500000920E-02 0.  1.
        2   -1    0    0  501    0  0.00000000000E+00  0.00000000000E+00 -0.15723342740E+04  0.15723342740E+04  0.25500000920E-02 0. -1.
    10030    2    1    2    0    0  0.00000000000E+00  0.00000000000E+00 -0.12297884274E+03  0.30216897053E+04  0.30191861287E+04 0.  0.
        2    1    3    3  502    0 -0.12473459349E+04  0.70991385547E+03  0.40689614870E+03  0.14917821689E+04  0.25500000920E-02 0.  1.
       -2    1    3    3    0  502  0.12473459349E+04 -0.70991385547E+03 -0.52987499144E+03  0.15299075365E+04  0.25500000920E-02 0. -1.
</event>
<event>
 5   0  0.2602891E-07  0.2999311E+04  0.7818609E-02  0.8243928E-01
       -1   -1    0    0    0  501  0.00000000000E+00  0.00000000000E+00  0.78972895512E+03  0.78972895513E+03  0.50400001928E-02 0.  1.
        1   -1    0    0  501    0  0.00000000000E+00  0.00000000000E+00 -0.28477711667E+04  0.28477711667E+04  0.50400001928E-02 0. -1.
    10030    2    1    2    0    0  0.00000000000E+00  0.00000000000E+00 -0.20580422116E+04  0.36375001218E+04  0.29993114863E+04 0.  0.
        5    1    3    3  502    0 -0.58343805321E+03 -0.12566235955E+04 -0.33292177610E+03  0.14249076538E+04  0.46999998093E+01 0. -1.
       -5    1    3    3    0  502  0.58343805321E+03  0.12566235955E+04 -0.17251204355E+04  0.22125924681E+04  0.46999998093E+01 0.  1.
</event>
<event>
 5   0  0.7208273E-07  0.2997979E+04  0.7818609E-02  0.8244308E-01
       -2   -1    0    0    0  501  0.00000000000E+00  0.00000000000E+00  0.91108842127E+03  0.91108842128E+03  0.25500000920E-02 0. -1.
        2   -1    0    0  501    0  0.00000000000E+00  0.00000000000E+00 -0.24662468177E+04  0.24662468177E+04  0.25500000920E-02 0.  1.
    10030    2    1    2    0    0  0.00000000000E+00  0.00000000000E+00 -0.15551583964E+04  0.33773352389E+04  0.29979785987E+04 0.  0.
        4    1    3    3  502    0 -0.54638758888E+03  0.13206693401E+04 -0.12867198052E+04  0.19231111182E+04  0.12699999809E+01 0.  1.
       -4    1    3    3    0  502  0.54638758888E+03 -0.13206693401E+04 -0.26843859122E+03  0.14542241207E+04  0.12699999809E+01 0. -1.
</event>
<event>
 5   0  0.7585823E-07  0.2998077E+04  0.7818609E-02  0.8244280E-01
        2   -1    0    0  501    0  0.00000000000E+00  0.00000000000E+00  0.25290708813E+04  0.25290708813E+04  0.25500000920E-02 0.  1.
       -2   -1    0    0    0  501  0.00000000000E+00  0.00000000000E+00 -0.88851464646E+03  0.88851464646E+03  0.25500000920E-02 0. -1.
    10030    2    1    2    0    0  0.00000000000E+00  0.00000000000E+00  0.16405562349E+04  0.34175855278E+04  0.29980770637E+04 0.  0.
        5    1    3    3  502    0 -0.43481639697E+03  0.11222782648E+04  0.18389156396E+04  0.21977731053E+04  0.46999998093E+01 0.  1.
       -5    1    3    3    0  502  0.43481639697E+03 -0.11222782648E+04 -0.19835940476E+03  0.12198124225E+04  0.46999998093E+01 0. -1.
</event>
<event>
 5   0  0.2792361E-07  0.3010556E+04  0.7818609E-02  0.8240723E-01
       -1   -1    0    0    0  501  0.00000000000E+00  0.00000000000E+00  0.16041922029E+04  0.16041922029E+04  0.50400001928E-02 0. -1.
        1   -1    0    0  501    0  0.00000000000E+00  0.00000000000E+00 -0.14124625559E+04  0.14124625559E+04  0.50400001928E-02 0.  1.
    10030    2    1    2    0    0  0.00000000000E+00  0.00000000000E+00  0.19172964708E+03  0.30166547588E+04  0.30105557089E+04 0.  0.
        4    1    3    3  502    0 -0.27873728351E+03  0.13715828278E+04 -0.45926645312E+03  0.14730448787E+04  0.12699999809E+01 0. -1.
       -4    1    3    3    0  502  0.27873728351E+03 -0.13715828278E+04  0.65099610020E+03  0.15436098801E+04  0.12699999809E+01 0.  1.
</event>
<event>
 5   0  0.7307508E-07  0.2981885E+04  0.7818609E-02  0.8248923E-01
        2   -1    0    0  501    0  0.00000000000E+00  0.00000000000E+00  0.19197788031E+04  0.19197788031E+04  0.25500000920E-02 0. -1.
       -2   -1    0    0    0  501  0.00000000000E+00  0.00000000000E+00 -0.11578989823E+04  0.11578989823E+04  0.25500000920E-02 0.  1.
    10030    2    1    2    0    0  0.00000000000E+00  0.00000000000E+00  0.76187982080E+03  0.30776777855E+04  0.29818852576E+04 0.  0.
        1    1    3    3  502    0 -0.69605661340E+03 -0.55517270182E+03  0.16152672928E+04  0.18443969110E+04  0.50400001928E-02 0. -1.
       -1    1    3    3    0  502  0.69605661340E+03  0.55517270182E+03 -0.85338747203E+03  0.12332808745E+04  0.50400001928E-02 0.  1.
</event>
<event>
 5   0  0.2414250E-07  0.3006324E+04  0.7818609E-02  0.8241927E-01
       -3   -1    0    0    0  501  0.00000000000E+00  0.00000000000E+00  0.78013949827E+03  0.78013950481E+03  0.10100000352E+00 0. -1.
        3   -1    0    0  501    0  0.00000000000E+00  0.00000000000E+00 -0.28962707936E+04  0.28962707954E+04  0.10100000352E+00 0.  1.
    10030    2    1    2    0    0  0.00000000000E+00  0.00000000000E+00 -0.21161312954E+04  0.36764103002E+04  0.30063235083E+04 0.  0.
        2    1    3    3  502    0  0.54042367393E+03  0.10252952246E+03 -0.27687716344E+04  0.28228826425E+04  0.25500000920E-02 0.  1.
       -2    1    3    3    0  502 -0.54042367393E+03 -0.10252952246E+03  0.65264033900E+03  0.85352765767E+03  0.25500000920E-02 0. -1.
</event>
<event>
 5   0  0.2621825E-07  0.3009436E+04  0.7818609E-02  0.8241041E-01
       -1   -1    0    0    0  501  0.00000000000E+00  0.00000000000E+00  0.17684717119E+04  0.17684717119E+04  0.50400001928E-02 0.  1.
        1   -1    0    0  501    0  0.00000000000E+00  0.00000000000E+00 -0.12803014856E+04  0.12803014857E+04  0.50400001928E-02 0. -1.
    10030    2    1    2    0    0  0.00000000000E+00  0.00000000000E+00  0.48817022621E+03  0.30487731975E+04  0.30094364655E+04 0.  0.
        3    1    3    3  502    0  0.15743157037E+02 -0.14068390009E+04  0.78466382452E+03  0.16109441794E+04  0.10100000352E+00 0. -1.
       -3    1    3    3    0  502 -0.15743157037E+02  0.14068390009E+04 -0.29649359831E+03  0.14378290181E+04  0.10100000352E+00 0.  1.
</event>
<event>
 5   0  0.2621825E-07  0.2990898E+04  0.7818609E-02  0.8246335E-01
        1   -1    0    0  501    0  0.00000000000E+00  0.00000000000E+00  0.12903817121E+04  0.12903817121E+04  0.50400001928E-02 0.  1.
       -1   -1    0    0    0  501  0.00000000000E+00  0.00000000000E+00 -0.17331054926E+04  0.17331054926E+04  0.50400001928E-02 0. -1.
    10030    2    1    2    0    0  0.00000000000E+00  0.00000000000E+00 -0.44272378051E+03  0.30234872046E+04  0.29908979472E+04 0.  0.
        3    1    3    3  502    0  0.70512388773E+03  0.90895530239E+02 -0.15513362641E+04  0.17064893521E+04  0.10100000352E+00 0. -1.
       -3    1    3    3    0  502 -0.70512388773E+03 -0.90895530239E+02  0.11086124836E+04  0.13169978525E+04  0.10100000352E+00 0.  1.
</event>
<event>
 5   0  0.2640081E-07  0.2998477E+04  0.7818609E-02  0.8244166E-01
        1   -1    0    0  501    0  0.00000000000E+00  0.00000000000E+00  0.17745566352E+04  0.17745566352E+04  0.50400001928E-02 0. -1.
       -1   -1    0    0    0  501  0.00000000000E+00  0.00000000000E+00 -0.12666350627E+04  0.12666350627E+04  0.50400001928E-02 0.  1.
    10030    2    1    2    0    0  0.00000000000E+00  0.00000000000E+00  0.50792157254E+03  0.30411916980E+04  0.29984767166E+04 0.  0.
        1    1    3    3  502    0  0.10750786273E+04  0.82934185740E+03  0.89871604578E+03  0.16282790001E+04  0.50400001928E-02 0. -1.
       -1    1    3    3    0  502 -0.10750786273E+04 -0.82934185740E+03 -0.39079447324E+03  0.14129126978E+04  0.50400001928E-02 0.  1.
</event>
<event>
 5   0  0.7399409E-07  0.3001235E+04  0.7818609E-02  0.8243378E-01
        2   -1    0    0  501    0  0.00000000000E+00  0.00000000000E+00  0.14739753659E+04  0.14739753659E+04  0.25500000920E-02 0. -1.
       -2   -1    0    0    0  501  0.00000000000E+00  0.00000000000E+00 -0.15277412072E+04  0.15277412072E+04  0.25500000920E-02 0.  1.
    10030    2    1    2    0    0  0.00000000000E+00  0.00000000000E+00 -0.53765841341E+02  0.30017165731E+04  0.30012350157E+04 0.  0.
        3    1    3    3  502    0  0.23460717353E+03 -0.11476612014E+04 -0.96494925896E+03  0.15176606477E+04  0.10100000352E+00 0.  1.
       -3    1    3    3    0  502 -0.23460717353E+03  0.11476612014E+04  0.91118341762E+03  0.14840559254E+04  0.10100000352E+00 0. -1.
</event>
<event>
 5   0  0.2414250E-07  0.3000150E+04  0.7818609E-02  0.8243688E-01
        3   -1    0    0  501    0  0.00000000000E+00  0.00000000000E+00  0.14327270438E+04  0.14327270474E+04  0.10100000352E+00 0. -1.
       -3   -1    0    0    0  501  0.00000000000E+00  0.00000000000E+00 -0.15705890038E+04  0.15705890070E+04  0.10100000352E+00 0.  1.
    10030    2    1    2    0    0  0.00000000000E+00  0.00000000000E+00 -0.13786195994E+03  0.30033160544E+04  0.30001502300E+04 0.  0.
        3    1    3    3  502    0 -0.40400185171E+03 -0.86679428141E+03 -0.12258648041E+04  0.15547650468E+04  0.10100000352E+00 0.  1.
       -3    1    3    3    0  502  0.40400185171E+03  0.86679428141E+03  0.10880028442E+04  0.14485510076E+04  0.10100000352E+00 0. -1.
</event>
<event>
 5   0  0.7399409E-07  0.3045436E+04  0.7818609E-02  0.8230874E-01
       -2   -1    0    0    0  501  0.00000000000E+00  0.00000000000E+00  0.11238322990E+04  0.11238322990E+04  0.25500000920E-02 0.  1.
        2   -1    0    0  501    0  0.00000000000E+00  0.00000000000E+00 -0.20631821741E+04  0.20631821741E+04  0.25500000920E-02 0. -1.
    10030    2    1    2    0    0  0.00000000000E+00  0.00000000000E+00 -0.93934987519E+03  0.31870144731E+04  0.30454364324E+04 0.  0.
        3    1    3    3  502    0 -0.76497441674E+03  0.78517587097E+03 -0.15756820612E+04  0.19194949791E+04  0.10100000352E+00 0. -1.
       -3    1    3    3    0  502  0.76497441674E+03 -0.78517587097E+03  0.63633218599E+03  0.12675194940E+04  0.10100000352E+00 0.  1.
</event>
<event>
 5   0  0.7585823E-07  0.3001096E+04  0.7818609E-02  0.8243418E-01
       -2   -1    0    0    0  501  0.00000000000E+00  0.00000000000E+00  0.17275100799E+04  0.17275100799E+04  0.25500000920E-02 0. -1.
        2   -1    0    0  501    0  0.00000000000E+00  0.00000000000E+00 -0.13034043716E+04  0.13034043716E+04  0.25500000920E-02 0.  1.
    10030    2    1    2    0    0  0.00000000000E+00  0.00000000000E+00  0.42410570824E+03  0.30309144515E+04  0.30010959266E+04 0.  0.
        5    1    3    3  502    0  0.21841039810E+02 -0.97523933821E+03 -0.93947482226E+03  0.13543278146E+04  0.46999998093E+01 0.  1.
       -5    1    3    3    0  502 -0.21841039810E+02  0.97523933821E+03  0.13635805305E+04  0.16765866369E+04  0.46999998093E+01 0. -1.
</event>
<event>
 5   0  0.2679935E-07  0.2998354E+04  0.7818609E-02  0.8244201E-01
        1   -1    0    0  501    0  0.00000000000E+00  0.00000000000E+00  0.16613311929E+04  0.16613311930E+04  0.50400001928E-02 0. -1.
       -1   -1    0    0    0  501  0.00000000000E+00  0.00000000000E+00 -0.13528500005E+04  0.13528500005E+04  0.50400001928E-02 0.  1.
    10030    2    1    2    0    0  0.00000000000E+00  0.00000000000E+00  0.30848119244E+03  0.30141811935E+04  0.29983541520E+04 0.  0.
        2    1    3    3  502    0  0.10084428222E+04  0.83363653224E+03 -0.58148673923E+03  0.14317938474E+04  0.25500000920E-02 0.  1.
       -2    1    3    3    0  502 -0.10084428222E+04 -0.83363653224E+03  0.88996793166E+03  0.15823873461E+04  0.25500000920E-02 0. -1.
</event>
<event>
 5   0  0.2792361E-07  0.3000680E+04  0.7818609E-02  0.8243537E-01
       -1   -1    0    0    0  501  0.00000000000E+00  0.00000000000E+00  0.16826216919E+04  0.16826216920E+04  0.50400001928E-02 0. -1.
        1   -1    0    0  501    0  0.00000000000E+00  0.00000000000E+00 -0.13378052628E+04  0.13378052628E+04  0.50400001928E-02 0.  1.
    10030    2    1    2    0    0  0.00000000000E+00  0.00000000000E+00  0.34481642915E+03  0.30204269548E+04  0.30006800261E+04 0.  0.
        4    1    3    3  502    0 -0.15165648612E+03 -0.14245620114E+04  0.62103387502E+03  0.15614292494E+04  0.12699999809E+01 0. -1.
       -4    1    3    3    0  502  0.15165648612E+03  0.14245620114E+04 -0.27621744587E+03  0.14589977054E+04  0.12699999809E+01 0.  1.
</event>
<event>
 5   0  0.7278657E-07  0.3001650E+04  0.7818609E-02  0.8243260E-01
       -2   -1    0    0    0  501  0.00000000000E+00  0.00000000000E+00  0.96149208977E+03  0.96149208978E+03  0.25500000920E-02 0. -1.
        2   -1    0    0  501    0  0.00000000000E+00  0.00000000000E+00 -0.23426870552E+04  0.23426870552E+04  0.25500000920E-02 0.  1.
    10030    2    1    2    0    0  0.00000000000E+00  0.00000000000E+00 -0.13811949655E+04  0.33041791450E+04  0.30016495948E+04 0.  0.
        2    1    3    3  502    0 -0.77697372267E+03  0.53260153967E+03 -0.19767409223E+04  0.21897162464E+04  0.25500000920E-02 0.  1.
       -2    1    3    3    0  502  0.77697372267E+03 -0.53260153967E+03  0.59554595681E+03  0.11144628986E+04  0.25500000920E-02 0. -1.
</event>
<event>
 5   0  0.7399409E-07  0.2999787E+04  0.7818609E-02  0.8243792E-01
        2   -1    0    0  501    0  0.00000000000E+00  0.00000000000E+00  0.24214186808E+04  0.24214186808E+04  0.25500000920E-02 0.  1.
       -2   -1    0    0    0  501  0.00000000000E+00  0.00000000000E+00 -0.92907523702E+03  0.92907523703E+03  0.25500000920E-02 0. -1.
    10030    2    1    2    0    0  0.00000000000E+00  0.00000000000E+00  0.14923434438E+04  0.33504939178E+04  0.29997867489E+04 0.  0.
        3    1    3    3  502    0  0.69165767563E+03  0.87406320593E+03 -0.37481012344E+03  0.11759504526E+04  0.10100000352E+00 0. -1.
       -3    1    3    3    0  502 -0.69165767563E+03 -0.87406320593E+03  0.18671535672E+04  0.21745434652E+04  0.10100000352E+00 0.  1.
</event>
<event>
 5   0  0.2640081E-07  0.3001221E+04  0.7818609E-02  0.8243382E-01
       -1   -1    0    0    0  501  0.00000000000E+00  0.00000000000E+00  0.10786686379E+04  0.10786686379E+04  0.50400001928E-02 0. -1.
        1   -1    0    0  501    0  0.00000000000E+00  0.00000000000E+00 -0.20876024021E+04  0.20876024021E+04  0.50400001928E-02 0.  1.
    10030    2    1    2    0    0  0.00000000000E+00  0.00000000000E+00 -0.10089337642E+04  0.31662710400E+04  0.30012205780E+04 0.  0.
        1    1    3    3  502    0 -0.17878523822E+03  0.14680725176E+04 -0.23626131210E+03  0.14976716883E+04  0.50400001928E-02 0.  1.
       -1    1    3    3    0  502  0.17878523822E+03 -0.14680725176E+04 -0.77267245209E+03  0.16685993517E+04  0.50400001928E-02 0. -1.
</event>
<event>
 5   0  0.7585823E-07  0.3000140E+04  0.7818609E-02  0.8243691E-01
       -2   -1    0    0    0  501  0.00000000000E+00  0.00000000000E+00  0.10859196270E+04  0.10859196270E+04  0.25500000920E-02 0.  1.
        2   -1    0    0  501    0  0.00000000000E+00  0.00000000000E+00 -0.20721695037E+04  0.20721695037E+04  0.25500000920E-02 0. -1.
    10030    2    1    2    0    0  0.00000000000E+00  0.00000000000E+00 -0.98624987667E+03  0.31580891307E+04  0.30001396865E+04 0.  0.
        5    1    3    3  502    0 -0.14013739884E+04  0.72434777531E+02  0.64968395248E+02  0.14047557918E+04  0.46999998093E+01 0.  1.
       -5    1    3    3    0  502  0.14013739884E+04 -0.72434777531E+02 -0.10512182719E+04  0.17533333389E+04  0.46999998093E+01 0. -1.
</event>
<event>
 5   0  0.2792361E-07  0.3002825E+04  0.7818609E-02  0.8242925E-01
       -1   -1    0    0    0  501  0.00000000000E+00  0.00000000000E+00  0.20375033964E+04  0.20375033964E+04  0.50400001928E-02 0. -1.
        1   -1    0    0  501    0  0.00000000000E+00  0.00000000000E+00 -0.11063730483E+04  0.11063730483E+04  0.50400001928E-02 0.  1.
    10030    2    1    2    0    0  0.00000000000E+00  0.00000000000E+00  0.93113034806E+03  0.31438764447E+04  0.30028245660E+04 0.  0.
        4    1    3    3  502    0  0.48432807999E+03 -0.12871423373E+04 -0.16516823302E+03  0.13851322116E+04  0.12699999809E+01 0. -1.
       -4    1    3    3    0  502 -0.48432807999E+03  0.12871423373E+04  0.10962985811E+04  0.17587442331E+04  0.12699999809E+01 0.  1.
</event>
<event>
 5   0  0.2602891E-07  0.2996100E+04  0.7818609E-02  0.8244845E-01
        1   -1    0    0  501    0  0.00000000000E+00  0.00000000000E+00  0.18029890026E+04  0.18029890026E+04  0.50400001928E-02 0.  1.
       -1   -1    0    0    0  501  0.00000000000E+00  0.00000000000E+00 -0.12446851655E+04  0.12446851655E+04  0.50400001928E-02 0. -1.
    10030    2    1    2    0    0  0.00000000000E+00  0.00000000000E+00  0.55830383706E+03  0.30476741681E+04  0.29960999083E+04 0.  0.
        5    1    3    3  502    0  0.34603465606E+02  0.12381004184E+04 -0.57799272999E+03  0.13668166417E+04  0.46999998093E+01 0. -1.
       -5    1    3    3    0  502 -0.34603465606E+02 -0.12381004184E+04  0.11362965670E+04  0.16808575265E+04  0.46999998093E+01 0.  1.
</event>
<event>
 5   0  0.7278657E-07  0.3001840E+04  0.7818609E-02  0.8243206E-01
        2   -1    0    0  501    0  0.00000000000E+00  0.00000000000E+00  0.12510352264E+04  0.12510352264E+04  0.25500000920E-02 0. -1.
       -2   -1    0    0    0  501  0.00000000000E+00  0.00000000000E+00 -0.18007171384E+04  0.18007171384E+04  0.25500000920E-02 0.  1.
    10030    2    1    2    0    0  0.00000000000E+00  0.00000000000E+00 -0.54968191197E+03  0.30517523648E+04  0.30018398178E+04 0.  0.
        2    1    3    3  502    0  0.69305184867E+02  0.23586698651E+03 -0.17801100945E+04  0.17970053958E+04  0.25500000920E-02 0.  1.
       -2    1    3    3    0  502 -0.69305184867E+02 -0.23586698651E+03  0.12304281825E+04  0.12547469690E+04  0.25500000920E-02 0. -1.
</event>
<event>
 5   0  0.2640081E-07  0.2996188E+04  0.7818609E-02  0.8244820E-01
       -1   -1    0    0    0  501  0.00000000000E+00  0.00000000000E+00  0.18561371188E+04  0.18561371188E+04  0.50400001928E-02 0.  1.
        1   -1    0    0  501    0  0.00000000000E+00  0.00000000000E+00 -0.12091159066E+04  0.12091159066E+04  0.50400001928E-02 0. -1.
    10030    2    1    2    0    0  0.00000000000E+00  0.00000000000E+00  0.64702121218E+03  0.30652530254E+04  0.29961875210E+04 0.  0.
        1    1    3    3  502    0 -0.63865375105E+03 -0.10968118007E+04 -0.49070581460E+03  0.13607596909E+04  0.50400001928E-02 0. -1.
       -1    1    3    3    0  502  0.63865375105E+03  0.10968118007E+04  0.11377270268E+04  0.17044933345E+04  0.50400001928E-02 0.  1.
</event>
<event>
 5   0  0.2679935E-07  0.2996902E+04  0.7818609E-02  0.8244616E-01
       -1   -1    0    0    0  501  0.00000000000E+00  0.00000000000E+00  0.10673810613E+04  0.10673810613E+04  0.50400001928E-02 0.  1.
        1   -1    0    0  501    0  0.00000000000E+00  0.00000000000E+00 -0.21036118259E+04  0.21036118259E+04  0.50400001928E-02 0. -1.
    10030    2    1    2    0    0  0.00000000000E+00  0.00000000000E+00 -0.10362307646E+04  0.31709928872E+04  0.29969020160E+04 0.  0.
        2    1    3    3  502    0  0.13429813108E+04  0.81697699704E+02  0.17980894409E+03  0.13574257150E+04  0.25500000920E-02 0.  1.
       -2    1    3    3    0  502 -0.13429813108E+04 -0.81697699704E+02 -0.12160397087E+04  0.18135671723E+04  0.25500000920E-02 0. -1.
</event>
<event>
 5   0  0.7585823E-07  0.2997635E+04  0.7818609E-02  0.8244407E-01
       -2   -1    0    0    0  501  0.00000000000E+00  0.00000000000E+00  0.11610427448E+04  0.11610427449E+04  0.25500000920E-02 0. -1.
        2   -1    0    0  501    0  0.00000000000E+00  0.00000000000E+00 -0.19348585156E+04  0.19348585156E+04  0.25500000920E-02 0.  1.
    10030    2    1    2    0    0  0.00000000000E+00  0.00000000000E+00 -0.77381577076E+03  0.30959012605E+04  0.29976346955E+04 0.  0.
        5    1    3    3  502    0 -0.45515435171E+03 -0.97254437964E+03  0.69303939678E+03  0.12780194638E+04  0.46999998093E+01 0. -1.
       -5    1    3    3    0  502  0.45515435171E+03  0.97254437964E+03 -0.14668551675E+04  0.18178817967E+04  0.46999998093E+01 0.  1.
</event>
<event>
 5   0  0.7208273E-07  0.3002172E+04  0.7818609E-02  0.8243111E-01
        2   -1    0    0  501    0  0.00000000000E+00  0.00000000000E+00  0.14179465758E+04  0.14179465758E+04  0.25500000920E-02 0.  1.
       -2   -1    0    0    0  501  0.00000000000E+00  0.00000000000E+00 -0.15890999232E+04  0.15890999232E+04  0.25500000920E-02 0. -1.
    10030    2    1    2    0    0  0.00000000000E+00  0.00000000000E+00 -0.17115334736E+03  0.30070464990E+04  0.30021717437E+04 0.  0.
        4    1    3    3  502    0 -0.25454346606E+03 -0.42528837969E+03 -0.15047734635E+04  0.15843002781E+04  0.12699999809E+01 0. -1.
       -4    1    3    3    0  502  0.25454346606E+03  0.42528837969E+03  0.13336201161E+04  0.14227462209E+04  0.12699999809E+01 0.  1.
</event>
<event>
 5   0  0.2679935E-07  0.2991097E+04  0.7818609E-02  0.8246278E-01
        1   -1    0    0  501    0  0.00000000000E+00  0.00000000000E+00  0.10492265480E+04  0.10492265480E+04  0.50400001928E-02 0.  1.
       -1   -1    0    0    0  501  0.00000000000E+00  0.00000000000E+00 -0.21317277118E+04  0.21317277118E+04  0.50400001928E-02 0. -1.
    10030    2    1    2    0    0  0.00000000000E+00  0.00000000000E+00 -0.10825011638E+04  0.31809542598E+04  0.29910969950E+04 0.  0.
        2    1    3    3  502    0 -0.55780257750E+03 -0.13673869149E+04 -0.29009361519E+03  0.15050066432E+04  0.25500000920E-02 0.  1.
       -2    1    3    3    0  502  0.55780257750E+03  0.13673869149E+04 -0.79240754863E+03  0.16759476166E+04  0.25500000920E-02 0. -1.
</event>
<event>
 5   0  0.2621825E-07  0.2998724E+04  0.7818609E-02  0.8244095E-01
       -1   -1    0    0    0  501  0.00000000000E+00  0.00000000000E+00  0.16357747645E+04  0.16357747645E+04  0.50400001928E-02 0.  1.
        1   -1    0    0  501    0  0.00000000000E+00  0.00000000000E+00 -0.13743251219E+04  0.13743251219E+04  0.50400001928E-02 0. -1.
    10030    2    1    2    0    0  0.00000000000E+00  0.00000000000E+00  0.26144964263E+03  0.30100998864E+04  0.29987239637E+04 0.  0.
        3    1    3    3  502    0  0.13410191296E+04 -0.60909939088E+03  0.41241721911E+03  0.15295170305E+04  0.10100000352E+00 0.  1.
       -3    1    3    3    0  502 -0.13410191296E+04  0.60909939088E+03 -0.15096757648E+03  0.14805828559E+04  0.10100000352E+00 0. -1.
</event>
<event>
 5   0  0.2679935E-07  0.3001809E+04  0.7818609E-02  0.8243215E-01
       -1   -1    0    0    0  501  0.00000000000E+00  0.00000000000E+00  0.15890161998E+04  0.15890161998E+04  0.50400001928E-02 0. -1.
        1   -1    0    0  501    0  0.00000000000E+00  0.00000000000E+00 -0.14176785979E+04  0.14176785980E+04  0.50400001928E-02 0.  1.
    10030    2    1    2    0    0  0.00000000000E+00  0.00000000000E+00  0.17133760188E+03  0.30066947978E+04  0.30018089602E+04 0.  0.
        2    1    3    3  502    0 -0.46388735090E+02 -0.21193208051E+03 -0.14018905894E+04  0.14185782834E+04  0.25500000920E-02 0.  1.
       -2    1    3    3    0  502  0.46388735090E+02  0.21193208051E+03  0.15732281913E+04  0.15881165144E+04  0.25500000920E-02 0. -1.
</event>
<event>
 5   0  0.7399409E-07  0.2993157E+04  0.7818609E-02  0.8245687E-01
        2   -1    0    0  501    0  0.00000000000E+00  0.00000000000E+00  0.17539223270E+04  0.17539223270E+04  0.25500000920E-02 0. -1.
       -2   -1    0    0    0  501  0.00000000000E+00  0.00000000000E+00 -0.12769938078E+04  0.12769938078E+04  0.25500000920E-02 0.  1.
    10030    2    1    2    0    0  0.00000000000E+00  0.00000000000E+00  0.47692851923E+03  0.30309161348E+04  0.29931574973E+04 0.  0.
        3    1    3    3  502    0 -0.34553073629E+03  0.11866938016E+04  0.10929782844E+04  0.16499197583E+04  0.10100000352E+00 0. -1.
       -3    1    3    3    0  502  0.34553073629E+03 -0.11866938016E+04 -0.61604976519E+03  0.13809963765E+04  0.10100000352E+00 0.  1.
</event>
<event>
 5   0  0.2414250E-07  0.3004281E+04  0.7818609E-02  0.8242510E-01
       -3   -1    0    0    0  501  0.00000000000E+00  0.00000000000E+00  0.14928305193E+04  0.14928305227E+04  0.10100000352E+00 0.  1.
        3   -1    0    0  501    0  0.00000000000E+00  0.00000000000E+00 -0.15115084207E+04  0.15115084241E+04  0.10100000352E+00 0. -1.
    10030    2    1    2    0    0  0.00000000000E+00  0.00000000000E+00 -0.18677901432E+02  0.30043389468E+04  0.30042808862E+04 0.  0.
        4    1    3    3  502    0 -0.98158666663E+03 -0.71234634012E+03 -0.89562613099E+03  0.15076794990E+04  0.12699999809E+01 0. -1.
       -4    1    3    3    0  502  0.98158666663E+03  0.71234634012E+03  0.87694822956E+03  0.14966594478E+04  0.12699999809E+01 0.  1.
</event>
<event>
 5   0  0.2792361E-07  0.3004643E+04  0.7818609E-02  0.8242406E-01
       -1   -1    0    0    0  501  0.00000000000E+00  0.00000000000E+00  0.14642510393E+04  0.14642510393E+04  0.50400001928E-02 0.  1.
        1   -1    0    0  501    0  0.00000000000E+00  0.00000000000E+00 -0.15413821972E+04  0.15413821972E+04  0.50400001928E-02 0. -1.
    10030    2    1    2    0    0  0.00000000000E+00  0.00000000000E+00 -0.77131157963E+02  0.30056332365E+04  0.30046433960E+04 0.  0.
        4    1    3    3  502    0  0.13675936445E+04  0.60716605210E+03 -0.17279577539E+03  0.15062612603E+04  0.12699999809E+01 0. -1.
       -4    1    3    3    0  502 -0.13675936445E+04 -0.60716605210E+03  0.95664617426E+02  0.14993719763E+04  0.12699999809E+01 0.  1.
</event>
<event>
 5   0  0.2621825E-07  0.3001807E+04  0.7818609E-02  0.8243215E-01
        1   -1    0    0  501    0  0.00000000000E+00  0.00000000000E+00  0.22559591093E+04  0.22559591093E+04  0.50400001928E-02 0.  1.
       -1   -1    0    0    0  501  0.00000000000E+00  0.00000000000E+00 -0.99856054769E+03  0.99856054770E+03  0.50400001928E-02 0. -1.
    10030    2    1    2    0    0  0.00000000000E+00  0.00000000000E+00  0.12573985616E+04  0.32545196570E+04  0.30018072981E+04 0.  0.
        3    1    3    3  502    0 -0.23266528912E+03 -0.77695947369E+03 -0.74051850983E+03  0.10982562698E+04  0.10100000352E+00 0. -1.
       -3    1    3    3    0  502  0.23266528912E+03  0.77695947369E+03  0.19979170715E+04  0.21562633872E+04  0.10100000352E+00 0.  1.
</event>
<event>
 5   0  0.7307508E-07  0.2997534E+04  0.7818609E-02  0.8244435E-01
       -2   -1    0    0    0  501  0.00000000000E+00  0.00000000000E+00  0.16673315226E+04  0.16673315226E+04  0.25500000920E-02 0. -1.
        2   -1    0    0  501    0  0.00000000000E+00  0.00000000000E+00 -0.13472444926E+04  0.13472444926E+04  0.25500000920E-02 0.  1.
    10030    2    1    2    0    0  0.00000000000E+00  0.00000000000E+00  0.32008703004E+03  0.30145760151E+04  0.29975344609E+04 0.  0.
        1    1    3    3  502    0 -0.18603581686E+03 -0.69460207192E+03 -0.11624313049E+04  0.13668679169E+04  0.50400001928E-02 0.  1.
       -1    1    3    3    0  502  0.18603581686E+03  0.69460207192E+03  0.14825183350E+04  0.16477080983E+04  0.50400001928E-02 0. -1.
</event>
<event>
 5   0  0.2640081E-07  0.3025398E+04  0.7818609E-02  0.8236515E-01
       -1   -1    0    0    0  501  0.00000000000E+00  0.00000000000E+00  0.73709021496E+03  0.73709021497E+03  0.50400001928E-02 0. -1.
        1   -1    0    0  501    0  0.00000000000E+00  0.00000000000E+00 -0.31044485114E+04  0.31044485114E+04  0.50400001928E-02 0.  1.
    10030    2    1    2    0    0  0.00000000000E+00  0.00000000000E+00 -0.23673582964E+04  0.38415387263E+04  0.30253982353E+04 0.  0.
        1    1    3    3  502    0  0.54961843502E+03  0.13916521863E+04 -0.14661333208E+04  0.20948324865E+04  0.50400001928E-02 0. -1.
       -1    1    3    3    0  502 -0.54961843502E+03 -0.13916521863E+04 -0.90122497556E+03  0.17467062399E+04  0.50400001928E-02 0.  1.
</event>
<event>
 5   0  0.7399409E-07  0.2998525E+04  0.7818609E-02  0.8244152E-01
       -2   -1    0    0    0  501  0.00000000000E+00  0.00000000000E+00  0.83151468248E+03  0.83151468249E+03  0.25500000920E-02 0. -1.
        2   -1    0    0  501    0  0.00000000000E+00  0.00000000000E+00 -0.27032443554E+04  0.27032443554E+04  0.25500000920E-02 0.  1.
    10030    2    1    2    0    0  0.00000000000E+00  0.00000000000E+00 -0.18717296729E+04  0.35347590379E+04  0.29985245517E+04 0.  0.
        3    1    3    3  502    0  0.10449382233E+04  0.61001088822E+02  0.32948481462E+03  0.10973501158E+04  0.10100000352E+00 0. -1.
       -3    1    3    3    0  502 -0.10449382233E+04 -0.61001088822E+02 -0.22012144875E+04  0.24374089221E+04  0.10100000352E+00 0.  1.
</event>
<event>
 5   0  0.7399409E-07  0.3004473E+04  0.7818609E-02  0.8242455E-01
        2   -1    0    0  501    0  0.00000000000E+00  0.00000000000E+00  0.11555723171E+04  0.11555723171E+04  0.25500000920E-02 0.  1.
       -2   -1    0    0    0  501  0.00000000000E+00  0.00000000000E+00 -0.19528981234E+04  0.19528981234E+04  0.25500000920E-02 0. -1.
    10030    2    1    2    0    0  0.00000000000E+00  0.00000000000E+00 -0.79732580635E+03  0.31084704405E+04  0.30044733378E+04 0.  0.
        3    1    3    3  502    0 -0.61484656929E+03 -0.37111297321E+03 -0.17637866383E+04  0.19043908365E+04  0.10100000352E+00 0. -1.
       -3    1    3    3    0  502  0.61484656929E+03  0.37111297321E+03  0.96646083196E+03  0.12040796039E+04  0.10100000352E+00 0.  1.
</event>
<event>
 5   0  0.7208273E-07  0.3001388E+04  0.7818609E-02  0.8243335E-01
        2   -1    0    0  501    0  0.00000000000E+00  0.00000000000E+00  0.16607764797E+04  0.16607764797E+04  0.25500000920E-02 0.  1.
       -2   -1    0    0    0  501  0.00000000000E+00  0.00000000000E+00 -0.13560419583E+04  0.13560419583E+04  0.25500000920E-02 0. -1.
    10030    2    1    2    0    0  0.00000000000E+00  0.00000000000E+00  0.30473452137E+03  0.30168184380E+04  0.30013880721E+04 0.  0.
        4    1    3    3  502    0 -0.45648599484E+03  0.13694282076E+04 -0.26006883403E+03  0.14667482711E+04  0.12699999809E+01 0. -1.
       -4    1    3    3    0  502  0.45648599484E+03 -0.13694282076E+04  0.56480335539E+03  0.15500701670E+04  0.12699999809E+01 0.  1.
</event>
<event>
 5   0  0.2602891E-07  0.3002397E+04  0.7818609E-02  0.8243047E-01
       -1   -1    0    0    0  501  0.00000000000E+00  0.00000000000E+00  0.16846606800E+04  0.16846606800E+04  0.50400001928E-02 0.  1.
        1   -1    0    0  501    0  0.00000000000E+00  0.00000000000E+00 -0.13377160325E+04  0.13377160325E+04  0.50400001928E-02 0. -1.
    10030    2    1    2    0    0  0.00000000000E+00  0.00000000000E+00  0.34694464748E+03  0.30223767125E+04  0.30023974427E+04 0.  0.
        5    1    3    3  502    0  0.13353147268E+04  0.64477242500E+03  0.40907809379E+03  0.15382340123E+04  0.46999998093E+01 0.  1.
       -5    1    3    3    0  502 -0.13353147268E+04 -0.64477242500E+03 -0.62133446307E+02  0.14841427003E+04  0.46999998093E+01 0. -1.
</event>
<event>
 5   0  0.7208273E-07  0.2979186E+04  0.7818609E-02  0.8249700E-01
       -2   -1    0    0    0  501  0.00000000000E+00  0.00000000000E+00  0.16489278786E+04  0.16489278786E+04  0.25500000920E-02 0.  1.
        2   -1    0    0  501    0  0.00000000000E+00  0.00000000000E+00 -0.13456542555E+04  0.13456542555E+04  0.25500000920E-02 0. -1.
    10030    2    1    2    0    0  0.00000000000E+00  0.00000000000E+00  0.30327362316E+03  0.29945821341E+04  0.29791856719E+04 0.  0.
        4    1    3    3  502    0  0.63730101583E+03 -0.13245784571E+04  0.39418143695E+03  0.15218545567E+04  0.12699999809E+01 0.  1.
       -4    1    3    3    0  502 -0.63730101583E+03  0.13245784571E+04 -0.90907813796E+02  0.14727275774E+04  0.12699999809E+01 0. -1.
</event>
<event>
 5   0  0.2602891E-07  0.3021910E+04  0.7818609E-02  0.8237502E-01
        1   -1    0    0  501    0  0.00000000000E+00  0.00000000000E+00  0.18599509442E+04  0.18599509442E+04  0.50400001928E-02 0.  1.
       -1   -1    0    0    0  501  0.00000000000E+00  0.00000000000E+00 -0.12274435552E+04  0.12274435552E+04  0.50400001928E-02 0. -1.
    10030    2    1    2    0    0  0.00000000000E+00  0.00000000000E+00  0.63250738905E+03  0.30873944994E+04  0.30219098593E+04 0.  0.
        5    1    3    3  502    0 -0.93226197636E+03 -0.73705537618E+03  0.12695323618E+04  0.17389932512E+04  0.46999998093E+01 0.  1.
       -5    1    3    3    0  502  0.93226197636E+03  0.73705537618E+03 -0.63702497275E+03  0.13484012482E+04  0.46999998093E+01 0. -1.
</event>
<event>
 5   0  0.7307508E-07  0.3001753E+04  0.7818609E-02  0.8243230E-01
       -2   -1    0    0    0  501  0.00000000000E+00  0.00000000000E+00  0.13646589500E+04  0.13646589500E+04  0.25500000920E-02 0.  1.
        2   -1    0    0  501    0  0.00000000000E+00  0.00000000000E+00 -0.16506913705E+04  0.16506913705E+04  0.25500000920E-02 0. -1.
    10030    2    1    2    0    0  0.00000000000E+00  0.00000000000E+00 -0.28603242046E+03  0.30153503205E+04  0.30017533227E+04 0.  0.
        1    1    3    3  502    0 -0.11157007399E+04  0.94979279002E+03 -0.46966026879E+03  0.15386602137E+04  0.50400001928E-02 0. -1.
       -1    1    3    3    0  502  0.11157007399E+04 -0.94979279002E+03  0.18362784834E+03  0.14766901069E+04  0.50400001928E-02 0.  1.
</event>
<event>
 5   0  0.2679935E-07  0.3015705E+04  0.7818609E-02  0.8239260E-01
       -1   -1    0    0    0  501  0.00000000000E+00  0.00000000000E+00  0.14908324327E+04  0.14908324327E+04  0.50400001928E-02 0.  1.
        1   -1    0    0  501    0  0.00000000000E+00  0.00000000000E+00 -0.15250671504E+04  0.15250671504E+04  0.50400001928E-02 0. -1.
    10030    2    1    2    0    0  0.00000000000E+00  0.00000000000E+00 -0.34234717657E+02  0.30158995831E+04  0.30157052707E+04 0.  0.
        2    1    3    3  502    0 -0.27738184121E+03 -0.12848847651E+04  0.72167920045E+03  0.14995634077E+04  0.25500000920E-02 0.  1.
       -2    1    3    3    0  502  0.27738184121E+03  0.12848847651E+04 -0.75591391811E+03  0.15163361754E+04  0.25500000920E-02 0. -1.
</event>
<event>
 5   0  0.7585823E-07  0.3000448E+04  0.7818609E-02  0.8243603E-01
       -2   -1    0    0    0  501  0.00000000000E+00  0.00000000000E+00  0.13342134924E+04  0.13342134924E+04  0.25500000920E-02 0. -1.
        2   -1    0    0  501    0  0.00000000000E+00  0.00000000000E+00 -0.16868908325E+04  0.16868908325E+04  0.25500000920E-02 0.  1.
    10030    2    1    2    0    0  0.00000000000E+00  0.00000000000E+00 -0.35267734012E+03  0.30211043250E+04  0.30004483058E+04 0.  0.
        5    1    3    3  502    0 -0.12840717609E+04 -0.76374013100E+03 -0.39346354465E+02  0.14945599688E+04  0.46999998093E+01 0.  1.
       -5    1    3    3    0  502  0.12840717609E+04  0.76374013100E+03 -0.31333098566E+03  0.15265443562E+04  0.46999998093E+01 0. -1.
</event>
<event>
 5   0  0.2621825E-07  0.3050925E+04  0.7818609E-02  0.8229337E-01
        1   -1    0    0  501    0  0.00000000000E+00  0.00000000000E+00  0.25390169723E+04  0.25390169723E+04  0.50400001928E-02 0. -1.
       -1   -1    0    0    0  501  0.00000000000E+00  0.00000000000E+00 -0.91651072549E+03  0.91651072551E+03  0.50400001928E-02 0.  1.
    10030    2    1    2    0    0  0.00000000000E+00  0.00000000000E+00  0.16225062468E+04  0.34555276978E+04  0.30509252940E+04 0.  0.
        3    1    3    3  502    0 -0.93089595423E+02  0.33121568440E+03  0.24945003360E+04  0.25181146596E+04  0.10100000352E+00 0. -1.
       -3    1    3    3    0  502  0.93089595423E+02 -0.33121568440E+03 -0.87199408921E+03  0.93741303820E+03  0.10100000352E+00 0.  1.
</event>
<event>
 5   0  0.2621825E-07  0.3001554E+04  0.7818609E-02  0.8243287E-01
        1   -1    0    0  501    0  0.00000000000E+00  0.00000000000E+00  0.21902518384E+04  0.21902518384E+04  0.50400001928E-02 0.  1.
       -1   -1    0    0    0  501  0.00000000000E+00  0.00000000000E+00 -0.10283437662E+04  0.10283437663E+04  0.50400001928E-02 0. -1.
    10030    2    1    2    0    0  0.00000000000E+00  0.00000000000E+00  0.11619080721E+04  0.32185956046E+04  0.30015541471E+04 0.  0.
        3    1    3    3  502    0 -0.41947395263E+03 -0.51939105226E+03 -0.86033803687E+03  0.10889935766E+04  0.10100000352E+00 0. -1.
       -3    1    3    3    0  502  0.41947395263E+03  0.51939105226E+03  0.20222461090E+04  0.21296020280E+04  0.10100000352E+00 0.  1.
</event>
<event>
 5   0  0.2414250E-07  0.3000796E+04  0.7818609E-02  0.8243503E-01
        3   -1    0    0  501    0  0.00000000000E+00  0.00000000000E+00  0.18195264742E+04  0.18195264770E+04  0.10100000352E+00 0.  1.
       -3   -1    0    0    0  501  0.00000000000E+00  0.00000000000E+00 -0.12372421136E+04  0.12372421177E+04  0.10100000352E+00 0. -1.
    10030    2    1    2    0    0  0.00000000000E+00  0.00000000000E+00  0.58228436057E+03  0.30567685947E+04  0.30007964218E+04 0.  0.
        5    1    3    3  502    0 -0.47516527934E+03  0.10970737729E+04  0.12145941850E+04  0.17042928241E+04  0.46999998093E+01 0.  1.
       -5    1    3    3    0  502  0.47516527934E+03 -0.10970737729E+04 -0.63230982447E+03  0.13524757706E+04  0.46999998093E+01 0. -1.
</event>
<event>
 5   0  0.2621825E-07  0.3007200E+04  0.7818609E-02  0.8241678E-01
       -1   -1    0    0    0  501  0.00000000000E+00  0.00000000000E+00  0.13394508101E+04  0.13394508101E+04  0.50400001928E-02 0. -1.
        1   -1    0    0  501    0  0.00000000000E+00  0.00000000000E+00 -0.16878653487E+04  0.16878653487E+04  0.50400001928E-02 0.  1.
    10030    2    1    2    0    0  0.00000000000E+00  0.00000000000E+00 -0.34841453860E+03  0.30273161588E+04  0.30071997663E+04 0.  0.
        3    1    3    3  502    0 -0.68019182434E+03 -0.94416550130E+03  0.78437208523E+03  0.14033349529E+04  0.10100000352E+00 0. -1.
       -3    1    3    3    0  502  0.68019182434E+03  0.94416550130E+03 -0.11327866238E+04  0.16239812059E+04  0.10100000352E+00 0.  1.
</event>
<event>
 5   0  0.2679935E-07  0.3008300E+04  0.7818609E-02  0.8241365E-01
       -1   -1    0    0    0  501  0.00000000000E+00  0.00000000000E+00  0.12423063097E+04  0.12423063097E+04  0.50400001928E-02 0. -1.
        1   -1    0    0  501    0  0.00000000000E+00  0.00000000000E+00 -0.18211830238E+04  0.18211830238E+04  0.50400001928E-02 0.  1.
    10030    2    1    2    0    0  0.00000000000E+00  0.00000000000E+00 -0.57887671412E+03  0.30634893335E+04  0.30082999595E+04 0.  0.
        2    1    3    3  502    0  0.10828515084E+04 -0.10352813847E+04 -0.42641333735E+03  0.15576274487E+04  0.25500000920E-02 0. -1.
       -2    1    3    3    0  502 -0.10828515084E+04  0.10352813847E+04 -0.15246337677E+03  0.15058618848E+04  0.25500000920E-02 0.  1.
</event>
<event>
 5   0  0.2602891E-07  0.3031224E+04  0.7818609E-02  0.8234871E-01
       -1   -1    0    0    0  501  0.00000000000E+00  0.00000000000E+00  0.14993977824E+04  0.14993977824E+04  0.50400001928E-02 0.  1.
        1   -1    0    0  501    0  0.00000000000E+00  0.00000000000E+00 -0.15320014722E+04  0.15320014722E+04  0.50400001928E-02 0. -1.
    10030    2    1    2    0    0  0.00000000000E+00  0.00000000000E+00 -0.32603689849E+02  0.30313992546E+04  0.30312239179E+04 0.  0.
        5    1    3    3  502    0  0.48468971232E+03  0.14087995653E+04 -0.29455738256E+03  0.15186923566E+04  0.46999998093E+01 0. -1.
       -5    1    3    3    0  502 -0.48468971232E+03 -0.14087995653E+04  0.26195369271E+03  0.15127068981E+04  0.46999998093E+01 0.  1.
</event>
<event>
 5   0  0.7585823E-07  0.3001835E+04  0.7818609E-02  0.8243207E-01
        2   -1    0    0  501    0  0.00000000000E+00  0.00000000000E+00  0.13866493136E+04  0.13866493136E+04  0.25500000920E-02 0.  1.
       -2   -1    0    0    0  501  0.00000000000E+00  0.00000000000E+00 -0.16246020011E+04  0.16246020011E+04  0.25500000920E-02 0. -1.
    10030    2    1    2    0    0  0.00000000000E+00  0.00000000000E+00 -0.23795268752E+03  0.30112513148E+04  0.30018349387E+04 0.  0.
        5    1    3    3  502    0  0.40953485809E+03 -0.11049584947E+04  0.81349810663E+03  0.14319404089E+04  0.46999998093E+01 0.  1.
       -5    1    3    3    0  502 -0.40953485809E+03  0.11049584947E+04 -0.10514507941E+04  0.15793109059E+04  0.46999998093E+01 0. -1.
</event>
<event>
 5   0  0.2414250E-07  0.3001089E+04  0.7818609E-02  0.8243420E-01
       -3   -1    0    0    0  501  0.00000000000E+00  0.00000000000E+00  0.18210098117E+04  0.18210098145E+04  0.10100000352E+00 0. -1.
        3   -1    0    0  501    0  0.00000000000E+00  0.00000000000E+00 -0.12364753894E+04  0.12364753935E+04  0.10100000352E+00 0.  1.
    10030    2    1    2    0    0  0.00000000000E+00  0.00000000000E+00  0.58453442229E+03  0.30574852080E+04  0.30010890200E+04 0.  0.
        2    1    3    3  502    0 -0.64796573088E+03 -0.12663005030E+04  0.77900806543E+03  0.16217984210E+04  0.25500000920E-02 0. -1.
       -2    1    3    3    0  502  0.64796573088E+03  0.12663005030E+04 -0.19447364314E+03  0.14356867870E+04  0.25500000920E-02 0.  1.
</event>
<event>
 5   0  0.7307508E-07  0.2998893E+04  0.7818609E-02  0.8244047E-01
        2   -1    0    0  501    0  0.00000000000E+00  0.00000000000E+00  0.23686292950E+04  0.23686292950E+04  0.25500000920E-02 0.  1.
       -2   -1    0    0    0  501  0.00000000000E+00  0.00000000000E+00 -0.94921549138E+03  0.94921549138E+03  0.25500000920E-02 0. -1.
    10030    2    1    2    0    0  0.00000000000E+00  0.00000000000E+00  0.14194138036E+04  0.33178447864E+04  0.29988928758E+04 0.  0.
        1    1    3    3  502    0 -0.66432754004E+02  0.33495684399E+03  0.23250368088E+04  0.23499799064E+04  0.50400001928E-02 0.  1.
       -1    1    3    3    0  502  0.66432754004E+02 -0.33495684399E+03 -0.90562300525E+03  0.96786487993E+03  0.50400001928E-02 0. -1.
</event>
<event>
 5   0  0.2640081E-07  0.3000961E+04  0.7818609E-02  0.8243457E-01
        1   -1    0    0  501    0  0.00000000000E+00  0.00000000000E+00  0.14330791276E+04  0.14330791276E+04  0.50400001928E-02 0. -1.
       -1   -1    0    0    0  501  0.00000000000E+00  0.00000000000E+00 -0.15710518418E+04  0.15710518418E+04  0.50400001928E-02 0.  1.
    10030    2    1    2    0    0  0.00000000000E+00  0.00000000000E+00 -0.13797271418E+03  0.30041309694E+04  0.30009609147E+04 0.  0.
        1    1    3    3  502    0 -0.87895856907E+03 -0.12090815656E+04 -0.19948972499E+03  0.15080591994E+04  0.50400001928E-02 0.  1.
       -1    1    3    3    0  502  0.87895856907E+03  0.12090815656E+04  0.61517010815E+02  0.14960717700E+04  0.50400001928E-02 0. -1.
</event>
<event>
 5   0  0.7208273E-07  0.3000685E+04  0.7818609E-02  0.8243535E-01
        2   -1    0    0  501    0  0.00000000000E+00  0.00000000000E+00  0.16034971588E+04  0.16034971588E+04  0.25500000920E-02 0. -1.
       -2   -1    0    0    0  501  0.00000000000E+00  0.00000000000E+00 -0.14038242669E+04  0.14038242669E+04  0.25500000920E-02 0.  1.
    10030    2    1    2    0    0  0.00000000000E+00  0.00000000000E+00  0.19967289192E+03  0.30073214257E+04  0.30006854040E+04 0.  0.
        4    1    3    3  502    0  0.46338630740E+03  0.36719884193E+03 -0.12821491678E+04  0.14119029573E+04  0.12699999809E+01 0.  1.
       -4    1    3    3    0  502 -0.46338630740E+03 -0.36719884193E+03  0.14818220598E+04  0.15954184683E+04  0.12699999809E+01 0. -1.
</event>
<event>
 5   0  0.7399409E-07  0.3000868E+04  0.7818609E-02  0.8243483E-01
       -2   -1    0    0    0  501  0.00000000000E+00  0.00000000000E+00  0.12936183851E+04  0.12936183851E+04  0.25500000920E-02 0. -1.
        2   -1    0    0  501    0  0.00000000000E+00  0.00000000000E+00 -0.17403139733E+04  0.17403139733E+04  0.25500000920E-02 0.  1.
    10030    2    1    2    0    0  0.00000000000E+00  0.00000000000E+00 -0.44669558826E+03  0.30339323584E+04  0.30008679756E+04 0.  0.
        3    1    3    3  502    0 -0.17620619376E+03  0.14148263434E+04 -0.69595956958E+03  0.15865503262E+04  0.10100000352E+00 0.  1.
       -3    1    3    3    0  502  0.17620619376E+03 -0.14148263434E+04  0.24926398132E+03  0.14473820323E+04  0.10100000352E+00 0. -1.
</event>
<event>
 5   0  0.2621825E-07  0.2995903E+04  0.7818609E-02  0.8244902E-01
       -1   -1    0    0    0  501  0.00000000000E+00  0.00000000000E+00  0.20702248596E+04  0.20702248596E+04  0.50400001928E-02 0.  1.
        1   -1    0    0  501    0  0.00000000000E+00  0.00000000000E+00 -0.10838720517E+04  0.10838720518E+04  0.50400001928E-02 0. -1.
    10030    2    1    2    0    0  0.00000000000E+00  0.00000000000E+00  0.98635280784E+03  0.31540969114E+04  0.29959031134E+04 0.  0.
        3    1    3    3  502    0  0.66027084379E+03 -0.13443244278E+04  0.52089337360E+03  0.15857161383E+04  0.10100000352E+00 0. -1.
       -3    1    3    3    0  502 -0.66027084379E+03  0.13443244278E+04  0.46545943424E+03  0.15683807731E+04  0.10100000352E+00 0.  1.
</event>
<event>
 5   0  0.2602891E-07  0.3007801E+04  0.7818609E-02  0.8241507E-01
       -1   -1    0    0    0  501  0.00000000000E+00  0.00000000000E+00  0.14864549791E+04  0.14864549791E+04  0.50400001928E-02 0. -1.
        1   -1    0    0  501    0  0.00000000000E+00  0.00000000000E+00 -0.15215511336E+04  0.15215511336E+04  0.50400001928E-02 0.  1.
    10030    2    1    2    0    0  0.00000000000E+00  0.00000000000E+00 -0.35096154437E+02  0.30080061127E+04  0.30078013621E+04 0.  0.
        5    1    3    3  502    0 -0.53067865311E+03 -0.11340205964E+04  0.81561884556E+03  0.14942820139E+04  0.46999998093E+01 0. -1.
       -5    1    3    3    0  502  0.53067865311E+03  0.11340205964E+04 -0.85071499999E+03  0.15137240988E+04  0.46999998093E+01 0.  1.
</event>
<event>
 5   0  0.2792361E-07  0.3000819E+04  0.7818609E-02  0.8243497E-01
        1   -1    0    0  501    0  0.00000000000E+00  0.00000000000E+00  0.10775590552E+04  0.10775590552E+04  0.50400001928E-02 0. -1.
       -1   -1    0    0    0  501  0.00000000000E+00  0.00000000000E+00 -0.20891934965E+04  0.20891934965E+04  0.50400001928E-02 0.  1.
    10030    2    1    2    0    0  0.00000000000E+00  0.00000000000E+00 -0.10116344413E+04  0.31667525517E+04  0.30008194682E+04 0.  0.
        4    1    3    3  502    0  0.30848110740E+03  0.89569765770E+02  0.10408464677E+04  0.10892870691E+04  0.12699999809E+01 0. -1.
       -4    1    3    3    0  502 -0.30848110740E+03 -0.89569765770E+02 -0.20524809090E+04  0.20774654826E+04  0.12699999809E+01 0.  1.
</event>
<event>
 5   0  0.7399409E-07  0.3025786E+04  0.7818609E-02  0.8236406E-01
       -2   -1    0    0    0  501  0.00000000000E+00  0.00000000000E+00  0.14109608153E+04  0.14109608153E+04  0.25500000920E-02 0.  1.
        2   -1    0    0  501    0  0.00000000000E+00  0.00000000000E+00 -0.16221886809E+04  0.16221886809E+04  0.25500000920E-02 0. -1.
    10030    2    1    2    0    0  0.00000000000E+00  0.00000000000E+00 -0.21122786561E+03  0.30331494962E+04  0.30257856260E+04 0.  0.
        3    1    3    3  502    0 -0.15111479130E+04 -0.59375323358E+01 -0.17818753226E+03  0.15216287576E+04  0.10100000352E+00 0. -1.
       -3    1    3    3    0  502  0.15111479130E+04  0.59375323358E+01 -0.33040333349E+02  0.15115207385E+04  0.10100000352E+00 0.  1.
</event>
<event>
 5   0  0.7278657E-07  0.3004031E+04  0.7818609E-02  0.8242581E-01
        2   -1    0    0  501    0  0.00000000000E+00  0.00000000000E+00  0.20778132706E+04  0.20778132706E+04  0.25500000920E-02 0.  1.
       -2   -1    0    0    0  501  0.00000000000E+00  0.00000000000E+00 -0.10857810027E+04  0.10857810027E+04  0.25500000920E-02 0. -1.
    10030    2    1    2    0    0  0.00000000000E+00  0.00000000000E+00  0.99203226789E+03  0.31635942732E+04  0.30040307430E+04 0.  0.
        2    1    3    3  502    0  0.11535013681E+04 -0.49697802400E+03  0.13634783554E+04  0.18538138494E+04  0.25500000920E-02 0. -1.
       -2    1    3    3    0  502 -0.11535013681E+04  0.49697802400E+03 -0.37144608752E+03  0.13097804238E+04  0.25500000920E-02 0.  1.
</event>
<event>
 5   0  0.7399409E-07  0.2994247E+04  0.7818609E-02  0.8245376E-01
        2   -1    0    0  501    0  0.00000000000E+00  0.00000000000E+00  0.11823426927E+04  0.11823426927E+04  0.25500000920E-02 0.  1.
       -2   -1    0    0    0  501  0.00000000000E+00  0.00000000000E+00 -0.18957100485E+04  0.18957100485E+04  0.25500000920E-02 0. -1.
    10030    2    1    2    0    0  0.00000000000E+00  0.00000000000E+00 -0.71336735586E+03  0.30780527412E+04  0.29942470995E+04 0.  0.
        3    1    3    3  502    0 -0.42954408041E+03  0.14334029503E+04 -0.40519318756E+03  0.15502689007E+04  0.10100000352E+00 0.  1.
       -3    1    3    3    0  502  0.42954408041E+03 -0.14334029503E+04 -0.30817416830E+03  0.15277838405E+04  0.10100000352E+00 0. -1.
</event>
<event>
 5   0  0.7278657E-07  0.3003118E+04  0.7818609E-02  0.8242841E-01
        2   -1    0    0  501    0  0.00000000000E+00  0.00000000000E+00  0.18762393170E+04  0.18762393170E+04  0.25500000920E-02 0.  1.
       -2   -1    0    0    0  501  0.00000000000E+00  0.00000000000E+00 -0.12017015850E+04  0.12017015850E+04  0.25500000920E-02 0. -1.
    10030    2    1    2    0    0  0.00000000000E+00  0.00000000000E+00  0.67453773207E+03  0.30779409020E+04  0.30031182202E+04 0.  0.
        2    1    3    3  502    0  0.11756677919E+04  0.60009582645E+03 -0.39636554889E+03  0.13781928045E+04  0.25500000920E-02 0. -1.
       -2    1    3    3    0  502 -0.11756677919E+04 -0.60009582645E+03  0.10709032810E+04  0.16997480975E+04  0.25500000920E-02 0.  1.
</event>
<event>
 5   0  0.7399409E-07  0.3000722E+04  0.7818609E-02  0.8243525E-01
       -2   -1    0    0    0  501  0.00000000000E+00  0.00000000000E+00  0.13666582948E+04  0.13666582948E+04  0.25500000920E-02 0. -1.
        2   -1    0    0  501    0  0.00000000000E+00  0.00000000000E+00 -0.16471439737E+04  0.16471439737E+04  0.25500000920E-02 0.  1.
    10030    2    1    2    0    0  0.00000000000E+00  0.00000000000E+00 -0.28048567884E+03  0.30138022685E+04  0.30007218961E+04 0.  0.
        3    1    3    3  502    0 -0.29089465115E+03 -0.14468233762E+04 -0.41191293600E+03  0.15321846680E+04  0.10100000352E+00 0.  1.
       -3    1    3    3    0  502  0.29089465115E+03  0.14468233762E+04  0.13142725716E+03  0.14816176005E+04  0.10100000352E+00 0. -1.
</event>
<event>
 5   0  0.7585823E-07  0.2983073E+04  0.7818609E-02  0.8248581E-01
        2   -1    0    0  501    0  0.00000000000E+00  0.00000000000E+00  0.21473789576E+04  0.21473789576E+04  0.25500000920E-02 0.  1.
       -2   -1    0    0    0  501  0.00000000000E+00  0.00000000000E+00 -0.10359985477E+04  0.10359985477E+04  0.25500000920E-02 0. -1.
    10030    2    1    2    0    0  0.00000000000E+00  0.00000000000E+00  0.11113804100E+04  0.31833775053E+04  0.29830732351E+04 0.  0.
        5    1    3    3  502    0 -0.67331304142E+03 -0.13235546492E+04  0.70475512751E+03  0.16437302823E+04  0.46999998093E+01 0. -1.
       -5    1    3    3    0  502  0.67331304142E+03  0.13235546492E+04  0.40662528244E+03  0.15396472230E+04  0.46999998093E+01 0.  1.
</event>
<event>
 5   0  0.7208273E-07  0.3001581E+04  0.7818609E-02  0.8243280E-01
        2   -1    0    0  501    0  0.00000000000E+00  0.00000000000E+00  0.23264637774E+04  0.23264637774E+04  0.25500000920E-02 0. -1.
       -2   -1    0    0    0  501  0.00000000000E+00  0.00000000000E+00 -0.96815268825E+03  0.96815268825E+03  0.25500000920E-02 0.  1.
    10030    2    1    2    0    0  0.00000000000E+00  0.00000000000E+00  0.13583110892E+04  0.32946164657E+04  0.30015810235E+04 0.  0.
        4    1    3    3  502    0 -0.54731765266E+03 -0.70035845317E+03 -0.64816192761E+03  0.11000791213E+04  0.12699999809E+01 0.  1.
       -4    1    3    3    0  502  0.54731765266E+03  0.70035845317E+03  0.20064730168E+04  0.21945373444E+04  0.12699999809E+01 0. -1.
</event>
<event>
 5   0  0.7208273E-07  0.2996505E+04  0.7818609E-02  0.8244730E-01
        2   -1    0    0  501    0  0.00000000000E+00  0.00000000000E+00  0.14517318811E+04  0.14517318811E+04  0.25500000920E-02 0.  1.
       -2   -1    0    0    0  501  0.00000000000E+00  0.00000000000E+00 -0.15462638819E+04  0.15462638819E+04  0.25500000920E-02 0. -1.
    10030    2    1    2    0    0  0.00000000000E+00  0.00000000000E+00 -0.94532000824E+02  0.29979957630E+04  0.29965050135E+04 0.  0.
        4    1    3    3  502    0 -0.67628015203E+03  0.83374328993E+01  0.12903114480E+04  0.14568217470E+04  0.12699999809E+01 0.  1.
       -4    1    3    3    0  502  0.67628015203E+03 -0.83374328993E+01 -0.13848434489E+04  0.15411740160E+04  0.12699999809E+01 0. -1.
</event>
<event>
 5   0  0.2640081E-07  0.3001615E+04  0.7818609E-02  0.8243270E-01
        1   -1    0    0  501    0  0.00000000000E+00  0.00000000000E+00  0.23158752478E+04  0.23158752478E+04  0.50400001928E-02 0.  1.
       -1   -1    0    0    0  501  0.00000000000E+00  0.00000000000E+00 -0.97260146744E+03  0.97260146746E+03  0.50400001928E-02 0. -1.
    10030    2    1    2    0    0  0.00000000000E+00  0.00000000000E+00  0.13432737804E+04  0.32884767153E+04  0.30016153414E+04 0.  0.
        1    1    3    3  502    0 -0.20552698477E+03 -0.14598860941E+04  0.97940192763E+03  0.17699539217E+04  0.50400001928E-02 0.  1.
       -1    1    3    3    0  502  0.20552698477E+03  0.14598860941E+04  0.36387185273E+03  0.15185227935E+04  0.50400001928E-02 0. -1.
</event>
<event>
 5   0  0.7278657E-07  0.2999569E+04  0.7818609E-02  0.8243854E-01
        2   -1    0    0  501    0  0.00000000000E+00  0.00000000000E+00  0.17956757012E+04  0.17956757013E+04  0.25500000920E-02 0.  1.
       -2   -1    0    0    0  501  0.00000000000E+00  0.00000000000E+00 -0.12526499297E+04  0.12526499297E+04  0.25500000920E-02 0. -1.
    10030    2    1    2    0    0  0.00000000000E+00  0.00000000000E+00  0.54302577158E+03  0.30483256309E+04  0.29995686629E+04 0.  0.
        2    1    3    3  502    0 -0.94254962165E+03 -0.98782738673E+03  0.90220539570E+03  0.16365137675E+04  0.25500000920E-02 0.  1.
       -2    1    3    3    0  502  0.94254962165E+03  0.98782738673E+03 -0.35917962413E+03  0.14118118634E+04  0.25500000920E-02 0. -1.
</event>
<event>
 5   0  0.2602891E-07  0.2998401E+04  0.7818609E-02  0.8244188E-01
       -1   -1    0    0    0  501  0.00000000000E+00  0.00000000000E+00  0.15217338377E+04  0.15217338377E+04  0.50400001928E-02 0.  1.
        1   -1    0    0  501    0  0.00000000000E+00  0.00000000000E+00 -0.14770011667E+04  0.14770011667E+04  0.50400001928E-02 0. -1.
    10030    2    1    2    0    0  0.00000000000E+00  0.00000000000E+00  0.44732670994E+02  0.29987350044E+04  0.29984013432E+04 0.  0.
        5    1    3    3  502    0 -0.14120486964E+04  0.33067866118E+03  0.40234369548E+03  0.15050356930E+04  0.46999998093E+01 0. -1.
       -5    1    3    3    0  502  0.14120486964E+04 -0.33067866118E+03 -0.35761102448E+03  0.14936993114E+04  0.46999998093E+01 0.  1.
</event>
<event>
 5   0  0.2640081E-07  0.2998591E+04  0.7818609E-02  0.8244133E-01
        1   -1    0    0  501    0  0.00000000000E+00  0.00000000000E+00  0.13503296092E+04  0.13503296092E+04  0.50400001928E-02 0. -1.
       -1   -1    0    0    0  501  0.00000000000E+00  0.00000000000E+00 -0.16646947392E+04  0.16646947392E+04  0.50400001928E-02 0.  1.
    10030    2    1    2    0    0  0.00000000000E+00  0.00000000000E+00 -0.31436512999E+03  0.30150243484E+04  0.29985907334E+04 0.  0.
        1    1    3    3  502    0 -0.98677454429E+03  0.10877157127E+04 -0.46055973311E+03  0.15391441585E+04  0.50400001928E-02 0. -1.
       -1    1    3    3    0  502  0.98677454429E+03 -0.10877157127E+04  0.14619460312E+03  0.14758801899E+04  0.50400001928E-02 0.  1.
</event>
<event>
 5   0  0.2602891E-07  0.2996105E+04  0.7818609E-02  0.8244844E-01
        1   -1    0    0  501    0  0.00000000000E+00  0.00000000000E+00  0.15913418548E+04  0.15913418548E+04  0.50400001928E-02 0.  1.
       -1   -1    0    0    0  501  0.00000000000E+00  0.00000000000E+00 -0.14102316360E+04  0.14102316361E+04  0.50400001928E-02 0. -1.
    10030    2    1    2    0    0  0.00000000000E+00  0.00000000000E+00  0.18111021875E+03  0.30015734909E+04  0.29961045559E+04 0.  0.
        5    1    3    3  502    0 -0.66675628151E+03  0.89343654193E+03  0.10930543315E+04  0.15612759702E+04  0.46999998093E+01 0.  1.
       -5    1    3    3    0  502  0.66675628151E+03 -0.89343654193E+03 -0.91194411275E+03  0.14402975207E+04  0.46999998093E+01 0. -1.
</event>
<event>
 5   0  0.7307508E-07  0.2994495E+04  0.7818609E-02  0.8245305E-01
        2   -1    0    0  501    0  0.00000000000E+00  0.00000000000E+00  0.25041399657E+04  0.25041399657E+04  0.25500000920E-02 0. -1.
       -2   -1    0    0    0  501  0.00000000000E+00  0.00000000000E+00 -0.89521773826E+03  0.89521773827E+03  0.25500000920E-02 0.  1.
    10030    2    1    2    0    0  0.00000000000E+00  0.00000000000E+00  0.16089222274E+04  0.33993577040E+04  0.29944952940E+04 0.  0.
        1    1    3    3  502    0  0.92959373677E+03  0.56260881324E+02  0.21353329581E+04  0.23295829335E+04  0.50400001928E-02 0. -1.
       -1    1    3    3    0  502 -0.92959373677E+03 -0.56260881324E+02 -0.52641073063E+03  0.10697747705E+04  0.50400001928E-02 0.  1.
</event>
<event>
 5   0  0.7399409E-07  0.2999439E+04  0.7818609E-02  0.8243891E-01
       -2   -1    0    0    0  501  0.00000000000E+00  0.00000000000E+00  0.12447551308E+04  0.12447551308E+04  0.25500000920E-02 0. -1.
        2   -1    0    0  501    0  0.00000000000E+00  0.00000000000E+00 -0.18069090270E+04  0.18069090270E+04  0.25500000920E-02 0.  1.
    10030    2    1    2    0    0  0.00000000000E+00  0.00000000000E+00 -0.56215389622E+03  0.30516641578E+04  0.29994394691E+04 0.  0.
        3    1    3    3  502    0 -0.31266700459E+03  0.14459918617E+04 -0.53133980792E+03  0.15719335614E+04  0.10100000352E+00 0.  1.
       -3    1    3    3    0  502  0.31266700459E+03 -0.14459918617E+04 -0.30814088299E+02  0.14797305964E+04  0.10100000352E+00 0. -1.
</event>
<event>
 5   0  0.7585823E-07  0.3006447E+04  0.7818609E-02  0.8241892E-01
        2   -1    0    0  501    0  0.00000000000E+00  0.00000000000E+00  0.15343709773E+04  0.15343709773E+04  0.25500000920E-02 0. -1.
       -2   -1    0    0    0  501  0.00000000000E+00  0.00000000000E+00 -0.14727081285E+04  0.14727081285E+04  0.25500000920E-02 0.  1.
    10030    2    1    2    0    0  0.00000000000E+00  0.00000000000E+00  0.61662848807E+02  0.30070791058E+04  0.30064468134E+04 0.  0.
        5    1    3    3  502    0  0.14452184723E+03  0.16426102717E+03  0.15183530887E+04  0.15340425162E+04  0.46999998093E+01 0. -1.
       -5    1    3    3    0  502 -0.14452184723E+03 -0.16426102717E+03 -0.14566902399E+04  0.14730365896E+04  0.46999998093E+01 0.  1.
</event>
<event>
 5   0  0.2602891E-07  0.2996871E+04  0.7818609E-02  0.8244625E-01
       -1   -1    0    0    0  501  0.00000000000E+00  0.00000000000E+00  0.12179011601E+04  0.12179011602E+04  0.50400001928E-02 0. -1.
        1   -1    0    0  501    0  0.00000000000E+00  0.00000000000E+00 -0.18435885466E+04  0.18435885466E+04  0.50400001928E-02 0.  1.
    10030    2    1    2    0    0  0.00000000000E+00  0.00000000000E+00 -0.62568738646E+03  0.30614897068E+04  0.29968707878E+04 0.  0.
        5    1    3    3  502    0  0.97369852910E+03 -0.15640110338E+03 -0.14653253432E+04  0.17662815694E+04  0.46999998093E+01 0.  1.
       -5    1    3    3    0  502 -0.97369852910E+03  0.15640110338E+03  0.83963795679E+03  0.12952081374E+04  0.46999998093E+01 0. -1.
</event>
<event>
 5   0  0.7399409E-07  0.3019088E+04  0.7818609E-02  0.8238301E-01
       -2   -1    0    0    0  501  0.00000000000E+00  0.00000000000E+00  0.12788675074E+04  0.12788675074E+04  0.25500000920E-02 0.  1.
        2   -1    0    0  501    0  0.00000000000E+00  0.00000000000E+00 -0.17818286708E+04  0.17818286708E+04  0.25500000920E-02 0. -1.
    10030    2    1    2    0    0  0.00000000000E+00  0.00000000000E+00 -0.50296116343E+03  0.30606961782E+04  0.30190878032E+04 0.  0.
        3    1    3    3  502    0 -0.10494493998E+04 -0.60408791733E+03 -0.11652666729E+04  0.16805096500E+04  0.10100000352E+00 0. -1.
       -3    1    3    3    0  502  0.10494493998E+04  0.60408791733E+03  0.66230550946E+03  0.13801865282E+04  0.10100000352E+00 0.  1.
</event>
<event>
 5   0  0.7208273E-07  0.2997670E+04  0.7818609E-02  0.8244397E-01
        2   -1    0    0  501    0  0.00000000000E+00  0.00000000000E+00  0.90761538842E+03  0.90761538842E+03  0.25500000920E-02 0. -1.
       -2   -1    0    0    0  501  0.00000000000E+00  0.00000000000E+00 -0.24751739481E+04  0.24751739481E+04  0.25500000920E-02 0.  1.
    10030    2    1    2    0    0  0.00000000000E+00  0.00000000000E+00 -0.15675585596E+04  0.33827893365E+04  0.29976697378E+04 0.  0.
        4    1    3    3  502    0 -0.72294433044E+02 -0.14616014593E+03  0.89757544937E+03  0.91226781896E+03  0.12699999809E+01 0. -1.
       -4    1    3    3    0  502  0.72294433044E+02  0.14616014593E+03 -0.24651340090E+04  0.24705215175E+04  0.12699999809E+01 0.  1.
</event>
<event>
 5   0  0.7585823E-07  0.2992306E+04  0.7818609E-02  0.8245931E-01
       -2   -1    0    0    0  501  0.00000000000E+00  0.00000000000E+00  0.92696439262E+03  0.92696439263E+03  0.25500000920E-02 0.  1.
        2   -1    0    0  501    0  0.00000000000E+00  0.00000000000E+00 -0.24148430260E+04  0.24148430260E+04  0.25500000920E-02 0. -1.
    10030    2    1    2    0    0  0.00000000000E+00  0.00000000000E+00 -0.14878786334E+04  0.33418074187E+04  0.29923057992E+04 0.  0.
        5    1    3    3  502    0 -0.24692505132E+03  0.12661556763E+04 -0.15903008273E+04  0.20477306925E+04  0.46999998093E+01 0. -1.
       -5    1    3    3    0  502  0.24692505132E+03 -0.12661556763E+04  0.10242219390E+03  0.12940767262E+04  0.46999998093E+01 0.  1.
</event>
<event>
 5   0  0.2602891E-07  0.2993419E+04  0.7818609E-02  0.8245613E-01
       -1   -1    0    0    0  501  0.00000000000E+00  0.00000000000E+00  0.63759233168E+03  0.63759233170E+03  0.50400001928E-02 0.  1.
        1   -1    0    0  501    0  0.00000000000E+00  0.00000000000E+00 -0.35134340464E+04  0.35134340464E+04  0.50400001928E-02 0. -1.
    10030    2    1    2    0    0  0.00000000000E+00  0.00000000000E+00 -0.28758417147E+04  0.41510263781E+04  0.29934185179E+04 0.  0.
        5    1    3    3  502    0 -0.10123410666E+03  0.10760868056E+04 -0.22123522925E+01  0.10808506567E+04  0.46999998093E+01 0.  1.
       -5    1    3    3    0  502  0.10123410666E+03 -0.10760868056E+04 -0.28736293624E+04  0.30701757214E+04  0.46999998093E+01 0. -1.
</event>
<event>
 5   0  0.7399409E-07  0.2998398E+04  0.7818609E-02  0.8244188E-01
        2   -1    0    0  501    0  0.00000000000E+00  0.00000000000E+00  0.13043539243E+04  0.13043539243E+04  0.25500000920E-02 0. -1.
       -2   -1    0    0    0  501  0.00000000000E+00  0.00000000000E+00 -0.17231506876E+04  0.17231506876E+04  0.25500000920E-02 0.  1.
    10030    2    1    2    0    0  0.00000000000E+00  0.00000000000E+00 -0.41879676333E+03  0.30275046119E+04  0.29983984802E+04 0.  0.
        3    1    3    3  502    0  0.20316064415E+03  0.96043440318E+03 -0.13534861670E+04  0.16720147441E+04  0.10100000352E+00 0.  1.
       -3    1    3    3    0  502 -0.20316064415E+03 -0.96043440318E+03  0.93468940367E+03  0.13554898678E+04  0.10100000352E+00 0. -1.
</event>
<event>
 5   0  0.7307508E-07  0.2997238E+04  0.7818609E-02  0.8244520E-01
        2   -1    0    0  501    0  0.00000000000E+00  0.00000000000E+00  0.17042248492E+04  0.17042248492E+04  0.25500000920E-02 0.  1.
       -2   -1    0    0    0  501  0.00000000000E+00  0.00000000000E+00 -0.13178183520E+04  0.13178183520E+04  0.25500000920E-02 0. -1.
    10030    2    1    2    0    0  0.00000000000E+00  0.00000000000E+00  0.38640649715E+03  0.30220432012E+04  0.29972379167E+04 0.  0.
        1    1    3    3  502    0 -0.13295598820E+04 -0.44817228024E+03  0.72412632712E+03  0.15789068403E+04  0.50400001928E-02 0.  1.
       -1    1    3    3    0  502  0.13295598820E+04  0.44817228024E+03 -0.33771982998E+03  0.14431363609E+04  0.50400001928E-02 0. -1.
</event>
<event>
 5   0  0.7208273E-07  0.2996281E+04  0.7818609E-02  0.8244794E-01
        2   -1    0    0  501    0  0.00000000000E+00  0.00000000000E+00  0.12793051196E+04  0.12793051196E+04  0.25500000920E-02 0. -1.
       -2   -1    0    0    0  501  0.00000000000E+00  0.00000000000E+00 -0.17544095065E+04  0.17544095065E+04  0.25500000920E-02 0.  1.
    10030    2    1    2    0    0  0.00000000000E+00  0.00000000000E+00 -0.47510438685E+03  0.30337146261E+04  0.29962810707E+04 0.  0.
        4    1    3    3  502    0  0.60946260763E+03  0.36749704744E+03 -0.15723259298E+04  0.17258937373E+04  0.12699999809E+01 0.  1.
       -4    1    3    3    0  502 -0.60946260763E+03 -0.36749704744E+03  0.10972215430E+04  0.13078208888E+04  0.12699999809E+01 0. -1.
</event>
<event>
 5   0  0.7307508E-07  0.2989076E+04  0.7818609E-02  0.8246857E-01
        2   -1    0    0  501    0  0.00000000000E+00  0.00000000000E+00  0.16302655234E+04  0.16302655234E+04  0.25500000920E-02 0.  1.
       -2   -1    0    0    0  501  0.00000000000E+00  0.00000000000E+00 -0.13701103637E+04  0.13701103637E+04  0.25500000920E-02 0. -1.
    10030    2    1    2    0    0  0.00000000000E+00  0.00000000000E+00  0.26015515967E+03  0.30003758872E+04  0.29890759035E+04 0.  0.
        1    1    3    3  502    0  0.13548094806E+04  0.60522022923E+03  0.30919947512E+03  0.15157191593E+04  0.50400001928E-02 0. -1.
       -1    1    3    3    0  502 -0.13548094806E+04 -0.60522022923E+03 -0.49044315444E+02  0.14846567278E+04  0.50400001928E-02 0.  1.
</event>
<event>
 5   0  0.7399409E-07  0.3006914E+04  0.7818609E-02  0.8241759E-01
        2   -1    0    0  501    0  0.00000000000E+00  0.00000000000E+00  0.12179419545E+04  0.12179419545E+04  0.25500000920E-02 0.  1.
       -2   -1    0    0    0  501  0.00000000000E+00  0.00000000000E+00 -0.18559035229E+04  0.18559035229E+04  0.25500000920E-02 0. -1.
    10030    2    1    2    0    0  0.00000000000E+00  0.00000000000E+00 -0.63796156839E+03  0.30738454774E+04  0.30069138757E+04 0.  0.
        3    1    3    3  502    0 -0.10169898025E+04 -0.44144136659E+03 -0.13570869322E+04  0.17523765835E+04  0.10100000352E+00 0. -1.
       -3    1    3    3    0  502  0.10169898025E+04  0.44144136659E+03  0.71912536381E+03  0.13214688939E+04  0.10100000352E+00 0.  1.
</event>
<event>
 5   0  0.7278657E-07  0.2973150E+04  0.7818609E-02  0.8251440E-01
       -2   -1    0    0    0  501  0.00000000000E+00  0.00000000000E+00  0.94126514767E+03  0.94126514767E+03  0.25500000920E-02 0.  1.
        2   -1    0    0  501    0  0.00000000000E+00  0.00000000000E+00 -0.23478027813E+04  0.23478027813E+04  0.25500000920E-02 0. -1.
    10030    2    1    2    0    0  0.00000000000E+00  0.00000000000E+00 -0.14065376337E+04  0.32890679290E+04  0.29731497989E+04 0.  0.
        2    1    3    3  502    0  0.12497207625E+04  0.52209859282E+03 -0.25361566378E+02  0.13546335792E+04  0.25500000920E-02 0.  1.
       -2    1    3    3    0  502 -0.12497207625E+04 -0.52209859282E+03 -0.13811760673E+04  0.19344343498E+04  0.25500000920E-02 0. -1.
</event>
<event>
 5   0  0.7307508E-07  0.2995476E+04  0.7818609E-02  0.8245024E-01
       -2   -1    0    0    0  501  0.00000000000E+00  0.00000000000E+00  0.17373159344E+04  0.17373159344E+04  0.25500000920E-02 0.  1.
        2   -1    0    0  501    0  0.00000000000E+00  0.00000000000E+00 -0.12911980512E+04  0.12911980512E+04  0.25500000920E-02 0. -1.
    10030    2    1    2    0    0  0.00000000000E+00  0.00000000000E+00  0.44611788318E+03  0.30285139856E+04  0.29954758880E+04 0.  0.
        1    1    3    3  502    0 -0.98299101366E+03  0.11215193614E+04  0.83178593086E+02  0.14936517966E+04  0.50400001928E-02 0. -1.
       -1    1    3    3    0  502  0.98299101366E+03 -0.11215193614E+04  0.36293929009E+03  0.15348621890E+04  0.50400001928E-02 0.  1.
</event>
<event>
 5   0  0.7278657E-07  0.3000313E+04  0.7818609E-02  0.8243642E-01
        2   -1    0    0  501    0  0.00000000000E+00  0.00000000000E+00  0.16539675522E+04  0.16539675522E+04  0.25500000920E-02 0. -1.
       -2   -1    0    0    0  501  0.00000000000E+00  0.00000000000E+00 -0.13606488957E+04  0.13606488957E+04  0.25500000920E-02 0.  1.
    10030    2    1    2    0    0  0.00000000000E+00  0.00000000000E+00  0.29331865646E+03  0.30146164479E+04  0.30003127326E+04 0.  0.
        2    1    3    3  502    0  0.33359139884E+03 -0.75053650552E+03  0.14079849829E+04  0.16300337357E+04  0.25500000920E-02 0. -1.
       -2    1    3    3    0  502 -0.33359139884E+03  0.75053650552E+03 -0.11146663264E+04  0.13845827122E+04  0.25500000920E-02 0.  1.
</event>
<event>
 5   0  0.2640081E-07  0.2999890E+04  0.7818609E-02  0.8243762E-01
       -1   -1    0    0    0  501  0.00000000000E+00  0.00000000000E+00  0.13312708433E+04  0.13312708433E+04  0.50400001928E-02 0. -1.
        1   -1    0    0  501    0  0.00000000000E+00  0.00000000000E+00 -0.16899904432E+04  0.16899904432E+04  0.50400001928E-02 0.  1.
    10030    2    1    2    0    0  0.00000000000E+00  0.00000000000E+00 -0.35871959988E+03  0.30212612865E+04  0.29998899996E+04 0.  0.
        1    1    3    3  502    0  0.98811097699E+03  0.74002837073E+03  0.67866595901E+03  0.14087557547E+04  0.50400001928E-02 0. -1.
       -1    1    3    3    0  502 -0.98811097699E+03 -0.74002837073E+03 -0.10373855589E+04  0.16125055318E+04  0.50400001928E-02 0.  1.
</event>
<event>
 5   0  0.2679935E-07  0.3003251E+04  0.7818609E-02  0.8242803E-01
       -1   -1    0    0    0  501  0.00000000000E+00  0.00000000000E+00  0.90764706954E+03  0.90764706955E+03  0.50400001928E-02 0. -1.
        1   -1    0    0  501    0  0.00000000000E+00  0.00000000000E+00 -0.24843125840E+04  0.24843125840E+04  0.50400001928E-02 0.  1.
    10030    2    1    2    0    0  0.00000000000E+00  0.00000000000E+00 -0.15766655145E+04  0.33919596536E+04  0.30032509297E+04 0.  0.
        2    1    3    3  502    0  0.15506815402E+02  0.10042347933E+04  0.47246202376E+03  0.11099316850E+04  0.25500000920E-02 0. -1.
       -2    1    3    3    0  502 -0.15506815402E+02 -0.10042347933E+04 -0.20491275382E+04  0.22820279686E+04  0.25500000920E-02 0.  1.
</event>
<event>
 5   0  0.2792361E-07  0.3002815E+04  0.7818609E-02  0.8242927E-01
        1   -1    0    0  501    0  0.00000000000E+00  0.00000000000E+00  0.12543193952E+04  0.12543193952E+04  0.50400001928E-02 0.  1.
       -1   -1    0    0    0  501  0.00000000000E+00  0.00000000000E+00 -0.17971695417E+04  0.17971695417E+04  0.50400001928E-02 0. -1.
    10030    2    1    2    0    0  0.00000000000E+00  0.00000000000E+00 -0.54285014653E+03  0.30514889369E+04  0.30028150876E+04 0.  0.
        4    1    3    3  502    0  0.34262034688E+03 -0.75978892350E+03  0.99763906148E+03  0.12999820077E+04  0.12699999809E+01 0.  1.
       -4    1    3    3    0  502 -0.34262034688E+03  0.75978892350E+03 -0.15404892080E+04  0.17515069293E+04  0.12699999809E+01 0. -1.
</event>
<event>
 5   0  0.2602891E-07  0.2996489E+04  0.7818609E-02  0.8244734E-01
        1   -1    0    0  501    0  0.00000000000E+00  0.00000000000E+00  0.16329933353E+04  0.16329933353E+04  0.50400001928E-02 0. -1.
       -1   -1    0    0    0  501  0.00000000000E+00  0.00000000000E+00 -0.13746142178E+04  0.13746142178E+04  0.50400001928E-02 0.  1.
    10030    2    1    2    0    0  0.00000000000E+00  0.00000000000E+00  0.25837911742E+03  0.30076075531E+04  0.29964885158E+04 0.  0.
        5    1    3    3  502    0  0.21124376971E+03 -0.56696601192E+03 -0.12465311027E+04  0.13856176489E+04  0.46999998093E+01 0.  1.
       -5    1    3    3    0  502 -0.21124376971E+03  0.56696601192E+03  0.15049102201E+04  0.16219899042E+04  0.46999998093E+01 0. -1.
</event>
<event>
 5   0  0.7399409E-07  0.2994068E+04  0.7818609E-02  0.8245427E-01
        2   -1    0    0  501    0  0.00000000000E+00  0.00000000000E+00  0.21887077067E+04  0.21887077067E+04  0.25500000920E-02 0.  1.
       -2   -1    0    0    0  501  0.00000000000E+00  0.00000000000E+00 -0.10239424637E+04  0.10239424637E+04  0.25500000920E-02 0. -1.
    10030    2    1    2    0    0  0.00000000000E+00  0.00000000000E+00  0.11647652430E+04  0.32126501703E+04  0.29940679761E+04 0.  0.
        3    1    3    3  502    0 -0.13516700648E+04  0.62953711437E+03  0.72546618489E+03  0.16582008739E+04  0.10100000352E+00 0.  1.
       -3    1    3    3    0  502  0.13516700648E+04 -0.62953711437E+03  0.43929905812E+03  0.15544492964E+04  0.10100000352E+00 0. -1.
</event>
<event>
 5   0  0.7399409E-07  0.2997424E+04  0.7818609E-02  0.8244467E-01
       -2   -1    0    0    0  501  0.00000000000E+00  0.00000000000E+00  0.14462962089E+04  0.14462962089E+04  0.25500000920E-02 0. -1.
        2   -1    0    0  501    0  0.00000000000E+00  0.00000000000E+00 -0.15530272352E+04  0.15530272352E+04  0.25500000920E-02 0.  1.
    10030    2    1    2    0    0  0.00000000000E+00  0.00000000000E+00 -0.10673102625E+03  0.29993234441E+04  0.29974238290E+04 0.  0.
        3    1    3    3  502    0 -0.10017569161E+04 -0.34818064216E+03  0.10062629715E+04  0.14619548066E+04  0.10100000352E+00 0. -1.
       -3    1    3    3    0  502  0.10017569161E+04  0.34818064216E+03 -0.11129939977E+04  0.15373686375E+04  0.10100000352E+00 0.  1.
</event>
<event>
 5   0  0.2621825E-07  0.3003855E+04  0.7818609E-02  0.8242631E-01
        1   -1    0    0  501    0  0.00000000000E+00  0.00000000000E+00  0.17540122968E+04  0.17540122968E+04  0.50400001928E-02 0. -1.
       -1   -1    0    0    0  501  0.00000000000E+00  0.00000000000E+00 -0.12860723879E+04  0.12860723879E+04  0.50400001928E-02 0.  1.
    10030    2    1    2    0    0  0.00000000000E+00  0.00000000000E+00  0.46793990888E+03  0.30400846847E+04  0.30038553780E+04 0.  0.
        3    1    3    3  502    0  0.57352065223E+03  0.13147381981E+04 -0.21673738684E+03  0.14506679748E+04  0.10100000352E+00 0.  1.
       -3    1    3    3    0  502 -0.57352065223E+03 -0.13147381981E+04  0.68467729571E+03  0.15894167099E+04  0.10100000352E+00 0. -1.
</event>
<event>
 5   0  0.2792361E-07  0.3002776E+04  0.7818609E-02  0.8242939E-01
       -1   -1    0    0    0  501  0.00000000000E+00  0.00000000000E+00  0.13207018266E+04  0.13207018266E+04  0.50400001928E-02 0.  1.
        1   -1    0    0  501    0  0.00000000000E+00  0.00000000000E+00 -0.17067940193E+04  0.17067940193E+04  0.50400001928E-02 0. -1.
    10030    2    1    2    0    0  0.00000000000E+00  0.00000000000E+00 -0.38609219269E+03  0.30274958458E+04  0.30027760348E+04 0.  0.
        4    1    3    3  502    0 -0.61410440911E+03 -0.94266569775E+03  0.80933233141E+03  0.13859160431E+04  0.12699999809E+01 0.  1.
       -4    1    3    3    0  502  0.61410440911E+03  0.94266569775E+03 -0.11954245241E+04  0.16415798027E+04  0.12699999809E+01 0. -1.
</event>
<event>
 5   0  0.2602891E-07  0.2990855E+04  0.7818609E-02  0.8246347E-01
       -1   -1    0    0    0  501  0.00000000000E+00  0.00000000000E+00  0.97676528643E+03  0.97676528644E+03  0.50400001928E-02 0. -1.
        1   -1    0    0  501    0  0.00000000000E+00  0.00000000000E+00 -0.22894999781E+04  0.22894999781E+04  0.50400001928E-02 0.  1.
    10030    2    1    2    0    0  0.00000000000E+00  0.00000000000E+00 -0.13127346917E+04  0.32662652645E+04  0.29908554642E+04 0.  0.
        5    1    3    3  502    0 -0.14870020084E+04  0.21025407255E+02 -0.82788006499E+03  0.17020647851E+04  0.46999998093E+01 0.  1.
       -5    1    3    3    0  502  0.14870020084E+04 -0.21025407255E+02 -0.48485462667E+03  0.15642004794E+04  0.46999998093E+01 0. -1.
</event>
<event>
 5   0  0.7208273E-07  0.2999944E+04  0.7818609E-02  0.8243747E-01
        2   -1    0    0  501    0  0.00000000000E+00  0.00000000000E+00  0.13390784301E+04  0.13390784301E+04  0.25500000920E-02 0.  1.
       -2   -1    0    0    0  501  0.00000000000E+00  0.00000000000E+00 -0.16801969769E+04  0.16801969769E+04  0.25500000920E-02 0. -1.
    10030    2    1    2    0    0  0.00000000000E+00  0.00000000000E+00 -0.34111854681E+03  0.30192754070E+04  0.29999436862E+04 0.  0.
        4    1    3    3  502    0 -0.69047527551E+03  0.65958498193E+03  0.99366003842E+03  0.13781038928E+04  0.12699999809E+01 0.  1.
       -4    1    3    3    0  502  0.69047527551E+03 -0.65958498193E+03 -0.13347785852E+04  0.16411715142E+04  0.12699999809E+01 0. -1.
</event>
<event>
 5   0  0.7208273E-07  0.3001792E+04  0.7818609E-02  0.8243219E-01
        2   -1    0    0  501    0  0.00000000000E+00  0.00000000000E+00  0.24767414621E+04  0.24767414621E+04  0.25500000920E-02 0.  1.
       -2   -1    0    0    0  501  0.00000000000E+00  0.00000000000E+00 -0.90953741454E+03  0.90953741455E+03  0.25500000920E-02 0. -1.
    10030    2    1    2    0    0  0.00000000000E+00  0.00000000000E+00  0.15672040476E+04  0.33862788767E+04  0.30017921487E+04 0.  0.
        4    1    3    3  502    0  0.15477177449E+02  0.11544696538E+04  0.18654166428E+04  0.21938141646E+04  0.12699999809E+01 0.  1.
       -4    1    3    3    0  502 -0.15477177449E+02 -0.11544696538E+04 -0.29821259524E+03  0.11924647121E+04  0.12699999809E+01 0. -1.
</event>
<event>
 5   0  0.7399409E-07  0.3000468E+04  0.7818609E-02  0.8243597E-01
       -2   -1    0    0    0  501  0.00000000000E+00  0.00000000000E+00  0.18560084976E+04  0.18560084976E+04  0.25500000920E-02 0.  1.
        2   -1    0    0  501    0  0.00000000000E+00  0.00000000000E+00 -0.12126571846E+04  0.12126571846E+04  0.25500000920E-02 0. -1.
    10030    2    1    2    0    0  0.00000000000E+00  0.00000000000E+00  0.64335131299E+03  0.30686656822E+04  0.30004679897E+04 0.  0.
        3    1    3    3  502    0  0.39030914975E+03 -0.10581541796E+03 -0.11558630109E+04  0.12245641859E+04  0.10100000352E+00 0. -1.
       -3    1    3    3    0  502 -0.39030914975E+03  0.10581541796E+03  0.17992143239E+04  0.18441014963E+04  0.10100000352E+00 0.  1.
</event>
<event>
 5   0  0.2640081E-07  0.3015305E+04  0.7818609E-02  0.8239374E-01
        1   -1    0    0  501    0  0.00000000000E+00  0.00000000000E+00  0.25186694488E+04  0.25186694488E+04  0.50400001928E-02 0.  1.
       -1   -1    0    0    0  501  0.00000000000E+00  0.00000000000E+00 -0.90246728316E+03  0.90246728318E+03  0.50400001928E-02 0. -1.
    10030    2    1    2    0    0  0.00000000000E+00  0.00000000000E+00  0.16162021656E+04  0.34211367320E+04  0.30153054735E+04 0.  0.
        1    1    3    3  502    0  0.10785990012E+04 -0.18805003798E+03  0.19840744539E+04  0.22661178392E+04  0.50400001928E-02 0.  1.
       -1    1    3    3    0  502 -0.10785990012E+04  0.18805003798E+03 -0.36787228831E+03  0.11550188928E+04  0.50400001928E-02 0. -1.
</event>
<event>
 5   0  0.7208273E-07  0.2974878E+04  0.7818609E-02  0.8250941E-01
       -2   -1    0    0    0  501  0.00000000000E+00  0.00000000000E+00  0.15971307059E+04  0.15971307059E+04  0.25500000920E-02 0.  1.
        2   -1    0    0  501    0  0.00000000000E+00  0.00000000000E+00 -0.13852810353E+04  0.13852810353E+04  0.25500000920E-02 0. -1.
    10030    2    1    2    0    0  0.00000000000E+00  0.00000000000E+00  0.21184967062E+03  0.29824117412E+04  0.29748780666E+04 0.  0.
        4    1    3    3  502    0 -0.30676079971E+02 -0.10388787751E+04  0.11726980785E+04  0.15669819806E+04  0.12699999809E+01 0.  1.
       -4    1    3    3    0  502  0.30676079971E+02  0.10388787751E+04 -0.96084840788E+03  0.14154297606E+04  0.12699999809E+01 0. -1.
</event>
<event>
 5   0  0.2792361E-07  0.2999085E+04  0.7818609E-02  0.8243992E-01
       -1   -1    0    0    0  501  0.00000000000E+00  0.00000000000E+00  0.21030424270E+04  0.21030424270E+04  0.50400001928E-02 0. -1.
        1   -1    0    0  501    0  0.00000000000E+00  0.00000000000E+00 -0.10692258847E+04  0.10692258847E+04  0.50400001928E-02 0.  1.
    10030    2    1    2    0    0  0.00000000000E+00  0.00000000000E+00  0.10338165423E+04  0.31722683117E+04  0.29990847934E+04 0.  0.
        4    1    3    3  502    0 -0.13394866195E+03  0.79555682237E+03 -0.82011415415E+03  0.11504093795E+04  0.12699999809E+01 0.  1.
       -4    1    3    3    0  502  0.13394866195E+03 -0.79555682237E+03  0.18539306964E+04  0.20218589322E+04  0.12699999809E+01 0. -1.
</event>
<event>
 5   0  0.7307508E-07  0.2990264E+04  0.7818609E-02  0.8246516E-01
       -2   -1    0    0    0  501  0.00000000000E+00  0.00000000000E+00  0.13494045495E+04  0.13494045495E+04  0.25500000920E-02 0. -1.
        2   -1    0    0  501    0  0.00000000000E+00  0.00000000000E+00 -0.16565973650E+04  0.16565973650E+04  0.25500000920E-02 0.  1.
    10030    2    1    2    0    0  0.00000000000E+00  0.00000000000E+00 -0.30719281547E+03  0.30060019145E+04  0.29902642165E+04 0.  0.
        1    1    3    3  502    0  0.22180712473E+03 -0.10229687622E+03  0.13292114567E+04  0.13514681454E+04  0.50400001928E-02 0. -1.
       -1    1    3    3    0  502 -0.22180712473E+03  0.10229687622E+03 -0.16364042721E+04  0.16545337692E+04  0.50400001928E-02 0.  1.
</event>
<event>
 5   0  0.7585823E-07  0.3001107E+04  0.7818609E-02  0.8243415E-01
       -2   -1    0    0    0  501  0.00000000000E+00  0.00000000000E+00  0.11444860888E+04  0.11444860888E+04  0.25500000920E-02 0.  1.
        2   -1    0    0  501    0  0.00000000000E+00  0.00000000000E+00 -0.19673987853E+04  0.19673987853E+04  0.25500000920E-02 0. -1.
    10030    2    1    2    0    0  0.00000000000E+00  0.00000000000E+00 -0.82291269652E+03  0.31118848742E+04  0.30011068231E+04 0.  0.
        5    1    3    3  502    0  0.12762827904E+02 -0.67110821882E+03 -0.18030412011E+04  0.19239357563E+04  0.46999998093E+01 0. -1.
       -5    1    3    3    0  502 -0.12762827904E+02  0.67110821882E+03  0.98012850463E+03  0.11879491179E+04  0.46999998093E+01 0.  1.
</event>
<event>
 5   0  0.2640081E-07  0.2999648E+04  0.7818609E-02  0.8243831E-01
       -1   -1    0    0    0  501  0.00000000000E+00  0.00000000000E+00  0.15741520328E+04  0.15741520328E+04  0.50400001928E-02 0.  1.
        1   -1    0    0  501    0  0.00000000000E+00  0.00000000000E+00 -0.14290056630E+04  0.14290056631E+04  0.50400001928E-02 0. -1.
    10030    2    1    2    0    0  0.00000000000E+00  0.00000000000E+00  0.14514636971E+03  0.30031576958E+04  0.29996480922E+04 0.  0.
        1    1    3    3  502    0  0.12597243129E+04  0.43941760224E+03  0.75856022846E+03  0.15347334602E+04  0.50400001928E-02 0.  1.
       -1    1    3    3    0  502 -0.12597243129E+04 -0.43941760224E+03 -0.61341385874E+03  0.14684242356E+04  0.50400001928E-02 0. -1.
</event>
<event>
 5   0  0.2640081E-07  0.2909904E+04  0.7818609E-02  0.8269937E-01
       -1   -1    0    0    0  501  0.00000000000E+00  0.00000000000E+00  0.19574803241E+04  0.19574803241E+04  0.50400001928E-02 0.  1.
        1   -1    0    0  501    0  0.00000000000E+00  0.00000000000E+00 -0.10814334121E+04  0.10814334121E+04  0.50400001928E-02 0. -1.
    10030    2    1    2    0    0  0.00000000000E+00  0.00000000000E+00  0.87604691202E+03  0.30389137363E+04  0.29099035215E+04 0.  0.
        1    1    3    3  502    0  0.11408428235E+04 -0.81034999038E+03  0.21996339903E+02  0.13995260961E+04  0.50400001928E-02 0.  1.
       -1    1    3    3    0  502 -0.11408428235E+04  0.81034999038E+03  0.85405057212E+03  0.16393876401E+04  0.50400001928E-02 0. -1.
</event>
<event>
 5   0  0.2792361E-07  0.2995642E+04  0.7818609E-02  0.8244976E-01
        1   -1    0    0  501    0  0.00000000000E+00  0.00000000000E+00  0.20721155067E+04  0.20721155067E+04  0.50400001928E-02 0.  1.
       -1   -1    0    0    0  501  0.00000000000E+00  0.00000000000E+00 -0.10826946721E+04  0.10826946721E+04  0.50400001928E-02 0. -1.
    10030    2    1    2    0    0  0.00000000000E+00  0.00000000000E+00  0.98942083458E+03  0.31548101788E+04  0.29956424481E+04 0.  0.
        4    1    3    3  502    0 -0.38088483614E+03  0.11171157236E+04  0.14659058491E+04  0.18819942533E+04  0.12699999809E+01 0.  1.
       -4    1    3    3    0  502  0.38088483614E+03 -0.11171157236E+04 -0.47648501451E+03  0.12728159255E+04  0.12699999809E+01 0. -1.
</event>
<event>
 5   0  0.7208273E-07  0.3000632E+04  0.7818609E-02  0.8243551E-01
       -2   -1    0    0    0  501  0.00000000000E+00  0.00000000000E+00  0.11385424534E+04  0.11385424534E+04  0.25500000920E-02 0.  1.
        2   -1    0    0  501    0  0.00000000000E+00  0.00000000000E+00 -0.19770432068E+04  0.19770432068E+04  0.25500000920E-02 0. -1.
    10030    2    1    2    0    0  0.00000000000E+00  0.00000000000E+00 -0.83850075345E+03  0.31155856602E+04  0.30006316822E+04 0.  0.
        4    1    3    3  502    0  0.11715037480E+03  0.22578613120E+03  0.11159892247E+04  0.11446122269E+04  0.12699999809E+01 0.  1.
       -4    1    3    3    0  502 -0.11715037480E+03 -0.22578613120E+03 -0.19544899781E+04  0.19709734333E+04  0.12699999809E+01 0. -1.
</event>
<event>
 5   0  0.2640081E-07  0.3001240E+04  0.7818609E-02  0.8243377E-01
       -1   -1    0    0    0  501  0.00000000000E+00  0.00000000000E+00  0.92420698842E+03  0.92420698843E+03  0.50400001928E-02 0.  1.
        1   -1    0    0  501    0  0.00000000000E+00  0.00000000000E+00 -0.24365329133E+04  0.24365329133E+04  0.50400001928E-02 0. -1.
    10030    2    1    2    0    0  0.00000000000E+00  0.00000000000E+00 -0.15123259249E+04  0.33607399018E+04  0.30012402410E+04 0.  0.
        1    1    3    3  502    0  0.11936377824E+04 -0.51146935162E+03  0.85902983074E+02  0.13014420370E+04  0.50400001928E-02 0.  1.
       -1    1    3    3    0  502 -0.11936377824E+04  0.51146935162E+03 -0.15982289080E+04  0.20592978647E+04  0.50400001928E-02 0. -1.
</event>
<event>
 5   0  0.7307508E-07  0.2907908E+04  0.7818609E-02  0.8270529E-01
       -2   -1    0    0    0  501  0.00000000000E+00  0.00000000000E+00  0.95855889378E+03  0.95855889378E+03  0.25500000920E-02 0. -1.
        2   -1    0    0  501    0  0.00000000000E+00  0.00000000000E+00 -0.22053749949E+04  0.22053749949E+04  0.25500000920E-02 0.  1.
    10030    2    1    2    0    0  0.00000000000E+00  0.00000000000E+00 -0.12468161011E+04  0.31639338887E+04  0.29079077121E+04 0.  0.
        1    1    3    3  502    0 -0.72810732093E+03  0.10622157960E+04 -0.13577690990E+04  0.18713576875E+04  0.50400001928E-02 0.  1.
       -1    1    3    3    0  502  0.72810732093E+03 -0.10622157960E+04  0.11095299791E+03  0.12925762012E+04  0.50400001928E-02 0. -1.
</event>
<event>
 5   0  0.2602891E-07  0.3000788E+04  0.7818609E-02  0.8243506E-01
        1   -1    0    0  501    0  0.00000000000E+00  0.00000000000E+00  0.12771959176E+04  0.12771959176E+04  0.50400001928E-02 0.  1.
       -1   -1    0    0    0  501  0.00000000000E+00  0.00000000000E+00 -0.17625969754E+04  0.17625969754E+04  0.50400001928E-02 0. -1.
    10030    2    1    2    0    0  0.00000000000E+00  0.00000000000E+00 -0.48540105783E+03  0.30397928930E+04  0.30007876708E+04 0.  0.
        5    1    3    3  502    0  0.54174518414E+03  0.60755059269E+02 -0.16587187658E+04  0.17460094661E+04  0.46999998093E+01 0. -1.
       -5    1    3    3    0  502 -0.54174518414E+03 -0.60755059269E+02  0.11733177080E+04  0.12937834269E+04  0.46999998093E+01 0.  1.
</event>
<event>
 5   0  0.7399409E-07  0.2994428E+04  0.7818609E-02  0.8245324E-01
       -2   -1    0    0    0  501  0.00000000000E+00  0.00000000000E+00  0.15931476925E+04  0.15931476925E+04  0.25500000920E-02 0. -1.
        2   -1    0    0  501    0  0.00000000000E+00  0.00000000000E+00 -0.14070573472E+04  0.14070573472E+04  0.25500000920E-02 0.  1.
    10030    2    1    2    0    0  0.00000000000E+00  0.00000000000E+00  0.18609034532E+03  0.30002050398E+04  0.29944282700E+04 0.  0.
        3    1    3    3  502    0  0.52554985637E+03 -0.75398702094E+03  0.12772521629E+04  0.15735539956E+04  0.10100000352E+00 0. -1.
       -3    1    3    3    0  502 -0.52554985637E+03  0.75398702094E+03 -0.10911618176E+04  0.14266510441E+04  0.10100000352E+00 0.  1.
</event>
<event>
 5   0  0.2640081E-07  0.2997290E+04  0.7818609E-02  0.8244505E-01
       -1   -1    0    0    0  501  0.00000000000E+00  0.00000000000E+00  0.28485955362E+04  0.28485955362E+04  0.50400001928E-02 0. -1.
        1   -1    0    0  501    0  0.00000000000E+00  0.00000000000E+00 -0.78843656378E+03  0.78843656379E+03  0.50400001928E-02 0.  1.
    10030    2    1    2    0    0  0.00000000000E+00  0.00000000000E+00  0.20601589724E+04  0.36370320999E+04  0.29972900268E+04 0.  0.
        1    1    3    3  502    0  0.64585711661E+03 -0.57265425497E+03 -0.45650732354E+03  0.97645442662E+03  0.50400001928E-02 0.  1.
       -1    1    3    3    0  502 -0.64585711661E+03  0.57265425497E+03  0.25166662959E+04  0.26605776733E+04  0.50400001928E-02 0. -1.
</event>
<event>
 5   0  0.2602891E-07  0.2997943E+04  0.7818609E-02  0.8244319E-01
        1   -1    0    0  501    0  0.00000000000E+00  0.00000000000E+00  0.12348151153E+04  0.12348151153E+04  0.50400001928E-02 0.  1.
       -1   -1    0    0    0  501  0.00000000000E+00  0.00000000000E+00 -0.18196372076E+04  0.18196372076E+04  0.50400001928E-02 0. -1.
    10030    2    1    2    0    0  0.00000000000E+00  0.00000000000E+00 -0.58482209231E+03  0.30544523230E+04  0.29979429804E+04 0.  0.
        5    1    3    3  502    0 -0.72447797687E+03 -0.76367978106E+03  0.79485843818E+03  0.13190516190E+04  0.46999998093E+01 0.  1.
       -5    1    3    3    0  502  0.72447797687E+03  0.76367978106E+03 -0.13796805305E+04  0.17354007039E+04  0.46999998093E+01 0. -1.
</event>
<event>
 5   0  0.7585823E-07  0.3000914E+04  0.7818609E-02  0.8243470E-01
       -2   -1    0    0    0  501  0.00000000000E+00  0.00000000000E+00  0.14649953606E+04  0.14649953606E+04  0.25500000920E-02 0.  1.
        2   -1    0    0  501    0  0.00000000000E+00  0.00000000000E+00 -0.15367775350E+04  0.15367775350E+04  0.25500000920E-02 0. -1.
    10030    2    1    2    0    0  0.00000000000E+00  0.00000000000E+00 -0.71782174432E+02  0.30017728956E+04  0.30009145000E+04 0.  0.
        5    1    3    3  502    0 -0.98256287295E+03  0.68554146961E+03 -0.93945061929E+03  0.15224935014E+04  0.46999998093E+01 0. -1.
       -5    1    3    3    0  502  0.98256287295E+03 -0.68554146961E+03  0.86766844486E+03  0.14792793942E+04  0.46999998093E+01 0.  1.
</event>
<event>
 5   0  0.2640081E-07  0.3000539E+04  0.7818609E-02  0.8243577E-01
       -1   -1    0    0    0  501  0.00000000000E+00  0.00000000000E+00  0.11928739251E+04  0.11928739251E+04  0.50400001928E-02 0.  1.
        1   -1    0    0  501    0  0.00000000000E+00  0.00000000000E+00 -0.18868788830E+04  0.18868788830E+04  0.50400001928E-02 0. -1.
    10030    2    1    2    0    0  0.00000000000E+00  0.00000000000E+00 -0.69400495792E+03  0.30797528082E+04  0.30005390312E+04 0.  0.
        1    1    3    3  502    0 -0.11440012107E+04 -0.62359419985E+03  0.41640729077E+03  0.13678463101E+04  0.50400001928E-02 0.  1.
       -1    1    3    3    0  502  0.11440012107E+04  0.62359419985E+03 -0.11104122487E+04  0.17119064981E+04  0.50400001928E-02 0. -1.
</event>
<event>
 5   0  0.2602891E-07  0.2997464E+04  0.7818609E-02  0.8244455E-01
       -1   -1    0    0    0  501  0.00000000000E+00  0.00000000000E+00  0.15935212843E+04  0.15935212843E+04  0.50400001928E-02 0. -1.
        1   -1    0    0  501    0  0.00000000000E+00  0.00000000000E+00 -0.14095810856E+04  0.14095810856E+04  0.50400001928E-02 0.  1.
    10030    2    1    2    0    0  0.00000000000E+00  0.00000000000E+00  0.18394019870E+03  0.30031023699E+04  0.29974639026E+04 0.  0.
        5    1    3    3  502    0  0.66665474925E+03 -0.12706664195E+04 -0.34145628613E+03  0.14750037931E+04  0.46999998093E+01 0.  1.
       -5    1    3    3    0  502 -0.66665474925E+03  0.12706664195E+04  0.52539648483E+03  0.15280985768E+04  0.46999998093E+01 0. -1.
</event>
<event>
 5   0  0.2621825E-07  0.3004411E+04  0.7818609E-02  0.8242472E-01
        1   -1    0    0  501    0  0.00000000000E+00  0.00000000000E+00  0.16289220360E+04  0.16289220360E+04  0.50400001928E-02 0. -1.
       -1   -1    0    0    0  501  0.00000000000E+00  0.00000000000E+00 -0.13853468634E+04  0.13853468635E+04  0.50400001928E-02 0.  1.
    10030    2    1    2    0    0  0.00000000000E+00  0.00000000000E+00  0.24357517254E+03  0.30142688994E+04  0.30044114454E+04 0.  0.
        3    1    3    3  502    0  0.10240989034E+04 -0.77788035718E+03  0.90070177046E+03  0.15700764642E+04  0.10100000352E+00 0. -1.
       -3    1    3    3    0  502 -0.10240989034E+04  0.77788035718E+03 -0.65712659792E+03  0.14441924352E+04  0.10100000352E+00 0.  1.
</event>
<event>
 5   0  0.7208273E-07  0.2991621E+04  0.7818609E-02  0.8246128E-01
       -2   -1    0    0    0  501  0.00000000000E+00  0.00000000000E+00  0.13997143193E+04  0.13997143193E+04  0.25500000920E-02 0. -1.
        2   -1    0    0  501    0  0.00000000000E+00  0.00000000000E+00 -0.15985039645E+04  0.15985039645E+04  0.25500000920E-02 0.  1.
    10030    2    1    2    0    0  0.00000000000E+00  0.00000000000E+00 -0.19878964519E+03  0.29982182838E+04  0.29916208908E+04 0.  0.
        4    1    3    3  502    0 -0.33168776984E+03 -0.10688698725E+04 -0.10940287635E+04  0.15650559508E+04  0.12699999809E+01 0.  1.
       -4    1    3    3    0  502  0.33168776984E+03  0.10688698725E+04  0.89523911828E+03  0.14331623330E+04  0.12699999809E+01 0. -1.
</event>
<event>
 5   0  0.2679935E-07  0.3001281E+04  0.7818609E-02  0.8243365E-01
        1   -1    0    0  501    0  0.00000000000E+00  0.00000000000E+00  0.90768588864E+03  0.90768588865E+03  0.50400001928E-02 0. -1.
       -1   -1    0    0    0  501  0.00000000000E+00  0.00000000000E+00 -0.24809480372E+04  0.24809480372E+04  0.50400001928E-02 0.  1.
    10030    2    1    2    0    0  0.00000000000E+00  0.00000000000E+00 -0.15732621485E+04  0.33886339258E+04  0.30012807425E+04 0.  0.
        2    1    3    3  502    0 -0.42347158106E+03  0.14395646945E+04 -0.76889241885E+03  0.16860813270E+04  0.25500000920E-02 0. -1.
       -2    1    3    3    0  502  0.42347158106E+03 -0.14395646945E+04 -0.80436972967E+03  0.17025525988E+04  0.25500000920E-02 0.  1.
</event>
<event>
 5   0  0.2414250E-07  0.3024179E+04  0.7818609E-02  0.8236860E-01
       -3   -1    0    0    0  501  0.00000000000E+00  0.00000000000E+00  0.13252363482E+04  0.13252363520E+04  0.10100000352E+00 0. -1.
        3   -1    0    0  501    0  0.00000000000E+00  0.00000000000E+00 -0.17252884939E+04  0.17252884969E+04  0.10100000352E+00 0.  1.
    10030    2    1    2    0    0  0.00000000000E+00  0.00000000000E+00 -0.40005214575E+03  0.30505248489E+04  0.30241792497E+04 0.  0.
        5    1    3    3  502    0  0.91208019510E+03 -0.78927167896E+03  0.71981325371E+03  0.14046327903E+04  0.46999998093E+01 0. -1.
       -5    1    3    3    0  502 -0.91208019510E+03  0.78927167896E+03 -0.11198653995E+04  0.16458920585E+04  0.46999998093E+01 0.  1.
</event>
<event>
 5   0  0.7307508E-07  0.2981282E+04  0.7818609E-02  0.8249096E-01
        2   -1    0    0  501    0  0.00000000000E+00  0.00000000000E+00  0.16217548319E+04  0.16217548319E+04  0.25500000920E-02 0. -1.
       -2   -1    0    0    0  501  0.00000000000E+00  0.00000000000E+00 -0.13701274732E+04  0.13701274732E+04  0.25500000920E-02 0.  1.
    10030    2    1    2    0    0  0.00000000000E+00  0.00000000000E+00  0.25162735874E+03  0.29918823052E+04  0.29812821739E+04 0.  0.
        1    1    3    3  502    0  0.13337897021E+04  0.36172238501E+03  0.68652451601E+03  0.15430988187E+04  0.50400001928E-02 0. -1.
       -1    1    3    3    0  502 -0.13337897021E+04 -0.36172238501E+03 -0.43489715727E+03  0.14487834865E+04  0.50400001928E-02 0.  1.
</event>
<event>
 5   0  0.7208273E-07  0.2999354E+04  0.7818609E-02  0.8243915E-01
        2   -1    0    0  501    0  0.00000000000E+00  0.00000000000E+00  0.21151708076E+04  0.21151708076E+04  0.25500000920E-02 0.  1.
       -2   -1    0    0    0  501  0.00000000000E+00  0.00000000000E+00 -0.10632860584E+04  0.10632860584E+04  0.25500000920E-02 0. -1.
    10030    2    1    2    0    0  0.00000000000E+00  0.00000000000E+00  0.10518847493E+04  0.31784568660E+04  0.29993543511E+04 0.  0.
        4    1    3    3  502    0 -0.65955011359E+03  0.13310375816E+04  0.74405457566E+03  0.16614109126E+04  0.12699999809E+01 0. -1.
       -4    1    3    3    0  502  0.65955011359E+03 -0.13310375816E+04  0.30783017361E+03  0.15170459534E+04  0.12699999809E+01 0.  1.
</event>
<event>
 5   0  0.7208273E-07  0.2996589E+04  0.7818609E-02  0.8244705E-01
        2   -1    0    0  501    0  0.00000000000E+00  0.00000000000E+00  0.14715728583E+04  0.14715728583E+04  0.25500000920E-02 0. -1.
       -2   -1    0    0    0  501  0.00000000000E+00  0.00000000000E+00 -0.15255017228E+04  0.15255017228E+04  0.25500000920E-02 0.  1.
    10030    2    1    2    0    0  0.00000000000E+00  0.00000000000E+00 -0.53928864554E+02  0.29970745811E+04  0.29965893483E+04 0.  0.
        4    1    3    3  502    0  0.91036022373E+03 -0.62822788182E+03 -0.10378007902E+04  0.15167261129E+04  0.12699999809E+01 0.  1.
       -4    1    3    3    0  502 -0.91036022373E+03  0.62822788182E+03  0.98387192566E+03  0.14803484682E+04  0.12699999809E+01 0. -1.
</event>
<event>
 5   0  0.7278657E-07  0.3011955E+04  0.7818609E-02  0.8240325E-01
       -2   -1    0    0    0  501  0.00000000000E+00  0.00000000000E+00  0.20269277990E+04  0.20269277990E+04  0.25500000920E-02 0.  1.
        2   -1    0    0  501    0  0.00000000000E+00  0.00000000000E+00 -0.11189189182E+04  0.11189189182E+04  0.25500000920E-02 0. -1.
    10030    2    1    2    0    0  0.00000000000E+00  0.00000000000E+00  0.90800888077E+03  0.31458467171E+04  0.30119547540E+04 0.  0.
        2    1    3    3  502    0 -0.57187067669E+03 -0.93941439504E+03  0.15285397065E+04  0.18830743774E+04  0.25500000920E-02 0.  1.
       -2    1    3    3    0  502  0.57187067669E+03  0.93941439504E+03 -0.62053082568E+03  0.12627723398E+04  0.25500000920E-02 0. -1.
</event>
<event>
 5   0  0.7399409E-07  0.3004548E+04  0.7818609E-02  0.8242433E-01
        2   -1    0    0  501    0  0.00000000000E+00  0.00000000000E+00  0.20382129869E+04  0.20382129869E+04  0.25500000920E-02 0.  1.
       -2   -1    0    0    0  501  0.00000000000E+00  0.00000000000E+00 -0.11072576525E+04  0.11072576525E+04  0.25500000920E-02 0. -1.
    10030    2    1    2    0    0  0.00000000000E+00  0.00000000000E+00  0.93095533440E+03  0.31454706394E+04  0.30045478376E+04 0.  0.
        3    1    3    3  502    0  0.78283876659E+02 -0.14149565299E+03 -0.10981196228E+04  0.11099622072E+04  0.10100000352E+00 0. -1.
       -3    1    3    3    0  502 -0.78283876659E+02  0.14149565299E+03  0.20290749572E+04  0.20355084322E+04  0.10100000352E+00 0.  1.
</event>
<event>
 5   0  0.2621825E-07  0.2990249E+04  0.7818609E-02  0.8246521E-01
       -1   -1    0    0    0  501  0.00000000000E+00  0.00000000000E+00  0.16887184150E+04  0.16887184150E+04  0.50400001928E-02 0.  1.
        1   -1    0    0  501    0  0.00000000000E+00  0.00000000000E+00 -0.13237240686E+04  0.13237240686E+04  0.50400001928E-02 0. -1.
    10030    2    1    2    0    0  0.00000000000E+00  0.00000000000E+00  0.36499434635E+03  0.30124424836E+04  0.29902489603E+04 0.  0.
        3    1    3    3  502    0 -0.78605939290E+03 -0.11828202713E+04 -0.28835167583E+03  0.14491721301E+04  0.10100000352E+00 0. -1.
       -3    1    3    3    0  502  0.78605939290E+03  0.11828202713E+04  0.65334602218E+03  0.15632703536E+04  0.10100000352E+00 0.  1.
</event>
<event>
 5   0  0.2792361E-07  0.3008238E+04  0.7818609E-02  0.8241382E-01
        1   -1    0    0  501    0  0.00000000000E+00  0.00000000000E+00  0.22659256725E+04  0.22659256725E+04  0.50400001928E-02 0. -1.
       -1   -1    0    0    0  501  0.00000000000E+00  0.00000000000E+00 -0.99843286314E+03  0.99843286315E+03  0.50400001928E-02 0.  1.
    10030    2    1    2    0    0  0.00000000000E+00  0.00000000000E+00  0.12674928093E+04  0.32643585356E+04  0.30082384592E+04 0.  0.
        4    1    3    3  502    0 -0.94273342793E+03 -0.45523033903E+03  0.18056931357E+04  0.20872255007E+04  0.12699999809E+01 0. -1.
       -4    1    3    3    0  502  0.94273342793E+03  0.45523033903E+03 -0.53820032634E+03  0.11771330349E+04  0.12699999809E+01 0.  1.
</event>
<event>
 5   0  0.7399409E-07  0.2995042E+04  0.7818609E-02  0.8245148E-01
       -2   -1    0    0    0  501  0.00000000000E+00  0.00000000000E+00  0.23029277539E+04  0.23029277539E+04  0.25500000920E-02 0.  1.
        2   -1    0    0  501    0  0.00000000000E+00  0.00000000000E+00 -0.97379027144E+03  0.97379027145E+03  0.25500000920E-02 0. -1.
    10030    2    1    2    0    0  0.00000000000E+00  0.00000000000E+00  0.13291374824E+04  0.32767180253E+04  0.29950416642E+04 0.  0.
        3    1    3    3  502    0 -0.54340201749E+02  0.12476279480E+04 -0.23962054990E+03  0.12715920621E+04  0.10100000352E+00 0. -1.
       -3    1    3    3    0  502  0.54340201749E+02 -0.12476279480E+04  0.15687580323E+04  0.20051259632E+04  0.10100000352E+00 0.  1.
</event>
<event>
 5   0  0.7278657E-07  0.2999187E+04  0.7818609E-02  0.8243963E-01
       -2   -1    0    0    0  501  0.00000000000E+00  0.00000000000E+00  0.10882325358E+04  0.10882325358E+04  0.25500000920E-02 0.  1.
        2   -1    0    0  501    0  0.00000000000E+00  0.00000000000E+00 -0.20664528913E+04  0.20664528913E+04  0.25500000920E-02 0. -1.
    10030    2    1    2    0    0  0.00000000000E+00  0.00000000000E+00 -0.97822035549E+03  0.31546854271E+04  0.29991874033E+04 0.  0.
        2    1    3    3  502    0 -0.20033291597E+02  0.30967700469E+03  0.10540891581E+04  0.10988198821E+04  0.25500000920E-02 0.  1.
       -2    1    3    3    0  502  0.20033291597E+02 -0.30967700469E+03 -0.20323095136E+04  0.20558655450E+04  0.25500000920E-02 0. -1.
</event>
<event>
 5   0  0.2640081E-07  0.3004054E+04  0.7818609E-02  0.8242574E-01
        1   -1    0    0  501    0  0.00000000000E+00  0.00000000000E+00  0.12349603857E+04  0.12349603857E+04  0.50400001928E-02 0.  1.
       -1   -1    0    0    0  501  0.00000000000E+00  0.00000000000E+00 -0.18268477343E+04  0.18268477343E+04  0.50400001928E-02 0. -1.
    10030    2    1    2    0    0  0.00000000000E+00  0.00000000000E+00 -0.59188734865E+03  0.30618081200E+04  0.30040536497E+04 0.  0.
        1    1    3    3  502    0  0.27043968033E+03  0.86189054494E+03 -0.15190532103E+04  0.17673470479E+04  0.50400001928E-02 0. -1.
       -1    1    3    3    0  502 -0.27043968033E+03 -0.86189054494E+03  0.92716586162E+03  0.12944610721E+04  0.50400001928E-02 0.  1.
</event>
<event>
 5   0  0.7307508E-07  0.3004091E+04  0.7818609E-02  0.8242564E-01
       -2   -1    0    0    0  501  0.00000000000E+00  0.00000000000E+00  0.17319891857E+04  0.17319891857E+04  0.25500000920E-02 0.  1.
        2   -1    0    0  501    0  0.00000000000E+00  0.00000000000E+00 -0.13026294063E+04  0.13026294063E+04  0.25500000920E-02 0. -1.
    10030    2    1    2    0    0  0.00000000000E+00  0.00000000000E+00  0.42935977934E+03  0.30346185920E+04  0.30040905743E+04 0.  0.
        1    1    3    3  502    0 -0.94868612696E+03  0.31980038323E+03 -0.91645924935E+03  0.13572675522E+04  0.50400001928E-02 0. -1.
       -1    1    3    3    0  502  0.94868612696E+03 -0.31980038323E+03  0.13458190287E+04  0.16773510398E+04  0.50400001928E-02 0.  1.
</event>
<event>
 5   0  0.2679935E-07  0.2999049E+04  0.7818609E-02  0.8244002E-01
       -1   -1    0    0    0  501  0.00000000000E+00  0.00000000000E+00  0.12733784582E+04  0.12733784582E+04  0.50400001928E-02 0.  1.
        1   -1    0    0  501    0  0.00000000000E+00  0.00000000000E+00 -0.17658332971E+04  0.17658332971E+04  0.50400001928E-02 0. -1.
    10030    2    1    2    0    0  0.00000000000E+00  0.00000000000E+00 -0.49245483885E+03  0.30392117553E+04  0.29990492369E+04 0.  0.
        2    1    3    3  502    0  0.14574393386E+04 -0.29258529030E+03 -0.44594146458E+03  0.15519662907E+04  0.25500000920E-02 0.  1.
       -2    1    3    3    0  502 -0.14574393386E+04  0.29258529030E+03 -0.46513374263E+02  0.14872454645E+04  0.25500000920E-02 0. -1.
</event>
<event>
 5   0  0.7585823E-07  0.2998901E+04  0.7818609E-02  0.8244045E-01
        2   -1    0    0  501    0  0.00000000000E+00  0.00000000000E+00  0.27501335639E+04  0.27501335639E+04  0.25500000920E-02 0. -1.
       -2   -1    0    0    0  501  0.00000000000E+00  0.00000000000E+00 -0.81754271042E+03  0.81754271042E+03  0.25500000920E-02 0.  1.
    10030    2    1    2    0    0  0.00000000000E+00  0.00000000000E+00  0.19325908534E+04  0.35676762743E+04  0.29989008972E+04 0.  0.
        5    1    3    3  502    0 -0.19780035329E+03  0.10203745562E+04 -0.31944188649E+03  0.10873612204E+04  0.46999998093E+01 0.  1.
       -5    1    3    3    0  502  0.19780035329E+03 -0.10203745562E+04  0.22520327399E+04  0.24803150539E+04  0.46999998093E+01 0. -1.
</event>
<event>
 5   0  0.2679935E-07  0.2995646E+04  0.7818609E-02  0.8244975E-01
       -1   -1    0    0    0  501  0.00000000000E+00  0.00000000000E+00  0.15676692991E+04  0.15676692991E+04  0.50400001928E-02 0.  1.
        1   -1    0    0  501    0  0.00000000000E+00  0.00000000000E+00 -0.14310888013E+04  0.14310888013E+04  0.50400001928E-02 0. -1.
    10030    2    1    2    0    0  0.00000000000E+00  0.00000000000E+00  0.13658049784E+03  0.29987581004E+04  0.29956461594E+04 0.  0.
        2    1    3    3  502    0 -0.12919693753E+04  0.33789213115E+03  0.74731489973E+03  0.15303056944E+04  0.25500000920E-02 0.  1.
       -2    1    3    3    0  502  0.12919693753E+04 -0.33789213115E+03 -0.61073440188E+03  0.14684524060E+04  0.25500000920E-02 0. -1.
</event>
<event>
 5   0  0.2621825E-07  0.2997416E+04  0.7818609E-02  0.8244469E-01
       -1   -1    0    0    0  501  0.00000000000E+00  0.00000000000E+00  0.10866731973E+04  0.10866731973E+04  0.50400001928E-02 0. -1.
        1   -1    0    0  501    0  0.00000000000E+00  0.00000000000E+00 -0.20669740943E+04  0.20669740943E+04  0.50400001928E-02 0.  1.
    10030    2    1    2    0    0  0.00000000000E+00  0.00000000000E+00 -0.98030089699E+03  0.31536472916E+04  0.29974157855E+04 0.  0.
        3    1    3    3  502    0 -0.10779189316E+04  0.99169610390E+03 -0.15618669809E+03  0.14730121115E+04  0.10100000352E+00 0. -1.
       -3    1    3    3    0  502  0.10779189316E+04 -0.99169610390E+03 -0.82411419890E+03  0.16806351801E+04  0.10100000352E+00 0.  1.
</event>
<event>
 5   0  0.2602891E-07  0.2990378E+04  0.7818609E-02  0.8246484E-01
        1   -1    0    0  501    0  0.00000000000E+00  0.00000000000E+00  0.13761708494E+04  0.13761708494E+04  0.50400001928E-02 0. -1.
       -1   -1    0    0    0  501  0.00000000000E+00  0.00000000000E+00 -0.16245008302E+04  0.16245008303E+04  0.50400001928E-02 0.  1.
    10030    2    1    2    0    0  0.00000000000E+00  0.00000000000E+00 -0.24832998081E+03  0.30006716797E+04  0.29903783623E+04 0.  0.
        5    1    3    3  502    0 -0.66977100642E+03  0.70999996320E+03  0.10123746422E+04  0.14062779437E+04  0.46999998093E+01 0. -1.
       -5    1    3    3    0  502  0.66977100642E+03 -0.70999996320E+03 -0.12607046230E+04  0.15943937360E+04  0.46999998093E+01 0.  1.
</event>
<event>
 5   0  0.7307508E-07  0.3000669E+04  0.7818609E-02  0.8243540E-01
       -2   -1    0    0    0  501  0.00000000000E+00  0.00000000000E+00  0.15142345232E+04  0.15142345233E+04  0.25500000920E-02 0.  1.
        2   -1    0    0  501    0  0.00000000000E+00  0.00000000000E+00 -0.14865618865E+04  0.14865618865E+04  0.25500000920E-02 0. -1.
    10030    2    1    2    0    0  0.00000000000E+00  0.00000000000E+00  0.27672636768E+02  0.30007964097E+04  0.30006688118E+04 0.  0.
        1    1    3    3  502    0  0.11094194677E+04  0.22895638372E+03  0.99763154896E+03  0.15094705325E+04  0.50400001928E-02 0.  1.
       -1    1    3    3    0  502 -0.11094194677E+04 -0.22895638372E+03 -0.96995891219E+03  0.14913258773E+04  0.50400001928E-02 0. -1.
</event>
<event>
 5   0  0.2621825E-07  0.2995117E+04  0.7818609E-02  0.8245127E-01
       -1   -1    0    0    0  501  0.00000000000E+00  0.00000000000E+00  0.20113217281E+04  0.20113217282E+04  0.50400001928E-02 0. -1.
        1   -1    0    0  501    0  0.00000000000E+00  0.00000000000E+00 -0.11150288219E+04  0.11150288219E+04  0.50400001928E-02 0.  1.
    10030    2    1    2    0    0  0.00000000000E+00  0.00000000000E+00  0.89629290629E+03  0.31263505500E+04  0.29951171576E+04 0.  0.
        3    1    3    3  502    0 -0.50246120264E+03  0.72472510543E+03  0.17115464857E+04  0.19253792150E+04  0.10100000352E+00 0. -1.
       -3    1    3    3    0  502  0.50246120264E+03 -0.72472510543E+03 -0.81525357941E+03  0.12009713350E+04  0.10100000352E+00 0.  1.
</event>
<event>
 5   0  0.7278657E-07  0.2997485E+04  0.7818609E-02  0.8244450E-01
        2   -1    0    0  501    0  0.00000000000E+00  0.00000000000E+00  0.21622821459E+04  0.21622821459E+04  0.25500000920E-02 0.  1.
       -2   -1    0    0    0  501  0.00000000000E+00  0.00000000000E+00 -0.10388230205E+04  0.10388230205E+04  0.25500000920E-02 0. -1.
    10030    2    1    2    0    0  0.00000000000E+00  0.00000000000E+00  0.11234591254E+04  0.32011051665E+04  0.29974845922E+04 0.  0.
        2    1    3    3  502    0  0.90309609904E+03 -0.96042239058E+03 -0.19960431563E+03  0.13333550222E+04  0.25500000920E-02 0.  1.
       -2    1    3    3    0  502 -0.90309609904E+03  0.96042239058E+03  0.13230634410E+04  0.18677501443E+04  0.25500000920E-02 0. -1.
</event>
<event>
 5   0  0.2792361E-07  0.3001614E+04  0.7818609E-02  0.8243270E-01
       -1   -1    0    0    0  501  0.00000000000E+00  0.00000000000E+00  0.16786896761E+04  0.16786896761E+04  0.50400001928E-02 0. -1.
        1   -1    0    0  501    0  0.00000000000E+00  0.00000000000E+00 -0.13417733198E+04  0.13417733198E+04  0.50400001928E-02 0.  1.
    10030    2    1    2    0    0  0.00000000000E+00  0.00000000000E+00  0.33691635635E+03  0.30204629959E+04  0.30016135792E+04 0.  0.
        4    1    3    3  502    0 -0.12445042545E+04  0.81891150763E+03 -0.14376264141E+02  0.14898373021E+04  0.12699999809E+01 0.  1.
       -4    1    3    3    0  502  0.12445042545E+04 -0.81891150763E+03  0.35129262049E+03  0.15306256939E+04  0.12699999809E+01 0. -1.
</event>
<event>
 5   0  0.2602891E-07  0.3002711E+04  0.7818609E-02  0.8242957E-01
        1   -1    0    0  501    0  0.00000000000E+00  0.00000000000E+00  0.12292239984E+04  0.12292239985E+04  0.50400001928E-02 0.  1.
       -1   -1    0    0    0  501  0.00000000000E+00  0.00000000000E+00 -0.18337325372E+04  0.18337325372E+04  0.50400001928E-02 0. -1.
    10030    2    1    2    0    0  0.00000000000E+00  0.00000000000E+00 -0.60450853880E+03  0.30629565357E+04  0.30027108029E+04 0.  0.
        5    1    3    3  502    0 -0.45507488831E+03 -0.11313802816E+04 -0.11955712782E+04  0.17077843151E+04  0.46999998093E+01 0. -1.
       -5    1    3    3    0  502  0.45507488831E+03  0.11313802816E+04  0.59106273942E+03  0.13551722206E+04  0.46999998093E+01 0.  1.
</event>
<event>
 5   0  0.7585823E-07  0.2996211E+04  0.7818609E-02  0.8244814E-01
        2   -1    0    0  501    0  0.00000000000E+00  0.00000000000E+00  0.17259508457E+04  0.17259508457E+04  0.25500000920E-02 0.  1.
       -2   -1    0    0    0  501  0.00000000000E+00  0.00000000000E+00 -0.13003380653E+04  0.13003380653E+04  0.25500000920E-02 0. -1.
    10030    2    1    2    0    0  0.00000000000E+00  0.00000000000E+00  0.42561278040E+03  0.30262889111E+04  0.29962106626E+04 0.  0.
        5    1    3    3  502    0  0.59464193006E+03  0.93413880786E+03  0.12319365813E+04  0.16564734129E+04  0.46999998093E+01 0.  1.
       -5    1    3    3    0  502 -0.59464193006E+03 -0.93413880786E+03 -0.80632380086E+03  0.13698154982E+04  0.46999998093E+01 0. -1.
</event>
<event>
 5   0  0.2602891E-07  0.3000658E+04  0.7818609E-02  0.8243543E-01
       -1   -1    0    0    0  501  0.00000000000E+00  0.00000000000E+00  0.14658519417E+04  0.14658519417E+04  0.50400001928E-02 0. -1.
        1   -1    0    0  501    0  0.00000000000E+00  0.00000000000E+00 -0.15356169658E+04  0.15356169658E+04  0.50400001928E-02 0.  1.
    10030    2    1    2    0    0  0.00000000000E+00  0.00000000000E+00 -0.69765024045E+02  0.30014689075E+04  0.30006580019E+04 0.  0.
        5    1    3    3  502    0  0.60420661080E+03 -0.12399659988E+04  0.55551738298E+03  0.14870114187E+04  0.46999998093E+01 0.  1.
       -5    1    3    3    0  502 -0.60420661080E+03  0.12399659988E+04 -0.62528240703E+03  0.15144574887E+04  0.46999998093E+01 0. -1.
</event>
<event>
 5   0  0.2679935E-07  0.2998758E+04  0.7818609E-02  0.8244086E-01
        1   -1    0    0  501    0  0.00000000000E+00  0.00000000000E+00  0.23713202778E+04  0.23713202778E+04  0.50400001928E-02 0. -1.
       -1   -1    0    0    0  501  0.00000000000E+00  0.00000000000E+00 -0.94805330903E+03  0.94805330905E+03  0.50400001928E-02 0.  1.
    10030    2    1    2    0    0  0.00000000000E+00  0.00000000000E+00  0.14232669688E+04  0.33193735869E+04  0.29987584339E+04 0.  0.
        2    1    3    3  502    0 -0.31271553479E+01 -0.47487947125E+03  0.22858757129E+04  0.23346837186E+04  0.25500000920E-02 0. -1.
       -2    1    3    3    0  502  0.31271553479E+01  0.47487947125E+03 -0.86260874407E+03  0.98468986826E+03  0.25500000920E-02 0.  1.
</event>
<event>
 5   0  0.7307508E-07  0.3000798E+04  0.7818609E-02  0.8243503E-01
        2   -1    0    0  501    0  0.00000000000E+00  0.00000000000E+00  0.20742661577E+04  0.20742661577E+04  0.25500000920E-02 0.  1.
       -2   -1    0    0    0  501  0.00000000000E+00  0.00000000000E+00 -0.10852979824E+04  0.10852979824E+04  0.25500000920E-02 0. -1.
    10030    2    1    2    0    0  0.00000000000E+00  0.00000000000E+00  0.98896817539E+03  0.31595641401E+04  0.30007978112E+04 0.  0.
        1    1    3    3  502    0 -0.36546282121E+03  0.12783365376E+04  0.12266069427E+04  0.18089422238E+04  0.50400001928E-02 0.  1.
       -1    1    3    3    0  502  0.36546282121E+03 -0.12783365376E+04 -0.23763876729E+03  0.13506219163E+04  0.50400001928E-02 0. -1.
</event>
<event>
 5   0  0.2792361E-07  0.2995171E+04  0.7818609E-02  0.8245111E-01
       -1   -1    0    0    0  501  0.00000000000E+00  0.00000000000E+00  0.23955968552E+04  0.23955968552E+04  0.50400001928E-02 0. -1.
        1   -1    0    0  501    0  0.00000000000E+00  0.00000000000E+00 -0.93620208919E+03  0.93620208921E+03  0.50400001928E-02 0.  1.
    10030    2    1    2    0    0  0.00000000000E+00  0.00000000000E+00  0.14593947660E+04  0.33317989444E+04  0.29951713011E+04 0.  0.
        4    1    3    3  502    0 -0.10394758524E+04  0.54288731366E+02  0.19274186477E+04  0.21905254097E+04  0.12699999809E+01 0. -1.
       -4    1    3    3    0  502  0.10394758524E+04 -0.54288731366E+02 -0.46802388174E+03  0.11412735347E+04  0.12699999809E+01 0.  1.
</event>
<event>
 5   0  0.7307508E-07  0.3010016E+04  0.7818609E-02  0.8240877E-01
        2   -1    0    0  501    0  0.00000000000E+00  0.00000000000E+00  0.17965946683E+04  0.17965946683E+04  0.25500000920E-02 0. -1.
       -2   -1    0    0    0  501  0.00000000000E+00  0.00000000000E+00 -0.12607453399E+04  0.12607453399E+04  0.25500000920E-02 0.  1.
    10030    2    1    2    0    0  0.00000000000E+00  0.00000000000E+00  0.53584932845E+03  0.30573400082E+04  0.30100155187E+04 0.  0.
        1    1    3    3  502    0  0.39182603661E+03 -0.13815396162E+04  0.72541597602E+03  0.16088529120E+04  0.50400001928E-02 0. -1.
       -1    1    3    3    0  502 -0.39182603661E+03  0.13815396162E+04 -0.18956664757E+03  0.14484870962E+04  0.50400001928E-02 0.  1.
</event>
<event>
 5   0  0.7307508E-07  0.2985842E+04  0.7818609E-02  0.8247785E-01
        2   -1    0    0  501    0  0.00000000000E+00  0.00000000000E+00  0.29935690333E+04  0.29935690333E+04  0.25500000920E-02 0.  1.
       -2   -1    0    0    0  501  0.00000000000E+00  0.00000000000E+00 -0.74453378581E+03  0.74453378582E+03  0.25500000920E-02 0. -1.
    10030    2    1    2    0    0  0.00000000000E+00  0.00000000000E+00  0.22490352475E+04  0.37381028191E+04  0.29858421160E+04 0.  0.
        1    1    3    3  502    0  0.65709368505E+03 -0.11147827094E+04  0.20566060406E+04  0.24298438235E+04  0.50400001928E-02 0.  1.
       -1    1    3    3    0  502 -0.65709368505E+03  0.11147827094E+04  0.19242920689E+03  0.13082589957E+04  0.50400001928E-02 0. -1.
</event>
<event>
 5   0  0.2792361E-07  0.3002013E+04  0.7818609E-02  0.8243156E-01
       -1   -1    0    0    0  501  0.00000000000E+00  0.00000000000E+00  0.10546800416E+04  0.10546800416E+04  0.50400001928E-02 0.  1.
        1   -1    0    0  501    0  0.00000000000E+00  0.00000000000E+00 -0.21362126077E+04  0.21362126078E+04  0.50400001928E-02 0. -1.
    10030    2    1    2    0    0  0.00000000000E+00  0.00000000000E+00 -0.10815325661E+04  0.31908926494E+04  0.30020131926E+04 0.  0.
        4    1    3    3  502    0 -0.56703584368E+03 -0.11641071645E+04 -0.13477049089E+04  0.18689529884E+04  0.12699999809E+01 0. -1.
       -4    1    3    3    0  502  0.56703584368E+03  0.11641071645E+04  0.26617234274E+03  0.13219396610E+04  0.12699999809E+01 0.  1.
</event>
<event>
 5   0  0.2621825E-07  0.3002268E+04  0.7818609E-02  0.8243084E-01
       -1   -1    0    0    0  501  0.00000000000E+00  0.00000000000E+00  0.17366836047E+04  0.17366836047E+04  0.50400001928E-02 0. -1.
        1   -1    0    0  501    0  0.00000000000E+00  0.00000000000E+00 -0.12975321583E+04  0.12975321583E+04  0.50400001928E-02 0.  1.
    10030    2    1    2    0    0  0.00000000000E+00  0.00000000000E+00  0.43915144641E+03  0.30342157630E+04  0.30022676936E+04 0.  0.
        3    1    3    3  502    0  0.12527881459E+04 -0.34615325740E+03 -0.53948426230E+03  0.14072467785E+04  0.10100000352E+00 0.  1.
       -3    1    3    3    0  502 -0.12527881459E+04  0.34615325740E+03  0.97863570870E+03  0.16269689845E+04  0.10100000352E+00 0. -1.
</event>
<event>
 5   0  0.7208273E-07  0.2999773E+04  0.7818609E-02  0.8243796E-01
        2   -1    0    0  501    0  0.00000000000E+00  0.00000000000E+00  0.82677017858E+03  0.82677017858E+03  0.25500000920E-02 0.  1.
       -2   -1    0    0    0  501  0.00000000000E+00  0.00000000000E+00 -0.27210221225E+04  0.27210221225E+04  0.25500000920E-02 0. -1.
    10030    2    1    2    0    0  0.00000000000E+00  0.00000000000E+00 -0.18942519440E+04  0.35477923011E+04  0.29997732889E+04 0.  0.
        4    1    3    3  502    0 -0.67881721658E+03  0.47744204653E+03  0.53048234290E+03  0.98496540566E+03  0.12699999809E+01 0.  1.
       -4    1    3    3    0  502  0.67881721658E+03 -0.47744204653E+03 -0.24247342869E+04  0.25628268955E+04  0.12699999809E+01 0. -1.
</event>
<event>
 5   0  0.2792361E-07  0.3000078E+04  0.7818609E-02  0.8243708E-01
       -1   -1    0    0    0  501  0.00000000000E+00  0.00000000000E+00  0.13313733909E+04  0.13313733909E+04  0.50400001928E-02 0.  1.
        1   -1    0    0  501    0  0.00000000000E+00  0.00000000000E+00 -0.16900726461E+04  0.16900726461E+04  0.50400001928E-02 0. -1.
    10030    2    1    2    0    0  0.00000000000E+00  0.00000000000E+00 -0.35869925512E+03  0.30214460370E+04  0.30000784988E+04 0.  0.
        4    1    3    3  502    0  0.46156687088E+03  0.51741214909E+03 -0.15189952737E+04  0.16697627265E+04  0.12699999809E+01 0. -1.
       -4    1    3    3    0  502 -0.46156687088E+03 -0.51741214909E+03  0.11602960186E+04  0.13516833105E+04  0.12699999809E+01 0.  1.
</event>
<event>
 5   0  0.2640081E-07  0.3008552E+04  0.7818609E-02  0.8241293E-01
        1   -1    0    0  501    0  0.00000000000E+00  0.00000000000E+00  0.21252381733E+04  0.21252381733E+04  0.50400001928E-02 0.  1.
       -1   -1    0    0    0  501  0.00000000000E+00  0.00000000000E+00 -0.10647493127E+04  0.10647493127E+04  0.50400001928E-02 0. -1.
    10030    2    1    2    0    0  0.00000000000E+00  0.00000000000E+00  0.10604888605E+04  0.31899874860E+04  0.30085517342E+04 0.  0.
        1    1    3    3  502    0 -0.15016161745E+04 -0.26048202358E+02  0.43955107455E+03  0.15648433760E+04  0.50400001928E-02 0. -1.
       -1    1    3    3    0  502  0.15016161745E+04  0.26048202358E+02  0.62093778597E+03  0.16251441100E+04  0.50400001928E-02 0.  1.
</event>
<event>
 5   0  0.2602891E-07  0.3010381E+04  0.7818609E-02  0.8240773E-01
       -1   -1    0    0    0  501  0.00000000000E+00  0.00000000000E+00  0.15649078180E+04  0.15649078180E+04  0.50400001928E-02 0. -1.
        1   -1    0    0  501    0  0.00000000000E+00  0.00000000000E+00 -0.14477523289E+04  0.14477523289E+04  0.50400001928E-02 0.  1.
    10030    2    1    2    0    0  0.00000000000E+00  0.00000000000E+00  0.11715548907E+03  0.30126601469E+04  0.30103813300E+04 0.  0.
        5    1    3    3  502    0  0.14334336557E+04 -0.82991516830E+02 -0.39338034348E+03  0.14887544531E+04  0.46999998093E+01 0.  1.
       -5    1    3    3    0  502 -0.14334336557E+04  0.82991516830E+02  0.51053583254E+03  0.15239056938E+04  0.46999998093E+01 0. -1.
</event>
<event>
 5   0  0.7208273E-07  0.2992053E+04  0.7818609E-02  0.8246004E-01
        2   -1    0    0  501    0  0.00000000000E+00  0.00000000000E+00  0.16151257474E+04  0.16151257474E+04  0.25500000920E-02 0. -1.
       -2   -1    0    0    0  501  0.00000000000E+00  0.00000000000E+00 -0.13857098414E+04  0.13857098414E+04  0.25500000920E-02 0.  1.
    10030    2    1    2    0    0  0.00000000000E+00  0.00000000000E+00  0.22941590603E+03  0.30008355888E+04  0.29920532370E+04 0.  0.
        4    1    3    3  502    0 -0.82601826436E+03 -0.53544471278E+03 -0.10151362236E+04  0.14140404446E+04  0.12699999809E+01 0.  1.
       -4    1    3    3    0  502  0.82601826436E+03  0.53544471278E+03  0.12445521296E+04  0.15867951442E+04  0.12699999809E+01 0. -1.
</event>
<event>
 5   0  0.7278657E-07  0.2994766E+04  0.7818609E-02  0.8245227E-01
       -2   -1    0    0    0  501  0.00000000000E+00  0.00000000000E+00  0.11054977367E+04  0.11054977367E+04  0.25500000920E-02 0. -1.
        2   -1    0    0  501    0  0.00000000000E+00  0.00000000000E+00 -0.20281866426E+04  0.20281866426E+04  0.25500000920E-02 0.  1.
    10030    2    1    2    0    0  0.00000000000E+00  0.00000000000E+00 -0.92268890592E+03  0.31336843793E+04  0.29947659294E+04 0.  0.
        2    1    3    3  502    0  0.18944429677E+03 -0.13044768690E+04  0.28196366393E+03  0.13479809164E+04  0.25500000920E-02 0. -1.
       -2    1    3    3    0  502 -0.18944429677E+03  0.13044768690E+04 -0.12046525698E+04  0.17857034629E+04  0.25500000920E-02 0.  1.
</event>
<event>
 5   0  0.2602891E-07  0.3008261E+04  0.7818609E-02  0.8241376E-01
       -1   -1    0    0    0  501  0.00000000000E+00  0.00000000000E+00  0.12564277318E+04  0.12564277318E+04  0.50400001928E-02 0.  1.
        1   -1    0    0  501    0  0.00000000000E+00  0.00000000000E+00 -0.18006674589E+04  0.18006674589E+04  0.50400001928E-02 0. -1.
    10030    2    1    2    0    0  0.00000000000E+00  0.00000000000E+00 -0.54423972708E+03  0.30570951906E+04  0.30082609801E+04 0.  0.
        5    1    3    3  502    0  0.41526004727E+03  0.49691365960E+03  0.11074978191E+04  0.12829409968E+04  0.46999998093E+01 0.  1.
       -5    1    3    3    0  502 -0.41526004727E+03 -0.49691365960E+03 -0.16517375462E+04  0.17741541938E+04  0.46999998093E+01 0. -1.
</event>
<event>
 5   0  0.2640081E-07  0.3001991E+04  0.7818609E-02  0.8243162E-01
       -1   -1    0    0    0  501  0.00000000000E+00  0.00000000000E+00  0.82752286156E+03  0.82752286157E+03  0.50400001928E-02 0.  1.
        1   -1    0    0  501    0  0.00000000000E+00  0.00000000000E+00 -0.27225690847E+04  0.27225690847E+04  0.50400001928E-02 0. -1.
    10030    2    1    2    0    0  0.00000000000E+00  0.00000000000E+00 -0.18950462231E+04  0.35500919463E+04  0.30019914455E+04 0.  0.
        1    1    3    3  502    0  0.49737314549E+02 -0.97531545428E+03  0.40044787784E+03  0.10554963471E+04  0.50400001928E-02 0.  1.
       -1    1    3    3    0  502 -0.49737314549E+02  0.97531545428E+03 -0.22954941010E+04  0.24945955992E+04  0.50400001928E-02 0. -1.
</event>
<event>
 5   0  0.7399409E-07  0.2999117E+04  0.7818609E-02  0.8243983E-01
       -2   -1    0    0    0  501  0.00000000000E+00  0.00000000000E+00  0.15557638518E+04  0.15557638518E+04  0.25500000920E-02 0.  1.
        2   -1    0    0  501    0  0.00000000000E+00  0.00000000000E+00 -0.14453841202E+04  0.14453841202E+04  0.25500000920E-02 0. -1.
    10030    2    1    2    0    0  0.00000000000E+00  0.00000000000E+00  0.11037973160E+03  0.30011479720E+04  0.29991174476E+04 0.  0.
        3    1    3    3  502    0 -0.64811682110E+03 -0.11513917735E+04 -0.65445733406E+03  0.14744737509E+04  0.10100000352E+00 0.  1.
       -3    1    3    3    0  502  0.64811682110E+03  0.11513917735E+04  0.76483706566E+03  0.15266742210E+04  0.10100000352E+00 0. -1.
</event>
<event>
 5   0  0.7208273E-07  0.2999746E+04  0.7818609E-02  0.8243803E-01
        2   -1    0    0  501    0  0.00000000000E+00  0.00000000000E+00  0.16761551349E+04  0.16761551350E+04  0.25500000920E-02 0. -1.
       -2   -1    0    0    0  501  0.00000000000E+00  0.00000000000E+00 -0.13421306840E+04  0.13421306840E+04  0.25500000920E-02 0.  1.
    10030    2    1    2    0    0  0.00000000000E+00  0.00000000000E+00  0.33402445099E+03  0.30182858189E+04  0.29997461477E+04 0.  0.
        4    1    3    3  502    0 -0.60175987527E+02  0.87352057014E+03  0.13923062819E+04  0.16447424514E+04  0.12699999809E+01 0. -1.
       -4    1    3    3    0  502  0.60175987527E+02 -0.87352057014E+03 -0.10582818309E+04  0.13735433675E+04  0.12699999809E+01 0.  1.
</event>
<event>
 5   0  0.7208273E-07  0.2999110E+04  0.7818609E-02  0.8243985E-01
        2   -1    0    0  501    0  0.00000000000E+00  0.00000000000E+00  0.26495135069E+04  0.26495135069E+04  0.25500000920E-02 0.  1.
       -2   -1    0    0    0  501  0.00000000000E+00  0.00000000000E+00 -0.84870859281E+03  0.84870859281E+03  0.25500000920E-02 0. -1.
    10030    2    1    2    0    0  0.00000000000E+00  0.00000000000E+00  0.18008049141E+04  0.34982220997E+04  0.29991097880E+04 0.  0.
        4    1    3    3  502    0  0.72112885892E+03 -0.13081148679E+04  0.10545815316E+04  0.18284789194E+04  0.12699999809E+01 0. -1.
       -4    1    3    3    0  502 -0.72112885892E+03  0.13081148679E+04  0.74622338246E+03  0.16697431803E+04  0.12699999809E+01 0.  1.
</event>
<event>
 5   0  0.2621825E-07  0.3002049E+04  0.7818609E-02  0.8243146E-01
       -1   -1    0    0    0  501  0.00000000000E+00  0.00000000000E+00  0.20911981724E+04  0.20911981724E+04  0.50400001928E-02 0. -1.
        1   -1    0    0  501    0  0.00000000000E+00  0.00000000000E+00 -0.10774081302E+04  0.10774081302E+04  0.50400001928E-02 0.  1.
    10030    2    1    2    0    0  0.00000000000E+00  0.00000000000E+00  0.10137900422E+04  0.31686063026E+04  0.30020485757E+04 0.  0.
        3    1    3    3  502    0  0.10872778548E+04  0.89258291748E+03 -0.45794872913E+02  0.14074709868E+04  0.10100000352E+00 0. -1.
       -3    1    3    3    0  502 -0.10872778548E+04 -0.89258291748E+03  0.10595849151E+04  0.17611353158E+04  0.10100000352E+00 0.  1.
</event>
<event>
 5   0  0.2621825E-07  0.3001557E+04  0.7818609E-02  0.8243287E-01
        1   -1    0    0  501    0  0.00000000000E+00  0.00000000000E+00  0.17446869210E+04  0.17446869210E+04  0.50400001928E-02 0. -1.
       -1   -1    0    0    0  501  0.00000000000E+00  0.00000000000E+00 -0.12909683409E+04  0.12909683409E+04  0.50400001928E-02 0.  1.
    10030    2    1    2    0    0  0.00000000000E+00  0.00000000000E+00  0.45371858004E+03  0.30356552619E+04  0.30015566494E+04 0.  0.
        3    1    3    3  502    0  0.20569966997E+03 -0.84423900596E+03 -0.10106770381E+04  0.13328615603E+04  0.10100000352E+00 0.  1.
       -3    1    3    3    0  502 -0.20569966997E+03  0.84423900596E+03  0.14643956182E+04  0.17027937016E+04  0.10100000352E+00 0. -1.
</event>
<event>
 5   0  0.2621825E-07  0.3001152E+04  0.7818609E-02  0.8243402E-01
        1   -1    0    0  501    0  0.00000000000E+00  0.00000000000E+00  0.19909176771E+04  0.19909176771E+04  0.50400001928E-02 0.  1.
       -1   -1    0    0    0  501  0.00000000000E+00  0.00000000000E+00 -0.11310005600E+04  0.11310005600E+04  0.50400001928E-02 0. -1.
    10030    2    1    2    0    0  0.00000000000E+00  0.00000000000E+00  0.85991711711E+03  0.31219182371E+04  0.30011524504E+04 0.  0.
        3    1    3    3  502    0 -0.84885649305E+03  0.19000425674E+03  0.17018915617E+04  0.19113068465E+04  0.10100000352E+00 0.  1.
       -3    1    3    3    0  502  0.84885649305E+03 -0.19000425674E+03 -0.84197444464E+03  0.12106113906E+04  0.10100000352E+00 0. -1.
</event>
<event>
 5   0  0.2679935E-07  0.2941569E+04  0.7818609E-02  0.8260616E-01
       -1   -1    0    0    0  501  0.00000000000E+00  0.00000000000E+00  0.14504330642E+04  0.14504330642E+04  0.50400001928E-02 0. -1.
        1   -1    0    0  501    0  0.00000000000E+00  0.00000000000E+00 -0.14914211193E+04  0.14914211193E+04  0.50400001928E-02 0.  1.
    10030    2    1    2    0    0  0.00000000000E+00  0.00000000000E+00 -0.40988055174E+02  0.29418541835E+04  0.29415686319E+04 0.  0.
        2    1    3    3  502    0  0.44599006760E+03  0.17428022865E+03 -0.14112856201E+04  0.14903046132E+04  0.25500000920E-02 0.  1.
       -2    1    3    3    0  502 -0.44599006760E+03 -0.17428022865E+03  0.13702975650E+04  0.14515495703E+04  0.25500000920E-02 0. -1.
</event>
<event>
 5   0  0.7399409E-07  0.2988551E+04  0.7818609E-02  0.8247008E-01
       -2   -1    0    0    0  501  0.00000000000E+00  0.00000000000E+00  0.11704875839E+04  0.11704875839E+04  0.25500000920E-02 0.  1.
        2   -1    0    0  501    0  0.00000000000E+00  0.00000000000E+00 -0.19076314706E+04  0.19076314706E+04  0.25500000920E-02 0. -1.
    10030    2    1    2    0    0  0.00000000000E+00  0.00000000000E+00 -0.73714388676E+03  0.30781190545E+04  0.29885507866E+04 0.  0.
        3    1    3    3  502    0  0.42630198228E+02 -0.14629771916E+04 -0.67882965844E+03  0.16133596352E+04  0.10100000352E+00 0. -1.
       -3    1    3    3    0  502 -0.42630198228E+02  0.14629771916E+04 -0.58314228325E+02  0.14647594193E+04  0.10100000352E+00 0.  1.
</event>
<event>
 5   0  0.7399409E-07  0.3003070E+04  0.7818609E-02  0.8242855E-01
       -2   -1    0    0    0  501  0.00000000000E+00  0.00000000000E+00  0.10576214830E+04  0.10576214830E+04  0.25500000920E-02 0. -1.
        2   -1    0    0  501    0  0.00000000000E+00  0.00000000000E+00 -0.21317718894E+04  0.21317718894E+04  0.25500000920E-02 0.  1.
    10030    2    1    2    0    0  0.00000000000E+00  0.00000000000E+00 -0.10741504064E+04  0.31893933724E+04  0.30030702603E+04 0.  0.
        3    1    3    3  502    0  0.74377896355E+03 -0.65216430488E+03 -0.17368008372E+04  0.19987502559E+04  0.10100000352E+00 0.  1.
       -3    1    3    3    0  502 -0.74377896355E+03  0.65216430488E+03  0.66265043079E+03  0.11906431165E+04  0.10100000352E+00 0. -1.
</event>
<event>
 5   0  0.2621825E-07  0.2997588E+04  0.7818609E-02  0.8244420E-01
        1   -1    0    0  501    0  0.00000000000E+00  0.00000000000E+00  0.27500259396E+04  0.27500259396E+04  0.50400001928E-02 0. -1.
       -1   -1    0    0    0  501  0.00000000000E+00  0.00000000000E+00 -0.81685926602E+03  0.81685926603E+03  0.50400001928E-02 0.  1.
    10030    2    1    2    0    0  0.00000000000E+00  0.00000000000E+00  0.19331666736E+04  0.35668852056E+04  0.29975884778E+04 0.  0.
        3    1    3    3  502    0 -0.28844874270E+03 -0.93849872621E+03  0.23140845083E+04  0.25137560857E+04  0.10100000352E+00 0. -1.
       -3    1    3    3    0  502  0.28844874270E+03  0.93849872621E+03 -0.38091783477E+03  0.10531291200E+04  0.10100000352E+00 0.  1.
</event>
<event>
 5   0  0.7278657E-07  0.3006630E+04  0.7818609E-02  0.8241840E-01
       -2   -1    0    0    0  501  0.00000000000E+00  0.00000000000E+00  0.13351414146E+04  0.13351414146E+04  0.25500000920E-02 0.  1.
        2   -1    0    0  501    0  0.00000000000E+00  0.00000000000E+00 -0.16926719435E+04  0.16926719435E+04  0.25500000920E-02 0. -1.
    10030    2    1    2    0    0  0.00000000000E+00  0.00000000000E+00 -0.35753052889E+03  0.30278133580E+04  0.30066302819E+04 0.  0.
        2    1    3    3  502    0  0.16589749170E+03  0.10646480404E+04  0.87693301941E+03  0.13892476194E+04  0.25500000920E-02 0.  1.
       -2    1    3    3    0  502 -0.16589749170E+03 -0.10646480404E+04 -0.12344635483E+04  0.16385657386E+04  0.25500000920E-02 0. -1.
</event>
<event>
 5   0  0.7307508E-07  0.3006037E+04  0.7818609E-02  0.8242009E-01
       -2   -1    0    0    0  501  0.00000000000E+00  0.00000000000E+00  0.12250740610E+04  0.12250740610E+04  0.25500000920E-02 0.  1.
        2   -1    0    0  501    0  0.00000000000E+00  0.00000000000E+00 -0.18440227130E+04  0.18440227130E+04  0.25500000920E-02 0. -1.
    10030    2    1    2    0    0  0.00000000000E+00  0.00000000000E+00 -0.61894865200E+03  0.30690967740E+04  0.30060368552E+04 0.  0.
        1    1    3    3  502    0  0.48107144683E+03 -0.10349685619E+04 -0.13079857377E+04  0.17359194541E+04  0.50400001928E-02 0. -1.
       -1    1    3    3    0  502 -0.48107144683E+03  0.10349685619E+04  0.68903708567E+03  0.13331773200E+04  0.50400001928E-02 0.  1.
</event>
<event>
 5   0  0.7208273E-07  0.3059561E+04  0.7818609E-02  0.8226924E-01
        2   -1    0    0  501    0  0.00000000000E+00  0.00000000000E+00  0.21260779427E+04  0.21260779427E+04  0.25500000920E-02 0. -1.
       -2   -1    0    0    0  501  0.00000000000E+00  0.00000000000E+00 -0.11007258667E+04  0.11007258667E+04  0.25500000920E-02 0.  1.
    10030    2    1    2    0    0  0.00000000000E+00  0.00000000000E+00  0.10253520760E+04  0.32268038094E+04  0.30595613975E+04 0.  0.
        4    1    3    3  502    0 -0.39818839362E+03 -0.14550844346E+04  0.24502723415E+03  0.15283535805E+04  0.12699999809E+01 0.  1.
       -4    1    3    3    0  502  0.39818839362E+03  0.14550844346E+04  0.78032484182E+03  0.16984502290E+04  0.12699999809E+01 0. -1.
</event>
<event>
 5   0  0.2602891E-07  0.3001575E+04  0.7818609E-02  0.8243281E-01
        1   -1    0    0  501    0  0.00000000000E+00  0.00000000000E+00  0.14890489315E+04  0.14890489315E+04  0.50400001928E-02 0. -1.
       -1   -1    0    0    0  501  0.00000000000E+00  0.00000000000E+00 -0.15126188158E+04  0.15126188158E+04  0.50400001928E-02 0.  1.
    10030    2    1    2    0    0  0.00000000000E+00  0.00000000000E+00 -0.23569884272E+02  0.30016677473E+04  0.30015752075E+04 0.  0.
        5    1    3    3  502    0 -0.66658174649E+03 -0.13101583613E+04 -0.31427597796E+03  0.15032091128E+04  0.46999998093E+01 0.  1.
       -5    1    3    3    0  502  0.66658174649E+03  0.13101583613E+04  0.29070609369E+03  0.14984586345E+04  0.46999998093E+01 0. -1.
</event>
<event>
 5   0  0.7307508E-07  0.3001385E+04  0.7818609E-02  0.8243335E-01
        2   -1    0    0  501    0  0.00000000000E+00  0.00000000000E+00  0.99226769518E+03  0.99226769519E+03  0.25500000920E-02 0. -1.
       -2   -1    0    0    0  501  0.00000000000E+00  0.00000000000E+00 -0.22696278866E+04  0.22696278866E+04  0.25500000920E-02 0.  1.
    10030    2    1    2    0    0  0.00000000000E+00  0.00000000000E+00 -0.12773601914E+04  0.32618955817E+04  0.30013853014E+04 0.  0.
        1    1    3    3  502    0 -0.92667746083E+03 -0.11964365416E+02 -0.19214704506E+04  0.21332892338E+04  0.50400001928E-02 0.  1.
       -1    1    3    3    0  502  0.92667746083E+03  0.11964365416E+02  0.64411025927E+03  0.11286063479E+04  0.50400001928E-02 0. -1.
</event>
<event>
 5   0  0.7399409E-07  0.3031890E+04  0.7818609E-02  0.8234683E-01
       -2   -1    0    0    0  501  0.00000000000E+00  0.00000000000E+00  0.20290113232E+04  0.20290113232E+04  0.25500000920E-02 0.  1.
        2   -1    0    0  501    0  0.00000000000E+00  0.00000000000E+00 -0.11326154044E+04  0.11326154044E+04  0.25500000920E-02 0. -1.
    10030    2    1    2    0    0  0.00000000000E+00  0.00000000000E+00  0.89639591874E+03  0.31616267276E+04  0.30318901565E+04 0.  0.
        3    1    3    3  502    0  0.98356511352E+03 -0.37933966288E+03 -0.68781731954E+03  0.12587261766E+04  0.10100000352E+00 0. -1.
       -3    1    3    3    0  502 -0.98356511352E+03  0.37933966288E+03  0.15842132383E+04  0.19029005510E+04  0.10100000352E+00 0.  1.
</event>
<event>
 5   0  0.2792361E-07  0.2999048E+04  0.7818609E-02  0.8244003E-01
        1   -1    0    0  501    0  0.00000000000E+00  0.00000000000E+00  0.16299438627E+04  0.16299438628E+04  0.50400001928E-02 0.  1.
       -1   -1    0    0    0  501  0.00000000000E+00  0.00000000000E+00 -0.13795393391E+04  0.13795393391E+04  0.50400001928E-02 0. -1.
    10030    2    1    2    0    0  0.00000000000E+00  0.00000000000E+00  0.25040452362E+03  0.30094832019E+04  0.29990476350E+04 0.  0.
        4    1    3    3  502    0  0.45660258574E+03 -0.14181817470E+04 -0.45225917082E+02  0.14905610975E+04  0.12699999809E+01 0.  1.
       -4    1    3    3    0  502 -0.45660258574E+03  0.14181817470E+04  0.29563044070E+03  0.15189221044E+04  0.12699999809E+01 0. -1.
</event>
<event>
 5   0  0.7585823E-07  0.2997285E+04  0.7818609E-02  0.8244507E-01
        2   -1    0    0  501    0  0.00000000000E+00  0.00000000000E+00  0.22816610068E+04  0.22816610068E+04  0.25500000920E-02 0.  1.
       -2   -1    0    0    0  501  0.00000000000E+00  0.00000000000E+00 -0.98433972961E+03  0.98433972961E+03  0.25500000920E-02 0. -1.
    10030    2    1    2    0    0  0.00000000000E+00  0.00000000000E+00  0.12973212772E+04  0.32660007364E+04  0.29972851573E+04 0.  0.
        5    1    3    3  502    0  0.66992542462E+02  0.10197168401E+04 -0.54578844803E+03  0.11585411321E+04  0.46999998093E+01 0. -1.
       -5    1    3    3    0  502 -0.66992542462E+02 -0.10197168401E+04  0.18431097252E+04  0.21074596043E+04  0.46999998093E+01 0.  1.
</event>
<event>
 5   0  0.7278657E-07  0.2999620E+04  0.7818609E-02  0.8243840E-01
       -2   -1    0    0    0  501  0.00000000000E+00  0.00000000000E+00  0.96753602203E+03  0.96753602204E+03  0.25500000920E-02 0. -1.
        2   -1    0    0  501    0  0.00000000000E+00  0.00000000000E+00 -0.23249051164E+04  0.23249051164E+04  0.25500000920E-02 0.  1.
    10030    2    1    2    0    0  0.00000000000E+00  0.00000000000E+00 -0.13573690944E+04  0.32924411384E+04  0.29996196078E+04 0.  0.
        2    1    3    3  502    0  0.19041674093E+03 -0.10898119233E+04  0.43283120121E+03  0.11879778668E+04  0.25500000920E-02 0. -1.
       -2    1    3    3    0  502 -0.19041674093E+03  0.10898119233E+04 -0.17902002956E+04  0.21044632716E+04  0.25500000920E-02 0.  1.
</event>
<event>
 5   0  0.7278657E-07  0.3009786E+04  0.7818609E-02  0.8240942E-01
        2   -1    0    0  501    0  0.00000000000E+00  0.00000000000E+00  0.15051177823E+04  0.15051177823E+04  0.25500000920E-02 0. -1.
       -2   -1    0    0    0  501  0.00000000000E+00  0.00000000000E+00 -0.15046682281E+04  0.15046682281E+04  0.25500000920E-02 0.  1.
    10030    2    1    2    0    0  0.00000000000E+00  0.00000000000E+00  0.44955418680E+00  0.30097860103E+04  0.30097859768E+04 0.  0.
        2    1    3    3  502    0 -0.22454254740E+03  0.85156995075E+02  0.14858330318E+04  0.15051149018E+04  0.25500000920E-02 0. -1.
       -2    1    3    3    0  502  0.22454254740E+03 -0.85156995075E+02 -0.14853834776E+04  0.15046711085E+04  0.25500000920E-02 0.  1.
</event>
<event>
 5   0  0.2621825E-07  0.2996017E+04  0.7818609E-02  0.8244869E-01
        1   -1    0    0  501    0  0.00000000000E+00  0.00000000000E+00  0.12245329251E+04  0.12245329251E+04  0.50400001928E-02 0.  1.
       -1   -1    0    0    0  501  0.00000000000E+00  0.00000000000E+00 -0.18325596032E+04  0.18325596032E+04  0.50400001928E-02 0. -1.
    10030    2    1    2    0    0  0.00000000000E+00  0.00000000000E+00 -0.60802667802E+03  0.30570925283E+04  0.29960170703E+04 0.  0.
        3    1    3    3  502    0 -0.79315216944E+03 -0.63108423509E+02 -0.15991220072E+04  0.17861310817E+04  0.10100000352E+00 0. -1.
       -3    1    3    3    0  502  0.79315216944E+03  0.63108423509E+02  0.99109532917E+03  0.12709614466E+04  0.10100000352E+00 0.  1.
</event>
<event>
 5   0  0.2679935E-07  0.2993590E+04  0.7818609E-02  0.8245564E-01
       -1   -1    0    0    0  501  0.00000000000E+00  0.00000000000E+00  0.98222167518E+03  0.98222167519E+03  0.50400001928E-02 0. -1.
        1   -1    0    0  501    0  0.00000000000E+00  0.00000000000E+00 -0.22809474295E+04  0.22809474296E+04  0.50400001928E-02 0.  1.
    10030    2    1    2    0    0  0.00000000000E+00  0.00000000000E+00 -0.12987257544E+04  0.32631691047E+04  0.29935904899E+04 0.  0.
        2    1    3    3  502    0 -0.12885605833E+04 -0.52442509642E+03 -0.12513498651E+04  0.18711725050E+04  0.25500000920E-02 0.  1.
       -2    1    3    3    0  502  0.12885605833E+04  0.52442509642E+03 -0.47375889271E+02  0.13919965997E+04  0.25500000920E-02 0. -1.
</event>
<event>
 5   0  0.7307508E-07  0.2970957E+04  0.7818609E-02  0.8252073E-01
        2   -1    0    0  501    0  0.00000000000E+00  0.00000000000E+00  0.16951861575E+04  0.16951861575E+04  0.25500000920E-02 0. -1.
       -2   -1    0    0    0  501  0.00000000000E+00  0.00000000000E+00 -0.13017136339E+04  0.13017136339E+04  0.25500000920E-02 0.  1.
    10030    2    1    2    0    0  0.00000000000E+00  0.00000000000E+00  0.39347252360E+03  0.29968997914E+04  0.29709573765E+04 0.  0.
        1    1    3    3  502    0  0.42332502677E+03  0.13247927235E+04  0.72318140013E+03  0.15675685555E+04  0.50400001928E-02 0. -1.
       -1    1    3    3    0  502 -0.42332502677E+03 -0.13247927235E+04 -0.32970887653E+03  0.14293312359E+04  0.50400001928E-02 0.  1.
</event>
<event>
 5   0  0.2679935E-07  0.2998495E+04  0.7818609E-02  0.8244161E-01
       -1   -1    0    0    0  501  0.00000000000E+00  0.00000000000E+00  0.12591731200E+04  0.12591731200E+04  0.50400001928E-02 0. -1.
        1   -1    0    0  501    0  0.00000000000E+00  0.00000000000E+00 -0.17850948015E+04  0.17850948015E+04  0.50400001928E-02 0.  1.
    10030    2    1    2    0    0  0.00000000000E+00  0.00000000000E+00 -0.52592168153E+03  0.30442679215E+04  0.29984952164E+04 0.  0.
        2    1    3    3  502    0 -0.14883437829E+03 -0.11727191509E+04  0.67324445643E+03  0.13603969925E+04  0.25500000920E-02 0. -1.
       -2    1    3    3    0  502  0.14883437829E+03  0.11727191509E+04 -0.11991661380E+04  0.16838709290E+04  0.25500000920E-02 0.  1.
</event>
<event>
 5   0  0.2602891E-07  0.2999061E+04  0.7818609E-02  0.8243999E-01
        1   -1    0    0  501    0  0.00000000000E+00  0.00000000000E+00  0.20171770161E+04  0.20171770161E+04  0.50400001928E-02 0.  1.
       -1   -1    0    0    0  501  0.00000000000E+00  0.00000000000E+00 -0.11147222766E+04  0.11147222766E+04  0.50400001928E-02 0. -1.
    10030    2    1    2    0    0  0.00000000000E+00  0.00000000000E+00  0.90245473945E+03  0.31318992927E+04  0.29990612903E+04 0.  0.
        5    1    3    3  502    0 -0.35062232350E+03  0.14542044181E+04  0.56037255776E+03  0.15973997611E+04  0.46999998093E+01 0.  1.
       -5    1    3    3    0  502  0.35062232350E+03 -0.14542044181E+04  0.34208218169E+03  0.15344995316E+04  0.46999998093E+01 0. -1.
</event>
<event>
 5   0  0.7585823E-07  0.2990534E+04  0.7818609E-02  0.8246439E-01
        2   -1    0    0  501    0  0.00000000000E+00  0.00000000000E+00  0.14513614576E+04  0.14513614576E+04  0.25500000920E-02 0. -1.
       -2   -1    0    0    0  501  0.00000000000E+00  0.00000000000E+00 -0.15405002434E+04  0.15405002434E+04  0.25500000920E-02 0.  1.
    10030    2    1    2    0    0  0.00000000000E+00  0.00000000000E+00 -0.89138785855E+02  0.29918617010E+04  0.29905335168E+04 0.  0.
        5    1    3    3  502    0  0.14841051968E+04  0.13269188656E+03 -0.16962577708E+03  0.14996567494E+04  0.46999998093E+01 0.  1.
       -5    1    3    3    0  502 -0.14841051968E+04 -0.13269188656E+03  0.80486991226E+02  0.14922049516E+04  0.46999998093E+01 0. -1.
</event>
<event>
 5   0  0.2679935E-07  0.2995046E+04  0.7818609E-02  0.8245147E-01
        1   -1    0    0  501    0  0.00000000000E+00  0.00000000000E+00  0.11761881466E+04  0.11761881466E+04  0.50400001928E-02 0. -1.
       -1   -1    0    0    0  501  0.00000000000E+00  0.00000000000E+00 -0.19066460154E+04  0.19066460154E+04  0.50400001928E-02 0.  1.
    10030    2    1    2    0    0  0.00000000000E+00  0.00000000000E+00 -0.73045786876E+03  0.30828341620E+04  0.29950455376E+04 0.  0.
        2    1    3    3  502    0  0.45917080911E+03 -0.21127675156E+03 -0.18161923340E+04  0.18852135932E+04  0.25500000920E-02 0.  1.
       -2    1    3    3    0  502 -0.45917080911E+03  0.21127675156E+03  0.10857344653E+04  0.11976205688E+04  0.25500000920E-02 0. -1.
</event>
<event>
 5   0  0.2621825E-07  0.2994062E+04  0.7818609E-02  0.8245429E-01
        1   -1    0    0  501    0  0.00000000000E+00  0.00000000000E+00  0.14405070663E+04  0.14405070663E+04  0.50400001928E-02 0.  1.
       -1   -1    0    0    0  501  0.00000000000E+00  0.00000000000E+00 -0.15557725696E+04  0.15557725696E+04  0.50400001928E-02 0. -1.
    10030    2    1    2    0    0  0.00000000000E+00  0.00000000000E+00 -0.11526550330E+03  0.29962796360E+04  0.29940617096E+04 0.  0.
        3    1    3    3  502    0 -0.91297945820E+03  0.17652397402E+02  0.11295251855E+04  0.14524703967E+04  0.10100000352E+00 0.  1.
       -3    1    3    3    0  502  0.91297945820E+03 -0.17652397402E+02 -0.12447906888E+04  0.15438092393E+04  0.10100000352E+00 0. -1.
</event>
<event>
 5   0  0.2602891E-07  0.3003447E+04  0.7818609E-02  0.8242747E-01
        1   -1    0    0  501    0  0.00000000000E+00  0.00000000000E+00  0.16230101659E+04  0.16230101659E+04  0.50400001928E-02 0.  1.
       -1   -1    0    0    0  501  0.00000000000E+00  0.00000000000E+00 -0.13895004694E+04  0.13895004695E+04  0.50400001928E-02 0. -1.
    10030    2    1    2    0    0  0.00000000000E+00  0.00000000000E+00  0.23350969641E+03  0.30125106353E+04  0.30034469447E+04 0.  0.
        5    1    3    3  502    0  0.43532740825E+03  0.56308016238E+03 -0.12095752811E+04  0.14034470679E+04  0.46999998093E+01 0. -1.
       -5    1    3    3    0  502 -0.43532740825E+03 -0.56308016238E+03  0.14430849775E+04  0.16090635674E+04  0.46999998093E+01 0.  1.
</event>
<event>
 5   0  0.7278657E-07  0.3054641E+04  0.7818609E-02  0.8228298E-01
       -2   -1    0    0    0  501  0.00000000000E+00  0.00000000000E+00  0.12912306502E+04  0.12912306502E+04  0.25500000920E-02 0. -1.
        2   -1    0    0  501    0  0.00000000000E+00  0.00000000000E+00 -0.18065772034E+04  0.18065772034E+04  0.25500000920E-02 0.  1.
    10030    2    1    2    0    0  0.00000000000E+00  0.00000000000E+00 -0.51534655326E+03  0.30978078536E+04  0.30546409655E+04 0.  0.
        2    1    3    3  502    0 -0.90702526541E+03 -0.10914274443E+04  0.31492875956E+03  0.14536467321E+04  0.25500000920E-02 0. -1.
       -2    1    3    3    0  502  0.90702526541E+03  0.10914274443E+04 -0.83027531282E+03  0.16441611215E+04  0.25500000920E-02 0.  1.
</event>
<event>
 5   0  0.7307508E-07  0.2997916E+04  0.7818609E-02  0.8244326E-01
       -2   -1    0    0    0  501  0.00000000000E+00  0.00000000000E+00  0.88939971734E+03  0.88939971734E+03  0.25500000920E-02 0.  1.
        2   -1    0    0  501    0  0.00000000000E+00  0.00000000000E+00 -0.25262819008E+04  0.25262819008E+04  0.25500000920E-02 0. -1.
    10030    2    1    2    0    0  0.00000000000E+00  0.00000000000E+00 -0.16368821834E+04  0.34156816181E+04  0.29979155482E+04 0.  0.
        1    1    3    3  502    0  0.24293654393E+03 -0.78556718522E+03 -0.22463818854E+04  0.23921466389E+04  0.50400001928E-02 0. -1.
       -1    1    3    3    0  502 -0.24293654393E+03  0.78556718522E+03  0.60949970200E+03  0.10235349792E+04  0.50400001928E-02 0.  1.
</event>
<event>
 5   0  0.2621825E-07  0.3010199E+04  0.7818609E-02  0.8240824E-01
       -1   -1    0    0    0  501  0.00000000000E+00  0.00000000000E+00  0.12370891336E+04  0.12370891336E+04  0.50400001928E-02 0. -1.
        1   -1    0    0  501    0  0.00000000000E+00  0.00000000000E+00 -0.18311735393E+04  0.18311735393E+04  0.50400001928E-02 0.  1.
    10030    2    1    2    0    0  0.00000000000E+00  0.00000000000E+00 -0.59408440573E+03  0.30682626730E+04  0.30101992541E+04 0.  0.
        3    1    3    3  502    0  0.70408583760E+03 -0.36879389351E+03  0.10057266709E+04  0.12818860907E+04  0.10100000352E+00 0. -1.
       -3    1    3    3    0  502 -0.70408583760E+03  0.36879389351E+03 -0.15998110767E+04  0.17863765823E+04  0.10100000352E+00 0.  1.
</event>
<event>
 5   0  0.7307508E-07  0.2999554E+04  0.7818609E-02  0.8243858E-01
        2   -1    0    0  501    0  0.00000000000E+00  0.00000000000E+00  0.12086124528E+04  0.12086124528E+04  0.25500000920E-02 0.  1.
       -2   -1    0    0    0  501  0.00000000000E+00  0.00000000000E+00 -0.18610852663E+04  0.18610852663E+04  0.25500000920E-02 0. -1.
    10030    2    1    2    0    0  0.00000000000E+00  0.00000000000E+00 -0.65247281349E+03  0.30696977191E+04  0.29995538526E+04 0.  0.
        1    1    3    3  502    0  0.42372702550E+03  0.44376742705E+03  0.10742897471E+04  0.12371631186E+04  0.50400001928E-02 0.  1.
       -1    1    3    3    0  502 -0.42372702550E+03 -0.44376742705E+03 -0.17267625605E+04  0.18325346005E+04  0.50400001928E-02 0. -1.
</event>
<event>
 5   0  0.7307508E-07  0.2987510E+04  0.7818609E-02  0.8247306E-01
       -2   -1    0    0    0  501  0.00000000000E+00  0.00000000000E+00  0.13095122587E+04  0.13095122587E+04  0.25500000920E-02 0.  1.
        2   -1    0    0  501    0  0.00000000000E+00  0.00000000000E+00 -0.17039203844E+04  0.17039203844E+04  0.25500000920E-02 0. -1.
    10030    2    1    2    0    0  0.00000000000E+00  0.00000000000E+00 -0.39440812565E+03  0.30134326431E+04  0.29875104226E+04 0.  0.
        1    1    3    3  502    0  0.55113901427E+03 -0.11846636173E+04 -0.92744886531E+03  0.16022931995E+04  0.50400001928E-02 0. -1.
       -1    1    3    3    0  502 -0.55113901427E+03  0.11846636173E+04  0.53304073966E+03  0.14111394437E+04  0.50400001928E-02 0.  1.
</event>
<event>
 5   0  0.7585823E-07  0.3004222E+04  0.7818609E-02  0.8242526E-01
        2   -1    0    0  501    0  0.00000000000E+00  0.00000000000E+00  0.15821702908E+04  0.15821702908E+04  0.25500000920E-02 0. -1.
       -2   -1    0    0    0  501  0.00000000000E+00  0.00000000000E+00 -0.14261025033E+04  0.14261025033E+04  0.25500000920E-02 0.  1.
    10030    2    1    2    0    0  0.00000000000E+00  0.00000000000E+00  0.15606778749E+03  0.30082727941E+04  0.30042217045E+04 0.  0.
        5    1    3    3  502    0 -0.62704407002E+03 -0.24482435936E+03  0.14226743857E+04  0.15738957178E+04  0.46999998093E+01 0. -1.
       -5    1    3    3    0  502  0.62704407002E+03  0.24482435936E+03 -0.12666065982E+04  0.14343770764E+04  0.46999998093E+01 0.  1.
</event>
<event>
 5   0  0.7399409E-07  0.3001122E+04  0.7818609E-02  0.8243411E-01
        2   -1    0    0  501    0  0.00000000000E+00  0.00000000000E+00  0.22229088903E+04  0.22229088903E+04  0.25500000920E-02 0. -1.
       -2   -1    0    0    0  501  0.00000000000E+00  0.00000000000E+00 -0.10129443744E+04  0.10129443744E+04  0.25500000920E-02 0.  1.
    10030    2    1    2    0    0  0.00000000000E+00  0.00000000000E+00  0.12099645160E+04  0.32358532647E+04  0.30011218270E+04 0.  0.
        3    1    3    3  502    0 -0.84433029095E+03  0.81265843218E+03  0.16155032618E+04  0.19957851004E+04  0.10100000352E+00 0. -1.
       -3    1    3    3    0  502  0.84433029095E+03 -0.81265843218E+03 -0.40553874586E+03  0.12400681643E+04  0.10100000352E+00 0.  1.
</event>
<event>
 5   0  0.2640081E-07  0.2998045E+04  0.7818609E-02  0.8244289E-01
        1   -1    0    0  501    0  0.00000000000E+00  0.00000000000E+00  0.19415878650E+04  0.19415878650E+04  0.50400001928E-02 0. -1.
       -1   -1    0    0    0  501  0.00000000000E+00  0.00000000000E+00 -0.11573354309E+04  0.11573354309E+04  0.50400001928E-02 0.  1.
    10030    2    1    2    0    0  0.00000000000E+00  0.00000000000E+00  0.78425243413E+03  0.30989232960E+04  0.29980449820E+04 0.  0.
        1    1    3    3  502    0  0.10182111203E+04  0.34414670476E+02 -0.74447786550E+03  0.12618183496E+04  0.50400001928E-02 0.  1.
       -1    1    3    3    0  502 -0.10182111203E+04 -0.34414670476E+02  0.15287302996E+04  0.18371049464E+04  0.50400001928E-02 0. -1.
</event>
<event>
 5   0  0.2640081E-07  0.3001208E+04  0.7818609E-02  0.8243386E-01
       -1   -1    0    0    0  501  0.00000000000E+00  0.00000000000E+00  0.23094131111E+04  0.23094131111E+04  0.50400001928E-02 0. -1.
        1   -1    0    0  501    0  0.00000000000E+00  0.00000000000E+00 -0.97505847969E+03  0.97505847970E+03  0.50400001928E-02 0.  1.
    10030    2    1    2    0    0  0.00000000000E+00  0.00000000000E+00  0.13343546314E+04  0.32844715908E+04  0.30012083147E+04 0.  0.
        1    1    3    3  502    0 -0.73677083534E+03  0.10714230010E+04 -0.15253995566E+03  0.13092161582E+04  0.50400001928E-02 0.  1.
       -1    1    3    3    0  502  0.73677083534E+03 -0.10714230010E+04  0.14868945870E+04  0.19752554325E+04  0.50400001928E-02 0. -1.
</event>
<event>
 5   0  0.2621825E-07  0.2999779E+04  0.7818609E-02  0.8243794E-01
        1   -1    0    0  501    0  0.00000000000E+00  0.00000000000E+00  0.16271888037E+04  0.16271888037E+04  0.50400001928E-02 0. -1.
       -1   -1    0    0    0  501  0.00000000000E+00  0.00000000000E+00 -0.13825493475E+04  0.13825493475E+04  0.50400001928E-02 0.  1.
    10030    2    1    2    0    0  0.00000000000E+00  0.00000000000E+00  0.24463945618E+03  0.30097381513E+04  0.29997792045E+04 0.  0.
        3    1    3    3  502    0  0.95313930592E+03 -0.11225113828E+04 -0.16351635033E+03  0.14816355652E+04  0.10100000352E+00 0.  1.
       -3    1    3    3    0  502 -0.95313930592E+03  0.11225113828E+04  0.40815580650E+03  0.15281025861E+04  0.10100000352E+00 0. -1.
</event>
<event>
 5   0  0.7585823E-07  0.3001828E+04  0.7818609E-02  0.8243209E-01
       -2   -1    0    0    0  501  0.00000000000E+00  0.00000000000E+00  0.85620822918E+03  0.85620822918E+03  0.25500000920E-02 0. -1.
        2   -1    0    0  501    0  0.00000000000E+00  0.00000000000E+00 -0.26310692099E+04  0.26310692099E+04  0.25500000920E-02 0.  1.
    10030    2    1    2    0    0  0.00000000000E+00  0.00000000000E+00 -0.17748609807E+04  0.34872774391E+04  0.30018281823E+04 0.  0.
        5    1    3    3  502    0  0.43105908955E+03  0.13847592192E+04 -0.13363874574E+04  0.19721368006E+04  0.46999998093E+01 0. -1.
       -5    1    3    3    0  502 -0.43105908955E+03 -0.13847592192E+04 -0.43847352333E+03  0.15151406385E+04  0.46999998093E+01 0.  1.
</event>
<event>
 5   0  0.7307508E-07  0.3000067E+04  0.7818609E-02  0.8243712E-01
        2   -1    0    0  501    0  0.00000000000E+00  0.00000000000E+00  0.15171158884E+04  0.15171158885E+04  0.25500000920E-02 0.  1.
       -2   -1    0    0    0  501  0.00000000000E+00  0.00000000000E+00 -0.14831430480E+04  0.14831430480E+04  0.25500000920E-02 0. -1.
    10030    2    1    2    0    0  0.00000000000E+00  0.00000000000E+00  0.33972840482E+02  0.30002589364E+04  0.30000665879E+04 0.  0.
        1    1    3    3  502    0  0.37040935574E+03  0.10880029303E+04  0.98097063352E+03  0.15110449534E+04  0.50400001928E-02 0.  1.
       -1    1    3    3    0  502 -0.37040935574E+03 -0.10880029303E+04 -0.94699779304E+03  0.14892139830E+04  0.50400001928E-02 0. -1.
</event>
<event>
 5   0  0.2602891E-07  0.3003645E+04  0.7818609E-02  0.8242691E-01
       -1   -1    0    0    0  501  0.00000000000E+00  0.00000000000E+00  0.12539741818E+04  0.12539741818E+04  0.50400001928E-02 0.  1.
        1   -1    0    0  501    0  0.00000000000E+00  0.00000000000E+00 -0.17986576352E+04  0.17986576352E+04  0.50400001928E-02 0. -1.
    10030    2    1    2    0    0  0.00000000000E+00  0.00000000000E+00 -0.54468345345E+03  0.30526318170E+04  0.30036446104E+04 0.  0.
        5    1    3    3  502    0  0.35273101150E+03 -0.82224279608E+03  0.95354200819E+03  0.13075805266E+04  0.46999998093E+01 0.  1.
       -5    1    3    3    0  502 -0.35273101150E+03  0.82224279608E+03 -0.14982254616E+04  0.17450512904E+04  0.46999998093E+01 0. -1.
</event>
<event>
 5   0  0.2602891E-07  0.3004126E+04  0.7818609E-02  0.8242554E-01
        1   -1    0    0  501    0  0.00000000000E+00  0.00000000000E+00  0.12970514152E+04  0.12970514152E+04  0.50400001928E-02 0. -1.
       -1   -1    0    0    0  501  0.00000000000E+00  0.00000000000E+00 -0.17394788928E+04  0.17394788928E+04  0.50400001928E-02 0.  1.
    10030    2    1    2    0    0  0.00000000000E+00  0.00000000000E+00 -0.44242747756E+03  0.30365303081E+04  0.30041262022E+04 0.  0.
        5    1    3    3  502    0 -0.67477104056E+03  0.57020133295E+03  0.10066842964E+04  0.13393583837E+04  0.46999998093E+01 0. -1.
       -5    1    3    3    0  502  0.67477104056E+03 -0.57020133295E+03 -0.14491117740E+04  0.16971719244E+04  0.46999998093E+01 0.  1.
</event>
<event>
 5   0  0.7307508E-07  0.3011841E+04  0.7818609E-02  0.8240358E-01
       -2   -1    0    0    0  501  0.00000000000E+00  0.00000000000E+00  0.63300796083E+03  0.63300796084E+03  0.25500000920E-02 0.  1.
        2   -1    0    0  501    0  0.00000000000E+00  0.00000000000E+00 -0.35825726154E+04  0.35825726154E+04  0.25500000920E-02 0. -1.
    10030    2    1    2    0    0  0.00000000000E+00  0.00000000000E+00 -0.29495646546E+04  0.42155805762E+04  0.30118412879E+04 0.  0.
        1    1    3    3  502    0  0.38018710598E+02 -0.12387113099E+04 -0.27731191943E+03  0.12699421374E+04  0.50400001928E-02 0.  1.
       -1    1    3    3    0  502 -0.38018710598E+02  0.12387113099E+04 -0.26722527351E+04  0.29456384388E+04  0.50400001928E-02 0. -1.
</event>
<event>
 5   0  0.2621825E-07  0.2997309E+04  0.7818609E-02  0.8244500E-01
       -1   -1    0    0    0  501  0.00000000000E+00  0.00000000000E+00  0.17444432173E+04  0.17444432173E+04  0.50400001928E-02 0.  1.
        1   -1    0    0  501    0  0.00000000000E+00  0.00000000000E+00 -0.12874971605E+04  0.12874971605E+04  0.50400001928E-02 0. -1.
    10030    2    1    2    0    0  0.00000000000E+00  0.00000000000E+00  0.45694605680E+03  0.30319403779E+04  0.29973092527E+04 0.  0.
        3    1    3    3  502    0 -0.26450917607E+03 -0.64699091809E+03  0.15694608214E+04  0.17180714864E+04  0.10100000352E+00 0.  1.
       -3    1    3    3    0  502  0.26450917607E+03  0.64699091809E+03 -0.11125147646E+04  0.13138688915E+04  0.10100000352E+00 0. -1.
</event>
<event>
 5   0  0.2679935E-07  0.3005399E+04  0.7818609E-02  0.8242191E-01
       -1   -1    0    0    0  501  0.00000000000E+00  0.00000000000E+00  0.13266968618E+04  0.13266968619E+04  0.50400001928E-02 0. -1.
        1   -1    0    0  501    0  0.00000000000E+00  0.00000000000E+00 -0.17020511954E+04  0.17020511954E+04  0.50400001928E-02 0.  1.
    10030    2    1    2    0    0  0.00000000000E+00  0.00000000000E+00 -0.37535433353E+03  0.30287480573E+04  0.30053991280E+04 0.  0.
        2    1    3    3  502    0 -0.10478645260E+04  0.37739749674E+03  0.82895000741E+03  0.13883828903E+04  0.25500000920E-02 0. -1.
       -2    1    3    3    0  502  0.10478645260E+04 -0.37739749674E+03 -0.12043043409E+04  0.16403651669E+04  0.25500000920E-02 0.  1.
</event>
<event>
 5   0  0.2792361E-07  0.2999689E+04  0.7818609E-02  0.8243820E-01
       -1   -1    0    0    0  501  0.00000000000E+00  0.00000000000E+00  0.17666366743E+04  0.17666366743E+04  0.50400001928E-02 0. -1.
        1   -1    0    0  501    0  0.00000000000E+00  0.00000000000E+00 -0.12733425405E+04  0.12733425405E+04  0.50400001928E-02 0.  1.
    10030    2    1    2    0    0  0.00000000000E+00  0.00000000000E+00  0.49329413380E+03  0.30399792149E+04  0.29996890713E+04 0.  0.
        4    1    3    3  502    0  0.90359948841E+03 -0.50959692100E+03 -0.85111530422E+03  0.13418568967E+04  0.12699999809E+01 0.  1.
       -4    1    3    3    0  502 -0.90359948841E+03  0.50959692100E+03  0.13444094380E+04  0.16981223181E+04  0.12699999809E+01 0. -1.
</event>
<event>
 5   0  0.2792361E-07  0.2999625E+04  0.7818609E-02  0.8243838E-01
       -1   -1    0    0    0  501  0.00000000000E+00  0.00000000000E+00  0.14964362145E+04  0.14964362145E+04  0.50400001928E-02 0. -1.
        1   -1    0    0  501    0  0.00000000000E+00  0.00000000000E+00 -0.15031963158E+04  0.15031963158E+04  0.50400001928E-02 0.  1.
    10030    2    1    2    0    0  0.00000000000E+00  0.00000000000E+00 -0.67601012551E+01  0.29996325303E+04  0.29996249129E+04 0.  0.
        4    1    3    3  502    0 -0.13501717744E+04 -0.39312109427E+03 -0.52484832147E+03  0.15009914685E+04  0.12699999809E+01 0.  1.
       -4    1    3    3    0  502  0.13501717744E+04  0.39312109427E+03  0.51808822022E+03  0.14986410618E+04  0.12699999809E+01 0. -1.
</event>
<event>
 5   0  0.2640081E-07  0.2998221E+04  0.7818609E-02  0.8244239E-01
        1   -1    0    0  501    0  0.00000000000E+00  0.00000000000E+00  0.20773081470E+04  0.20773081470E+04  0.50400001928E-02 0. -1.
       -1   -1    0    0    0  501  0.00000000000E+00  0.00000000000E+00 -0.10818480552E+04  0.10818480552E+04  0.50400001928E-02 0.  1.
    10030    2    1    2    0    0  0.00000000000E+00  0.00000000000E+00  0.99546009174E+03  0.31591562022E+04  0.29982206583E+04 0.  0.
        1    1    3    3  502    0 -0.14009349094E+04  0.47387233328E+03  0.75616712063E+03  0.16610124392E+04  0.50400001928E-02 0.  1.
       -1    1    3    3    0  502  0.14009349094E+04 -0.47387233328E+03  0.23929297110E+03  0.14981437630E+04  0.50400001928E-02 0. -1.
</event>
<event>
 5   0  0.2621825E-07  0.3007986E+04  0.7818609E-02  0.8241454E-01
        1   -1    0    0  501    0  0.00000000000E+00  0.00000000000E+00  0.12364704060E+04  0.12364704060E+04  0.50400001928E-02 0. -1.
       -1   -1    0    0    0  501  0.00000000000E+00  0.00000000000E+00 -0.18293961561E+04  0.18293961561E+04  0.50400001928E-02 0.  1.
    10030    2    1    2    0    0  0.00000000000E+00  0.00000000000E+00 -0.59292575015E+03  0.30658665621E+04  0.30079855106E+04 0.  0.
        3    1    3    3  502    0 -0.77470135821E+03  0.54335861428E+03 -0.14879714481E+04  0.17633660478E+04  0.10100000352E+00 0.  1.
       -3    1    3    3    0  502  0.77470135821E+03 -0.54335861428E+03  0.89504569795E+03  0.13025005143E+04  0.10100000352E+00 0. -1.
</event>
<event>
 5   0  0.2792361E-07  0.2982206E+04  0.7818609E-02  0.8248830E-01
        1   -1    0    0  501    0  0.00000000000E+00  0.00000000000E+00  0.18237240138E+04  0.18237240138E+04  0.50400001928E-02 0.  1.
       -1   -1    0    0    0  501  0.00000000000E+00  0.00000000000E+00 -0.12191476166E+04  0.12191476166E+04  0.50400001928E-02 0. -1.
    10030    2    1    2    0    0  0.00000000000E+00  0.00000000000E+00  0.60457639727E+03  0.30428716304E+04  0.29822064213E+04 0.  0.
        4    1    3    3  502    0  0.14806527955E+04 -0.16725713061E+03  0.35891052173E+03  0.15326858856E+04  0.12699999809E+01 0. -1.
       -4    1    3    3    0  502 -0.14806527955E+04  0.16725713061E+03  0.24566587555E+03  0.15101857448E+04  0.12699999809E+01 0.  1.
</event>
<event>
 5   0  0.7399409E-07  0.3002003E+04  0.7818609E-02  0.8243159E-01
       -2   -1    0    0    0  501  0.00000000000E+00  0.00000000000E+00  0.12876418174E+04  0.12876418174E+04  0.25500000920E-02 0. -1.
        2   -1    0    0  501    0  0.00000000000E+00  0.00000000000E+00 -0.17497148303E+04  0.17497148303E+04  0.25500000920E-02 0.  1.
    10030    2    1    2    0    0  0.00000000000E+00  0.00000000000E+00 -0.46207301297E+03  0.30373566477E+04  0.30020033205E+04 0.  0.
        3    1    3    3  502    0 -0.38273936393E+03 -0.73314118566E+03 -0.14983934199E+04  0.17114813086E+04  0.10100000352E+00 0.  1.
       -3    1    3    3    0  502  0.38273936393E+03  0.73314118566E+03  0.10363204069E+04  0.13258753391E+04  0.10100000352E+00 0. -1.
</event>
<event>
 5   0  0.2679935E-07  0.3008646E+04  0.7818609E-02  0.8241266E-01
       -1   -1    0    0    0  501  0.00000000000E+00  0.00000000000E+00  0.92004895205E+03  0.92004895207E+03  0.50400001928E-02 0. -1.
        1   -1    0    0  501    0  0.00000000000E+00  0.00000000000E+00 -0.24596385393E+04  0.24596385393E+04  0.50400001928E-02 0.  1.
    10030    2    1    2    0    0  0.00000000000E+00  0.00000000000E+00 -0.15395895872E+04  0.33796874914E+04  0.30086461145E+04 0.  0.
        2    1    3    3  502    0 -0.13626121600E+04  0.55006941026E+03 -0.40805691354E+03  0.15250569496E+04  0.25500000920E-02 0. -1.
       -2    1    3    3    0  502  0.13626121600E+04 -0.55006941026E+03 -0.11315326737E+04  0.18546305418E+04  0.25500000920E-02 0.  1.
</event>
<event>
 5   0  0.2621825E-07  0.2993064E+04  0.7818609E-02  0.8245714E-01
        1   -1    0    0  501    0  0.00000000000E+00  0.00000000000E+00  0.13508687903E+04  0.13508687903E+04  0.50400001928E-02 0.  1.
       -1   -1    0    0    0  501  0.00000000000E+00  0.00000000000E+00 -0.16579021077E+04  0.16579021077E+04  0.50400001928E-02 0. -1.
    10030    2    1    2    0    0  0.00000000000E+00  0.00000000000E+00 -0.30703331745E+03  0.30087708980E+04  0.29930641254E+04 0.  0.
        3    1    3    3  502    0 -0.19016239136E+03 -0.91287141534E+03  0.10231438359E+04  0.13843118417E+04  0.10100000352E+00 0.  1.
       -3    1    3    3    0  502  0.19016239136E+03  0.91287141534E+03 -0.13301771534E+04  0.16244590563E+04  0.10100000352E+00 0. -1.
</event>
<event>
 5   0  0.2679935E-07  0.2989600E+04  0.7818609E-02  0.8246707E-01
        1   -1    0    0  501    0  0.00000000000E+00  0.00000000000E+00  0.20678422850E+04  0.20678422850E+04  0.50400001928E-02 0.  1.
       -1   -1    0    0    0  501  0.00000000000E+00  0.00000000000E+00 -0.10805594514E+04  0.10805594514E+04  0.50400001928E-02 0. -1.
    10030    2    1    2    0    0  0.00000000000E+00  0.00000000000E+00  0.98728283354E+03  0.31484017364E+04  0.29895996555E+04 0.  0.
        2    1    3    3  502    0 -0.86618887151E+02 -0.99358436420E+03 -0.67892601406E+03  0.12065045599E+04  0.25500000920E-02 0. -1.
       -2    1    3    3    0  502  0.86618887151E+02  0.99358436420E+03  0.16662088476E+04  0.19418971765E+04  0.25500000920E-02 0.  1.
</event>
<event>
 5   0  0.7307508E-07  0.3004223E+04  0.7818609E-02  0.8242526E-01
        2   -1    0    0  501    0  0.00000000000E+00  0.00000000000E+00  0.28288377212E+04  0.28288377212E+04  0.25500000920E-02 0.  1.
       -2   -1    0    0    0  501  0.00000000000E+00  0.00000000000E+00 -0.79762073593E+03  0.79762073593E+03  0.25500000920E-02 0. -1.
    10030    2    1    2    0    0  0.00000000000E+00  0.00000000000E+00  0.20312169853E+04  0.36264584571E+04  0.30042234438E+04 0.  0.
        1    1    3    3  502    0  0.79781610615E+03  0.12726242617E+04  0.99627292261E+03  0.18023991753E+04  0.50400001928E-02 0.  1.
       -1    1    3    3    0  502 -0.79781610615E+03 -0.12726242617E+04  0.10349440627E+04  0.18240592818E+04  0.50400001928E-02 0. -1.
</event>
<event>
 5   0  0.2640081E-07  0.2982347E+04  0.7818609E-02  0.8248790E-01
       -1   -1    0    0    0  501  0.00000000000E+00  0.00000000000E+00  0.11301983359E+04  0.11301983359E+04  0.50400001928E-02 0.  1.
        1   -1    0    0  501    0  0.00000000000E+00  0.00000000000E+00 -0.19674408734E+04  0.19674408734E+04  0.50400001928E-02 0. -1.
    10030    2    1    2    0    0  0.00000000000E+00  0.00000000000E+00 -0.83724253748E+03  0.30976392093E+04  0.29823469960E+04 0.  0.
        1    1    3    3  502    0 -0.66737177088E+03  0.11886622223E+04  0.20914039015E+03  0.13791456276E+04  0.50400001928E-02 0.  1.
       -1    1    3    3    0  502  0.66737177088E+03 -0.11886622223E+04 -0.10463829276E+04  0.17184935817E+04  0.50400001928E-02 0. -1.
</event>
<event>
 5   0  0.7278657E-07  0.2998401E+04  0.7818609E-02  0.8244188E-01
       -2   -1    0    0    0  501  0.00000000000E+00  0.00000000000E+00  0.89817572165E+03  0.89817572166E+03  0.25500000920E-02 0. -1.
        2   -1    0    0  501    0  0.00000000000E+00  0.00000000000E+00 -0.25024085145E+04  0.25024085145E+04  0.25500000920E-02 0.  1.
    10030    2    1    2    0    0  0.00000000000E+00  0.00000000000E+00 -0.16042327929E+04  0.34005842362E+04  0.29984012896E+04 0.  0.
        2    1    3    3  502    0  0.18207939263E+03 -0.67540093131E+03 -0.23059791414E+04  0.24097425430E+04  0.25500000920E-02 0.  1.
       -2    1    3    3    0  502 -0.18207939263E+03  0.67540093131E+03  0.70174634850E+03  0.99084169315E+03  0.25500000920E-02 0. -1.
</event>
<event>
 5   0  0.2414250E-07  0.3004996E+04  0.7818609E-02  0.8242306E-01
       -3   -1    0    0    0  501  0.00000000000E+00  0.00000000000E+00  0.17243551841E+04  0.17243551870E+04  0.10100000352E+00 0.  1.
        3   -1    0    0  501    0  0.00000000000E+00  0.00000000000E+00 -0.13091851323E+04  0.13091851362E+04  0.10100000352E+00 0. -1.
    10030    2    1    2    0    0  0.00000000000E+00  0.00000000000E+00  0.41517005180E+03  0.30335403232E+04  0.30049959602E+04 0.  0.
        4    1    3    3  502    0 -0.26504533893E+03 -0.80827398457E+03  0.14578741355E+04  0.16878846150E+04  0.12699999809E+01 0.  1.
       -4    1    3    3    0  502  0.26504533893E+03  0.80827398457E+03 -0.10427040837E+04  0.13456557082E+04  0.12699999809E+01 0. -1.
</event>
<event>
 5   0  0.2640081E-07  0.2998391E+04  0.7818609E-02  0.8244190E-01
       -1   -1    0    0    0  501  0.00000000000E+00  0.00000000000E+00  0.73199864302E+03  0.73199864304E+03  0.50400001928E-02 0. -1.
        1   -1    0    0  501    0  0.00000000000E+00  0.00000000000E+00 -0.30704801054E+04  0.30704801054E+04  0.50400001928E-02 0.  1.
    10030    2    1    2    0    0  0.00000000000E+00  0.00000000000E+00 -0.23384814624E+04  0.38024787484E+04  0.29983910823E+04 0.  0.
        1    1    3    3  502    0 -0.56033670610E+03  0.13790694281E+04 -0.13953085709E+04  0.20402685411E+04  0.50400001928E-02 0.  1.
       -1    1    3    3    0  502  0.56033670610E+03 -0.13790694281E+04 -0.94317289149E+03  0.17622102074E+04  0.50400001928E-02 0. -1.
</event>
<event>
 5   0  0.2621825E-07  0.3010985E+04  0.7818609E-02  0.8240601E-01
        1   -1    0    0  501    0  0.00000000000E+00  0.00000000000E+00  0.10024679364E+04  0.10024679364E+04  0.50400001928E-02 0.  1.
       -1   -1    0    0    0  501  0.00000000000E+00  0.00000000000E+00 -0.22609273686E+04  0.22609273687E+04  0.50400001928E-02 0. -1.
    10030    2    1    2    0    0  0.00000000000E+00  0.00000000000E+00 -0.12584594322E+04  0.32633953051E+04  0.30109846852E+04 0.  0.
        3    1    3    3  502    0 -0.78018050977E+03  0.10042360089E+04  0.24413520171E+03  0.12949029293E+04  0.10100000352E+00 0.  1.
       -3    1    3    3    0  502  0.78018050977E+03 -0.10042360089E+04 -0.15025946340E+04  0.19684923758E+04  0.10100000352E+00 0. -1.
</event>
<event>
 5   0  0.7399409E-07  0.3012555E+04  0.7818609E-02  0.8240155E-01
        2   -1    0    0  501    0  0.00000000000E+00  0.00000000000E+00  0.21231885452E+04  0.21231885452E+04  0.25500000920E-02 0.  1.
       -2   -1    0    0    0  501  0.00000000000E+00  0.00000000000E+00 -0.10686156228E+04  0.10686156228E+04  0.25500000920E-02 0. -1.
    10030    2    1    2    0    0  0.00000000000E+00  0.00000000000E+00  0.10545729224E+04  0.31918041680E+04  0.30125553602E+04 0.  0.
        3    1    3    3  502    0  0.10326777786E+04 -0.65214178924E+03 -0.40673414489E+03  0.12873014342E+04  0.10100000352E+00 0. -1.
       -3    1    3    3    0  502 -0.10326777786E+04  0.65214178924E+03  0.14613070673E+04  0.19045027337E+04  0.10100000352E+00 0.  1.
</event>
<event>
 5   0  0.7208273E-07  0.2996930E+04  0.7818609E-02  0.8244608E-01
       -2   -1    0    0    0  501  0.00000000000E+00  0.00000000000E+00  0.10128589328E+04  0.10128589328E+04  0.25500000920E-02 0.  1.
        2   -1    0    0  501    0  0.00000000000E+00  0.00000000000E+00 -0.22168912380E+04  0.22168912380E+04  0.25500000920E-02 0. -1.
    10030    2    1    2    0    0  0.00000000000E+00  0.00000000000E+00 -0.12040323052E+04  0.32297501708E+04  0.29969304920E+04 0.  0.
        4    1    3    3  502    0  0.33814433797E+03  0.81135144311E+03 -0.19098687478E+04  0.21024350179E+04  0.12699999809E+01 0. -1.
       -4    1    3    3    0  502 -0.33814433797E+03 -0.81135144311E+03  0.70583644261E+03  0.11273151530E+04  0.12699999809E+01 0.  1.
</event>
<event>
 5   0  0.2640081E-07  0.2996494E+04  0.7818609E-02  0.8244733E-01
       -1   -1    0    0    0  501  0.00000000000E+00  0.00000000000E+00  0.36552529515E+04  0.36552529515E+04  0.50400001928E-02 0.  1.
        1   -1    0    0  501    0  0.00000000000E+00  0.00000000000E+00 -0.61411454033E+03  0.61411454035E+03  0.50400001928E-02 0. -1.
    10030    2    1    2    0    0  0.00000000000E+00  0.00000000000E+00  0.30411384112E+04  0.42693674918E+04  0.29964939420E+04 0.  0.
        1    1    3    3  502    0 -0.92606517139E+03  0.74577537166E+03  0.28193679535E+04  0.30598387644E+04  0.50400001928E-02 0.  1.
       -1    1    3    3    0  502  0.92606517139E+03 -0.74577537166E+03  0.22177045765E+03  0.12095287275E+04  0.50400001928E-02 0. -1.
</event>
<event>
 5   0  0.2602891E-07  0.3005689E+04  0.7818609E-02  0.8242108E-01
        1   -1    0    0  501    0  0.00000000000E+00  0.00000000000E+00  0.28595081278E+04  0.28595081278E+04  0.50400001928E-02 0. -1.
       -1   -1    0    0    0  501  0.00000000000E+00  0.00000000000E+00 -0.78983569876E+03  0.78983569877E+03  0.50400001928E-02 0.  1.
    10030    2    1    2    0    0  0.00000000000E+00  0.00000000000E+00  0.20696724291E+04  0.36493438266E+04  0.30056890061E+04 0.  0.
        5    1    3    3  502    0  0.81472723764E+03 -0.44804916242E+03  0.24683462011E+04  0.26376663136E+04  0.46999998093E+01 0. -1.
       -5    1    3    3    0  502 -0.81472723764E+03  0.44804916242E+03 -0.39867377203E+03  0.10116775129E+04  0.46999998093E+01 0.  1.
</event>
<event>
 5   0  0.7399409E-07  0.2999154E+04  0.7818609E-02  0.8243973E-01
        2   -1    0    0  501    0  0.00000000000E+00  0.00000000000E+00  0.18977094484E+04  0.18977094484E+04  0.25500000920E-02 0. -1.
       -2   -1    0    0    0  501  0.00000000000E+00  0.00000000000E+00 -0.11849710399E+04  0.11849710399E+04  0.25500000920E-02 0.  1.
    10030    2    1    2    0    0  0.00000000000E+00  0.00000000000E+00  0.71273840855E+03  0.30826804883E+04  0.29991537062E+04 0.  0.
        3    1    3    3  502    0  0.12986523634E+04  0.74963045182E+03  0.37378066566E+03  0.15453659021E+04  0.10100000352E+00 0.  1.
       -3    1    3    3    0  502 -0.12986523634E+04 -0.74963045182E+03  0.33895774289E+03  0.15373145862E+04  0.10100000352E+00 0. -1.
</event>
<event>
 5   0  0.2792361E-07  0.3006495E+04  0.7818609E-02  0.8241879E-01
       -1   -1    0    0    0  501  0.00000000000E+00  0.00000000000E+00  0.19710372913E+04  0.19710372913E+04  0.50400001928E-02 0. -1.
        1   -1    0    0  501    0  0.00000000000E+00  0.00000000000E+00 -0.11464787698E+04  0.11464787698E+04  0.50400001928E-02 0.  1.
    10030    2    1    2    0    0  0.00000000000E+00  0.00000000000E+00  0.82455852151E+03  0.31175160611E+04  0.30064945761E+04 0.  0.
        4    1    3    3  502    0 -0.23088473677E+03 -0.13566511569E+04  0.10395479590E+04  0.17246656763E+04  0.12699999809E+01 0. -1.
       -4    1    3    3    0  502  0.23088473677E+03  0.13566511569E+04 -0.21498943746E+03  0.13928503848E+04  0.12699999809E+01 0.  1.
</event>
<event>
 5   0  0.7399409E-07  0.2995524E+04  0.7818609E-02  0.8245010E-01
       -2   -1    0    0    0  501  0.00000000000E+00  0.00000000000E+00  0.15159468697E+04  0.15159468697E+04  0.25500000920E-02 0.  1.
        2   -1    0    0  501    0  0.00000000000E+00  0.00000000000E+00 -0.14797950125E+04  0.14797950125E+04  0.25500000920E-02 0. -1.
    10030    2    1    2    0    0  0.00000000000E+00  0.00000000000E+00  0.36151857203E+02  0.29957418821E+04  0.29955237385E+04 0.  0.
        3    1    3    3  502    0 -0.99525505521E+03 -0.80096682051E+03  0.79993215456E+03  0.15073061847E+04  0.10100000352E+00 0.  1.
       -3    1    3    3    0  502  0.99525505521E+03  0.80096682051E+03 -0.76378029735E+03  0.14884356974E+04  0.10100000352E+00 0. -1.
</event>
<event>
 5   0  0.2414250E-07  0.3005349E+04  0.7818609E-02  0.8242205E-01
       -3   -1    0    0    0  501  0.00000000000E+00  0.00000000000E+00  0.79492663144E+03  0.79492663786E+03  0.10100000352E+00 0. -1.
        3   -1    0    0  501    0  0.00000000000E+00  0.00000000000E+00 -0.28405520600E+04  0.28405520618E+04  0.10100000352E+00 0.  1.
    10030    2    1    2    0    0  0.00000000000E+00  0.00000000000E+00 -0.20456254285E+04  0.36354786996E+04  0.30053488952E+04 0.  0.
        2    1    3    3  502    0  0.31695888524E+01 -0.85661631612E+03  0.47064114110E+03  0.97739687079E+03  0.25500000920E-02 0. -1.
       -2    1    3    3    0  502 -0.31695888524E+01  0.85661631612E+03 -0.25162665696E+04  0.26580818288E+04  0.25500000920E-02 0.  1.
</event>
<event>
 5   0  0.2679935E-07  0.2997011E+04  0.7818609E-02  0.8244585E-01
        1   -1    0    0  501    0  0.00000000000E+00  0.00000000000E+00  0.16726980823E+04  0.16726980823E+04  0.50400001928E-02 0.  1.
       -1   -1    0    0    0  501  0.00000000000E+00  0.00000000000E+00 -0.13424533205E+04  0.13424533205E+04  0.50400001928E-02 0. -1.
    10030    2    1    2    0    0  0.00000000000E+00  0.00000000000E+00  0.33024476180E+03  0.30151514027E+04  0.29970112410E+04 0.  0.
        2    1    3    3  502    0 -0.79669517583E+03 -0.10653718708E+04 -0.52881971912E+03  0.14315693213E+04  0.25500000920E-02 0. -1.
       -2    1    3    3    0  502  0.79669517583E+03  0.10653718708E+04  0.85906448092E+03  0.15835820814E+04  0.25500000920E-02 0.  1.
</event>
<event>
 5   0  0.7585823E-07  0.2996978E+04  0.7818609E-02  0.8244594E-01
       -2   -1    0    0    0  501  0.00000000000E+00  0.00000000000E+00  0.79133261025E+03  0.79133261025E+03  0.25500000920E-02 0. -1.
        2   -1    0    0  501    0  0.00000000000E+00  0.00000000000E+00 -0.28375803650E+04  0.28375803650E+04  0.25500000920E-02 0.  1.
    10030    2    1    2    0    0  0.00000000000E+00  0.00000000000E+00 -0.20462477547E+04  0.36289129752E+04  0.29969783963E+04 0.  0.
        5    1    3    3  502    0 -0.11571941120E+04  0.89406195672E+03 -0.14192107922E+04  0.20377993910E+04  0.46999998093E+01 0.  1.
       -5    1    3    3    0  502  0.11571941120E+04 -0.89406195672E+03 -0.62703696253E+03  0.15911135842E+04  0.46999998093E+01 0. -1.
</event>
<event>
 5   0  0.2640081E-07  0.2996592E+04  0.7818609E-02  0.8244705E-01
        1   -1    0    0  501    0  0.00000000000E+00  0.00000000000E+00  0.29564896877E+04  0.29564896877E+04  0.50400001928E-02 0.  1.
       -1   -1    0    0    0  501  0.00000000000E+00  0.00000000000E+00 -0.75930941580E+03  0.75930941581E+03  0.50400001928E-02 0. -1.
    10030    2    1    2    0    0  0.00000000000E+00  0.00000000000E+00  0.21971802719E+04  0.37157991035E+04  0.29965917023E+04 0.  0.
        1    1    3    3  502    0  0.11232890327E+04  0.11733425569E+03  0.23194443685E+04  0.25797999451E+04  0.50400001928E-02 0.  1.
       -1    1    3    3    0  502 -0.11232890327E+04 -0.11733425569E+03 -0.12226409660E+03  0.11359991584E+04  0.50400001928E-02 0. -1.
</event>
<event>
 5   0  0.2640081E-07  0.3000055E+04  0.7818609E-02  0.8243715E-01
       -1   -1    0    0    0  501  0.00000000000E+00  0.00000000000E+00  0.14063404461E+04  0.14063404461E+04  0.50400001928E-02 0.  1.
        1   -1    0    0  501    0  0.00000000000E+00  0.00000000000E+00 -0.15999558500E+04  0.15999558500E+04  0.50400001928E-02 0. -1.
    10030    2    1    2    0    0  0.00000000000E+00  0.00000000000E+00 -0.19361540395E+03  0.30062962961E+04  0.30000550821E+04 0.  0.
        1    1    3    3  502    0  0.34051200434E+03  0.96185427736E+03  0.10050116951E+04  0.14321873423E+04  0.50400001928E-02 0.  1.
       -1    1    3    3    0  502 -0.34051200434E+03 -0.96185427736E+03 -0.11986270991E+04  0.15741089539E+04  0.50400001928E-02 0. -1.
</event>
<event>
 5   0  0.7399409E-07  0.3002118E+04  0.7818609E-02  0.8243126E-01
        2   -1    0    0  501    0  0.00000000000E+00  0.00000000000E+00  0.20268160259E+04  0.20268160259E+04  0.25500000920E-02 0.  1.
       -2   -1    0    0    0  501  0.00000000000E+00  0.00000000000E+00 -0.11116839112E+04  0.11116839112E+04  0.25500000920E-02 0. -1.
    10030    2    1    2    0    0  0.00000000000E+00  0.00000000000E+00  0.91513211474E+03  0.31384999371E+04  0.30021184300E+04 0.  0.
        3    1    3    3  502    0 -0.48081858172E+03 -0.23875911051E+03 -0.10078942873E+04  0.11419471643E+04  0.10100000352E+00 0. -1.
       -3    1    3    3    0  502  0.48081858172E+03  0.23875911051E+03  0.19230264020E+04  0.19965527728E+04  0.10100000352E+00 0.  1.
</event>
<event>
 5   0  0.2792361E-07  0.2992393E+04  0.7818609E-02  0.8245906E-01
        1   -1    0    0  501    0  0.00000000000E+00  0.00000000000E+00  0.21966302800E+04  0.21966302800E+04  0.50400001928E-02 0.  1.
       -1   -1    0    0    0  501  0.00000000000E+00  0.00000000000E+00 -0.10191081981E+04  0.10191081981E+04  0.50400001928E-02 0. -1.
    10030    2    1    2    0    0  0.00000000000E+00  0.00000000000E+00  0.11775220819E+04  0.32157384782E+04  0.29923929733E+04 0.  0.
        4    1    3    3  502    0  0.11468000891E+04  0.22892906343E+03  0.15917172736E+04  0.19751264396E+04  0.12699999809E+01 0.  1.
       -4    1    3    3    0  502 -0.11468000891E+04 -0.22892906343E+03 -0.41419519165E+03  0.12406120386E+04  0.12699999809E+01 0. -1.
</event>
<event>
 5   0  0.2640081E-07  0.2998298E+04  0.7818609E-02  0.8244217E-01
       -1   -1    0    0    0  501  0.00000000000E+00  0.00000000000E+00  0.11422634255E+04  0.11422634255E+04  0.50400001928E-02 0.  1.
        1   -1    0    0  501    0  0.00000000000E+00  0.00000000000E+00 -0.19675383385E+04  0.19675383385E+04  0.50400001928E-02 0. -1.
    10030    2    1    2    0    0  0.00000000000E+00  0.00000000000E+00 -0.82527491294E+03  0.31098017640E+04  0.29982975718E+04 0.  0.
        1    1    3    3  502    0  0.51712809721E+03 -0.28192677924E+03  0.10172333906E+04  0.11754437242E+04  0.50400001928E-02 0.  1.
       -1    1    3    3    0  502 -0.51712809721E+03  0.28192677924E+03 -0.18425083035E+04  0.19343580398E+04  0.50400001928E-02 0. -1.
</event>
<event>
 5   0  0.7585823E-07  0.3002082E+04  0.7818609E-02  0.8243137E-01
        2   -1    0    0  501    0  0.00000000000E+00  0.00000000000E+00  0.17690295602E+04  0.17690295602E+04  0.25500000920E-02 0.  1.
       -2   -1    0    0    0  501  0.00000000000E+00  0.00000000000E+00 -0.12736495924E+04  0.12736495924E+04  0.25500000920E-02 0. -1.
    10030    2    1    2    0    0  0.00000000000E+00  0.00000000000E+00  0.49537996776E+03  0.30426791526E+04  0.30020817965E+04 0.  0.
        5    1    3    3  502    0  0.48569106234E+03  0.19309364564E+03  0.16738148045E+04  0.17535276028E+04  0.46999998093E+01 0.  1.
       -5    1    3    3    0  502 -0.48569106234E+03 -0.19309364564E+03 -0.11784348367E+04  0.12891515498E+04  0.46999998093E+01 0. -1.
</event>
<event>
 5   0  0.2602891E-07  0.3002420E+04  0.7818609E-02  0.8243040E-01
        1   -1    0    0  501    0  0.00000000000E+00  0.00000000000E+00  0.15227802281E+04  0.15227802281E+04  0.50400001928E-02 0.  1.
       -1   -1    0    0    0  501  0.00000000000E+00  0.00000000000E+00 -0.14799452737E+04  0.14799452737E+04  0.50400001928E-02 0. -1.
    10030    2    1    2    0    0  0.00000000000E+00  0.00000000000E+00  0.42834954385E+02  0.30027255018E+04  0.30024199583E+04 0.  0.
        5    1    3    3  502    0  0.13202421128E+04 -0.66653384174E+03  0.27893681286E+03  0.15050363564E+04  0.46999998093E+01 0.  1.
       -5    1    3    3    0  502 -0.13202421128E+04  0.66653384174E+03 -0.23610185847E+03  0.14976891454E+04  0.46999998093E+01 0. -1.
</event>
<event>
 5   0  0.7399409E-07  0.2998540E+04  0.7818609E-02  0.8244148E-01
       -2   -1    0    0    0  501  0.00000000000E+00  0.00000000000E+00  0.11917055103E+04  0.11917055103E+04  0.25500000920E-02 0.  1.
        2   -1    0    0  501    0  0.00000000000E+00  0.00000000000E+00 -0.18862126457E+04  0.18862126457E+04  0.25500000920E-02 0. -1.
    10030    2    1    2    0    0  0.00000000000E+00  0.00000000000E+00 -0.69450713543E+03  0.30779181561E+04  0.29985396469E+04 0.  0.
        3    1    3    3  502    0 -0.68115455601E+03  0.42972301797E+02 -0.17175045692E+04  0.18481450439E+04  0.10100000352E+00 0. -1.
       -3    1    3    3    0  502  0.68115455601E+03 -0.42972301797E+02  0.10229974337E+04  0.12297731122E+04  0.10100000352E+00 0.  1.
</event>
<event>
 5   0  0.2679935E-07  0.2995046E+04  0.7818609E-02  0.8245147E-01
        1   -1    0    0  501    0  0.00000000000E+00  0.00000000000E+00  0.10791129586E+04  0.10791129586E+04  0.50400001928E-02 0. -1.
       -1   -1    0    0    0  501  0.00000000000E+00  0.00000000000E+00 -0.20781653302E+04  0.20781653302E+04  0.50400001928E-02 0.  1.
    10030    2    1    2    0    0  0.00000000000E+00  0.00000000000E+00 -0.99905237163E+03  0.31572782888E+04  0.29950460016E+04 0.  0.
        2    1    3    3  502    0 -0.93639156184E+03  0.11632927099E+04 -0.61736701106E+03  0.16159273228E+04  0.25500000920E-02 0. -1.
       -2    1    3    3    0  502  0.93639156184E+03 -0.11632927099E+04 -0.38168536056E+03  0.15413509661E+04  0.25500000920E-02 0.  1.
</event>
<event>
 5   0  0.2792361E-07  0.3000383E+04  0.7818609E-02  0.8243622E-01
       -1   -1    0    0    0  501  0.00000000000E+00  0.00000000000E+00  0.18279893878E+04  0.18279893878E+04  0.50400001928E-02 0.  1.
        1   -1    0    0  501    0  0.00000000000E+00  0.00000000000E+00 -0.12311748730E+04  0.12311748730E+04  0.50400001928E-02 0. -1.
    10030    2    1    2    0    0  0.00000000000E+00  0.00000000000E+00  0.59681451480E+03  0.30591642608E+04  0.30003830438E+04 0.  0.
        4    1    3    3  502    0 -0.10746871480E+04 -0.79456408602E+03  0.99314361624E+03  0.16651187370E+04  0.12699999809E+01 0.  1.
       -4    1    3    3    0  502  0.10746871480E+04  0.79456408602E+03 -0.39632910144E+03  0.13940455238E+04  0.12699999809E+01 0. -1.
</event>
<event>
 5   0  0.2640081E-07  0.3003973E+04  0.7818609E-02  0.8242597E-01
        1   -1    0    0  501    0  0.00000000000E+00  0.00000000000E+00  0.15591345628E+04  0.15591345628E+04  0.50400001928E-02 0.  1.
       -1   -1    0    0    0  501  0.00000000000E+00  0.00000000000E+00 -0.14469329149E+04  0.14469329149E+04  0.50400001928E-02 0. -1.
    10030    2    1    2    0    0  0.00000000000E+00  0.00000000000E+00  0.11220164793E+03  0.30060674777E+04  0.30039727813E+04 0.  0.
        1    1    3    3  502    0  0.40667736806E+03 -0.13046199731E+04 -0.56766629603E+03  0.14797515939E+04  0.50400001928E-02 0. -1.
       -1    1    3    3    0  502 -0.40667736806E+03  0.13046199731E+04  0.67986794397E+03  0.15263158838E+04  0.50400001928E-02 0.  1.
</event>
<event>
 5   0  0.2792361E-07  0.2992716E+04  0.7818609E-02  0.8245814E-01
        1   -1    0    0  501    0  0.00000000000E+00  0.00000000000E+00  0.15174105973E+04  0.15174105973E+04  0.50400001928E-02 0. -1.
       -1   -1    0    0    0  501  0.00000000000E+00  0.00000000000E+00 -0.14755977036E+04  0.14755977036E+04  0.50400001928E-02 0.  1.
    10030    2    1    2    0    0  0.00000000000E+00  0.00000000000E+00  0.41812893617E+02  0.29930083009E+04  0.29927162196E+04 0.  0.
        4    1    3    3  502    0  0.74771837758E+03  0.68354734554E+03 -0.10804576943E+04  0.14811178845E+04  0.12699999809E+01 0.  1.
       -4    1    3    3    0  502 -0.74771837758E+03 -0.68354734554E+03  0.11222705879E+04  0.15118904164E+04  0.12699999809E+01 0. -1.
</event>
<event>
 5   0  0.7278657E-07  0.3002418E+04  0.7818609E-02  0.8243041E-01
        2   -1    0    0  501    0  0.00000000000E+00  0.00000000000E+00  0.13533110033E+04  0.13533110033E+04  0.25500000920E-02 0. -1.
       -2   -1    0    0    0  501  0.00000000000E+00  0.00000000000E+00 -0.16652705204E+04  0.16652705204E+04  0.25500000920E-02 0.  1.
    10030    2    1    2    0    0  0.00000000000E+00  0.00000000000E+00 -0.31195951716E+03  0.30185815237E+04  0.30024183045E+04 0.  0.
        2    1    3    3  502    0 -0.92258639505E+03 -0.93621045018E+03  0.57316463569E+03  0.14339363176E+04  0.25500000920E-02 0. -1.
       -2    1    3    3    0  502  0.92258639505E+03  0.93621045018E+03 -0.88512415285E+03  0.15846452061E+04  0.25500000920E-02 0.  1.
</event>
<event>
 5   0  0.7307508E-07  0.3045845E+04  0.7818609E-02  0.8230759E-01
       -2   -1    0    0    0  501  0.00000000000E+00  0.00000000000E+00  0.95110381094E+03  0.95110381094E+03  0.25500000920E-02 0.  1.
        2   -1    0    0  501    0  0.00000000000E+00  0.00000000000E+00 -0.24385273953E+04  0.24385273953E+04  0.25500000920E-02 0. -1.
    10030    2    1    2    0    0  0.00000000000E+00  0.00000000000E+00 -0.14874235843E+04  0.33896312062E+04  0.30458448409E+04 0.  0.
        1    1    3    3  502    0 -0.34638767817E+03 -0.79142639232E+03 -0.21394452292E+04  0.23072854281E+04  0.50400001928E-02 0. -1.
       -1    1    3    3    0  502  0.34638767817E+03  0.79142639232E+03  0.65202164484E+03  0.10823457781E+04  0.50400001928E-02 0.  1.
</event>
<event>
 5   0  0.7399409E-07  0.3005789E+04  0.7818609E-02  0.8242080E-01
        2   -1    0    0  501    0  0.00000000000E+00  0.00000000000E+00  0.16567236971E+04  0.16567236971E+04  0.25500000920E-02 0. -1.
       -2   -1    0    0    0  501  0.00000000000E+00  0.00000000000E+00 -0.13633486790E+04  0.13633486790E+04  0.25500000920E-02 0.  1.
    10030    2    1    2    0    0  0.00000000000E+00  0.00000000000E+00  0.29337501809E+03  0.30200723761E+04  0.30057891236E+04 0.  0.
        3    1    3    3  502    0  0.98588042219E+03  0.10973852626E+04  0.43524105017E+03  0.15380667747E+04  0.10100000352E+00 0. -1.
       -3    1    3    3    0  502 -0.98588042219E+03 -0.10973852626E+04 -0.14186603208E+03  0.14820056014E+04  0.10100000352E+00 0.  1.
</event>
<event>
 5   0  0.7307508E-07  0.3003776E+04  0.7818609E-02  0.8242654E-01
        2   -1    0    0  501    0  0.00000000000E+00  0.00000000000E+00  0.17571262439E+04  0.17571262439E+04  0.25500000920E-02 0.  1.
       -2   -1    0    0    0  501  0.00000000000E+00  0.00000000000E+00 -0.12837249642E+04  0.12837249642E+04  0.25500000920E-02 0. -1.
    10030    2    1    2    0    0  0.00000000000E+00  0.00000000000E+00  0.47340127971E+03  0.30408512081E+04  0.30037755073E+04 0.  0.
        1    1    3    3  502    0 -0.12590421652E+04 -0.62178523537E+03 -0.30266331300E+03  0.14364571465E+04  0.50400001928E-02 0. -1.
       -1    1    3    3    0  502  0.12590421652E+04  0.62178523537E+03  0.77606459272E+03  0.16043940616E+04  0.50400001928E-02 0.  1.
</event>
<event>
 5   0  0.7208273E-07  0.2990967E+04  0.7818609E-02  0.8246315E-01
        2   -1    0    0  501    0  0.00000000000E+00  0.00000000000E+00  0.27150552567E+04  0.27150552567E+04  0.25500000920E-02 0. -1.
       -2   -1    0    0    0  501  0.00000000000E+00  0.00000000000E+00 -0.82372950502E+03  0.82372950502E+03  0.25500000920E-02 0.  1.
    10030    2    1    2    0    0  0.00000000000E+00  0.00000000000E+00  0.18913257517E+04  0.35387847618E+04  0.29909671498E+04 0.  0.
        4    1    3    3  502    0  0.14087636109E+03  0.77921428571E+03 -0.55533833256E+03  0.96717285357E+03  0.12699999809E+01 0.  1.
       -4    1    3    3    0  502 -0.14087636109E+03 -0.77921428571E+03  0.24466640843E+04  0.25716119082E+04  0.12699999809E+01 0. -1.
</event>
<event>
 5   0  0.2621825E-07  0.3000509E+04  0.7818609E-02  0.8243586E-01
        1   -1    0    0  501    0  0.00000000000E+00  0.00000000000E+00  0.16034360614E+04  0.16034360614E+04  0.50400001928E-02 0.  1.
       -1   -1    0    0    0  501  0.00000000000E+00  0.00000000000E+00 -0.14037123000E+04  0.14037123001E+04  0.50400001928E-02 0. -1.
    10030    2    1    2    0    0  0.00000000000E+00  0.00000000000E+00  0.19972376136E+03  0.30071483615E+04  0.30005085714E+04 0.  0.
        3    1    3    3  502    0  0.63078102390E+02  0.12646381680E+04  0.90630041891E+03  0.15571348697E+04  0.10100000352E+00 0.  1.
       -3    1    3    3    0  502 -0.63078102390E+02 -0.12646381680E+04 -0.70657665755E+03  0.14500134917E+04  0.10100000352E+00 0. -1.
</event>
<event>
 5   0  0.2640081E-07  0.3000913E+04  0.7818609E-02  0.8243470E-01
        1   -1    0    0  501    0  0.00000000000E+00  0.00000000000E+00  0.23483185658E+04  0.23483185658E+04  0.50400001928E-02 0. -1.
       -1   -1    0    0    0  501  0.00000000000E+00  0.00000000000E+00 -0.95871571147E+03  0.95871571148E+03  0.50400001928E-02 0.  1.
    10030    2    1    2    0    0  0.00000000000E+00  0.00000000000E+00  0.13896028543E+04  0.33070342773E+04  0.30009131308E+04 0.  0.
        1    1    3    3  502    0 -0.12645211248E+04 -0.44395856700E+03  0.14383572833E+04  0.19659563979E+04  0.50400001928E-02 0. -1.
       -1    1    3    3    0  502  0.12645211248E+04  0.44395856700E+03 -0.48754428943E+02  0.13410778794E+04  0.50400001928E-02 0.  1.
</event>
<event>
 5   0  0.2414250E-07  0.2985241E+04  0.7818609E-02  0.8247958E-01
        3   -1    0    0  501    0  0.00000000000E+00  0.00000000000E+00  0.25765557015E+04  0.25765557035E+04  0.10100000352E+00 0.  1.
       -3   -1    0    0    0  501  0.00000000000E+00  0.00000000000E+00 -0.86468779718E+03  0.86468780308E+03  0.10100000352E+00 0. -1.
    10030    2    1    2    0    0  0.00000000000E+00  0.00000000000E+00  0.17118679044E+04  0.34412435066E+04  0.29852412214E+04 0.  0.
        4    1    3    3  502    0  0.13306488716E+04 -0.25445791497E+03  0.13370047386E+03  0.13613422345E+04  0.12699999809E+01 0. -1.
       -4    1    3    3    0  502 -0.13306488716E+04  0.25445791497E+03  0.15781674305E+04  0.20799012721E+04  0.12699999809E+01 0.  1.
</event>
<event>
 5   0  0.2640081E-07  0.3008961E+04  0.7818609E-02  0.8241177E-01
        1   -1    0    0  501    0  0.00000000000E+00  0.00000000000E+00  0.88729291960E+03  0.88729291962E+03  0.50400001928E-02 0. -1.
       -1   -1    0    0    0  501  0.00000000000E+00  0.00000000000E+00 -0.25509740829E+04  0.25509740830E+04  0.50400001928E-02 0.  1.
    10030    2    1    2    0    0  0.00000000000E+00  0.00000000000E+00 -0.16636811633E+04  0.34382670026E+04  0.30089607787E+04 0.  0.
        1    1    3    3  502    0 -0.58030664090E+03  0.67089880754E+02 -0.24160874421E+04  0.24857062130E+04  0.50400001928E-02 0.  1.
       -1    1    3    3    0  502  0.58030664090E+03 -0.67089880754E+02  0.75240627872E+03  0.95256078958E+03  0.50400001928E-02 0. -1.
</event>
<event>
 5   0  0.2792361E-07  0.3002452E+04  0.7818609E-02  0.8243031E-01
        1   -1    0    0  501    0  0.00000000000E+00  0.00000000000E+00  0.19665013899E+04  0.19665013900E+04  0.50400001928E-02 0. -1.
       -1   -1    0    0    0  501  0.00000000000E+00  0.00000000000E+00 -0.11460349771E+04  0.11460349771E+04  0.50400001928E-02 0.  1.
    10030    2    1    2    0    0  0.00000000000E+00  0.00000000000E+00  0.82046641281E+03  0.31125363671E+04  0.30024519150E+04 0.  0.
        4    1    3    3  502    0 -0.14838130160E+04  0.87904606040E+02  0.19216495455E+03  0.14987852644E+04  0.12699999809E+01 0.  1.
       -4    1    3    3    0  502  0.14838130160E+04 -0.87904606040E+02  0.62830145826E+03  0.16137511027E+04  0.12699999809E+01 0. -1.
</event>
<event>
 5   0  0.2621825E-07  0.2994934E+04  0.7818609E-02  0.8245179E-01
       -1   -1    0    0    0  501  0.00000000000E+00  0.00000000000E+00  0.11589840408E+04  0.11589840408E+04  0.50400001928E-02 0. -1.
        1   -1    0    0  501    0  0.00000000000E+00  0.00000000000E+00 -0.19348043878E+04  0.19348043878E+04  0.50400001928E-02 0.  1.
    10030    2    1    2    0    0  0.00000000000E+00  0.00000000000E+00 -0.77582034700E+03  0.30937884286E+04  0.29949339943E+04 0.  0.
        3    1    3    3  502    0 -0.36648034949E+03 -0.10443438141E+04 -0.14298891188E+04  0.18081882509E+04  0.10100000352E+00 0.  1.
       -3    1    3    3    0  502  0.36648034949E+03  0.10443438141E+04  0.65406877177E+03  0.12856001777E+04  0.10100000352E+00 0. -1.
</event>
<event>
 5   0  0.7208273E-07  0.2991305E+04  0.7818609E-02  0.8246218E-01
       -2   -1    0    0    0  501  0.00000000000E+00  0.00000000000E+00  0.85250711672E+03  0.85250711673E+03  0.25500000920E-02 0. -1.
        2   -1    0    0  501    0  0.00000000000E+00  0.00000000000E+00 -0.26239969932E+04  0.26239969932E+04  0.25500000920E-02 0.  1.
    10030    2    1    2    0    0  0.00000000000E+00  0.00000000000E+00 -0.17714898765E+04  0.34765041100E+04  0.29913048063E+04 0.  0.
        4    1    3    3  502    0  0.43013317653E+03  0.42848891321E+03  0.70284582608E+03  0.92876862912E+03  0.12699999809E+01 0. -1.
       -4    1    3    3    0  502 -0.43013317653E+03 -0.42848891321E+03 -0.24743357026E+04  0.25477354808E+04  0.12699999809E+01 0.  1.
</event>
<event>
 5   0  0.2679935E-07  0.3001962E+04  0.7818609E-02  0.8243171E-01
       -1   -1    0    0    0  501  0.00000000000E+00  0.00000000000E+00  0.11732515446E+04  0.11732515447E+04  0.50400001928E-02 0.  1.
        1   -1    0    0  501    0  0.00000000000E+00  0.00000000000E+00 -0.19202559716E+04  0.19202559716E+04  0.50400001928E-02 0. -1.
    10030    2    1    2    0    0  0.00000000000E+00  0.00000000000E+00 -0.74700442694E+03  0.30935075162E+04  0.30019615486E+04 0.  0.
        2    1    3    3  502    0  0.14308227005E+03 -0.96696191748E+03  0.80029282422E+03  0.12633117154E+04  0.25500000920E-02 0.  1.
       -2    1    3    3    0  502 -0.14308227005E+03  0.96696191748E+03 -0.15472972512E+04  0.18301958008E+04  0.25500000920E-02 0. -1.
</event>
<event>
 5   0  0.2621825E-07  0.3000505E+04  0.7818609E-02  0.8243587E-01
       -1   -1    0    0    0  501  0.00000000000E+00  0.00000000000E+00  0.10226836023E+04  0.10226836023E+04  0.50400001928E-02 0.  1.
        1   -1    0    0  501    0  0.00000000000E+00  0.00000000000E+00 -0.22008348118E+04  0.22008348118E+04  0.50400001928E-02 0. -1.
    10030    2    1    2    0    0  0.00000000000E+00  0.00000000000E+00 -0.11781512095E+04  0.32235184141E+04  0.30005050731E+04 0.  0.
        3    1    3    3  502    0  0.97662293386E+03  0.80158264885E+03 -0.14581712574E+04  0.19294015974E+04  0.10100000352E+00 0. -1.
       -3    1    3    3    0  502 -0.97662293386E+03 -0.80158264885E+03  0.28002004790E+03  0.12941168167E+04  0.10100000352E+00 0.  1.
</event>
<event>
 5   0  0.7585823E-07  0.2995327E+04  0.7818609E-02  0.8245066E-01
        2   -1    0    0  501    0  0.00000000000E+00  0.00000000000E+00  0.14198612546E+04  0.14198612546E+04  0.25500000920E-02 0.  1.
       -2   -1    0    0    0  501  0.00000000000E+00  0.00000000000E+00 -0.15797294970E+04  0.15797294970E+04  0.25500000920E-02 0. -1.
    10030    2    1    2    0    0  0.00000000000E+00  0.00000000000E+00 -0.15986824238E+03  0.29995907516E+04  0.29953274983E+04 0.  0.
        5    1    3    3  502    0 -0.65106934847E+03  0.22670418320E+03  0.12515027041E+04  0.14288342072E+04  0.46999998093E+01 0.  1.
       -5    1    3    3    0  502  0.65106934847E+03 -0.22670418320E+03 -0.14113709465E+04  0.15707565444E+04  0.46999998093E+01 0. -1.
</event>
<event>
 5   0  0.2679935E-07  0.3001085E+04  0.7818609E-02  0.8243421E-01
       -1   -1    0    0    0  501  0.00000000000E+00  0.00000000000E+00  0.19458484456E+04  0.19458484457E+04  0.50400001928E-02 0. -1.
        1   -1    0    0  501    0  0.00000000000E+00  0.00000000000E+00 -0.11571443177E+04  0.11571443177E+04  0.50400001928E-02 0.  1.
    10030    2    1    2    0    0  0.00000000000E+00  0.00000000000E+00  0.78870412792E+03  0.31029927634E+04  0.30010847852E+04 0.  0.
        2    1    3    3  502    0  0.47529505125E+03 -0.10947918153E+04 -0.54601067814E+03  0.13124793962E+04  0.25500000920E-02 0.  1.
       -2    1    3    3    0  502 -0.47529505125E+03  0.10947918153E+04  0.13347148061E+04  0.17905133672E+04  0.25500000920E-02 0. -1.
</event>
<event>
 5   0  0.2602891E-07  0.3010219E+04  0.7818609E-02  0.8240819E-01
       -1   -1    0    0    0  501  0.00000000000E+00  0.00000000000E+00  0.12886085113E+04  0.12886085113E+04  0.50400001928E-02 0.  1.
        1   -1    0    0  501    0  0.00000000000E+00  0.00000000000E+00 -0.17579847295E+04  0.17579847295E+04  0.50400001928E-02 0. -1.
    10030    2    1    2    0    0  0.00000000000E+00  0.00000000000E+00 -0.46937621815E+03  0.30465932408E+04  0.30102186533E+04 0.  0.
        5    1    3    3  502    0  0.12686418097E+04  0.80983367956E+03 -0.24179906409E+03  0.15243921763E+04  0.46999998093E+01 0.  1.
       -5    1    3    3    0  502 -0.12686418097E+04 -0.80983367956E+03 -0.22757715407E+03  0.15222010645E+04  0.46999998093E+01 0. -1.
</event>
<event>
 5   0  0.2602891E-07  0.3028477E+04  0.7818609E-02  0.8235645E-01
        1   -1    0    0  501    0  0.00000000000E+00  0.00000000000E+00  0.14118675769E+04  0.14118675769E+04  0.50400001928E-02 0.  1.
       -1   -1    0    0    0  501  0.00000000000E+00  0.00000000000E+00 -0.16240324416E+04  0.16240324416E+04  0.50400001928E-02 0. -1.
    10030    2    1    2    0    0  0.00000000000E+00  0.00000000000E+00 -0.21216486466E+03  0.30359000185E+04  0.30284773390E+04 0.  0.
        5    1    3    3  502    0 -0.13253045517E+04 -0.34400511708E+03  0.54212826692E+03  0.14726495928E+04  0.46999998093E+01 0. -1.
       -5    1    3    3    0  502  0.13253045517E+04  0.34400511708E+03 -0.75429313158E+03  0.15632504258E+04  0.46999998093E+01 0.  1.
</event>
<event>
 5   0  0.7278657E-07  0.3001673E+04  0.7818609E-02  0.8243253E-01
        2   -1    0    0  501    0  0.00000000000E+00  0.00000000000E+00  0.14780747613E+04  0.14780747613E+04  0.25500000920E-02 0.  1.
       -2   -1    0    0    0  501  0.00000000000E+00  0.00000000000E+00 -0.15239486712E+04  0.15239486712E+04  0.25500000920E-02 0. -1.
    10030    2    1    2    0    0  0.00000000000E+00  0.00000000000E+00 -0.45873909905E+02  0.30020234326E+04  0.30016729126E+04 0.  0.
        2    1    3    3  502    0  0.14434604570E+04  0.31480918876E+03  0.24134218056E+03  0.14969732677E+04  0.25500000920E-02 0.  1.
       -2    1    3    3    0  502 -0.14434604570E+04 -0.31480918876E+03 -0.28721609047E+03  0.15050501649E+04  0.25500000920E-02 0. -1.
</event>
<event>
 5   0  0.7278657E-07  0.3009203E+04  0.7818609E-02  0.8241108E-01
       -2   -1    0    0    0  501  0.00000000000E+00  0.00000000000E+00  0.15625513812E+04  0.15625513812E+04  0.25500000920E-02 0.  1.
        2   -1    0    0  501    0  0.00000000000E+00  0.00000000000E+00 -0.14488012099E+04  0.14488012099E+04  0.25500000920E-02 0. -1.
    10030    2    1    2    0    0  0.00000000000E+00  0.00000000000E+00  0.11375017125E+03  0.30113525911E+04  0.30092034372E+04 0.  0.
        2    1    3    3  502    0 -0.10125189218E+04  0.84736719305E+03 -0.66516680338E+03  0.14784020439E+04  0.25500000920E-02 0. -1.
       -2    1    3    3    0  502  0.10125189218E+04 -0.84736719305E+03  0.77891697463E+03  0.15329505473E+04  0.25500000920E-02 0.  1.
</event>
<event>
 5   0  0.7399409E-07  0.2988823E+04  0.7818609E-02  0.8246930E-01
        2   -1    0    0  501    0  0.00000000000E+00  0.00000000000E+00  0.13767906969E+04  0.13767906969E+04  0.25500000920E-02 0. -1.
       -2   -1    0    0    0  501  0.00000000000E+00  0.00000000000E+00 -0.16220812660E+04  0.16220812660E+04  0.25500000920E-02 0.  1.
    10030    2    1    2    0    0  0.00000000000E+00  0.00000000000E+00 -0.24529056911E+03  0.29988719630E+04  0.29888234453E+04 0.  0.
        3    1    3    3  502    0 -0.38099951665E+03  0.11970505350E+04  0.68950532943E+03  0.14330067078E+04  0.10100000352E+00 0. -1.
       -3    1    3    3    0  502  0.38099951665E+03 -0.11970505350E+04 -0.93479589854E+03  0.15658652551E+04  0.10100000352E+00 0.  1.
</event>
<event>
 5   0  0.7208273E-07  0.3001814E+04  0.7818609E-02  0.8243213E-01
        2   -1    0    0  501    0  0.00000000000E+00  0.00000000000E+00  0.16146777991E+04  0.16146777991E+04  0.25500000920E-02 0.  1.
       -2   -1    0    0    0  501  0.00000000000E+00  0.00000000000E+00 -0.13951529193E+04  0.13951529193E+04  0.25500000920E-02 0. -1.
    10030    2    1    2    0    0  0.00000000000E+00  0.00000000000E+00  0.21952487983E+03  0.30098307184E+04  0.30018144147E+04 0.  0.
        4    1    3    3  502    0  0.36806585375E+02 -0.14849655505E+04 -0.10585466487E+03  0.14891891196E+04  0.12699999809E+01 0. -1.
       -4    1    3    3    0  502 -0.36806585375E+02  0.14849655505E+04  0.32537954470E+03  0.15206415988E+04  0.12699999809E+01 0.  1.
</event>
<event>
 5   0  0.2640081E-07  0.2994802E+04  0.7818609E-02  0.8245217E-01
       -1   -1    0    0    0  501  0.00000000000E+00  0.00000000000E+00  0.12061702473E+04  0.12061702473E+04  0.50400001928E-02 0.  1.
        1   -1    0    0  501    0  0.00000000000E+00  0.00000000000E+00 -0.18589491252E+04  0.18589491252E+04  0.50400001928E-02 0. -1.
    10030    2    1    2    0    0  0.00000000000E+00  0.00000000000E+00 -0.65277887790E+03  0.30651193725E+04  0.29948015801E+04 0.  0.
        1    1    3    3  502    0 -0.14472330926E+04  0.25488751262E+03 -0.31958150833E+02  0.14698546159E+04  0.50400001928E-02 0.  1.
       -1    1    3    3    0  502  0.14472330926E+04 -0.25488751262E+03 -0.62082072707E+03  0.15952647566E+04  0.50400001928E-02 0. -1.
</event>
<event>
 5   0  0.7208273E-07  0.2981532E+04  0.7818609E-02  0.8249024E-01
       -2   -1    0    0    0  501  0.00000000000E+00  0.00000000000E+00  0.11181213270E+04  0.11181213270E+04  0.25500000920E-02 0.  1.
        2   -1    0    0  501    0  0.00000000000E+00  0.00000000000E+00 -0.19876044010E+04  0.19876044010E+04  0.25500000920E-02 0. -1.
    10030    2    1    2    0    0  0.00000000000E+00  0.00000000000E+00 -0.86948307394E+03  0.31057257280E+04  0.29815317342E+04 0.  0.
        4    1    3    3  502    0  0.55273352794E+02  0.12380444617E+04  0.42836959003E+03  0.13112251337E+04  0.12699999809E+01 0.  1.
       -4    1    3    3    0  502 -0.55273352794E+02 -0.12380444617E+04 -0.12978526640E+04  0.17945005943E+04  0.12699999809E+01 0. -1.
</event>
<event>
 5   0  0.2792361E-07  0.3006918E+04  0.7818609E-02  0.8241758E-01
        1   -1    0    0  501    0  0.00000000000E+00  0.00000000000E+00  0.98530255473E+03  0.98530255474E+03  0.50400001928E-02 0. -1.
       -1   -1    0    0    0  501  0.00000000000E+00  0.00000000000E+00 -0.22941070468E+04  0.22941070468E+04  0.50400001928E-02 0.  1.
    10030    2    1    2    0    0  0.00000000000E+00  0.00000000000E+00 -0.13088044920E+04  0.32794096015E+04  0.30069183787E+04 0.  0.
        4    1    3    3  502    0  0.29255154537E+03 -0.31006064479E+03  0.91800907630E+03  0.10121592203E+04  0.12699999809E+01 0. -1.
       -4    1    3    3    0  502 -0.29255154537E+03  0.31006064479E+03 -0.22268135683E+04  0.22672503812E+04  0.12699999809E+01 0.  1.
</event>
<event>
 5   0  0.7307508E-07  0.2999604E+04  0.7818609E-02  0.8243844E-01
        2   -1    0    0  501    0  0.00000000000E+00  0.00000000000E+00  0.19429872658E+04  0.19429872658E+04  0.25500000920E-02 0. -1.
       -2   -1    0    0    0  501  0.00000000000E+00  0.00000000000E+00 -0.11577047971E+04  0.11577047971E+04  0.25500000920E-02 0.  1.
    10030    2    1    2    0    0  0.00000000000E+00  0.00000000000E+00  0.78528246865E+03  0.31006920629E+04  0.29996037594E+04 0.  0.
        1    1    3    3  502    0 -0.71153343281E+03 -0.48677432885E+03 -0.87598210532E+03  0.12290539948E+04  0.50400001928E-02 0.  1.
       -1    1    3    3    0  502  0.71153343281E+03  0.48677432885E+03  0.16612645740E+04  0.18716380681E+04  0.50400001928E-02 0. -1.
</event>
<event>
 5   0  0.2621825E-07  0.3005418E+04  0.7818609E-02  0.8242186E-01
        1   -1    0    0  501    0  0.00000000000E+00  0.00000000000E+00  0.23635302932E+04  0.23635302932E+04  0.50400001928E-02 0.  1.
       -1   -1    0    0    0  501  0.00000000000E+00  0.00000000000E+00 -0.95540722497E+03  0.95540722498E+03  0.50400001928E-02 0. -1.
    10030    2    1    2    0    0  0.00000000000E+00  0.00000000000E+00  0.14081230682E+04  0.33189375182E+04  0.30054177204E+04 0.  0.
        3    1    3    3  502    0 -0.69435347164E+03  0.66104101191E+03 -0.57381737645E+03  0.11173040565E+04  0.10100000352E+00 0. -1.
       -3    1    3    3    0  502  0.69435347164E+03 -0.66104101191E+03  0.19819404447E+04  0.22016334616E+04  0.10100000352E+00 0.  1.
</event>
<event>
 5   0  0.7399409E-07  0.3008256E+04  0.7818609E-02  0.8241377E-01
        2   -1    0    0  501    0  0.00000000000E+00  0.00000000000E+00  0.15257446646E+04  0.15257446646E+04  0.25500000920E-02 0.  1.
       -2   -1    0    0    0  501  0.00000000000E+00  0.00000000000E+00 -0.14828176557E+04  0.14828176557E+04  0.25500000920E-02 0. -1.
    10030    2    1    2    0    0  0.00000000000E+00  0.00000000000E+00  0.42927008879E+02  0.30085623203E+04  0.30082560574E+04 0.  0.
        3    1    3    3  502    0  0.54880830547E+02  0.95455352502E+03  0.11827090899E+04  0.15208501370E+04  0.10100000352E+00 0.  1.
       -3    1    3    3    0  502 -0.54880830547E+02 -0.95455352502E+03 -0.11397820811E+04  0.14877121833E+04  0.10100000352E+00 0. -1.
</event>
<event>
 5   0  0.2602891E-07  0.2998588E+04  0.7818609E-02  0.8244134E-01
        1   -1    0    0  501    0  0.00000000000E+00  0.00000000000E+00  0.20061758384E+04  0.20061758384E+04  0.50400001928E-02 0.  1.
       -1   -1    0    0    0  501  0.00000000000E+00  0.00000000000E+00 -0.11204811026E+04  0.11204811026E+04  0.50400001928E-02 0. -1.
    10030    2    1    2    0    0  0.00000000000E+00  0.00000000000E+00  0.88569473581E+03  0.31266569411E+04  0.29985877446E+04 0.  0.
        5    1    3    3  502    0  0.78448664332E+03  0.41237373897E+03  0.17037886756E+04  0.19205179862E+04  0.46999998093E+01 0.  1.
       -5    1    3    3    0  502 -0.78448664332E+03 -0.41237373897E+03 -0.81809393980E+03  0.12061389549E+04  0.46999998093E+01 0. -1.
</event>
<event>
 5   0  0.7307508E-07  0.2995158E+04  0.7818609E-02  0.8245115E-01
       -2   -1    0    0    0  501  0.00000000000E+00  0.00000000000E+00  0.12664941557E+04  0.12664941557E+04  0.25500000920E-02 0.  1.
        2   -1    0    0  501    0  0.00000000000E+00  0.00000000000E+00 -0.17708279637E+04  0.17708279637E+04  0.25500000920E-02 0. -1.
    10030    2    1    2    0    0  0.00000000000E+00  0.00000000000E+00 -0.50433380794E+03  0.30373221194E+04  0.29951582708E+04 0.  0.
        1    1    3    3  502    0  0.57020430452E+03  0.55889377799E+01  0.11520937200E+04  0.12854898385E+04  0.50400001928E-02 0.  1.
       -1    1    3    3    0  502 -0.57020430452E+03 -0.55889377799E+01 -0.16564275280E+04  0.17518322809E+04  0.50400001928E-02 0. -1.
</event>
<event>
 5   0  0.7399409E-07  0.3021923E+04  0.7818609E-02  0.8237498E-01
        2   -1    0    0  501    0  0.00000000000E+00  0.00000000000E+00  0.21826949967E+04  0.21826949967E+04  0.25500000920E-02 0.  1.
       -2   -1    0    0    0  501  0.00000000000E+00  0.00000000000E+00 -0.10459565634E+04  0.10459565634E+04  0.25500000920E-02 0. -1.
    10030    2    1    2    0    0  0.00000000000E+00  0.00000000000E+00  0.11367384333E+04  0.32286515602E+04  0.30219226713E+04 0.  0.
        3    1    3    3  502    0 -0.10306608679E+04 -0.10294419459E+04  0.99705535791E+03  0.17652569052E+04  0.10100000352E+00 0.  1.
       -3    1    3    3    0  502  0.10306608679E+04  0.10294419459E+04  0.13968307537E+03  0.14633946550E+04  0.10100000352E+00 0. -1.
</event>
<event>
 5   0  0.2414250E-07  0.2995033E+04  0.7818609E-02  0.8245151E-01
        3   -1    0    0  501    0  0.00000000000E+00  0.00000000000E+00  0.15725370810E+04  0.15725370842E+04  0.10100000352E+00 0.  1.
       -3   -1    0    0    0  501  0.00000000000E+00  0.00000000000E+00 -0.14260747862E+04  0.14260747897E+04  0.10100000352E+00 0. -1.
    10030    2    1    2    0    0  0.00000000000E+00  0.00000000000E+00  0.14646229483E+03  0.29986118740E+04  0.29950328824E+04 0.  0.
        4    1    3    3  502    0 -0.13338001795E+04 -0.36772316272E+03 -0.50043752949E+03  0.14712860283E+04  0.12699999809E+01 0. -1.
       -4    1    3    3    0  502  0.13338001795E+04  0.36772316272E+03  0.64689982432E+03  0.15273258457E+04  0.12699999809E+01 0.  1.
</event>
<event>
 5   0  0.2792361E-07  0.2988153E+04  0.7818609E-02  0.8247122E-01
        1   -1    0    0  501    0  0.00000000000E+00  0.00000000000E+00  0.14242642199E+04  0.14242642199E+04  0.50400001928E-02 0.  1.
       -1   -1    0    0    0  501  0.00000000000E+00  0.00000000000E+00 -0.15673102828E+04  0.15673102828E+04  0.50400001928E-02 0. -1.
    10030    2    1    2    0    0  0.00000000000E+00  0.00000000000E+00 -0.14304606283E+03  0.29915745027E+04  0.29881525780E+04 0.  0.
        4    1    3    3  502    0 -0.28282656477E+03  0.14461944600E+04 -0.31836787780E+03  0.15075904618E+04  0.12699999809E+01 0. -1.
       -4    1    3    3    0  502  0.28282656477E+03 -0.14461944600E+04  0.17532181497E+03  0.14839840409E+04  0.12699999809E+01 0.  1.
</event>
<event>
 5   0  0.2679935E-07  0.3002664E+04  0.7818609E-02  0.8242971E-01
        1   -1    0    0  501    0  0.00000000000E+00  0.00000000000E+00  0.13856948570E+04  0.13856948570E+04  0.50400001928E-02 0.  1.
       -1   -1    0    0    0  501  0.00000000000E+00  0.00000000000E+00 -0.16266189867E+04  0.16266189867E+04  0.50400001928E-02 0. -1.
    10030    2    1    2    0    0  0.00000000000E+00  0.00000000000E+00 -0.24092412974E+03  0.30123138437E+04  0.30026638601E+04 0.  0.
        2    1    3    3  502    0 -0.33316641534E+03  0.63278234124E+02  0.13467680769E+04  0.13888082114E+04  0.25500000920E-02 0.  1.
       -2    1    3    3    0  502  0.33316641534E+03 -0.63278234124E+02 -0.15876922066E+04  0.16235056323E+04  0.25500000920E-02 0. -1.
</event>
<event>
 5   0  0.7208273E-07  0.2994268E+04  0.7818609E-02  0.8245370E-01
       -2   -1    0    0    0  501  0.00000000000E+00  0.00000000000E+00  0.10235963442E+04  0.10235963442E+04  0.25500000920E-02 0. -1.
        2   -1    0    0  501    0  0.00000000000E+00  0.00000000000E+00 -0.21897398541E+04  0.21897398541E+04  0.25500000920E-02 0.  1.
    10030    2    1    2    0    0  0.00000000000E+00  0.00000000000E+00 -0.11661435098E+04  0.32133361983E+04  0.29942676630E+04 0.  0.
        4    1    3    3  502    0  0.13179936995E+04 -0.65182735890E+03 -0.88550909210E+03  0.17164248492E+04  0.12699999809E+01 0.  1.
       -4    1    3    3    0  502 -0.13179936995E+04  0.65182735890E+03 -0.28063441773E+03  0.14969113491E+04  0.12699999809E+01 0. -1.
</event>
<event>
 5   0  0.7307508E-07  0.3016358E+04  0.7818609E-02  0.8239075E-01
       -2   -1    0    0    0  501  0.00000000000E+00  0.00000000000E+00  0.14003408274E+04  0.14003408274E+04  0.25500000920E-02 0.  1.
        2   -1    0    0  501    0  0.00000000000E+00  0.00000000000E+00 -0.16243217609E+04  0.16243217609E+04  0.25500000920E-02 0. -1.
    10030    2    1    2    0    0  0.00000000000E+00  0.00000000000E+00 -0.22398093343E+03  0.30246625883E+04  0.30163581211E+04 0.  0.
        1    1    3    3  502    0  0.78556054461E+03  0.32675909682E+03  0.11367199504E+04  0.14198623603E+04  0.50400001928E-02 0.  1.
       -1    1    3    3    0  502 -0.78556054461E+03 -0.32675909682E+03 -0.13607008838E+04  0.16048002280E+04  0.50400001928E-02 0. -1.
</event>
<event>
 5   0  0.2640081E-07  0.2993091E+04  0.7818609E-02  0.8245707E-01
        1   -1    0    0  501    0  0.00000000000E+00  0.00000000000E+00  0.27595537727E+04  0.27595537727E+04  0.50400001928E-02 0.  1.
       -1   -1    0    0    0  501  0.00000000000E+00  0.00000000000E+00 -0.81159790000E+03  0.81159790002E+03  0.50400001928E-02 0. -1.
    10030    2    1    2    0    0  0.00000000000E+00  0.00000000000E+00  0.19479558727E+04  0.35711516727E+04  0.29930907416E+04 0.  0.
        1    1    3    3  502    0  0.11216956695E+04 -0.67505896733E+03  0.10886091456E+03  0.13136805103E+04  0.50400001928E-02 0. -1.
       -1    1    3    3    0  502 -0.11216956695E+04  0.67505896733E+03  0.18390949581E+04  0.22574711624E+04  0.50400001928E-02 0.  1.
</event>
<event>
 5   0  0.7585823E-07  0.2954468E+04  0.7818609E-02  0.8256854E-01
       -2   -1    0    0    0  501  0.00000000000E+00  0.00000000000E+00  0.13032289315E+04  0.13032289315E+04  0.25500000920E-02 0. -1.
        2   -1    0    0  501    0  0.00000000000E+00  0.00000000000E+00 -0.16744724097E+04  0.16744724097E+04  0.25500000920E-02 0.  1.
    10030    2    1    2    0    0  0.00000000000E+00  0.00000000000E+00 -0.37124347820E+03  0.29777013412E+04  0.29544684052E+04 0.  0.
        5    1    3    3  502    0 -0.30459694190E+03 -0.11374114720E+04  0.71342125751E+03  0.13767629187E+04  0.46999998093E+01 0. -1.
       -5    1    3    3    0  502  0.30459694190E+03  0.11374114720E+04 -0.10846647357E+04  0.16009384225E+04  0.46999998093E+01 0.  1.
</event>
<event>
 5   0  0.2792361E-07  0.3002435E+04  0.7818609E-02  0.8243036E-01
       -1   -1    0    0    0  501  0.00000000000E+00  0.00000000000E+00  0.12686469104E+04  0.12686469104E+04  0.50400001928E-02 0.  1.
        1   -1    0    0  501    0  0.00000000000E+00  0.00000000000E+00 -0.17764236319E+04  0.17764236319E+04  0.50400001928E-02 0. -1.
    10030    2    1    2    0    0  0.00000000000E+00  0.00000000000E+00 -0.50777672148E+03  0.30450705423E+04  0.30024352464E+04 0.  0.
        4    1    3    3  502    0  0.11461518858E+04 -0.95549642044E+03 -0.87191401980E+02  0.14947379397E+04  0.12699999809E+01 0. -1.
       -4    1    3    3    0  502 -0.11461518858E+04  0.95549642044E+03 -0.42058531950E+03  0.15503326026E+04  0.12699999809E+01 0.  1.
</event>
<event>
 5   0  0.2621825E-07  0.3003799E+04  0.7818609E-02  0.8242647E-01
       -1   -1    0    0    0  501  0.00000000000E+00  0.00000000000E+00  0.93433883241E+03  0.93433883242E+03  0.50400001928E-02 0.  1.
        1   -1    0    0  501    0  0.00000000000E+00  0.00000000000E+00 -0.24142222980E+04  0.24142222980E+04  0.50400001928E-02 0. -1.
    10030    2    1    2    0    0  0.00000000000E+00  0.00000000000E+00 -0.14798834656E+04  0.33485611304E+04  0.30037986904E+04 0.  0.
        3    1    3    3  502    0 -0.73501465578E+03 -0.13018091834E+04 -0.57936785880E+03  0.16033155710E+04  0.10100000352E+00 0. -1.
       -3    1    3    3    0  502  0.73501465578E+03  0.13018091834E+04 -0.90051560677E+03  0.17452455594E+04  0.10100000352E+00 0.  1.
</event>
<event>
 5   0  0.2679935E-07  0.2999686E+04  0.7818609E-02  0.8243821E-01
        1   -1    0    0  501    0  0.00000000000E+00  0.00000000000E+00  0.13250665530E+04  0.13250665530E+04  0.50400001928E-02 0. -1.
       -1   -1    0    0    0  501  0.00000000000E+00  0.00000000000E+00 -0.16976719207E+04  0.16976719207E+04  0.50400001928E-02 0.  1.
    10030    2    1    2    0    0  0.00000000000E+00  0.00000000000E+00 -0.37260536770E+03  0.30227384736E+04  0.29996855035E+04 0.  0.
        2    1    3    3  502    0  0.50441988748E+03  0.60732082600E+03  0.10987429208E+04  0.13529648978E+04  0.25500000920E-02 0. -1.
       -2    1    3    3    0  502 -0.50441988748E+03 -0.60732082600E+03 -0.14713482885E+04  0.16697735759E+04  0.25500000920E-02 0.  1.
</event>
<event>
 5   0  0.7208273E-07  0.2984897E+04  0.7818609E-02  0.8248057E-01
       -2   -1    0    0    0  501  0.00000000000E+00  0.00000000000E+00  0.24565389854E+04  0.24565389854E+04  0.25500000920E-02 0.  1.
        2   -1    0    0  501    0  0.00000000000E+00  0.00000000000E+00 -0.90672371962E+03  0.90672371963E+03  0.25500000920E-02 0. -1.
    10030    2    1    2    0    0  0.00000000000E+00  0.00000000000E+00  0.15498152658E+04  0.33632627050E+04  0.29848967595E+04 0.  0.
        4    1    3    3  502    0 -0.89481081212E+03  0.69262181363E+03  0.18713958953E+04  0.21869009068E+04  0.12699999809E+01 0.  1.
       -4    1    3    3    0  502  0.89481081212E+03 -0.69262181363E+03 -0.32158062952E+03  0.11763617983E+04  0.12699999809E+01 0. -1.
</event>
<event>
 5   0  0.2640081E-07  0.3004375E+04  0.7818609E-02  0.8242483E-01
        1   -1    0    0  501    0  0.00000000000E+00  0.00000000000E+00  0.13325268921E+04  0.13325268921E+04  0.50400001928E-02 0.  1.
       -1   -1    0    0    0  501  0.00000000000E+00  0.00000000000E+00 -0.16934493376E+04  0.16934493376E+04  0.50400001928E-02 0. -1.
    10030    2    1    2    0    0  0.00000000000E+00  0.00000000000E+00 -0.36092244551E+03  0.30259762298E+04  0.30043746656E+04 0.  0.
        1    1    3    3  502    0 -0.50400809215E+03  0.11307272007E+04 -0.10374601756E+04  0.16152064188E+04  0.50400001928E-02 0. -1.
       -1    1    3    3    0  502  0.50400809215E+03 -0.11307272007E+04  0.67653773011E+03  0.14107698110E+04  0.50400001928E-02 0.  1.
</event>
<event>
 5   0  0.2621825E-07  0.3005342E+04  0.7818609E-02  0.8242207E-01
        1   -1    0    0  501    0  0.00000000000E+00  0.00000000000E+00  0.20140615351E+04  0.20140615351E+04  0.50400001928E-02 0. -1.
       -1   -1    0    0    0  501  0.00000000000E+00  0.00000000000E+00 -0.11211280289E+04  0.11211280289E+04  0.50400001928E-02 0.  1.
    10030    2    1    2    0    0  0.00000000000E+00  0.00000000000E+00  0.89293350620E+03  0.31351895640E+04  0.30053424690E+04 0.  0.
        3    1    3    3  502    0  0.14209460546E+04 -0.33282814992E+03  0.81992637068E+03  0.16739598355E+04  0.10100000352E+00 0. -1.
       -3    1    3    3    0  502 -0.14209460546E+04  0.33282814992E+03  0.73007135519E+02  0.14612297285E+04  0.10100000352E+00 0.  1.
</event>
<event>
 5   0  0.7278657E-07  0.2991354E+04  0.7818609E-02  0.8246204E-01
       -2   -1    0    0    0  501  0.00000000000E+00  0.00000000000E+00  0.10769929322E+04  0.10769929322E+04  0.25500000920E-02 0. -1.
        2   -1    0    0  501    0  0.00000000000E+00  0.00000000000E+00 -0.20771256742E+04  0.20771256742E+04  0.25500000920E-02 0.  1.
    10030    2    1    2    0    0  0.00000000000E+00  0.00000000000E+00 -0.10001327420E+04  0.31541186064E+04  0.29913539880E+04 0.  0.
        2    1    3    3  502    0 -0.68607393220E+03  0.10315471990E+04  0.38354232870E+03  0.12968777051E+04  0.25500000920E-02 0. -1.
       -2    1    3    3    0  502  0.68607393220E+03 -0.10315471990E+04 -0.13836750707E+04  0.18572409013E+04  0.25500000920E-02 0.  1.
</event>
<event>
 5   0  0.7208273E-07  0.3003284E+04  0.7818609E-02  0.8242794E-01
       -2   -1    0    0    0  501  0.00000000000E+00  0.00000000000E+00  0.12242340897E+04  0.12242340897E+04  0.25500000920E-02 0.  1.
        2   -1    0    0  501    0  0.00000000000E+00  0.00000000000E+00 -0.18419098347E+04  0.18419098347E+04  0.25500000920E-02 0. -1.
    10030    2    1    2    0    0  0.00000000000E+00  0.00000000000E+00 -0.61767574497E+03  0.30661439244E+04  0.30032840757E+04 0.  0.
        4    1    3    3  502    0 -0.15657164120E+03 -0.10110410911E+04 -0.14310295777E+04  0.17591378660E+04  0.12699999809E+01 0. -1.
       -4    1    3    3    0  502  0.15657164120E+03  0.10110410911E+04  0.81335383268E+03  0.13070060584E+04  0.12699999809E+01 0.  1.
</event>
<event>
 5   0  0.2602891E-07  0.2999663E+04  0.7818609E-02  0.8243827E-01
       -1   -1    0    0    0  501  0.00000000000E+00  0.00000000000E+00  0.93972423508E+03  0.93972423510E+03  0.50400001928E-02 0. -1.
        1   -1    0    0  501    0  0.00000000000E+00  0.00000000000E+00 -0.23937812748E+04  0.23937812748E+04  0.50400001928E-02 0.  1.
    10030    2    1    2    0    0  0.00000000000E+00  0.00000000000E+00 -0.14540570397E+04  0.33335055099E+04  0.29996628327E+04 0.  0.
        5    1    3    3  502    0 -0.31499688692E+02  0.25591849132E+03 -0.23689567844E+04  0.23829529666E+04  0.46999998093E+01 0.  1.
       -5    1    3    3    0  502  0.31499688692E+02 -0.25591849132E+03  0.91489974474E+03  0.95055254326E+03  0.46999998093E+01 0. -1.
</event>
<event>
 5   0  0.7208273E-07  0.2999968E+04  0.7818609E-02  0.8243740E-01
        2   -1    0    0  501    0  0.00000000000E+00  0.00000000000E+00  0.18035161132E+04  0.18035161132E+04  0.25500000920E-02 0.  1.
       -2   -1    0    0    0  501  0.00000000000E+00  0.00000000000E+00 -0.12475365352E+04  0.12475365352E+04  0.25500000920E-02 0. -1.
    10030    2    1    2    0    0  0.00000000000E+00  0.00000000000E+00  0.55597957800E+03  0.30510526484E+04  0.29999681619E+04 0.  0.
        4    1    3    3  502    0  0.10519107118E+04  0.45475251865E+03  0.12622686587E+04  0.17048870281E+04  0.12699999809E+01 0.  1.
       -4    1    3    3    0  502 -0.10519107118E+04 -0.45475251865E+03 -0.70628908075E+03  0.13461656203E+04  0.12699999809E+01 0. -1.
</event>
<event>
 5   0  0.2679935E-07  0.3008686E+04  0.7818609E-02  0.8241255E-01
       -1   -1    0    0    0  501  0.00000000000E+00  0.00000000000E+00  0.10825193661E+04  0.10825193661E+04  0.50400001928E-02 0. -1.
        1   -1    0    0  501    0  0.00000000000E+00  0.00000000000E+00 -0.20905378093E+04  0.20905378093E+04  0.50400001928E-02 0.  1.
    10030    2    1    2    0    0  0.00000000000E+00  0.00000000000E+00 -0.10080184432E+04  0.31730571754E+04  0.30086858687E+04 0.  0.
        2    1    3    3  502    0 -0.82948822029E+03  0.10576092815E+04 -0.12165376675E+04  0.18128849926E+04  0.25500000920E-02 0.  1.
       -2    1    3    3    0  502  0.82948822029E+03 -0.10576092815E+04  0.20851922432E+03  0.13601721828E+04  0.25500000920E-02 0. -1.
</event>
<event>
 5   0  0.7585823E-07  0.2994634E+04  0.7818609E-02  0.8245265E-01
        2   -1    0    0  501    0  0.00000000000E+00  0.00000000000E+00  0.19335464388E+04  0.19335464388E+04  0.25500000920E-02 0.  1.
       -2   -1    0    0    0  501  0.00000000000E+00  0.00000000000E+00 -0.11595058058E+04  0.11595058058E+04  0.25500000920E-02 0. -1.
    10030    2    1    2    0    0  0.00000000000E+00  0.00000000000E+00  0.77404063304E+03  0.30930522446E+04  0.29946340822E+04 0.  0.
        5    1    3    3  502    0  0.39234320459E+03 -0.13506058329E+04  0.91758210809E+03  0.16792999497E+04  0.46999998093E+01 0.  1.
       -5    1    3    3    0  502 -0.39234320459E+03  0.13506058329E+04 -0.14354147505E+03  0.14137522948E+04  0.46999998093E+01 0. -1.
</event>
<event>
 5   0  0.2792361E-07  0.2993421E+04  0.7818609E-02  0.8245612E-01
       -1   -1    0    0    0  501  0.00000000000E+00  0.00000000000E+00  0.13347629956E+04  0.13347629956E+04  0.50400001928E-02 0. -1.
        1   -1    0    0  501    0  0.00000000000E+00  0.00000000000E+00 -0.16783071595E+04  0.16783071595E+04  0.50400001928E-02 0.  1.
    10030    2    1    2    0    0  0.00000000000E+00  0.00000000000E+00 -0.34354416392E+03  0.30130701552E+04  0.29934209806E+04 0.  0.
        4    1    3    3  502    0  0.53466483968E+03 -0.10878420541E+04 -0.10555295632E+04  0.16072993178E+04  0.12699999809E+01 0.  1.
       -4    1    3    3    0  502 -0.53466483968E+03  0.10878420541E+04  0.71198539924E+03  0.14057708373E+04  0.12699999809E+01 0. -1.
</event>
<event>
 5   0  0.7399409E-07  0.3005367E+04  0.7818609E-02  0.8242200E-01
        2   -1    0    0  501    0  0.00000000000E+00  0.00000000000E+00  0.20360036743E+04  0.20360036743E+04  0.25500000920E-02 0. -1.
       -2   -1    0    0    0  501  0.00000000000E+00  0.00000000000E+00 -0.11090633812E+04  0.11090633812E+04  0.25500000920E-02 0.  1.
    10030    2    1    2    0    0  0.00000000000E+00  0.00000000000E+00  0.92694029303E+03  0.31450670555E+04  0.30053666127E+04 0.  0.
        3    1    3    3  502    0  0.31019010164E+03  0.66045247139E+03  0.18381696342E+04  0.19776963823E+04  0.10100000352E+00 0. -1.
       -3    1    3    3    0  502 -0.31019010164E+03 -0.66045247139E+03 -0.91122934122E+03  0.11673706732E+04  0.10100000352E+00 0.  1.
</event>
<event>
 5   0  0.2679935E-07  0.3001386E+04  0.7818609E-02  0.8243335E-01
        1   -1    0    0  501    0  0.00000000000E+00  0.00000000000E+00  0.22317063826E+04  0.22317063826E+04  0.50400001928E-02 0.  1.
       -1   -1    0    0    0  501  0.00000000000E+00  0.00000000000E+00 -0.10091288471E+04  0.10091288471E+04  0.50400001928E-02 0. -1.
    10030    2    1    2    0    0  0.00000000000E+00  0.00000000000E+00  0.12225775354E+04  0.32408352297E+04  0.30013858725E+04 0.  0.
        2    1    3    3  502    0 -0.21611629069E+02  0.16709240523E+03 -0.99888396803E+03  0.10129936407E+04  0.25500000920E-02 0. -1.
       -2    1    3    3    0  502  0.21611629069E+02 -0.16709240523E+03  0.22214615035E+04  0.22278415890E+04  0.25500000920E-02 0.  1.
</event>
<event>
 5   0  0.7278657E-07  0.2999683E+04  0.7818609E-02  0.8243821E-01
        2   -1    0    0  501    0  0.00000000000E+00  0.00000000000E+00  0.14339538251E+04  0.14339538251E+04  0.25500000920E-02 0.  1.
       -2   -1    0    0    0  501  0.00000000000E+00  0.00000000000E+00 -0.15687567393E+04  0.15687567393E+04  0.25500000920E-02 0. -1.
    10030    2    1    2    0    0  0.00000000000E+00  0.00000000000E+00 -0.13480291419E+03  0.30027105645E+04  0.29996831346E+04 0.  0.
        2    1    3    3  502    0  0.98024390429E+03 -0.84879154700E+03  0.68714941212E+03  0.14674806700E+04  0.25500000920E-02 0.  1.
       -2    1    3    3    0  502 -0.98024390429E+03  0.84879154700E+03 -0.82195232632E+03  0.15352298945E+04  0.25500000920E-02 0. -1.
</event>
<event>
 5   0  0.2414250E-07  0.2986107E+04  0.7818609E-02  0.8247709E-01
       -3   -1    0    0    0  501  0.00000000000E+00  0.00000000000E+00  0.10329826453E+04  0.10329826502E+04  0.10100000352E+00 0. -1.
        3   -1    0    0  501    0  0.00000000000E+00  0.00000000000E+00 -0.21580306756E+04  0.21580306780E+04  0.10100000352E+00 0.  1.
    10030    2    1    2    0    0  0.00000000000E+00  0.00000000000E+00 -0.11250480303E+04  0.31910133282E+04  0.29861066609E+04 0.  0.
        5    1    3    3  502    0  0.12551666726E+04  0.18358177460E+03  0.27893571270E+03  0.12988351958E+04  0.46999998093E+01 0. -1.
       -5    1    3    3    0  502 -0.12551666726E+04 -0.18358177460E+03 -0.14039837430E+04  0.18921781324E+04  0.46999998093E+01 0.  1.
</event>
<event>
 5   0  0.7208273E-07  0.3002802E+04  0.7818609E-02  0.8242931E-01
        2   -1    0    0  501    0  0.00000000000E+00  0.00000000000E+00  0.22100244906E+04  0.22100244906E+04  0.25500000920E-02 0.  1.
       -2   -1    0    0    0  501  0.00000000000E+00  0.00000000000E+00 -0.10199907869E+04  0.10199907869E+04  0.25500000920E-02 0. -1.
    10030    2    1    2    0    0  0.00000000000E+00  0.00000000000E+00  0.11900337037E+04  0.32300152775E+04  0.30028017711E+04 0.  0.
        4    1    3    3  502    0  0.73155102691E+03  0.24382526018E+03 -0.79071024241E+03  0.11044645593E+04  0.12699999809E+01 0. -1.
       -4    1    3    3    0  502 -0.73155102691E+03 -0.24382526018E+03  0.19807439461E+04  0.21255507181E+04  0.12699999809E+01 0.  1.
</event>
<event>
 5   0  0.7585823E-07  0.3002965E+04  0.7818609E-02  0.8242885E-01
       -2   -1    0    0    0  501  0.00000000000E+00  0.00000000000E+00  0.12305619335E+04  0.12305619335E+04  0.25500000920E-02 0.  1.
        2   -1    0    0  501    0  0.00000000000E+00  0.00000000000E+00 -0.18320494770E+04  0.18320494770E+04  0.25500000920E-02 0. -1.
    10030    2    1    2    0    0  0.00000000000E+00  0.00000000000E+00 -0.60148754352E+03  0.30626114104E+04  0.30029654321E+04 0.  0.
        5    1    3    3  502    0  0.10855924736E+03 -0.92912426993E+03  0.89705026394E+03  0.12960626085E+04  0.46999998093E+01 0.  1.
       -5    1    3    3    0  502 -0.10855924736E+03  0.92912426993E+03 -0.14985378075E+04  0.17665488019E+04  0.46999998093E+01 0. -1.
</event>
<event>
 5   0  0.2640081E-07  0.3000489E+04  0.7818609E-02  0.8243591E-01
        1   -1    0    0  501    0  0.00000000000E+00  0.00000000000E+00  0.20899546451E+04  0.20899546451E+04  0.50400001928E-02 0. -1.
       -1   -1    0    0    0  501  0.00000000000E+00  0.00000000000E+00 -0.10769296963E+04  0.10769296963E+04  0.50400001928E-02 0.  1.
    10030    2    1    2    0    0  0.00000000000E+00  0.00000000000E+00  0.10130249488E+04  0.31668843414E+04  0.30004894409E+04 0.  0.
        1    1    3    3  502    0 -0.25244646933E+03  0.56173079737E+03  0.19503914146E+04  0.20453110714E+04  0.50400001928E-02 0. -1.
       -1    1    3    3    0  502  0.25244646933E+03 -0.56173079737E+03 -0.93736646585E+03  0.11215732700E+04  0.50400001928E-02 0.  1.
</event>
<event>
 5   0  0.2679935E-07  0.2999476E+04  0.7818609E-02  0.8243881E-01
       -1   -1    0    0    0  501  0.00000000000E+00  0.00000000000E+00  0.30240932915E+04  0.30240932915E+04  0.50400001928E-02 0. -1.
        1   -1    0    0  501    0  0.00000000000E+00  0.00000000000E+00 -0.74376479793E+03  0.74376479795E+03  0.50400001928E-02 0.  1.
    10030    2    1    2    0    0  0.00000000000E+00  0.00000000000E+00  0.22803284936E+04  0.37678580895E+04  0.29994760449E+04 0.  0.
        2    1    3    3  502    0 -0.45033835790E+03 -0.42218585060E+03 -0.57678388092E+03  0.84482256974E+03  0.25500000920E-02 0.  1.
       -2    1    3    3    0  502  0.45033835790E+03  0.42218585060E+03  0.28571123745E+04  0.29230355197E+04  0.25500000920E-02 0. -1.
</event>
<event>
 5   0  0.7585823E-07  0.2999334E+04  0.7818609E-02  0.8243921E-01
       -2   -1    0    0    0  501  0.00000000000E+00  0.00000000000E+00  0.14646951127E+04  0.14646951127E+04  0.25500000920E-02 0.  1.
        2   -1    0    0  501    0  0.00000000000E+00  0.00000000000E+00 -0.15354742873E+04  0.15354742873E+04  0.25500000920E-02 0. -1.
    10030    2    1    2    0    0  0.00000000000E+00  0.00000000000E+00 -0.70779174555E+02  0.30001694000E+04  0.29993343824E+04 0.  0.
        5    1    3    3  502    0  0.21125030803E+03 -0.13419874237E+04  0.59994285653E+03  0.14850961111E+04  0.46999998093E+01 0.  1.
       -5    1    3    3    0  502 -0.21125030803E+03  0.13419874237E+04 -0.67072203108E+03  0.15150732890E+04  0.46999998093E+01 0. -1.
</event>
<event>
 5   0  0.2621825E-07  0.2985593E+04  0.7818609E-02  0.8247857E-01
       -1   -1    0    0    0  501  0.00000000000E+00  0.00000000000E+00  0.10492689858E+04  0.10492689859E+04  0.50400001928E-02 0. -1.
        1   -1    0    0  501    0  0.00000000000E+00  0.00000000000E+00 -0.21238038817E+04  0.21238038817E+04  0.50400001928E-02 0.  1.
    10030    2    1    2    0    0  0.00000000000E+00  0.00000000000E+00 -0.10745348958E+04  0.31730728675E+04  0.29855931036E+04 0.  0.
        3    1    3    3  502    0 -0.67628273985E+03  0.88180623823E+03 -0.15966030536E+04  0.19452716794E+04  0.10100000352E+00 0.  1.
       -3    1    3    3    0  502  0.67628273985E+03 -0.88180623823E+03  0.52206815771E+03  0.12278011881E+04  0.10100000352E+00 0. -1.
</event>
<event>
 5   0  0.7307508E-07  0.2997263E+04  0.7818609E-02  0.8244513E-01
        2   -1    0    0  501    0  0.00000000000E+00  0.00000000000E+00  0.18506868800E+04  0.18506868800E+04  0.25500000920E-02 0. -1.
       -2   -1    0    0    0  501  0.00000000000E+00  0.00000000000E+00 -0.12135478474E+04  0.12135478474E+04  0.25500000920E-02 0.  1.
    10030    2    1    2    0    0  0.00000000000E+00  0.00000000000E+00  0.63713903264E+03  0.30642347273E+04  0.29972634715E+04 0.  0.
        1    1    3    3  502    0 -0.10784245978E+04 -0.47920118398E+03  0.12629320358E+04  0.17284764144E+04  0.50400001928E-02 0. -1.
       -1    1    3    3    0  502  0.10784245978E+04  0.47920118398E+03 -0.62579300321E+03  0.13357583130E+04  0.50400001928E-02 0.  1.
</event>
<event>
 5   0  0.2640081E-07  0.3012325E+04  0.7818609E-02  0.8240220E-01
        1   -1    0    0  501    0  0.00000000000E+00  0.00000000000E+00  0.18070760832E+04  0.18070760832E+04  0.50400001928E-02 0.  1.
       -1   -1    0    0    0  501  0.00000000000E+00  0.00000000000E+00 -0.12553567018E+04  0.12553567018E+04  0.50400001928E-02 0. -1.
    10030    2    1    2    0    0  0.00000000000E+00  0.00000000000E+00  0.55171938136E+03  0.30624327850E+04  0.30123247313E+04 0.  0.
        1    1    3    3  502    0  0.11112462422E+04  0.53236225036E+03  0.11564360003E+04  0.16898585737E+04  0.50400001928E-02 0.  1.
       -1    1    3    3    0  502 -0.11112462422E+04 -0.53236225036E+03 -0.60471661892E+03  0.13725742113E+04  0.50400001928E-02 0. -1.
</event>
<event>
 5   0  0.7307508E-07  0.3001800E+04  0.7818609E-02  0.8243217E-01
        2   -1    0    0  501    0  0.00000000000E+00  0.00000000000E+00  0.16911614174E+04  0.16911614174E+04  0.25500000920E-02 0.  1.
       -2   -1    0    0    0  501  0.00000000000E+00  0.00000000000E+00 -0.13320436836E+04  0.13320436836E+04  0.25500000920E-02 0. -1.
    10030    2    1    2    0    0  0.00000000000E+00  0.00000000000E+00  0.35911773375E+03  0.30232051010E+04  0.30018000493E+04 0.  0.
        1    1    3    3  502    0  0.13553531943E+04 -0.60055175304E+03  0.41587259233E+03  0.15396735701E+04  0.50400001928E-02 0. -1.
       -1    1    3    3    0  502 -0.13553531943E+04  0.60055175304E+03 -0.56754858578E+02  0.14835315309E+04  0.50400001928E-02 0.  1.
</event>
<event>
 5   0  0.7307508E-07  0.2950974E+04  0.7818609E-02  0.8257871E-01
       -2   -1    0    0    0  501  0.00000000000E+00  0.00000000000E+00  0.81412729845E+03  0.81412729846E+03  0.25500000920E-02 0. -1.
        2   -1    0    0  501    0  0.00000000000E+00  0.00000000000E+00 -0.26741052631E+04  0.26741052631E+04  0.25500000920E-02 0.  1.
    10030    2    1    2    0    0  0.00000000000E+00  0.00000000000E+00 -0.18599779647E+04  0.34882325616E+04  0.29509741400E+04 0.  0.
        1    1    3    3  502    0  0.31457417143E+03 -0.12654422421E+04 -0.11380053733E+03  0.13089123499E+04  0.50400001928E-02 0. -1.
       -1    1    3    3    0  502 -0.31457417143E+03  0.12654422421E+04 -0.17461774273E+04  0.21793202117E+04  0.50400001928E-02 0.  1.
</event>
<event>
 5   0  0.7585823E-07  0.3001606E+04  0.7818609E-02  0.8243272E-01
        2   -1    0    0  501    0  0.00000000000E+00  0.00000000000E+00  0.23078391476E+04  0.23078391476E+04  0.25500000920E-02 0.  1.
       -2   -1    0    0    0  501  0.00000000000E+00  0.00000000000E+00 -0.97598216628E+03  0.97598216628E+03  0.25500000920E-02 0. -1.
    10030    2    1    2    0    0  0.00000000000E+00  0.00000000000E+00  0.13318569814E+04  0.32838213139E+04  0.30016061372E+04 0.  0.
        5    1    3    3  502    0 -0.82812404809E+03  0.69459571928E+03  0.18050433499E+04  0.21039145033E+04  0.46999998093E+01 0.  1.
       -5    1    3    3    0  502  0.82812404809E+03 -0.69459571928E+03 -0.47318636856E+03  0.11799068106E+04  0.46999998093E+01 0. -1.
</event>
<event>
 5   0  0.7399409E-07  0.3002435E+04  0.7818609E-02  0.8243036E-01
       -2   -1    0    0    0  501  0.00000000000E+00  0.00000000000E+00  0.11287573837E+04  0.11287573837E+04  0.25500000920E-02 0. -1.
        2   -1    0    0  501    0  0.00000000000E+00  0.00000000000E+00 -0.19965791697E+04  0.19965791697E+04  0.25500000920E-02 0.  1.
    10030    2    1    2    0    0  0.00000000000E+00  0.00000000000E+00 -0.86782178600E+03  0.31253365534E+04  0.30024346654E+04 0.  0.
        3    1    3    3  502    0  0.19675866797E+03  0.12657825193E+04  0.38090455583E+03  0.13364159720E+04  0.10100000352E+00 0. -1.
       -3    1    3    3    0  502 -0.19675866797E+03 -0.12657825193E+04 -0.12487263418E+04  0.17889205814E+04  0.10100000352E+00 0.  1.
</event>
<event>
 5   0  0.2679935E-07  0.2995080E+04  0.7818609E-02  0.8245137E-01
        1   -1    0    0  501    0  0.00000000000E+00  0.00000000000E+00  0.18829080740E+04  0.18829080740E+04  0.50400001928E-02 0. -1.
       -1   -1    0    0    0  501  0.00000000000E+00  0.00000000000E+00 -0.11910436306E+04  0.11910436306E+04  0.50400001928E-02 0.  1.
    10030    2    1    2    0    0  0.00000000000E+00  0.00000000000E+00  0.69186444342E+03  0.30739517046E+04  0.29950797442E+04 0.  0.
        2    1    3    3  502    0 -0.19781469354E+02 -0.14872088121E+04  0.52501001234E+03  0.15772814810E+04  0.25500000920E-02 0. -1.
       -2    1    3    3    0  502  0.19781469354E+02  0.14872088121E+04  0.16685443108E+03  0.14966702237E+04  0.25500000920E-02 0.  1.
</event>
<event>
 5   0  0.2621825E-07  0.2997800E+04  0.7818609E-02  0.8244359E-01
        1   -1    0    0  501    0  0.00000000000E+00  0.00000000000E+00  0.12891439932E+04  0.12891439932E+04  0.50400001928E-02 0. -1.
       -1   -1    0    0    0  501  0.00000000000E+00  0.00000000000E+00 -0.17427855363E+04  0.17427855363E+04  0.50400001928E-02 0.  1.
    10030    2    1    2    0    0  0.00000000000E+00  0.00000000000E+00 -0.45364154306E+03  0.30319295295E+04  0.29978001971E+04 0.  0.
        3    1    3    3  502    0 -0.53871968413E+03  0.13487399696E+04 -0.60169282206E+03  0.15720536460E+04  0.10100000352E+00 0.  1.
       -3    1    3    3    0  502  0.53871968413E+03 -0.13487399696E+04  0.14805127899E+03  0.14598758834E+04  0.10100000352E+00 0. -1.
</event>
<event>
 5   0  0.2679935E-07  0.2997349E+04  0.7818609E-02  0.8244488E-01
        1   -1    0    0  501    0  0.00000000000E+00  0.00000000000E+00  0.16464361073E+04  0.16464361073E+04  0.50400001928E-02 0.  1.
       -1   -1    0    0    0  501  0.00000000000E+00  0.00000000000E+00 -0.13641739705E+04  0.13641739705E+04  0.50400001928E-02 0. -1.
    10030    2    1    2    0    0  0.00000000000E+00  0.00000000000E+00  0.28226213687E+03  0.30106100778E+04  0.29973490165E+04 0.  0.
        2    1    3    3  502    0 -0.11084859908E+04  0.11102587353E+03  0.11480418928E+04  0.15997087623E+04  0.25500000920E-02 0.  1.
       -2    1    3    3    0  502  0.11084859908E+04 -0.11102587353E+03 -0.86577975598E+03  0.14109013156E+04  0.25500000920E-02 0. -1.
</event>
<event>
 5   0  0.2640081E-07  0.2993719E+04  0.7818609E-02  0.8245527E-01
       -1   -1    0    0    0  501  0.00000000000E+00  0.00000000000E+00  0.10490476628E+04  0.10490476628E+04  0.50400001928E-02 0.  1.
        1   -1    0    0  501    0  0.00000000000E+00  0.00000000000E+00 -0.21358313615E+04  0.21358313615E+04  0.50400001928E-02 0. -1.
    10030    2    1    2    0    0  0.00000000000E+00  0.00000000000E+00 -0.10867836987E+04  0.31848790243E+04  0.29937193575E+04 0.  0.
        1    1    3    3  502    0 -0.64277990220E+03  0.45609939394E+02 -0.19807137837E+04  0.20829002286E+04  0.50400001928E-02 0. -1.
       -1    1    3    3    0  502  0.64277990220E+03 -0.45609939394E+02  0.89393008503E+03  0.11019787957E+04  0.50400001928E-02 0.  1.
</event>
<event>
 5   0  0.7208273E-07  0.3000912E+04  0.7818609E-02  0.8243471E-01
        2   -1    0    0  501    0  0.00000000000E+00  0.00000000000E+00  0.14766452013E+04  0.14766452013E+04  0.25500000920E-02 0.  1.
       -2   -1    0    0    0  501  0.00000000000E+00  0.00000000000E+00 -0.15246507035E+04  0.15246507035E+04  0.25500000920E-02 0. -1.
    10030    2    1    2    0    0  0.00000000000E+00  0.00000000000E+00 -0.48005502265E+02  0.30012959048E+04  0.30009119581E+04 0.  0.
        4    1    3    3  502    0  0.70413080042E+03 -0.73870930933E+03 -0.11240866184E+04  0.15182437111E+04  0.12699999809E+01 0. -1.
       -4    1    3    3    0  502 -0.70413080042E+03  0.73870930933E+03  0.10760811162E+04  0.14830521937E+04  0.12699999809E+01 0.  1.
</event>
<event>
 5   0  0.2621825E-07  0.2999936E+04  0.7818609E-02  0.8243749E-01
        1   -1    0    0  501    0  0.00000000000E+00  0.00000000000E+00  0.27400138591E+04  0.27400138591E+04  0.50400001928E-02 0. -1.
       -1   -1    0    0    0  501  0.00000000000E+00  0.00000000000E+00 -0.82112886359E+03  0.82112886361E+03  0.50400001928E-02 0.  1.
    10030    2    1    2    0    0  0.00000000000E+00  0.00000000000E+00  0.19188849955E+04  0.35611427227E+04  0.29999363102E+04 0.  0.
        3    1    3    3  502    0  0.11046528545E+03 -0.25141071780E+03  0.27099198836E+04  0.27237980310E+04  0.10100000352E+00 0. -1.
       -3    1    3    3    0  502 -0.11046528545E+03  0.25141071780E+03 -0.79103488807E+03  0.83734469167E+03  0.10100000352E+00 0.  1.
</event>
<event>
 5   0  0.7278657E-07  0.3001147E+04  0.7818609E-02  0.8243403E-01
       -2   -1    0    0    0  501  0.00000000000E+00  0.00000000000E+00  0.91890295919E+03  0.91890295920E+03  0.25500000920E-02 0.  1.
        2   -1    0    0  501    0  0.00000000000E+00  0.00000000000E+00 -0.24504451155E+04  0.24504451155E+04  0.25500000920E-02 0. -1.
    10030    2    1    2    0    0  0.00000000000E+00  0.00000000000E+00 -0.15315421563E+04  0.33693480747E+04  0.30011472926E+04 0.  0.
        2    1    3    3  502    0  0.36994281484E+03 -0.46009501607E+03 -0.23145807866E+04  0.23886877836E+04  0.25500000920E-02 0. -1.
       -2    1    3    3    0  502 -0.36994281484E+03  0.46009501607E+03  0.78303863025E+03  0.98066029109E+03  0.25500000920E-02 0.  1.
</event>
<event>
 5   0  0.2602891E-07  0.3002780E+04  0.7818609E-02  0.8242937E-01
        1   -1    0    0  501    0  0.00000000000E+00  0.00000000000E+00  0.14369071239E+04  0.14369071239E+04  0.50400001928E-02 0.  1.
       -1   -1    0    0    0  501  0.00000000000E+00  0.00000000000E+00 -0.15687665953E+04  0.15687665953E+04  0.50400001928E-02 0. -1.
    10030    2    1    2    0    0  0.00000000000E+00  0.00000000000E+00 -0.13185947140E+03  0.30056737193E+04  0.30027799764E+04 0.  0.
        5    1    3    3  502    0  0.22737983191E+03 -0.55853403870E+03 -0.14422049200E+04  0.15632143108E+04  0.46999998093E+01 0. -1.
       -5    1    3    3    0  502 -0.22737983191E+03  0.55853403870E+03  0.13103454486E+04  0.14424594084E+04  0.46999998093E+01 0.  1.
</event>
<event>
 5   0  0.7208273E-07  0.2981137E+04  0.7818609E-02  0.8249138E-01
        2   -1    0    0  501    0  0.00000000000E+00  0.00000000000E+00  0.27050637674E+04  0.27050637674E+04  0.25500000920E-02 0. -1.
       -2   -1    0    0    0  501  0.00000000000E+00  0.00000000000E+00 -0.82134655967E+03  0.82134655967E+03  0.25500000920E-02 0.  1.
    10030    2    1    2    0    0  0.00000000000E+00  0.00000000000E+00  0.18837172077E+04  0.35264103271E+04  0.29811372454E+04 0.  0.
        4    1    3    3  502    0 -0.48421286441E+03  0.90948863904E+03 -0.33226072215E+03  0.10826035669E+04  0.12699999809E+01 0.  1.
       -4    1    3    3    0  502  0.48421286441E+03 -0.90948863904E+03  0.22159779299E+04  0.24438067602E+04  0.12699999809E+01 0. -1.
</event>
<event>
 5   0  0.7307508E-07  0.2976048E+04  0.7818609E-02  0.8250604E-01
       -2   -1    0    0    0  501  0.00000000000E+00  0.00000000000E+00  0.13878312519E+04  0.13878312519E+04  0.25500000920E-02 0. -1.
        2   -1    0    0  501    0  0.00000000000E+00  0.00000000000E+00 -0.15954497139E+04  0.15954497139E+04  0.25500000920E-02 0.  1.
    10030    2    1    2    0    0  0.00000000000E+00  0.00000000000E+00 -0.20761846200E+03  0.29832809658E+04  0.29760476971E+04 0.  0.
        1    1    3    3  502    0 -0.76760691557E+03  0.11419562193E+04  0.46407502332E+03  0.14521191449E+04  0.50400001928E-02 0.  1.
       -1    1    3    3    0  502  0.76760691557E+03 -0.11419562193E+04 -0.67169348533E+03  0.15311618209E+04  0.50400001928E-02 0. -1.
</event>
<event>
 5   0  0.7307508E-07  0.2999120E+04  0.7818609E-02  0.8243982E-01
       -2   -1    0    0    0  501  0.00000000000E+00  0.00000000000E+00  0.23090502417E+04  0.23090502417E+04  0.25500000920E-02 0. -1.
        2   -1    0    0  501    0  0.00000000000E+00  0.00000000000E+00 -0.97385521553E+03  0.97385521553E+03  0.25500000920E-02 0.  1.
    10030    2    1    2    0    0  0.00000000000E+00  0.00000000000E+00  0.13351950262E+04  0.32829054573E+04  0.29991202849E+04 0.  0.
        1    1    3    3  502    0  0.81302486075E+03  0.66237576800E+03  0.18409032366E+04  0.21186495248E+04  0.50400001928E-02 0. -1.
       -1    1    3    3    0  502 -0.81302486075E+03 -0.66237576800E+03 -0.50570821041E+03  0.11642559325E+04  0.50400001928E-02 0.  1.
</event>
<event>
 5   0  0.2792361E-07  0.3000913E+04  0.7818609E-02  0.8243470E-01
       -1   -1    0    0    0  501  0.00000000000E+00  0.00000000000E+00  0.29962510541E+04  0.29962510541E+04  0.50400001928E-02 0. -1.
        1   -1    0    0  501    0  0.00000000000E+00  0.00000000000E+00 -0.75139573316E+03  0.75139573318E+03  0.50400001928E-02 0.  1.
    10030    2    1    2    0    0  0.00000000000E+00  0.00000000000E+00  0.22448553209E+04  0.37476467873E+04  0.30009133660E+04 0.  0.
        4    1    3    3  502    0 -0.44262843290E+03 -0.14293310154E+04  0.98301845252E+03  0.17903167240E+04  0.12699999809E+01 0.  1.
       -4    1    3    3    0  502  0.44262843290E+03  0.14293310154E+04  0.12618368684E+04  0.19573300633E+04  0.12699999809E+01 0. -1.
</event>
<event>
 5   0  0.7208273E-07  0.3001389E+04  0.7818609E-02  0.8243334E-01
       -2   -1    0    0    0  501  0.00000000000E+00  0.00000000000E+00  0.16858982061E+04  0.16858982061E+04  0.25500000920E-02 0.  1.
        2   -1    0    0  501    0  0.00000000000E+00  0.00000000000E+00 -0.13358366161E+04  0.13358366161E+04  0.25500000920E-02 0. -1.
    10030    2    1    2    0    0  0.00000000000E+00  0.00000000000E+00  0.35006159000E+03  0.30217348223E+04  0.30013893815E+04 0.  0.
        4    1    3    3  502    0  0.11951545937E+03  0.14470895960E+04 -0.20665744110E+03  0.14666496360E+04  0.12699999809E+01 0. -1.
       -4    1    3    3    0  502 -0.11951545937E+03 -0.14470895960E+04  0.55671903110E+03  0.15550851863E+04  0.12699999809E+01 0.  1.
</event>
<event>
 5   0  0.7208273E-07  0.3001259E+04  0.7818609E-02  0.8243372E-01
       -2   -1    0    0    0  501  0.00000000000E+00  0.00000000000E+00  0.14437700336E+04  0.14437700336E+04  0.25500000920E-02 0. -1.
        2   -1    0    0  501    0  0.00000000000E+00  0.00000000000E+00 -0.15597280770E+04  0.15597280770E+04  0.25500000920E-02 0.  1.
    10030    2    1    2    0    0  0.00000000000E+00  0.00000000000E+00 -0.11595804336E+03  0.30034981106E+04  0.30012588413E+04 0.  0.
        4    1    3    3  502    0  0.36180772022E+03  0.73733910145E+03 -0.13148273995E+04  0.15502730341E+04  0.12699999809E+01 0.  1.
       -4    1    3    3    0  502 -0.36180772022E+03 -0.73733910145E+03  0.11988693561E+04  0.14532250765E+04  0.12699999809E+01 0. -1.
</event>
<event>
 5   0  0.2679935E-07  0.2995316E+04  0.7818609E-02  0.8245070E-01
        1   -1    0    0  501    0  0.00000000000E+00  0.00000000000E+00  0.26015096062E+04  0.26015096062E+04  0.50400001928E-02 0.  1.
       -1   -1    0    0    0  501  0.00000000000E+00  0.00000000000E+00 -0.86218360668E+03  0.86218360670E+03  0.50400001928E-02 0. -1.
    10030    2    1    2    0    0  0.00000000000E+00  0.00000000000E+00  0.17393259996E+04  0.34636932129E+04  0.29953156329E+04 0.  0.
        2    1    3    3  502    0 -0.15216054884E+03 -0.20105348879E+03  0.25767893156E+04  0.25890960807E+04  0.25500000920E-02 0.  1.
       -2    1    3    3    0  502  0.15216054884E+03  0.20105348879E+03 -0.83746331606E+03  0.87459713225E+03  0.25500000920E-02 0. -1.
</event>
<event>
 5   0  0.7208273E-07  0.3000185E+04  0.7818609E-02  0.8243678E-01
       -2   -1    0    0    0  501  0.00000000000E+00  0.00000000000E+00  0.94705370720E+03  0.94705370721E+03  0.25500000920E-02 0. -1.
        2   -1    0    0  501    0  0.00000000000E+00  0.00000000000E+00 -0.23760830115E+04  0.23760830115E+04  0.25500000920E-02 0.  1.
    10030    2    1    2    0    0  0.00000000000E+00  0.00000000000E+00 -0.14290293043E+04  0.33231367187E+04  0.30001854774E+04 0.  0.
        4    1    3    3  502    0 -0.14659758541E+04 -0.28481028455E+03 -0.87145064831E+03  0.17290546401E+04  0.12699999809E+01 0.  1.
       -4    1    3    3    0  502  0.14659758541E+04  0.28481028455E+03 -0.55757865603E+03  0.15940820787E+04  0.12699999809E+01 0. -1.
</event>
<event>
 5   0  0.2602891E-07  0.2991838E+04  0.7818609E-02  0.8246065E-01
       -1   -1    0    0    0  501  0.00000000000E+00  0.00000000000E+00  0.10701737868E+04  0.10701737868E+04  0.50400001928E-02 0.  1.
        1   -1    0    0  501    0  0.00000000000E+00  0.00000000000E+00 -0.20910379732E+04  0.20910379733E+04  0.50400001928E-02 0. -1.
    10030    2    1    2    0    0  0.00000000000E+00  0.00000000000E+00 -0.10208641865E+04  0.31612117600E+04  0.29918382484E+04 0.  0.
        5    1    3    3  502    0 -0.16574114857E+03 -0.88712725006E+03 -0.17709868856E+04  0.19876824507E+04  0.46999998093E+01 0. -1.
       -5    1    3    3    0  502  0.16574114857E+03  0.88712725006E+03  0.75012269908E+03  0.11735293093E+04  0.46999998093E+01 0.  1.
</event>
<event>
 5   0  0.2602891E-07  0.2998124E+04  0.7818609E-02  0.8244267E-01
        1   -1    0    0  501    0  0.00000000000E+00  0.00000000000E+00  0.18833396243E+04  0.18833396243E+04  0.50400001928E-02 0.  1.
       -1   -1    0    0    0  501  0.00000000000E+00  0.00000000000E+00 -0.11931927327E+04  0.11931927327E+04  0.50400001928E-02 0. -1.
    10030    2    1    2    0    0  0.00000000000E+00  0.00000000000E+00  0.69014689167E+03  0.30765323570E+04  0.29981241821E+04 0.  0.
        5    1    3    3  502    0  0.67656090930E+03 -0.13542691513E+03  0.17107007110E+04  0.18446121885E+04  0.46999998093E+01 0.  1.
       -5    1    3    3    0  502 -0.67656090930E+03  0.13542691513E+03 -0.10205538193E+04  0.12319201685E+04  0.46999998093E+01 0. -1.
</event>
<event>
 5   0  0.2602891E-07  0.2989189E+04  0.7818609E-02  0.8246825E-01
       -1   -1    0    0    0  501  0.00000000000E+00  0.00000000000E+00  0.11153431260E+04  0.11153431260E+04  0.50400001928E-02 0.  1.
        1   -1    0    0  501    0  0.00000000000E+00  0.00000000000E+00 -0.20028035580E+04  0.20028035580E+04  0.50400001928E-02 0. -1.
    10030    2    1    2    0    0  0.00000000000E+00  0.00000000000E+00 -0.88746043198E+03  0.31181466841E+04  0.29891893090E+04 0.  0.
        5    1    3    3  502    0 -0.39350028830E+03  0.69908871227E+03 -0.17591737681E+04  0.19334637160E+04  0.46999998093E+01 0. -1.
       -5    1    3    3    0  502  0.39350028830E+03 -0.69908871227E+03  0.87171333614E+03  0.11846829681E+04  0.46999998093E+01 0.  1.
</event>
<event>
 5   0  0.2679935E-07  0.3000787E+04  0.7818609E-02  0.8243506E-01
        1   -1    0    0  501    0  0.00000000000E+00  0.00000000000E+00  0.11798362550E+04  0.11798362550E+04  0.50400001928E-02 0.  1.
       -1   -1    0    0    0  501  0.00000000000E+00  0.00000000000E+00 -0.19080443842E+04  0.19080443843E+04  0.50400001928E-02 0. -1.
    10030    2    1    2    0    0  0.00000000000E+00  0.00000000000E+00 -0.72820812926E+03  0.30878806393E+04  0.30007865240E+04 0.  0.
        2    1    3    3  502    0  0.12409556110E+04  0.80814759702E+03 -0.61215338263E+03  0.16024372471E+04  0.25500000920E-02 0. -1.
       -2    1    3    3    0  502 -0.12409556110E+04 -0.80814759702E+03 -0.11605474663E+03  0.14854433921E+04  0.25500000920E-02 0.  1.
</event>
<event>
 5   0  0.7399409E-07  0.3006424E+04  0.7818609E-02  0.8241899E-01
        2   -1    0    0  501    0  0.00000000000E+00  0.00000000000E+00  0.80654714794E+03  0.80654714795E+03  0.25500000920E-02 0. -1.
       -2   -1    0    0    0  501  0.00000000000E+00  0.00000000000E+00 -0.28016303756E+04  0.28016303756E+04  0.25500000920E-02 0.  1.
    10030    2    1    2    0    0  0.00000000000E+00  0.00000000000E+00 -0.19950832276E+04  0.36081775235E+04  0.30064244471E+04 0.  0.
        3    1    3    3  502    0 -0.91667136171E+03  0.52623960587E+03 -0.22803236564E+04  0.25133822821E+04  0.10100000352E+00 0. -1.
       -3    1    3    3    0  502  0.91667136171E+03 -0.52623960587E+03  0.28524042874E+03  0.10947952414E+04  0.10100000352E+00 0.  1.
</event>
<event>
 5   0  0.7585823E-07  0.3007693E+04  0.7818609E-02  0.8241537E-01
        2   -1    0    0  501    0  0.00000000000E+00  0.00000000000E+00  0.25425772124E+04  0.25425772124E+04  0.25500000920E-02 0.  1.
       -2   -1    0    0    0  501  0.00000000000E+00  0.00000000000E+00 -0.88947340069E+03  0.88947340070E+03  0.25500000920E-02 0. -1.
    10030    2    1    2    0    0  0.00000000000E+00  0.00000000000E+00  0.16531038117E+04  0.34320506131E+04  0.30076933352E+04 0.  0.
        5    1    3    3  502    0  0.78810942297E+03  0.40239989477E+03  0.22140404630E+04  0.23843320657E+04  0.46999998093E+01 0.  1.
       -5    1    3    3    0  502 -0.78810942297E+03 -0.40239989477E+03 -0.56093665125E+03  0.10477185474E+04  0.46999998093E+01 0. -1.
</event>
<event>
 5   0  0.7278657E-07  0.3002704E+04  0.7818609E-02  0.8242959E-01
       -2   -1    0    0    0  501  0.00000000000E+00  0.00000000000E+00  0.12126286917E+04  0.12126286917E+04  0.25500000920E-02 0. -1.
        2   -1    0    0  501    0  0.00000000000E+00  0.00000000000E+00 -0.18588194556E+04  0.18588194556E+04  0.25500000920E-02 0.  1.
    10030    2    1    2    0    0  0.00000000000E+00  0.00000000000E+00 -0.64619076390E+03  0.30714481473E+04  0.30027039844E+04 0.  0.
        2    1    3    3  502    0 -0.11192402067E+04  0.10000728077E+04 -0.35872887239E+03  0.15432208736E+04  0.25500000920E-02 0. -1.
       -2    1    3    3    0  502  0.11192402067E+04 -0.10000728077E+04 -0.28746189151E+03  0.15282272737E+04  0.25500000920E-02 0.  1.
</event>
<event>
 5   0  0.2792361E-07  0.3006908E+04  0.7818609E-02  0.8241761E-01
       -1   -1    0    0    0  501  0.00000000000E+00  0.00000000000E+00  0.99481887503E+03  0.99481887504E+03  0.50400001928E-02 0. -1.
        1   -1    0    0  501    0  0.00000000000E+00  0.00000000000E+00 -0.22721457275E+04  0.22721457275E+04  0.50400001928E-02 0.  1.
    10030    2    1    2    0    0  0.00000000000E+00  0.00000000000E+00 -0.12773268525E+04  0.32669646025E+04  0.30069076850E+04 0.  0.
        4    1    3    3  502    0  0.84555955378E+03 -0.32246591186E+03 -0.19430883749E+04  0.21434899740E+04  0.12699999809E+01 0.  1.
       -4    1    3    3    0  502 -0.84555955378E+03  0.32246591186E+03  0.66576152240E+03  0.11234746285E+04  0.12699999809E+01 0. -1.
</event>
<event>
 5   0  0.7307508E-07  0.2998830E+04  0.7818609E-02  0.8244065E-01
        2   -1    0    0  501    0  0.00000000000E+00  0.00000000000E+00  0.15165719448E+04  0.15165719448E+04  0.25500000920E-02 0.  1.
       -2   -1    0    0    0  501  0.00000000000E+00  0.00000000000E+00 -0.14824525325E+04  0.14824525325E+04  0.25500000920E-02 0. -1.
    10030    2    1    2    0    0  0.00000000000E+00  0.00000000000E+00  0.34119412311E+02  0.29990244773E+04  0.29988303856E+04 0.  0.
        1    1    3    3  502    0  0.27290855133E+03 -0.44767051674E+03  0.14219132220E+04  0.15154950280E+04  0.50400001928E-02 0.  1.
       -1    1    3    3    0  502 -0.27290855133E+03  0.44767051674E+03 -0.13877938097E+04  0.14835294494E+04  0.50400001928E-02 0. -1.
</event>
<event>
 5   0  0.2679935E-07  0.3006276E+04  0.7818609E-02  0.8241941E-01
        1   -1    0    0  501    0  0.00000000000E+00  0.00000000000E+00  0.16899405969E+04  0.16899405969E+04  0.50400001928E-02 0.  1.
       -1   -1    0    0    0  501  0.00000000000E+00  0.00000000000E+00 -0.13369837595E+04  0.13369837595E+04  0.50400001928E-02 0. -1.
    10030    2    1    2    0    0  0.00000000000E+00  0.00000000000E+00  0.35295683743E+03  0.30269243564E+04  0.30062755247E+04 0.  0.
        2    1    3    3  502    0 -0.39211876621E+03 -0.14455328891E+04  0.48718451564E+02  0.14985646292E+04  0.25500000920E-02 0.  1.
       -2    1    3    3    0  502  0.39211876621E+03  0.14455328891E+04  0.30423838587E+03  0.15283597272E+04  0.25500000920E-02 0. -1.
</event>
<event>
 5   0  0.2640081E-07  0.2999483E+04  0.7818609E-02  0.8243879E-01
       -1   -1    0    0    0  501  0.00000000000E+00  0.00000000000E+00  0.10959659969E+04  0.10959659969E+04  0.50400001928E-02 0.  1.
        1   -1    0    0  501    0  0.00000000000E+00  0.00000000000E+00 -0.20522757573E+04  0.20522757573E+04  0.50400001928E-02 0. -1.
    10030    2    1    2    0    0  0.00000000000E+00  0.00000000000E+00 -0.95630976040E+03  0.31482417543E+04  0.29994829197E+04 0.  0.
        1    1    3    3  502    0 -0.17804497795E+03  0.27623661414E+03  0.10577067839E+04  0.11075876136E+04  0.50400001928E-02 0.  1.
       -1    1    3    3    0  502  0.17804497795E+03 -0.27623661414E+03 -0.20140165443E+04  0.20406541407E+04  0.50400001928E-02 0. -1.
</event>
<event>
 5   0  0.2621825E-07  0.2997027E+04  0.7818609E-02  0.8244580E-01
       -1   -1    0    0    0  501  0.00000000000E+00  0.00000000000E+00  0.12605107197E+04  0.12605107197E+04  0.50400001928E-02 0. -1.
        1   -1    0    0  501    0  0.00000000000E+00  0.00000000000E+00 -0.17814546874E+04  0.17814546874E+04  0.50400001928E-02 0.  1.
    10030    2    1    2    0    0  0.00000000000E+00  0.00000000000E+00 -0.52094396776E+03  0.30419654071E+04  0.29970270137E+04 0.  0.
        3    1    3    3  502    0  0.16230575083E+03  0.55320471581E+02  0.12505199024E+04  0.12622216714E+04  0.10100000352E+00 0. -1.
       -3    1    3    3    0  502 -0.16230575083E+03 -0.55320471581E+02 -0.17714638702E+04  0.17797437357E+04  0.10100000352E+00 0.  1.
</event>
<event>
 5   0  0.2679935E-07  0.2994848E+04  0.7818609E-02  0.8245204E-01
        1   -1    0    0  501    0  0.00000000000E+00  0.00000000000E+00  0.20984921368E+04  0.20984921368E+04  0.50400001928E-02 0.  1.
       -1   -1    0    0    0  501  0.00000000000E+00  0.00000000000E+00 -0.10685187518E+04  0.10685187518E+04  0.50400001928E-02 0. -1.
    10030    2    1    2    0    0  0.00000000000E+00  0.00000000000E+00  0.10299733850E+04  0.31670108887E+04  0.29948477081E+04 0.  0.
        2    1    3    3  502    0 -0.35994955832E+03  0.11382915977E+04  0.14708320535E+04  0.18943649003E+04  0.25500000920E-02 0.  1.
       -2    1    3    3    0  502  0.35994955832E+03 -0.11382915977E+04 -0.44085866847E+03  0.12726459883E+04  0.25500000920E-02 0. -1.
</event>
<event>
 5   0  0.2621825E-07  0.3004666E+04  0.7818609E-02  0.8242400E-01
       -1   -1    0    0    0  501  0.00000000000E+00  0.00000000000E+00  0.15862280487E+04  0.15862280487E+04  0.50400001928E-02 0. -1.
        1   -1    0    0  501    0  0.00000000000E+00  0.00000000000E+00 -0.14228751481E+04  0.14228751481E+04  0.50400001928E-02 0.  1.
    10030    2    1    2    0    0  0.00000000000E+00  0.00000000000E+00  0.16335290057E+03  0.30091031968E+04  0.30046660179E+04 0.  0.
        3    1    3    3  502    0 -0.95297143557E+03  0.11406284393E+04  0.30066959638E+03  0.15164399131E+04  0.10100000352E+00 0. -1.
       -3    1    3    3    0  502  0.95297143557E+03 -0.11406284393E+04 -0.13731669581E+03  0.14926632838E+04  0.10100000352E+00 0.  1.
</event>
<event>
 5   0  0.2640081E-07  0.3001146E+04  0.7818609E-02  0.8243404E-01
       -1   -1    0    0    0  501  0.00000000000E+00  0.00000000000E+00  0.10034630073E+04  0.10034630073E+04  0.50400001928E-02 0.  1.
        1   -1    0    0  501    0  0.00000000000E+00  0.00000000000E+00 -0.22439483908E+04  0.22439483908E+04  0.50400001928E-02 0. -1.
    10030    2    1    2    0    0  0.00000000000E+00  0.00000000000E+00 -0.12404853835E+04  0.32474113981E+04  0.30011459148E+04 0.  0.
        1    1    3    3  502    0  0.26226672936E+03  0.11081422900E+04  0.43716359169E+03  0.12197848901E+04  0.50400001928E-02 0.  1.
       -1    1    3    3    0  502 -0.26226672936E+03 -0.11081422900E+04 -0.16776489752E+04  0.20276265080E+04  0.50400001928E-02 0. -1.
</event>
<event>
 5   0  0.2679935E-07  0.3001205E+04  0.7818609E-02  0.8243387E-01
       -1   -1    0    0    0  501  0.00000000000E+00  0.00000000000E+00  0.12377711996E+04  0.12377711996E+04  0.50400001928E-02 0.  1.
        1   -1    0    0  501    0  0.00000000000E+00  0.00000000000E+00 -0.18192443121E+04  0.18192443121E+04  0.50400001928E-02 0. -1.
    10030    2    1    2    0    0  0.00000000000E+00  0.00000000000E+00 -0.58147311244E+03  0.30570155117E+04  0.30012052343E+04 0.  0.
        2    1    3    3  502    0  0.12934142600E+04  0.35882008762E+03  0.39266156126E+03  0.13985190041E+04  0.25500000920E-02 0.  1.
       -2    1    3    3    0  502 -0.12934142600E+04 -0.35882008762E+03 -0.97413467370E+03  0.16584965076E+04  0.25500000920E-02 0. -1.
</event>
<event>
 5   0  0.7278657E-07  0.3020454E+04  0.7818609E-02  0.8237914E-01
        2   -1    0    0  501    0  0.00000000000E+00  0.00000000000E+00  0.15684410084E+04  0.15684410084E+04  0.25500000920E-02 0. -1.
       -2   -1    0    0    0  501  0.00000000000E+00  0.00000000000E+00 -0.14541732135E+04  0.14541732135E+04  0.25500000920E-02 0.  1.
    10030    2    1    2    0    0  0.00000000000E+00  0.00000000000E+00  0.11426779489E+03  0.30226142218E+04  0.30204535429E+04 0.  0.
        2    1    3    3  502    0 -0.39983780417E+03  0.14808272139E+03 -0.13926903089E+04  0.14564975312E+04  0.25500000920E-02 0.  1.
       -2    1    3    3    0  502  0.39983780417E+03 -0.14808272139E+03  0.15069581038E+04  0.15661166906E+04  0.25500000920E-02 0. -1.
</event>
<event>
 5   0  0.2679935E-07  0.2998817E+04  0.7818609E-02  0.8244069E-01
        1   -1    0    0  501    0  0.00000000000E+00  0.00000000000E+00  0.22545352465E+04  0.22545352465E+04  0.50400001928E-02 0. -1.
       -1   -1    0    0    0  501  0.00000000000E+00  0.00000000000E+00 -0.99720148465E+03  0.99720148467E+03  0.50400001928E-02 0.  1.
    10030    2    1    2    0    0  0.00000000000E+00  0.00000000000E+00  0.12573337619E+04  0.32517367312E+04  0.29988170302E+04 0.  0.
        2    1    3    3  502    0 -0.37150298099E+03 -0.11532068438E+03 -0.94153527669E+03  0.10187256757E+04  0.25500000920E-02 0.  1.
       -2    1    3    3    0  502  0.37150298099E+03  0.11532068438E+03  0.21988690386E+04  0.22330110555E+04  0.25500000920E-02 0. -1.
</event>
<event>
 5   0  0.2602891E-07  0.3001536E+04  0.7818609E-02  0.8243293E-01
        1   -1    0    0  501    0  0.00000000000E+00  0.00000000000E+00  0.12377483074E+04  0.12377483074E+04  0.50400001928E-02 0.  1.
       -1   -1    0    0    0  501  0.00000000000E+00  0.00000000000E+00 -0.18196784516E+04  0.18196784516E+04  0.50400001928E-02 0. -1.
    10030    2    1    2    0    0  0.00000000000E+00  0.00000000000E+00 -0.58193014417E+03  0.30574267591E+04  0.30015355561E+04 0.  0.
        5    1    3    3  502    0  0.76826932064E+03  0.81012633917E+02 -0.16015786871E+04  0.17781668023E+04  0.46999998093E+01 0. -1.
       -5    1    3    3    0  502 -0.76826932064E+03 -0.81012633917E+02  0.10196485429E+04  0.12792599568E+04  0.46999998093E+01 0.  1.
</event>
<event>
 5   0  0.7399409E-07  0.2996149E+04  0.7818609E-02  0.8244831E-01
       -2   -1    0    0    0  501  0.00000000000E+00  0.00000000000E+00  0.15665530122E+04  0.15665530122E+04  0.25500000920E-02 0.  1.
        2   -1    0    0  501    0  0.00000000000E+00  0.00000000000E+00 -0.14325894291E+04  0.14325894291E+04  0.25500000920E-02 0. -1.
    10030    2    1    2    0    0  0.00000000000E+00  0.00000000000E+00  0.13396358302E+03  0.29991424413E+04  0.29961490520E+04 0.  0.
        3    1    3    3  502    0 -0.74581505017E+03 -0.18914407202E+03  0.13536498665E+04  0.15570432043E+04  0.10100000352E+00 0.  1.
       -3    1    3    3    0  502  0.74581505017E+03  0.18914407202E+03 -0.12196862834E+04  0.14420992370E+04  0.10100000352E+00 0. -1.
</event>
<event>
 5   0  0.7399409E-07  0.2995738E+04  0.7818609E-02  0.8244949E-01
       -2   -1    0    0    0  501  0.00000000000E+00  0.00000000000E+00  0.10130602385E+04  0.10130602385E+04  0.25500000920E-02 0.  1.
        2   -1    0    0  501    0  0.00000000000E+00  0.00000000000E+00 -0.22146865618E+04  0.22146865618E+04  0.25500000920E-02 0. -1.
    10030    2    1    2    0    0  0.00000000000E+00  0.00000000000E+00 -0.12016263233E+04  0.32277468003E+04  0.29957375697E+04 0.  0.
        3    1    3    3  502    0  0.87232953831E+03 -0.74433713309E+03  0.43746417839E+03  0.12273432726E+04  0.10100000352E+00 0.  1.
       -3    1    3    3    0  502 -0.87232953831E+03  0.74433713309E+03 -0.16390905017E+04  0.20004035278E+04  0.10100000352E+00 0. -1.
</event>
<event>
 5   0  0.7208273E-07  0.2996848E+04  0.7818609E-02  0.8244632E-01
       -2   -1    0    0    0  501  0.00000000000E+00  0.00000000000E+00  0.11899932857E+04  0.11899932857E+04  0.25500000920E-02 0.  1.
        2   -1    0    0  501    0  0.00000000000E+00  0.00000000000E+00 -0.18867956380E+04  0.18867956380E+04  0.25500000920E-02 0. -1.
    10030    2    1    2    0    0  0.00000000000E+00  0.00000000000E+00 -0.69680235231E+03  0.30767889237E+04  0.29968477711E+04 0.  0.
        4    1    3    3  502    0  0.12139796730E+03  0.75054355496E+03  0.97725043039E+03  0.12381732960E+04  0.12699999809E+01 0.  1.
       -4    1    3    3    0  502 -0.12139796730E+03 -0.75054355496E+03 -0.16740527827E+04  0.18386156277E+04  0.12699999809E+01 0. -1.
</event>
<event>
 5   0  0.7399409E-07  0.2993578E+04  0.7818609E-02  0.8245567E-01
       -2   -1    0    0    0  501  0.00000000000E+00  0.00000000000E+00  0.11562671766E+04  0.11562671766E+04  0.25500000920E-02 0.  1.
        2   -1    0    0  501    0  0.00000000000E+00  0.00000000000E+00 -0.19375953955E+04  0.19375953955E+04  0.25500000920E-02 0. -1.
    10030    2    1    2    0    0  0.00000000000E+00  0.00000000000E+00 -0.78132821885E+03  0.30938625721E+04  0.29935784322E+04 0.  0.
        3    1    3    3  502    0 -0.44405904658E+03 -0.40033052962E+03  0.10275012916E+04  0.11887858866E+04  0.10100000352E+00 0.  1.
       -3    1    3    3    0  502  0.44405904658E+03  0.40033052962E+03 -0.18088295104E+04  0.19050766855E+04  0.10100000352E+00 0. -1.
</event>
<event>
 5   0  0.7307508E-07  0.2995715E+04  0.7818609E-02  0.8244955E-01
       -2   -1    0    0    0  501  0.00000000000E+00  0.00000000000E+00  0.95761304704E+03  0.95761304704E+03  0.25500000920E-02 0. -1.
        2   -1    0    0  501    0  0.00000000000E+00  0.00000000000E+00 -0.23428851321E+04  0.23428851321E+04  0.25500000920E-02 0.  1.
    10030    2    1    2    0    0  0.00000000000E+00  0.00000000000E+00 -0.13852720850E+04  0.33004981791E+04  0.29957151869E+04 0.  0.
        1    1    3    3  502    0  0.11483774485E+03  0.50999253044E+03  0.85384590754E+03  0.10011657818E+04  0.50400001928E-02 0. -1.
       -1    1    3    3    0  502 -0.11483774485E+03 -0.50999253044E+03 -0.22391179926E+04  0.22993323973E+04  0.50400001928E-02 0.  1.
</event>
<event>
 5   0  0.7399409E-07  0.2986611E+04  0.7818609E-02  0.8247565E-01
       -2   -1    0    0    0  501  0.00000000000E+00  0.00000000000E+00  0.15169776916E+04  0.15169776916E+04  0.25500000920E-02 0. -1.
        2   -1    0    0  501    0  0.00000000000E+00  0.00000000000E+00 -0.14700027816E+04  0.14700027816E+04  0.25500000920E-02 0.  1.
    10030    2    1    2    0    0  0.00000000000E+00  0.00000000000E+00  0.46974909975E+02  0.29869804732E+04  0.29866110736E+04 0.  0.
        3    1    3    3  502    0 -0.13215261081E+04  0.44950375835E+03  0.55409669553E+03  0.15018348915E+04  0.10100000352E+00 0. -1.
       -3    1    3    3    0  502  0.13215261081E+04 -0.44950375835E+03 -0.50712178555E+03  0.14851455817E+04  0.10100000352E+00 0.  1.
</event>
<event>
 5   0  0.7585823E-07  0.2993641E+04  0.7818609E-02  0.8245549E-01
       -2   -1    0    0    0  501  0.00000000000E+00  0.00000000000E+00  0.11706444803E+04  0.11706444803E+04  0.25500000920E-02 0. -1.
        2   -1    0    0  501    0  0.00000000000E+00  0.00000000000E+00 -0.19138784794E+04  0.19138784794E+04  0.25500000920E-02 0.  1.
    10030    2    1    2    0    0  0.00000000000E+00  0.00000000000E+00 -0.74323399915E+03  0.30845229597E+04  0.29936407786E+04 0.  0.
        5    1    3    3  502    0 -0.66811789020E+03 -0.57898954158E+03 -0.16161086051E+04  0.18421290720E+04  0.46999998093E+01 0.  1.
       -5    1    3    3    0  502  0.66811789020E+03  0.57898954158E+03  0.87287460592E+03  0.12423938877E+04  0.46999998093E+01 0. -1.
</event>
<event>
 5   0  0.2621825E-07  0.2996120E+04  0.7818609E-02  0.8244840E-01
        1   -1    0    0  501    0  0.00000000000E+00  0.00000000000E+00  0.23639548362E+04  0.23639548362E+04  0.50400001928E-02 0. -1.
       -1   -1    0    0    0  501  0.00000000000E+00  0.00000000000E+00 -0.94933474501E+03  0.94933474502E+03  0.50400001928E-02 0.  1.
    10030    2    1    2    0    0  0.00000000000E+00  0.00000000000E+00  0.14146200912E+04  0.33132895812E+04  0.29961204660E+04 0.  0.
        3    1    3    3  502    0 -0.12116457959E+04  0.82982133272E+03  0.10344193625E+04  0.17963052098E+04  0.10100000352E+00 0. -1.
       -3    1    3    3    0  502  0.12116457959E+04 -0.82982133272E+03  0.38020072870E+03  0.15169843715E+04  0.10100000352E+00 0.  1.
</event>
<event>
 5   0  0.2640081E-07  0.3002190E+04  0.7818609E-02  0.8243106E-01
        1   -1    0    0  501    0  0.00000000000E+00  0.00000000000E+00  0.23887704768E+04  0.23887704768E+04  0.50400001928E-02 0.  1.
       -1   -1    0    0    0  501  0.00000000000E+00  0.00000000000E+00 -0.94328255727E+03  0.94328255728E+03  0.50400001928E-02 0. -1.
    10030    2    1    2    0    0  0.00000000000E+00  0.00000000000E+00  0.14454879196E+04  0.33320530341E+04  0.30021895504E+04 0.  0.
        1    1    3    3  502    0  0.64612329381E+03 -0.99691476978E+03  0.17411533683E+04  0.21078257568E+04  0.50400001928E-02 0.  1.
       -1    1    3    3    0  502 -0.64612329381E+03  0.99691476978E+03 -0.29566544872E+03  0.12242272773E+04  0.50400001928E-02 0. -1.
</event>
<event>
 5   0  0.2621825E-07  0.3000029E+04  0.7818609E-02  0.8243723E-01
        1   -1    0    0  501    0  0.00000000000E+00  0.00000000000E+00  0.20781482577E+04  0.20781482577E+04  0.50400001928E-02 0.  1.
       -1   -1    0    0    0  501  0.00000000000E+00  0.00000000000E+00 -0.10827156508E+04  0.10827156508E+04  0.50400001928E-02 0. -1.
    10030    2    1    2    0    0  0.00000000000E+00  0.00000000000E+00  0.99543260688E+03  0.31608639085E+04  0.30000290954E+04 0.  0.
        3    1    3    3  502    0  0.12927497095E+04  0.36671454899E+02  0.12983893465E+04  0.18325832893E+04  0.10100000352E+00 0.  1.
       -3    1    3    3    0  502 -0.12927497095E+04 -0.36671454899E+02 -0.30295673960E+03  0.13282806192E+04  0.10100000352E+00 0. -1.
</event>
<event>
 5   0  0.2640081E-07  0.2989563E+04  0.7818609E-02  0.8246718E-01
        1   -1    0    0  501    0  0.00000000000E+00  0.00000000000E+00  0.24727763561E+04  0.24727763561E+04  0.50400001928E-02 0.  1.
       -1   -1    0    0    0  501  0.00000000000E+00  0.00000000000E+00 -0.90358809039E+03  0.90358809040E+03  0.50400001928E-02 0. -1.
    10030    2    1    2    0    0  0.00000000000E+00  0.00000000000E+00  0.15691882657E+04  0.33763644465E+04  0.29895626875E+04 0.  0.
        1    1    3    3  502    0 -0.12703647278E+04 -0.53861691806E+03  0.13538340644E+03  0.13864571370E+04  0.50400001928E-02 0. -1.
       -1    1    3    3    0  502  0.12703647278E+04  0.53861691806E+03  0.14338048593E+04  0.19899073095E+04  0.50400001928E-02 0.  1.
</event>
<event>
 5   0  0.2792361E-07  0.3015070E+04  0.7818609E-02  0.8239441E-01
        1   -1    0    0  501    0  0.00000000000E+00  0.00000000000E+00  0.15027916749E+04  0.15027916749E+04  0.50400001928E-02 0. -1.
       -1   -1    0    0    0  501  0.00000000000E+00  0.00000000000E+00 -0.15122931520E+04  0.15122931520E+04  0.50400001928E-02 0.  1.
    10030    2    1    2    0    0  0.00000000000E+00  0.00000000000E+00 -0.95014771277E+01  0.30150848270E+04  0.30150698559E+04 0.  0.
        4    1    3    3  502    0  0.10313231309E+04  0.10992827134E+04  0.19948811578E+02  0.15074645775E+04  0.12699999809E+01 0.  1.
       -4    1    3    3    0  502 -0.10313231309E+04 -0.10992827134E+04 -0.29450288705E+02  0.15076202495E+04  0.12699999809E+01 0. -1.
</event>
<event>
 5   0  0.7208273E-07  0.2997705E+04  0.7818609E-02  0.8244386E-01
        2   -1    0    0  501    0  0.00000000000E+00  0.00000000000E+00  0.19929113416E+04  0.19929113416E+04  0.25500000920E-02 0. -1.
       -2   -1    0    0    0  501  0.00000000000E+00  0.00000000000E+00 -0.11272749417E+04  0.11272749417E+04  0.25500000920E-02 0.  1.
    10030    2    1    2    0    0  0.00000000000E+00  0.00000000000E+00  0.86563639988E+03  0.31201862833E+04  0.29977051332E+04 0.  0.
        4    1    3    3  502    0  0.50215111321E+03 -0.14022966484E+04  0.60688062317E+03  0.16083834537E+04  0.12699999809E+01 0. -1.
       -4    1    3    3    0  502 -0.50215111321E+03  0.14022966484E+04  0.25875577671E+03  0.15118028295E+04  0.12699999809E+01 0.  1.
</event>
<event>
 5   0  0.7585823E-07  0.3003431E+04  0.7818609E-02  0.8242752E-01
        2   -1    0    0  501    0  0.00000000000E+00  0.00000000000E+00  0.14298948655E+04  0.14298948656E+04  0.25500000920E-02 0.  1.
       -2   -1    0    0    0  501  0.00000000000E+00  0.00000000000E+00 -0.15771435207E+04  0.15771435207E+04  0.25500000920E-02 0. -1.
    10030    2    1    2    0    0  0.00000000000E+00  0.00000000000E+00 -0.14724865518E+03  0.30070383863E+04  0.30034309864E+04 0.  0.
        5    1    3    3  502    0  0.10785760547E+04 -0.15867497104E+03 -0.11076393403E+04  0.15541528401E+04  0.46999998093E+01 0. -1.
       -5    1    3    3    0  502 -0.10785760547E+04  0.15867497104E+03  0.96039068509E+03  0.14528855462E+04  0.46999998093E+01 0.  1.
</event>
<event>
 5   0  0.2640081E-07  0.2998631E+04  0.7818609E-02  0.8244122E-01
        1   -1    0    0  501    0  0.00000000000E+00  0.00000000000E+00  0.23234429253E+04  0.23234429253E+04  0.50400001928E-02 0.  1.
       -1   -1    0    0    0  501  0.00000000000E+00  0.00000000000E+00 -0.96750703852E+03  0.96750703853E+03  0.50400001928E-02 0. -1.
    10030    2    1    2    0    0  0.00000000000E+00  0.00000000000E+00  0.13559358868E+04  0.32909499638E+04  0.29986312770E+04 0.  0.
        1    1    3    3  502    0 -0.13806371328E+04  0.26209564061E+03  0.12514958882E+04  0.18817797361E+04  0.50400001928E-02 0.  1.
       -1    1    3    3    0  502  0.13806371328E+04 -0.26209564061E+03  0.10443999863E+03  0.14091702277E+04  0.50400001928E-02 0. -1.
</event>
<event>
 5   0  0.7399409E-07  0.3005395E+04  0.7818609E-02  0.8242192E-01
        2   -1    0    0  501    0  0.00000000000E+00  0.00000000000E+00  0.14270836933E+04  0.14270836933E+04  0.25500000920E-02 0. -1.
       -2   -1    0    0    0  501  0.00000000000E+00  0.00000000000E+00 -0.15823178270E+04  0.15823178270E+04  0.25500000920E-02 0.  1.
    10030    2    1    2    0    0  0.00000000000E+00  0.00000000000E+00 -0.15523413369E+03  0.30094015203E+04  0.30053951278E+04 0.  0.
        3    1    3    3  502    0 -0.22626757025E+03  0.99713312336E+03  0.10250450136E+04  0.14478220779E+04  0.10100000352E+00 0. -1.
       -3    1    3    3    0  502  0.22626757025E+03 -0.99713312336E+03 -0.11802791473E+04  0.15615794424E+04  0.10100000352E+00 0.  1.
</event>
<event>
 5   0  0.7307508E-07  0.2987824E+04  0.7818609E-02  0.8247216E-01
       -2   -1    0    0    0  501  0.00000000000E+00  0.00000000000E+00  0.19838681944E+04  0.19838681944E+04  0.25500000920E-02 0. -1.
        2   -1    0    0  501    0  0.00000000000E+00  0.00000000000E+00 -0.11249606213E+04  0.11249606213E+04  0.25500000920E-02 0.  1.
    10030    2    1    2    0    0  0.00000000000E+00  0.00000000000E+00  0.85890757301E+03  0.31088288157E+04  0.29878243567E+04 0.  0.
        1    1    3    3  502    0 -0.11354703913E+03 -0.43137146847E+03  0.19129587343E+04  0.19642773208E+04  0.50400001928E-02 0. -1.
       -1    1    3    3    0  502  0.11354703913E+03  0.43137146847E+03 -0.10540511613E+04  0.11445514949E+04  0.50400001928E-02 0.  1.
</event>
<event>
 5   0  0.7278657E-07  0.3004130E+04  0.7818609E-02  0.8242553E-01
       -2   -1    0    0    0  501  0.00000000000E+00  0.00000000000E+00  0.10515452786E+04  0.10515452786E+04  0.25500000920E-02 0. -1.
        2   -1    0    0  501    0  0.00000000000E+00  0.00000000000E+00 -0.21456035062E+04  0.21456035062E+04  0.25500000920E-02 0.  1.
    10030    2    1    2    0    0  0.00000000000E+00  0.00000000000E+00 -0.10940582276E+04  0.31971487848E+04  0.30041299817E+04 0.  0.
        2    1    3    3  502    0 -0.88587209716E+03  0.10430967678E+04  0.11192972288E+03  0.13730799330E+04  0.25500000920E-02 0. -1.
       -2    1    3    3    0  502  0.88587209716E+03 -0.10430967678E+04 -0.12059879505E+04  0.18240688518E+04  0.25500000920E-02 0.  1.
</event>
<event>
 5   0  0.2679935E-07  0.2999632E+04  0.7818609E-02  0.8243836E-01
        1   -1    0    0  501    0  0.00000000000E+00  0.00000000000E+00  0.22792827017E+04  0.22792827017E+04  0.50400001928E-02 0.  1.
       -1   -1    0    0    0  501  0.00000000000E+00  0.00000000000E+00 -0.98691044729E+03  0.98691044730E+03  0.50400001928E-02 0. -1.
    10030    2    1    2    0    0  0.00000000000E+00  0.00000000000E+00  0.12923722544E+04  0.32661931490E+04  0.29996319179E+04 0.  0.
        2    1    3    3  502    0  0.28888688991E+03 -0.12147975018E+04 -0.25846271641E+03  0.12751437493E+04  0.25500000920E-02 0. -1.
       -2    1    3    3    0  502 -0.28888688991E+03  0.12147975018E+04  0.15508349708E+04  0.19910493997E+04  0.25500000920E-02 0.  1.
</event>
<event>
 5   0  0.2792361E-07  0.2977893E+04  0.7818609E-02  0.8250072E-01
       -1   -1    0    0    0  501  0.00000000000E+00  0.00000000000E+00  0.24151113170E+04  0.24151113170E+04  0.50400001928E-02 0.  1.
        1   -1    0    0  501    0  0.00000000000E+00  0.00000000000E+00 -0.91795424730E+03  0.91795424731E+03  0.50400001928E-02 0. -1.
    10030    2    1    2    0    0  0.00000000000E+00  0.00000000000E+00  0.14971570697E+04  0.33330655644E+04  0.29778930076E+04 0.  0.
        4    1    3    3  502    0 -0.52628277528E+03 -0.13040594686E+04  0.20091878076E+03  0.14205332191E+04  0.12699999809E+01 0. -1.
       -4    1    3    3    0  502  0.52628277528E+03  0.13040594686E+04  0.12962382890E+04  0.19125323453E+04  0.12699999809E+01 0.  1.
</event>
<event>
 5   0  0.7585823E-07  0.2999304E+04  0.7818609E-02  0.8243930E-01
       -2   -1    0    0    0  501  0.00000000000E+00  0.00000000000E+00  0.16036610846E+04  0.16036610846E+04  0.25500000920E-02 0. -1.
        2   -1    0    0  501    0  0.00000000000E+00  0.00000000000E+00 -0.14023884826E+04  0.14023884826E+04  0.25500000920E-02 0.  1.
    10030    2    1    2    0    0  0.00000000000E+00  0.00000000000E+00  0.20127260203E+03  0.30060495672E+04  0.29993038093E+04 0.  0.
        5    1    3    3  502    0  0.46667933142E+03  0.49996968966E+03 -0.12369718529E+04  0.14134640935E+04  0.46999998093E+01 0.  1.
       -5    1    3    3    0  502 -0.46667933142E+03 -0.49996968966E+03  0.14382444549E+04  0.15925854737E+04  0.46999998093E+01 0. -1.
</event>
<event>
 5   0  0.2679935E-07  0.2998635E+04  0.7818609E-02  0.8244121E-01
        1   -1    0    0  501    0  0.00000000000E+00  0.00000000000E+00  0.14635848939E+04  0.14635848940E+04  0.50400001928E-02 0.  1.
       -1   -1    0    0    0  501  0.00000000000E+00  0.00000000000E+00 -0.15359220333E+04  0.15359220333E+04  0.50400001928E-02 0. -1.
    10030    2    1    2    0    0  0.00000000000E+00  0.00000000000E+00 -0.72337139322E+02  0.29995069272E+04  0.29986345467E+04 0.  0.
        2    1    3    3  502    0  0.86598983533E+03 -0.12015282752E+04 -0.26935373182E+03  0.15053770371E+04  0.25500000920E-02 0. -1.
       -2    1    3    3    0  502 -0.86598983533E+03  0.12015282752E+04  0.19701659250E+03  0.14941298901E+04  0.25500000920E-02 0.  1.
</event>
<event>
 5   0  0.2602891E-07  0.2996880E+04  0.7818609E-02  0.8244622E-01
       -1   -1    0    0    0  501  0.00000000000E+00  0.00000000000E+00  0.20157283838E+04  0.20157283838E+04  0.50400001928E-02 0.  1.
        1   -1    0    0  501    0  0.00000000000E+00  0.00000000000E+00 -0.11139011606E+04  0.11139011606E+04  0.50400001928E-02 0. -1.
    10030    2    1    2    0    0  0.00000000000E+00  0.00000000000E+00  0.90182722318E+03  0.31296295443E+04  0.29968798348E+04 0.  0.
        5    1    3    3  502    0  0.36713437590E+03 -0.28849354691E+02 -0.10658989369E+04  0.11277333767E+04  0.46999998093E+01 0. -1.
       -5    1    3    3    0  502 -0.36713437590E+03  0.28849354691E+02  0.19677261600E+04  0.20018961677E+04  0.46999998093E+01 0.  1.
</event>
<event>
 5   0  0.2792361E-07  0.2997581E+04  0.7818609E-02  0.8244422E-01
       -1   -1    0    0    0  501  0.00000000000E+00  0.00000000000E+00  0.13463973614E+04  0.13463973614E+04  0.50400001928E-02 0.  1.
        1   -1    0    0  501    0  0.00000000000E+00  0.00000000000E+00 -0.16684323913E+04  0.16684323913E+04  0.50400001928E-02 0. -1.
    10030    2    1    2    0    0  0.00000000000E+00  0.00000000000E+00 -0.32203502990E+03  0.30148297527E+04  0.29975810043E+04 0.  0.
        4    1    3    3  502    0 -0.92955893165E+03  0.54827071090E+03 -0.12070457993E+04  0.16191484658E+04  0.12699999809E+01 0. -1.
       -4    1    3    3    0  502  0.92955893165E+03 -0.54827071090E+03  0.88501076939E+03  0.13956812869E+04  0.12699999809E+01 0.  1.
</event>
<event>
 5   0  0.2621825E-07  0.2992373E+04  0.7818609E-02  0.8245912E-01
       -1   -1    0    0    0  501  0.00000000000E+00  0.00000000000E+00  0.13636203136E+04  0.13636203136E+04  0.50400001928E-02 0.  1.
        1   -1    0    0  501    0  0.00000000000E+00  0.00000000000E+00 -0.16416403860E+04  0.16416403860E+04  0.50400001928E-02 0. -1.
    10030    2    1    2    0    0  0.00000000000E+00  0.00000000000E+00 -0.27802007243E+03  0.30052606996E+04  0.29923730904E+04 0.  0.
        3    1    3    3  502    0 -0.71274004108E+02  0.14815835625E+04  0.57804203334E+02  0.14844228415E+04  0.10100000352E+00 0.  1.
       -3    1    3    3    0  502  0.71274004108E+02 -0.14815835625E+04 -0.33582427576E+03  0.15208378581E+04  0.10100000352E+00 0. -1.
</event>
<event>
 5   0  0.2602891E-07  0.2965292E+04  0.7818609E-02  0.8253712E-01
       -1   -1    0    0    0  501  0.00000000000E+00  0.00000000000E+00  0.98749845192E+03  0.98749845193E+03  0.50400001928E-02 0. -1.
        1   -1    0    0  501    0  0.00000000000E+00  0.00000000000E+00 -0.22260679907E+04  0.22260679907E+04  0.50400001928E-02 0.  1.
    10030    2    1    2    0    0  0.00000000000E+00  0.00000000000E+00 -0.12385695388E+04  0.32135664427E+04  0.29652916853E+04 0.  0.
        5    1    3    3  502    0  0.10926442100E+04  0.42529623975E+03  0.36414492602E+03  0.12277507395E+04  0.46999998093E+01 0. -1.
       -5    1    3    3    0  502 -0.10926442100E+04 -0.42529623975E+03 -0.16027144648E+04  0.19858157032E+04  0.46999998093E+01 0.  1.
</event>
<event>
 5   0  0.2640081E-07  0.2997342E+04  0.7818609E-02  0.8244490E-01
        1   -1    0    0  501    0  0.00000000000E+00  0.00000000000E+00  0.29157459699E+04  0.29157459699E+04  0.50400001928E-02 0. -1.
       -1   -1    0    0    0  501  0.00000000000E+00  0.00000000000E+00 -0.77030554409E+03  0.77030554410E+03  0.50400001928E-02 0.  1.
    10030    2    1    2    0    0  0.00000000000E+00  0.00000000000E+00  0.21454404258E+04  0.36860515140E+04  0.29973423467E+04 0.  0.
        1    1    3    3  502    0  0.14704224800E+02  0.31795095492E+03 -0.72826008067E+03  0.79477781114E+03  0.50400001928E-02 0.  1.
       -1    1    3    3    0  502 -0.14704224800E+02 -0.31795095492E+03  0.28737005065E+04  0.28912737029E+04  0.50400001928E-02 0. -1.
</event>
<event>
 5   0  0.7307508E-07  0.3002215E+04  0.7818609E-02  0.8243099E-01
       -2   -1    0    0    0  501  0.00000000000E+00  0.00000000000E+00  0.12845504263E+04  0.12845504263E+04  0.25500000920E-02 0. -1.
        2   -1    0    0  501    0  0.00000000000E+00  0.00000000000E+00 -0.17541732022E+04  0.17541732022E+04  0.25500000920E-02 0.  1.
    10030    2    1    2    0    0  0.00000000000E+00  0.00000000000E+00 -0.46962277594E+03  0.30387236285E+04  0.30022151387E+04 0.  0.
        1    1    3    3  502    0  0.12691826349E+04  0.65106852413E+03 -0.70805369295E+03  0.15924995497E+04  0.50400001928E-02 0.  1.
       -1    1    3    3    0  502 -0.12691826349E+04 -0.65106852413E+03  0.23843091700E+03  0.14462240788E+04  0.50400001928E-02 0. -1.
</event>
<event>
 5   0  0.2640081E-07  0.2991823E+04  0.7818609E-02  0.8246070E-01
       -1   -1    0    0    0  501  0.00000000000E+00  0.00000000000E+00  0.10288654303E+04  0.10288654303E+04  0.50400001928E-02 0.  1.
        1   -1    0    0  501    0  0.00000000000E+00  0.00000000000E+00 -0.21749692487E+04  0.21749692487E+04  0.50400001928E-02 0. -1.
    10030    2    1    2    0    0  0.00000000000E+00  0.00000000000E+00 -0.11461038184E+04  0.32038346791E+04  0.29918226365E+04 0.  0.
        1    1    3    3  502    0  0.10331522211E+04  0.57386983389E+03  0.40900705503E+03  0.12506066005E+04  0.50400001928E-02 0.  1.
       -1    1    3    3    0  502 -0.10331522211E+04 -0.57386983389E+03 -0.15551108734E+04  0.19532280786E+04  0.50400001928E-02 0. -1.
</event>
<event>
 5   0  0.7208273E-07  0.3007584E+04  0.7818609E-02  0.8241568E-01
        2   -1    0    0  501    0  0.00000000000E+00  0.00000000000E+00  0.16924393877E+04  0.16924393877E+04  0.25500000920E-02 0.  1.
       -2   -1    0    0    0  501  0.00000000000E+00  0.00000000000E+00 -0.13361725599E+04  0.13361725599E+04  0.25500000920E-02 0. -1.
    10030    2    1    2    0    0  0.00000000000E+00  0.00000000000E+00  0.35626682778E+03  0.30286119476E+04  0.30075844588E+04 0.  0.
        4    1    3    3  502    0  0.13978641920E+04 -0.16198417872E+03  0.71205382574E+03  0.15771130071E+04  0.12699999809E+01 0.  1.
       -4    1    3    3    0  502 -0.13978641920E+04  0.16198417872E+03 -0.35578699797E+03  0.14514989405E+04  0.12699999809E+01 0. -1.
</event>
<event>
 5   0  0.7585823E-07  0.2999085E+04  0.7818609E-02  0.8243992E-01
        2   -1    0    0  501    0  0.00000000000E+00  0.00000000000E+00  0.21166098449E+04  0.21166098449E+04  0.25500000920E-02 0. -1.
       -2   -1    0    0    0  501  0.00000000000E+00  0.00000000000E+00 -0.10623725042E+04  0.10623725042E+04  0.25500000920E-02 0.  1.
    10030    2    1    2    0    0  0.00000000000E+00  0.00000000000E+00  0.10542373407E+04  0.31789823491E+04  0.29990852614E+04 0.  0.
        5    1    3    3  502    0 -0.46453807492E+03 -0.11382212534E+02 -0.98412293019E+03  0.10883221993E+04  0.46999998093E+01 0.  1.
       -5    1    3    3    0  502  0.46453807492E+03  0.11382212534E+02  0.20383602709E+04  0.20906601498E+04  0.46999998093E+01 0. -1.
</event>
<event>
 5   0  0.2679935E-07  0.2989813E+04  0.7818609E-02  0.8246646E-01
       -1   -1    0    0    0  501  0.00000000000E+00  0.00000000000E+00  0.14717402051E+04  0.14717402051E+04  0.50400001928E-02 0. -1.
        1   -1    0    0  501    0  0.00000000000E+00  0.00000000000E+00 -0.15184374938E+04  0.15184374938E+04  0.50400001928E-02 0.  1.
    10030    2    1    2    0    0  0.00000000000E+00  0.00000000000E+00 -0.46697288682E+02  0.29901776989E+04  0.29898130434E+04 0.  0.
        2    1    3    3  502    0  0.12623462309E+04 -0.51478221914E+03  0.59009943671E+03  0.14855086957E+04  0.25500000920E-02 0. -1.
       -2    1    3    3    0  502 -0.12623462309E+04  0.51478221914E+03 -0.63679672539E+03  0.15046690032E+04  0.25500000920E-02 0.  1.
</event>
<event>
 5   0  0.2640081E-07  0.3000461E+04  0.7818609E-02  0.8243599E-01
        1   -1    0    0  501    0  0.00000000000E+00  0.00000000000E+00  0.20837668512E+04  0.20837668512E+04  0.50400001928E-02 0.  1.
       -1   -1    0    0    0  501  0.00000000000E+00  0.00000000000E+00 -0.10801072946E+04  0.10801072946E+04  0.50400001928E-02 0. -1.
    10030    2    1    2    0    0  0.00000000000E+00  0.00000000000E+00  0.10036595566E+04  0.31638741458E+04  0.30004611488E+04 0.  0.
        1    1    3    3  502    0  0.11312711489E+04 -0.75219098650E+03  0.11729901328E+04  0.17948458274E+04  0.50400001928E-02 0.  1.
       -1    1    3    3    0  502 -0.11312711489E+04  0.75219098650E+03 -0.16933057623E+03  0.13690283184E+04  0.50400001928E-02 0. -1.
</event>
<event>
 5   0  0.7278657E-07  0.3003084E+04  0.7818609E-02  0.8242851E-01
       -2   -1    0    0    0  501  0.00000000000E+00  0.00000000000E+00  0.13796428733E+04  0.13796428733E+04  0.25500000920E-02 0.  1.
        2   -1    0    0  501    0  0.00000000000E+00  0.00000000000E+00 -0.16342110775E+04  0.16342110775E+04  0.25500000920E-02 0. -1.
    10030    2    1    2    0    0  0.00000000000E+00  0.00000000000E+00 -0.25456820422E+03  0.30138539508E+04  0.30030835264E+04 0.  0.
        2    1    3    3  502    0 -0.72184630048E+03  0.65022022603E+03  0.10217146816E+04  0.14098756379E+04  0.25500000920E-02 0.  1.
       -2    1    3    3    0  502  0.72184630048E+03 -0.65022022603E+03 -0.12762828858E+04  0.16039783129E+04  0.25500000920E-02 0. -1.
</event>
<event>
 5   0  0.2621825E-07  0.2980019E+04  0.7818609E-02  0.8249460E-01
       -1   -1    0    0    0  501  0.00000000000E+00  0.00000000000E+00  0.18166628305E+04  0.18166628305E+04  0.50400001928E-02 0. -1.
        1   -1    0    0  501    0  0.00000000000E+00  0.00000000000E+00 -0.12220919513E+04  0.12220919513E+04  0.50400001928E-02 0.  1.
    10030    2    1    2    0    0  0.00000000000E+00  0.00000000000E+00  0.59457087915E+03  0.30387547818E+04  0.29800194788E+04 0.  0.
        3    1    3    3  502    0 -0.94540267296E+03  0.11350660493E+04  0.49597938275E+03  0.15582543787E+04  0.10100000352E+00 0.  1.
       -3    1    3    3    0  502  0.94540267296E+03 -0.11350660493E+04  0.98591496403E+02  0.14805004032E+04  0.10100000352E+00 0. -1.
</event>
<event>
 5   0  0.2621825E-07  0.3033612E+04  0.7818609E-02  0.8234197E-01
        1   -1    0    0  501    0  0.00000000000E+00  0.00000000000E+00  0.16387789236E+04  0.16387789236E+04  0.50400001928E-02 0. -1.
       -1   -1    0    0    0  501  0.00000000000E+00  0.00000000000E+00 -0.14039111223E+04  0.14039111223E+04  0.50400001928E-02 0.  1.
    10030    2    1    2    0    0  0.00000000000E+00  0.00000000000E+00  0.23486780123E+03  0.30426900459E+04  0.30336116811E+04 0.  0.
        3    1    3    3  502    0  0.29093086504E+02  0.11631185333E+04  0.10934899043E+04  0.15966876060E+04  0.10100000352E+00 0. -1.
       -3    1    3    3    0  502 -0.29093086504E+02 -0.11631185333E+04 -0.85862210307E+03  0.14460024399E+04  0.10100000352E+00 0.  1.
</event>
<event>
 5   0  0.7278657E-07  0.3000115E+04  0.7818609E-02  0.8243698E-01
        2   -1    0    0  501    0  0.00000000000E+00  0.00000000000E+00  0.22129198910E+04  0.22129198910E+04  0.25500000920E-02 0. -1.
       -2   -1    0    0    0  501  0.00000000000E+00  0.00000000000E+00 -0.10168344370E+04  0.10168344370E+04  0.25500000920E-02 0.  1.
    10030    2    1    2    0    0  0.00000000000E+00  0.00000000000E+00  0.11960854539E+04  0.32297543280E+04  0.30001154322E+04 0.  0.
        2    1    3    3  502    0 -0.30944825102E+03 -0.12370908260E+04 -0.25237284317E+03  0.12999399923E+04  0.25500000920E-02 0. -1.
       -2    1    3    3    0  502  0.30944825102E+03  0.12370908260E+04  0.14484582971E+04  0.19298143357E+04  0.25500000920E-02 0.  1.
</event>
<event>
 5   0  0.2602891E-07  0.2990731E+04  0.7818609E-02  0.8246383E-01
       -1   -1    0    0    0  501  0.00000000000E+00  0.00000000000E+00  0.11166859627E+04  0.11166859627E+04  0.50400001928E-02 0. -1.
        1   -1    0    0  501    0  0.00000000000E+00  0.00000000000E+00 -0.20024587761E+04  0.20024587761E+04  0.50400001928E-02 0.  1.
    10030    2    1    2    0    0  0.00000000000E+00  0.00000000000E+00 -0.88577281338E+03  0.31191447387E+04  0.29907307509E+04 0.  0.
        5    1    3    3  502    0 -0.10976470470E+04 -0.84276862489E+03  0.14801607748E+03  0.13917682437E+04  0.46999998093E+01 0.  1.
       -5    1    3    3    0  502  0.10976470470E+04  0.84276862489E+03 -0.10337888909E+04  0.17273764951E+04  0.46999998093E+01 0. -1.
</event>
<event>
 5   0  0.7399409E-07  0.3002598E+04  0.7818609E-02  0.8242989E-01
        2   -1    0    0  501    0  0.00000000000E+00  0.00000000000E+00  0.11565853910E+04  0.11565853911E+04  0.25500000920E-02 0. -1.
       -2   -1    0    0    0  501  0.00000000000E+00  0.00000000000E+00 -0.19487522079E+04  0.19487522079E+04  0.25500000920E-02 0.  1.
    10030    2    1    2    0    0  0.00000000000E+00  0.00000000000E+00 -0.79216681682E+03  0.31053375989E+04  0.30025977649E+04 0.  0.
        3    1    3    3  502    0 -0.69173844748E+03  0.35916737445E+03  0.93094032288E+03  0.12141470988E+04  0.10100000352E+00 0. -1.
       -3    1    3    3    0  502  0.69173844748E+03 -0.35916737445E+03 -0.17231071397E+04  0.18911905001E+04  0.10100000352E+00 0.  1.
</event>
<event>
 5   0  0.7399409E-07  0.3041851E+04  0.7818609E-02  0.8231880E-01
       -2   -1    0    0    0  501  0.00000000000E+00  0.00000000000E+00  0.15438707925E+04  0.15438707925E+04  0.25500000920E-02 0. -1.
        2   -1    0    0  501    0  0.00000000000E+00  0.00000000000E+00 -0.14983212701E+04  0.14983212701E+04  0.25500000920E-02 0.  1.
    10030    2    1    2    0    0  0.00000000000E+00  0.00000000000E+00  0.45549522337E+02  0.30421920626E+04  0.30418510461E+04 0.  0.
        3    1    3    3  502    0  0.68414377344E+03 -0.28320797911E+03  0.13514397785E+04  0.15409896000E+04  0.10100000352E+00 0. -1.
       -3    1    3    3    0  502 -0.68414377344E+03  0.28320797911E+03 -0.13058902562E+04  0.15012024626E+04  0.10100000352E+00 0.  1.
</event>
<event>
 5   0  0.7278657E-07  0.2979907E+04  0.7818609E-02  0.8249492E-01
       -2   -1    0    0    0  501  0.00000000000E+00  0.00000000000E+00  0.14426336696E+04  0.14426336696E+04  0.25500000920E-02 0.  1.
        2   -1    0    0  501    0  0.00000000000E+00  0.00000000000E+00 -0.15388252794E+04  0.15388252794E+04  0.25500000920E-02 0. -1.
    10030    2    1    2    0    0  0.00000000000E+00  0.00000000000E+00 -0.96191609832E+02  0.29814589489E+04  0.29799068171E+04 0.  0.
        2    1    3    3  502    0 -0.11595452976E+04  0.64217890128E+03  0.63271591037E+03  0.14687642635E+04  0.25500000920E-02 0. -1.
       -2    1    3    3    0  502  0.11595452976E+04 -0.64217890128E+03 -0.72890752020E+03  0.15126946855E+04  0.25500000920E-02 0.  1.
</event>
<event>
 5   0  0.2792361E-07  0.2985724E+04  0.7818609E-02  0.8247819E-01
       -1   -1    0    0    0  501  0.00000000000E+00  0.00000000000E+00  0.10124596187E+04  0.10124596187E+04  0.50400001928E-02 0. -1.
        1   -1    0    0  501    0  0.00000000000E+00  0.00000000000E+00 -0.22012104250E+04  0.22012104250E+04  0.50400001928E-02 0.  1.
    10030    2    1    2    0    0  0.00000000000E+00  0.00000000000E+00 -0.11887508063E+04  0.32136700437E+04  0.29857238102E+04 0.  0.
        4    1    3    3  502    0  0.11429394337E+04 -0.95620134544E+03 -0.49808313307E+03  0.15712160840E+04  0.12699999809E+01 0. -1.
       -4    1    3    3    0  502 -0.11429394337E+04  0.95620134544E+03 -0.69066767325E+03  0.16424539598E+04  0.12699999809E+01 0.  1.
</event>
<event>
 5   0  0.7307508E-07  0.3003064E+04  0.7818609E-02  0.8242857E-01
        2   -1    0    0  501    0  0.00000000000E+00  0.00000000000E+00  0.16732858419E+04  0.16732858419E+04  0.25500000920E-02 0. -1.
       -2   -1    0    0    0  501  0.00000000000E+00  0.00000000000E+00 -0.13474076957E+04  0.13474076957E+04  0.25500000920E-02 0.  1.
    10030    2    1    2    0    0  0.00000000000E+00  0.00000000000E+00  0.32587814611E+03  0.30206935376E+04  0.30030639157E+04 0.  0.
        1    1    3    3  502    0 -0.10112860815E+04 -0.12222630032E+03 -0.94669590471E+03  0.13906372435E+04  0.50400001928E-02 0.  1.
       -1    1    3    3    0  502  0.10112860815E+04  0.12222630032E+03  0.12725740508E+04  0.16300562941E+04  0.50400001928E-02 0. -1.
</event>
<event>
 5   0  0.7278657E-07  0.2998021E+04  0.7818609E-02  0.8244296E-01
        2   -1    0    0  501    0  0.00000000000E+00  0.00000000000E+00  0.15363315874E+04  0.15363315874E+04  0.25500000920E-02 0. -1.
       -2   -1    0    0    0  501  0.00000000000E+00  0.00000000000E+00 -0.14625963255E+04  0.14625963255E+04  0.25500000920E-02 0.  1.
    10030    2    1    2    0    0  0.00000000000E+00  0.00000000000E+00  0.73735261896E+02  0.29989279129E+04  0.29980213037E+04 0.  0.
        2    1    3    3  502    0 -0.79950925359E+03 -0.66360269599E+03  0.11176800734E+04  0.15260381159E+04  0.25500000920E-02 0. -1.
       -2    1    3    3    0  502  0.79950925359E+03  0.66360269599E+03 -0.10439448115E+04  0.14728897970E+04  0.25500000920E-02 0.  1.
</event>
<event>
 5   0  0.7307508E-07  0.3014745E+04  0.7818609E-02  0.8239533E-01
        2   -1    0    0  501    0  0.00000000000E+00  0.00000000000E+00  0.11493534282E+04  0.11493534282E+04  0.25500000920E-02 0.  1.
       -2   -1    0    0    0  501  0.00000000000E+00  0.00000000000E+00 -0.19769132936E+04  0.19769132936E+04  0.25500000920E-02 0. -1.
    10030    2    1    2    0    0  0.00000000000E+00  0.00000000000E+00 -0.82755986539E+03  0.31262667218E+04  0.30147451442E+04 0.  0.
        1    1    3    3  502    0  0.28182785913E+03 -0.13005090114E+04  0.32052572336E+03  0.13687539480E+04  0.50400001928E-02 0.  1.
       -1    1    3    3    0  502 -0.28182785913E+03  0.13005090114E+04 -0.11480855887E+04  0.17575127738E+04  0.50400001928E-02 0. -1.
</event>
<event>
 5   0  0.7399409E-07  0.3017137E+04  0.7818609E-02  0.8238854E-01
        2   -1    0    0  501    0  0.00000000000E+00  0.00000000000E+00  0.84955606956E+03  0.84955606957E+03  0.25500000920E-02 0.  1.
       -2   -1    0    0    0  501  0.00000000000E+00  0.00000000000E+00 -0.26787857619E+04  0.26787857619E+04  0.25500000920E-02 0. -1.
    10030    2    1    2    0    0  0.00000000000E+00  0.00000000000E+00 -0.18292296923E+04  0.35283418314E+04  0.30171368567E+04 0.  0.
        3    1    3    3  502    0  0.26716802957E+02 -0.14256955518E+04 -0.14904432662E+04  0.20627027740E+04  0.10100000352E+00 0. -1.
       -3    1    3    3    0  502 -0.26716802957E+02  0.14256955518E+04 -0.33878642614E+03  0.14656390574E+04  0.10100000352E+00 0.  1.
</event>
<event>
 5   0  0.2679935E-07  0.3003964E+04  0.7818609E-02  0.8242600E-01
       -1   -1    0    0    0  501  0.00000000000E+00  0.00000000000E+00  0.95176755688E+03  0.95176755690E+03  0.50400001928E-02 0.  1.
        1   -1    0    0  501    0  0.00000000000E+00  0.00000000000E+00 -0.23702735046E+04  0.23702735046E+04  0.50400001928E-02 0. -1.
    10030    2    1    2    0    0  0.00000000000E+00  0.00000000000E+00 -0.14185059477E+04  0.33220410615E+04  0.30039636633E+04 0.  0.
        2    1    3    3  502    0 -0.61947189001E+03 -0.11854379738E+04  0.46432784264E+02  0.13383439826E+04  0.25500000920E-02 0.  1.
       -2    1    3    3    0  502  0.61947189001E+03  0.11854379738E+04 -0.14649387320E+04  0.19836970789E+04  0.25500000920E-02 0. -1.
</event>
<event>
 5   0  0.7307508E-07  0.3004631E+04  0.7818609E-02  0.8242410E-01
       -2   -1    0    0    0  501  0.00000000000E+00  0.00000000000E+00  0.18510306257E+04  0.18510306257E+04  0.25500000920E-02 0.  1.
        2   -1    0    0  501    0  0.00000000000E+00  0.00000000000E+00 -0.12192947835E+04  0.12192947835E+04  0.25500000920E-02 0. -1.
    10030    2    1    2    0    0  0.00000000000E+00  0.00000000000E+00  0.63173584224E+03  0.30703254092E+04  0.30046310828E+04 0.  0.
        1    1    3    3  502    0 -0.13355852313E+04  0.32373886374E+03  0.93606232994E+03  0.16627710148E+04  0.50400001928E-02 0.  1.
       -1    1    3    3    0  502  0.13355852313E+04 -0.32373886374E+03 -0.30432648770E+03  0.14075543944E+04  0.50400001928E-02 0. -1.
</event>
<event>
 5   0  0.7208273E-07  0.2999378E+04  0.7818609E-02  0.8243908E-01
        2   -1    0    0  501    0  0.00000000000E+00  0.00000000000E+00  0.16009621364E+04  0.16009621364E+04  0.25500000920E-02 0.  1.
       -2   -1    0    0    0  501  0.00000000000E+00  0.00000000000E+00 -0.14048224062E+04  0.14048224062E+04  0.25500000920E-02 0. -1.
    10030    2    1    2    0    0  0.00000000000E+00  0.00000000000E+00  0.19613973018E+03  0.30057845427E+04  0.29993782561E+04 0.  0.
        4    1    3    3  502    0 -0.12967858046E+04 -0.35755998181E+03  0.76248164336E+03  0.15462478562E+04  0.12699999809E+01 0.  1.
       -4    1    3    3    0  502  0.12967858046E+04  0.35755998181E+03 -0.56634191318E+03  0.14595366864E+04  0.12699999809E+01 0. -1.
</event>
<event>
 5   0  0.2640081E-07  0.3002654E+04  0.7818609E-02  0.8242973E-01
        1   -1    0    0  501    0  0.00000000000E+00  0.00000000000E+00  0.15382919624E+04  0.15382919624E+04  0.50400001928E-02 0. -1.
       -1   -1    0    0    0  501  0.00000000000E+00  0.00000000000E+00 -0.14652504787E+04  0.14652504787E+04  0.50400001928E-02 0.  1.
    10030    2    1    2    0    0  0.00000000000E+00  0.00000000000E+00  0.73041483719E+02  0.30035424412E+04  0.30026541822E+04 0.  0.
        1    1    3    3  502    0 -0.55218168586E+03 -0.70998069509E+03  0.12389603020E+04  0.15310126817E+04  0.50400001928E-02 0. -1.
       -1    1    3    3    0  502  0.55218168586E+03  0.70998069509E+03 -0.11659188183E+04  0.14725297595E+04  0.50400001928E-02 0.  1.
</event>
<event>
 5   0  0.2679935E-07  0.2999614E+04  0.7818609E-02  0.8243841E-01
       -1   -1    0    0    0  501  0.00000000000E+00  0.00000000000E+00  0.11725338503E+04  0.11725338504E+04  0.50400001928E-02 0. -1.
        1   -1    0    0  501    0  0.00000000000E+00  0.00000000000E+00 -0.19184271269E+04  0.19184271269E+04  0.50400001928E-02 0.  1.
    10030    2    1    2    0    0  0.00000000000E+00  0.00000000000E+00 -0.74589327659E+03  0.30909609773E+04  0.29996138057E+04 0.  0.
        2    1    3    3  502    0  0.10920028579E+04 -0.79026775734E+03  0.30467110376E+03  0.13819615955E+04  0.25500000920E-02 0. -1.
       -2    1    3    3    0  502 -0.10920028579E+04  0.79026775734E+03 -0.10505643804E+04  0.17089993818E+04  0.25500000920E-02 0.  1.
</event>
<event>
 5   0  0.2602891E-07  0.3018977E+04  0.7818609E-02  0.8238332E-01
        1   -1    0    0  501    0  0.00000000000E+00  0.00000000000E+00  0.21045130015E+04  0.21045130015E+04  0.50400001928E-02 0.  1.
       -1   -1    0    0    0  501  0.00000000000E+00  0.00000000000E+00 -0.10826998836E+04  0.10826998836E+04  0.50400001928E-02 0. -1.
    10030    2    1    2    0    0  0.00000000000E+00  0.00000000000E+00  0.10218131179E+04  0.31872128851E+04  0.30189772982E+04 0.  0.
        5    1    3    3  502    0  0.94206517059E+03  0.38263959379E+03 -0.66689483437E+03  0.12160060257E+04  0.46999998093E+01 0. -1.
       -5    1    3    3    0  502 -0.94206517059E+03 -0.38263959379E+03  0.16887079523E+04  0.19712068594E+04  0.46999998093E+01 0.  1.
</event>
<event>
 5   0  0.2414250E-07  0.3002513E+04  0.7818609E-02  0.8243014E-01
        3   -1    0    0  501    0  0.00000000000E+00  0.00000000000E+00  0.10626561358E+04  0.10626561406E+04  0.10100000352E+00 0. -1.
       -3   -1    0    0    0  501  0.00000000000E+00  0.00000000000E+00 -0.21208845787E+04  0.21208845811E+04  0.10100000352E+00 0.  1.
    10030    2    1    2    0    0  0.00000000000E+00  0.00000000000E+00 -0.10582284429E+04  0.31835407218E+04  0.30025129625E+04 0.  0.
        5    1    3    3  502    0 -0.99246318117E+01 -0.68072240347E+03 -0.19477943167E+04  0.20633483174E+04  0.46999998093E+01 0.  1.
       -5    1    3    3    0  502  0.99246318117E+01  0.68072240347E+03  0.88956587380E+03  0.11201924043E+04  0.46999998093E+01 0. -1.
</event>
<event>
 5   0  0.2621825E-07  0.2957355E+04  0.7818609E-02  0.8256014E-01
        1   -1    0    0  501    0  0.00000000000E+00  0.00000000000E+00  0.15095924311E+04  0.15095924311E+04  0.50400001928E-02 0. -1.
       -1   -1    0    0    0  501  0.00000000000E+00  0.00000000000E+00 -0.14483959403E+04  0.14483959404E+04  0.50400001928E-02 0.  1.
    10030    2    1    2    0    0  0.00000000000E+00  0.00000000000E+00  0.61196490778E+02  0.29579883715E+04  0.29573552704E+04 0.  0.
        3    1    3    3  502    0 -0.34204337307E+03 -0.10707877249E+04  0.99148466235E+03  0.14988735326E+04  0.10100000352E+00 0. -1.
       -3    1    3    3    0  502  0.34204337307E+03  0.10707877249E+04 -0.93028817157E+03  0.14591148389E+04  0.10100000352E+00 0.  1.
</event>
<event>
 5   0  0.7208273E-07  0.3006882E+04  0.7818609E-02  0.8241768E-01
        2   -1    0    0  501    0  0.00000000000E+00  0.00000000000E+00  0.24510366303E+04  0.24510366303E+04  0.25500000920E-02 0. -1.
       -2   -1    0    0    0  501  0.00000000000E+00  0.00000000000E+00 -0.92219575550E+03  0.92219575550E+03  0.25500000920E-02 0.  1.
    10030    2    1    2    0    0  0.00000000000E+00  0.00000000000E+00  0.15288408748E+04  0.33732323858E+04  0.30068824899E+04 0.  0.
        4    1    3    3  502    0  0.48103130030E+03 -0.12550516854E+03 -0.82732028864E+03  0.96519590348E+03  0.12699999809E+01 0.  1.
       -4    1    3    3    0  502 -0.48103130030E+03  0.12550516854E+03  0.23561611634E+04  0.24080364823E+04  0.12699999809E+01 0. -1.
</event>
<event>
 5   0  0.2640081E-07  0.2978406E+04  0.7818609E-02  0.8249924E-01
        1   -1    0    0  501    0  0.00000000000E+00  0.00000000000E+00  0.22944841092E+04  0.22944841092E+04  0.50400001928E-02 0. -1.
       -1   -1    0    0    0  501  0.00000000000E+00  0.00000000000E+00 -0.96654654272E+03  0.96654654273E+03  0.50400001928E-02 0.  1.
    10030    2    1    2    0    0  0.00000000000E+00  0.00000000000E+00  0.13279375665E+04  0.32610306520E+04  0.29784060725E+04 0.  0.
        1    1    3    3  502    0  0.80406372215E+03  0.11005377718E+04  0.70123131295E+01  0.13629934075E+04  0.50400001928E-02 0.  1.
       -1    1    3    3    0  502 -0.80406372215E+03 -0.11005377718E+04  0.13209252534E+04  0.18980372445E+04  0.50400001928E-02 0. -1.
</event>
<event>
 5   0  0.7585823E-07  0.2999050E+04  0.7818609E-02  0.8244002E-01
        2   -1    0    0  501    0  0.00000000000E+00  0.00000000000E+00  0.83083908591E+03  0.83083908591E+03  0.25500000920E-02 0. -1.
       -2   -1    0    0    0  501  0.00000000000E+00  0.00000000000E+00 -0.27063904267E+04  0.27063904267E+04  0.25500000920E-02 0.  1.
    10030    2    1    2    0    0  0.00000000000E+00  0.00000000000E+00 -0.18755513408E+04  0.35372295126E+04  0.29990498150E+04 0.  0.
        5    1    3    3  502    0 -0.69760603255E+02  0.16506014873E+02  0.82880819818E+03  0.83191592704E+03  0.46999998093E+01 0. -1.
       -5    1    3    3    0  502  0.69760603255E+02 -0.16506014873E+02 -0.27043595390E+04  0.27053135856E+04  0.46999998093E+01 0.  1.
</event>
<event>
 5   0  0.7585823E-07  0.3004744E+04  0.7818609E-02  0.8242377E-01
       -2   -1    0    0    0  501  0.00000000000E+00  0.00000000000E+00  0.11890579377E+04  0.11890579377E+04  0.25500000920E-02 0.  1.
        2   -1    0    0  501    0  0.00000000000E+00  0.00000000000E+00 -0.18982440667E+04  0.18982440667E+04  0.25500000920E-02 0. -1.
    10030    2    1    2    0    0  0.00000000000E+00  0.00000000000E+00 -0.70918612899E+03  0.30873020044E+04  0.30047443653E+04 0.  0.
        5    1    3    3  502    0  0.19283105700E+03 -0.81784849188E+03 -0.16342191959E+04  0.18375947438E+04  0.46999998093E+01 0. -1.
       -5    1    3    3    0  502 -0.19283105700E+03  0.81784849188E+03  0.92503306690E+03  0.12497072606E+04  0.46999998093E+01 0.  1.
</event>
<event>
 5   0  0.7585823E-07  0.2997412E+04  0.7818609E-02  0.8244470E-01
       -2   -1    0    0    0  501  0.00000000000E+00  0.00000000000E+00  0.12336363642E+04  0.12336363642E+04  0.25500000920E-02 0.  1.
        2   -1    0    0  501    0  0.00000000000E+00  0.00000000000E+00 -0.18207309601E+04  0.18207309601E+04  0.25500000920E-02 0. -1.
    10030    2    1    2    0    0  0.00000000000E+00  0.00000000000E+00 -0.58709459585E+03  0.30543673243E+04  0.29974121650E+04 0.  0.
        5    1    3    3  502    0 -0.10532182427E+04 -0.10103373034E+04 -0.64067803056E+03  0.15939073255E+04  0.46999998093E+01 0. -1.
       -5    1    3    3    0  502  0.10532182427E+04  0.10103373034E+04  0.53583434714E+02  0.14604599987E+04  0.46999998093E+01 0.  1.
</event>
<event>
 5   0  0.7278657E-07  0.2999266E+04  0.7818609E-02  0.8243940E-01
       -2   -1    0    0    0  501  0.00000000000E+00  0.00000000000E+00  0.11011809757E+04  0.11011809757E+04  0.25500000920E-02 0. -1.
        2   -1    0    0  501    0  0.00000000000E+00  0.00000000000E+00 -0.20422613400E+04  0.20422613400E+04  0.25500000920E-02 0.  1.
    10030    2    1    2    0    0  0.00000000000E+00  0.00000000000E+00 -0.94108036428E+03  0.31434423157E+04  0.29992661335E+04 0.  0.
        2    1    3    3  502    0  0.14621094776E+04  0.29629142321E+03 -0.63068110965E+03  0.16196639757E+04  0.25500000920E-02 0. -1.
       -2    1    3    3    0  502 -0.14621094776E+04 -0.29629142321E+03 -0.31039925463E+03  0.15237783400E+04  0.25500000920E-02 0.  1.
</event>
<event>
 5   0  0.2792361E-07  0.2997713E+04  0.7818609E-02  0.8244384E-01
        1   -1    0    0  501    0  0.00000000000E+00  0.00000000000E+00  0.14594570756E+04  0.14594570757E+04  0.50400001928E-02 0. -1.
       -1   -1    0    0    0  501  0.00000000000E+00  0.00000000000E+00 -0.15393193815E+04  0.15393193815E+04  0.50400001928E-02 0.  1.
    10030    2    1    2    0    0  0.00000000000E+00  0.00000000000E+00 -0.79862305854E+02  0.29987764572E+04  0.29977128368E+04 0.  0.
        4    1    3    3  502    0 -0.90855400799E+03 -0.98342513804E+03  0.63408351232E+03  0.14814381192E+04  0.12699999809E+01 0. -1.
       -4    1    3    3    0  502  0.90855400799E+03  0.98342513804E+03 -0.71394581818E+03  0.15173383379E+04  0.12699999809E+01 0.  1.
</event>
<event>
 5   0  0.7307508E-07  0.3008104E+04  0.7818609E-02  0.8241421E-01
       -2   -1    0    0    0  501  0.00000000000E+00  0.00000000000E+00  0.82169592255E+03  0.82169592256E+03  0.25500000920E-02 0.  1.
        2   -1    0    0  501    0  0.00000000000E+00  0.00000000000E+00 -0.27530530950E+04  0.27530530950E+04  0.25500000920E-02 0. -1.
    10030    2    1    2    0    0  0.00000000000E+00  0.00000000000E+00 -0.19313571724E+04  0.35747490176E+04  0.30081040559E+04 0.  0.
        1    1    3    3  502    0  0.11910884260E+04  0.89389111766E+03 -0.12161957282E+04  0.19227233337E+04  0.50400001928E-02 0.  1.
       -1    1    3    3    0  502 -0.11910884260E+04 -0.89389111766E+03 -0.71516144426E+03  0.16520256838E+04  0.50400001928E-02 0. -1.
</event>
<event>
 5   0  0.7585823E-07  0.3001210E+04  0.7818609E-02  0.8243385E-01
       -2   -1    0    0    0  501  0.00000000000E+00  0.00000000000E+00  0.13221096258E+04  0.13221096258E+04  0.25500000920E-02 0. -1.
        2   -1    0    0  501    0  0.00000000000E+00  0.00000000000E+00 -0.17031986650E+04  0.17031986650E+04  0.25500000920E-02 0.  1.
    10030    2    1    2    0    0  0.00000000000E+00  0.00000000000E+00 -0.38108903929E+03  0.30253082908E+04  0.30012099891E+04 0.  0.
        5    1    3    3  502    0 -0.83089274879E+03  0.96077967272E+03 -0.99590454975E+03  0.16141029403E+04  0.46999998093E+01 0.  1.
       -5    1    3    3    0  502  0.83089274879E+03 -0.96077967272E+03  0.61481551046E+03  0.14112053505E+04  0.46999998093E+01 0. -1.
</event>
<event>
 5   0  0.7208273E-07  0.3011745E+04  0.7818609E-02  0.8240385E-01
       -2   -1    0    0    0  501  0.00000000000E+00  0.00000000000E+00  0.10295453539E+04  0.10295453539E+04  0.25500000920E-02 0.  1.
        2   -1    0    0  501    0  0.00000000000E+00  0.00000000000E+00 -0.22025763255E+04  0.22025763255E+04  0.25500000920E-02 0. -1.
    10030    2    1    2    0    0  0.00000000000E+00  0.00000000000E+00 -0.11730309716E+04  0.32321216794E+04  0.30117451568E+04 0.  0.
        4    1    3    3  502    0 -0.10700196113E+04 -0.10469757160E+04 -0.76138164073E+03  0.16795248537E+04  0.12699999809E+01 0. -1.
       -4    1    3    3    0  502  0.10700196113E+04  0.10469757160E+04 -0.41164933092E+03  0.15525968257E+04  0.12699999809E+01 0.  1.
</event>
<event>
 5   0  0.7399409E-07  0.2997031E+04  0.7818609E-02  0.8244579E-01
       -2   -1    0    0    0  501  0.00000000000E+00  0.00000000000E+00  0.12396390733E+04  0.12396390734E+04  0.25500000920E-02 0. -1.
        2   -1    0    0  501    0  0.00000000000E+00  0.00000000000E+00 -0.18114538398E+04  0.18114538398E+04  0.25500000920E-02 0.  1.
    10030    2    1    2    0    0  0.00000000000E+00  0.00000000000E+00 -0.57181476644E+03  0.30510929131E+04  0.29970311706E+04 0.  0.
        3    1    3    3  502    0 -0.26111401002E+02  0.13166746403E+04  0.44199724002E+03  0.13891275982E+04  0.10100000352E+00 0. -1.
       -3    1    3    3    0  502  0.26111401002E+02 -0.13166746403E+04 -0.10138120065E+04  0.16619653150E+04  0.10100000352E+00 0.  1.
</event>
<event>
 5   0  0.7585823E-07  0.3001420E+04  0.7818609E-02  0.8243325E-01
        2   -1    0    0  501    0  0.00000000000E+00  0.00000000000E+00  0.16672827042E+04  0.16672827042E+04  0.25500000920E-02 0. -1.
       -2   -1    0    0    0  501  0.00000000000E+00  0.00000000000E+00 -0.13507791218E+04  0.13507791218E+04  0.25500000920E-02 0.  1.
    10030    2    1    2    0    0  0.00000000000E+00  0.00000000000E+00  0.31650358235E+03  0.30180618260E+04  0.30014201085E+04 0.  0.
        5    1    3    3  502    0  0.86402468435E+03  0.22147741470E+03 -0.10553025389E+04  0.13817656961E+04  0.46999998093E+01 0.  1.
       -5    1    3    3    0  502 -0.86402468435E+03 -0.22147741470E+03  0.13718061212E+04  0.16362961299E+04  0.46999998093E+01 0. -1.
</event>
<event>
 5   0  0.2792361E-07  0.2988854E+04  0.7818609E-02  0.8246921E-01
        1   -1    0    0  501    0  0.00000000000E+00  0.00000000000E+00  0.21682281754E+04  0.21682281754E+04  0.50400001928E-02 0. -1.
       -1   -1    0    0    0  501  0.00000000000E+00  0.00000000000E+00 -0.10300172976E+04  0.10300172977E+04  0.50400001928E-02 0.  1.
    10030    2    1    2    0    0  0.00000000000E+00  0.00000000000E+00  0.11382108777E+04  0.31982454730E+04  0.29888543129E+04 0.  0.
        4    1    3    3  502    0 -0.87642943297E+03 -0.11769387128E+04  0.26645200686E+03  0.14914126088E+04  0.12699999809E+01 0.  1.
       -4    1    3    3    0  502  0.87642943297E+03  0.11769387128E+04  0.87175887085E+03  0.17068328643E+04  0.12699999809E+01 0. -1.
</event>
<event>
 5   0  0.2621825E-07  0.2999653E+04  0.7818609E-02  0.8243830E-01
       -1   -1    0    0    0  501  0.00000000000E+00  0.00000000000E+00  0.84720056959E+03  0.84720056961E+03  0.50400001928E-02 0. -1.
        1   -1    0    0  501    0  0.00000000000E+00  0.00000000000E+00 -0.26551903991E+04  0.26551903991E+04  0.50400001928E-02 0.  1.
    10030    2    1    2    0    0  0.00000000000E+00  0.00000000000E+00 -0.18079898295E+04  0.35023909687E+04  0.29996525256E+04 0.  0.
        3    1    3    3  502    0 -0.60090151663E+03  0.24456021262E+03 -0.24828832878E+04  0.25662427323E+04  0.10100000352E+00 0.  1.
       -3    1    3    3    0  502  0.60090151663E+03 -0.24456021262E+03  0.67489345827E+03  0.93614823639E+03  0.10100000352E+00 0. -1.
</event>
<event>
 5   0  0.2602891E-07  0.3001794E+04  0.7818609E-02  0.8243219E-01
        1   -1    0    0  501    0  0.00000000000E+00  0.00000000000E+00  0.20559177080E+04  0.20559177080E+04  0.50400001928E-02 0. -1.
       -1   -1    0    0    0  501  0.00000000000E+00  0.00000000000E+00 -0.10957113843E+04  0.10957113843E+04  0.50400001928E-02 0.  1.
    10030    2    1    2    0    0  0.00000000000E+00  0.00000000000E+00  0.96020632367E+03  0.31516290923E+04  0.30017944219E+04 0.  0.
        5    1    3    3  502    0 -0.10679426195E+03  0.12743465848E+04 -0.34480280327E+03  0.13244905797E+04  0.46999998093E+01 0.  1.
       -5    1    3    3    0  502  0.10679426195E+03 -0.12743465848E+04  0.13050091269E+04  0.18271385125E+04  0.46999998093E+01 0. -1.
</event>
<event>
 5   0  0.7307508E-07  0.2995375E+04  0.7818609E-02  0.8245053E-01
        2   -1    0    0  501    0  0.00000000000E+00  0.00000000000E+00  0.15561246988E+04  0.15561246988E+04  0.25500000920E-02 0.  1.
       -2   -1    0    0    0  501  0.00000000000E+00  0.00000000000E+00 -0.14414451548E+04  0.14414451548E+04  0.25500000920E-02 0. -1.
    10030    2    1    2    0    0  0.00000000000E+00  0.00000000000E+00  0.11467954403E+03  0.29975698536E+04  0.29953753737E+04 0.  0.
        1    1    3    3  502    0  0.15229878606E+03  0.67064497164E+03 -0.12740893109E+04  0.14478477719E+04  0.50400001928E-02 0. -1.
       -1    1    3    3    0  502 -0.15229878606E+03 -0.67064497164E+03  0.13887688550E+04  0.15497220818E+04  0.50400001928E-02 0.  1.
</event>
<event>
 5   0  0.7585823E-07  0.2996742E+04  0.7818609E-02  0.8244662E-01
        2   -1    0    0  501    0  0.00000000000E+00  0.00000000000E+00  0.16216496302E+04  0.16216496302E+04  0.25500000920E-02 0. -1.
       -2   -1    0    0    0  501  0.00000000000E+00  0.00000000000E+00 -0.13844637707E+04  0.13844637707E+04  0.25500000920E-02 0.  1.
    10030    2    1    2    0    0  0.00000000000E+00  0.00000000000E+00  0.23718585953E+03  0.30061134009E+04  0.29967416718E+04 0.  0.
        5    1    3    3  502    0 -0.12051232181E+03 -0.75308917637E+03 -0.11751794233E+04  0.14009765502E+04  0.46999998093E+01 0.  1.
       -5    1    3    3    0  502  0.12051232181E+03  0.75308917637E+03  0.14123652829E+04  0.16051368507E+04  0.46999998093E+01 0. -1.
</event>
<event>
 5   0  0.2602891E-07  0.2995800E+04  0.7818609E-02  0.8244931E-01
        1   -1    0    0  501    0  0.00000000000E+00  0.00000000000E+00  0.11438177754E+04  0.11438177754E+04  0.50400001928E-02 0.  1.
       -1   -1    0    0    0  501  0.00000000000E+00  0.00000000000E+00 -0.19615930465E+04  0.19615930465E+04  0.50400001928E-02 0. -1.
    10030    2    1    2    0    0  0.00000000000E+00  0.00000000000E+00 -0.81777527114E+03  0.31054108219E+04  0.29958003904E+04 0.  0.
        5    1    3    3  502    0  0.11639323350E+04  0.77861175751E+03  0.14226940243E+03  0.14075643581E+04  0.46999998093E+01 0.  1.
       -5    1    3    3    0  502 -0.11639323350E+04 -0.77861175751E+03 -0.96004467357E+03  0.16978464638E+04  0.46999998093E+01 0. -1.
</event>
<event>
 5   0  0.2640081E-07  0.2982119E+04  0.7818609E-02  0.8248856E-01
       -1   -1    0    0    0  501  0.00000000000E+00  0.00000000000E+00  0.13115180805E+04  0.13115180805E+04  0.50400001928E-02 0. -1.
        1   -1    0    0  501    0  0.00000000000E+00  0.00000000000E+00 -0.16951788603E+04  0.16951788604E+04  0.50400001928E-02 0.  1.
    10030    2    1    2    0    0  0.00000000000E+00  0.00000000000E+00 -0.38366077989E+03  0.30066969408E+04  0.29821185255E+04 0.  0.
        1    1    3    3  502    0  0.59200602165E+03  0.11573279977E+04  0.54451658720E+03  0.14093890654E+04  0.50400001928E-02 0. -1.
       -1    1    3    3    0  502 -0.59200602165E+03 -0.11573279977E+04 -0.92817736710E+03  0.15973078754E+04  0.50400001928E-02 0.  1.
</event>
<event>
 5   0  0.7208273E-07  0.3053261E+04  0.7818609E-02  0.8228683E-01
        2   -1    0    0  501    0  0.00000000000E+00  0.00000000000E+00  0.13162065510E+04  0.13162065510E+04  0.25500000920E-02 0. -1.
       -2   -1    0    0    0  501  0.00000000000E+00  0.00000000000E+00 -0.17706955784E+04  0.17706955784E+04  0.25500000920E-02 0.  1.
    10030    2    1    2    0    0  0.00000000000E+00  0.00000000000E+00 -0.45448902734E+03  0.30869021294E+04  0.30532612860E+04 0.  0.
        4    1    3    3  502    0  0.45697640535E+03 -0.37587893621E+03 -0.16500479256E+04  0.17529324514E+04  0.12699999809E+01 0.  1.
       -4    1    3    3    0  502 -0.45697640535E+03  0.37587893621E+03  0.11955588982E+04  0.13339696780E+04  0.12699999809E+01 0. -1.
</event>
<event>
 5   0  0.2640081E-07  0.2990543E+04  0.7818609E-02  0.8246437E-01
        1   -1    0    0  501    0  0.00000000000E+00  0.00000000000E+00  0.10079070690E+04  0.10079070690E+04  0.50400001928E-02 0. -1.
       -1   -1    0    0    0  501  0.00000000000E+00  0.00000000000E+00 -0.22182959528E+04  0.22182959528E+04  0.50400001928E-02 0.  1.
    10030    2    1    2    0    0  0.00000000000E+00  0.00000000000E+00 -0.12103888838E+04  0.32262030219E+04  0.29905425408E+04 0.  0.
        1    1    3    3  502    0 -0.20090131913E+03 -0.10095379170E+04 -0.17752385638E+04  0.20520721489E+04  0.50400001928E-02 0.  1.
       -1    1    3    3    0  502  0.20090131913E+03  0.10095379170E+04  0.56484968000E+03  0.11741308730E+04  0.50400001928E-02 0. -1.
</event>
<event>
 5   0  0.7208273E-07  0.2995566E+04  0.7818609E-02  0.8244998E-01
        2   -1    0    0  501    0  0.00000000000E+00  0.00000000000E+00  0.19778053706E+04  0.19778053706E+04  0.25500000920E-02 0.  1.
       -2   -1    0    0    0  501  0.00000000000E+00  0.00000000000E+00 -0.11342640689E+04  0.11342640689E+04  0.25500000920E-02 0. -1.
    10030    2    1    2    0    0  0.00000000000E+00  0.00000000000E+00  0.84354130172E+03  0.31120694395E+04  0.29955657677E+04 0.  0.
        4    1    3    3  502    0  0.45075632474E+03  0.37921347519E+03 -0.10088737831E+04  0.11682517054E+04  0.12699999809E+01 0. -1.
       -4    1    3    3    0  502 -0.45075632474E+03 -0.37921347519E+03  0.18524150848E+04  0.19438177341E+04  0.12699999809E+01 0.  1.
</event>
<event>
 5   0  0.7307508E-07  0.2999812E+04  0.7818609E-02  0.8243785E-01
        2   -1    0    0  501    0  0.00000000000E+00  0.00000000000E+00  0.20928426601E+04  0.20928426601E+04  0.25500000920E-02 0.  1.
       -2   -1    0    0    0  501  0.00000000000E+00  0.00000000000E+00 -0.10749581308E+04  0.10749581308E+04  0.25500000920E-02 0. -1.
    10030    2    1    2    0    0  0.00000000000E+00  0.00000000000E+00  0.10178845293E+04  0.31678007908E+04  0.29998121500E+04 0.  0.
        1    1    3    3  502    0  0.31272029566E+03 -0.57106825171E+03  0.19358340414E+04  0.20423923147E+04  0.50400001928E-02 0.  1.
       -1    1    3    3    0  502 -0.31272029566E+03  0.57106825171E+03 -0.91794951208E+03  0.11254084761E+04  0.50400001928E-02 0. -1.
</event>
<event>
 5   0  0.2414250E-07  0.2993202E+04  0.7818609E-02  0.8245675E-01
        4   -1    0    0  501    0  0.00000000000E+00  0.00000000000E+00  0.16060229924E+04  0.16060234946E+04  0.12699999809E+01 0.  1.
       -4   -1    0    0    0  501  0.00000000000E+00  0.00000000000E+00 -0.13946333672E+04  0.13946339454E+04  0.12699999809E+01 0. -1.
    10030    2    1    2    0    0  0.00000000000E+00  0.00000000000E+00  0.21138962529E+03  0.30006574400E+04  0.29932022148E+04 0.  0.
        5    1    3    3  502    0  0.97943640091E+03  0.10848849886E+04  0.42824405205E+03  0.15230515946E+04  0.46999998093E+01 0.  1.
       -5    1    3    3    0  502 -0.97943640091E+03 -0.10848849886E+04 -0.21685442676E+03  0.14776058454E+04  0.46999998093E+01 0. -1.
</event>
<event>
 5   0  0.2640081E-07  0.2991668E+04  0.7818609E-02  0.8246114E-01
        1   -1    0    0  501    0  0.00000000000E+00  0.00000000000E+00  0.90273089486E+03  0.90273089487E+03  0.50400001928E-02 0.  1.
       -1   -1    0    0    0  501  0.00000000000E+00  0.00000000000E+00 -0.24786123015E+04  0.24786123015E+04  0.50400001928E-02 0. -1.
    10030    2    1    2    0    0  0.00000000000E+00  0.00000000000E+00 -0.15758814066E+04  0.33813431963E+04  0.29916683646E+04 0.  0.
        1    1    3    3  502    0 -0.46963403702E+03 -0.62143223063E+03  0.65541794309E+03  0.10179915649E+04  0.50400001928E-02 0.  1.
       -1    1    3    3    0  502  0.46963403702E+03  0.62143223063E+03 -0.22312993497E+04  0.23633516315E+04  0.50400001928E-02 0. -1.
</event>
<event>
 5   0  0.2414250E-07  0.3000457E+04  0.7818609E-02  0.8243600E-01
        3   -1    0    0  501    0  0.00000000000E+00  0.00000000000E+00  0.16125506087E+04  0.16125506118E+04  0.10100000352E+00 0. -1.
       -3   -1    0    0    0  501  0.00000000000E+00  0.00000000000E+00 -0.13957302842E+04  0.13957302879E+04  0.10100000352E+00 0.  1.
    10030    2    1    2    0    0  0.00000000000E+00  0.00000000000E+00  0.21682032445E+03  0.30082808997E+04  0.30004571182E+04 0.  0.
        1    1    3    3  502    0  0.57708058765E+03 -0.23624333290E+03  0.14764654043E+04  0.16027423395E+04  0.50400001928E-02 0. -1.
       -1    1    3    3    0  502 -0.57708058765E+03  0.23624333290E+03 -0.12596450798E+04  0.14055385602E+04  0.50400001928E-02 0.  1.
</event>
<event>
 5   0  0.7208273E-07  0.3004200E+04  0.7818609E-02  0.8242532E-01
        2   -1    0    0  501    0  0.00000000000E+00  0.00000000000E+00  0.15908007950E+04  0.15908007950E+04  0.25500000920E-02 0.  1.
       -2   -1    0    0    0  501  0.00000000000E+00  0.00000000000E+00 -0.14183453213E+04  0.14183453213E+04  0.25500000920E-02 0. -1.
    10030    2    1    2    0    0  0.00000000000E+00  0.00000000000E+00  0.17245547370E+03  0.30091461162E+04  0.30042003026E+04 0.  0.
        4    1    3    3  502    0 -0.72876442423E+03 -0.22921860742E+03 -0.12092167593E+04  0.14303305702E+04  0.12699999809E+01 0. -1.
       -4    1    3    3    0  502  0.72876442423E+03  0.22921860742E+03  0.13816722330E+04  0.15788155460E+04  0.12699999809E+01 0.  1.
</event>
<event>
 5   0  0.2792361E-07  0.2982107E+04  0.7818609E-02  0.8248859E-01
       -1   -1    0    0    0  501  0.00000000000E+00  0.00000000000E+00  0.14175364467E+04  0.14175364467E+04  0.50400001928E-02 0. -1.
        1   -1    0    0  501    0  0.00000000000E+00  0.00000000000E+00 -0.15683831811E+04  0.15683831811E+04  0.50400001928E-02 0.  1.
    10030    2    1    2    0    0  0.00000000000E+00  0.00000000000E+00 -0.15084673434E+03  0.29859196278E+04  0.29821068536E+04 0.  0.
        4    1    3    3  502    0 -0.12294559108E+04  0.23147776028E+03 -0.88769106290E+03  0.15339950542E+04  0.12699999809E+01 0.  1.
       -4    1    3    3    0  502  0.12294559108E+04 -0.23147776028E+03  0.73684432856E+03  0.14519245736E+04  0.12699999809E+01 0. -1.
</event>
<event>
 5   0  0.7208273E-07  0.2995839E+04  0.7818609E-02  0.8244920E-01
        2   -1    0    0  501    0  0.00000000000E+00  0.00000000000E+00  0.21161678960E+04  0.21161678960E+04  0.25500000920E-02 0. -1.
       -2   -1    0    0    0  501  0.00000000000E+00  0.00000000000E+00 -0.10602955257E+04  0.10602955257E+04  0.25500000920E-02 0.  1.
    10030    2    1    2    0    0  0.00000000000E+00  0.00000000000E+00  0.10558723703E+04  0.31764634217E+04  0.29958393493E+04 0.  0.
        4    1    3    3  502    0 -0.65419698235E+03 -0.54659359157E+03  0.18338709734E+04  0.20223309833E+04  0.12699999809E+01 0. -1.
       -4    1    3    3    0  502  0.65419698235E+03  0.54659359157E+03 -0.77799860311E+03  0.11541324384E+04  0.12699999809E+01 0.  1.
</event>
<event>
 5   0  0.2679935E-07  0.2993563E+04  0.7818609E-02  0.8245571E-01
        1   -1    0    0  501    0  0.00000000000E+00  0.00000000000E+00  0.22551247552E+04  0.22551247552E+04  0.50400001928E-02 0.  1.
       -1   -1    0    0    0  501  0.00000000000E+00  0.00000000000E+00 -0.99345031923E+03  0.99345031924E+03  0.50400001928E-02 0. -1.
    10030    2    1    2    0    0  0.00000000000E+00  0.00000000000E+00  0.12616744360E+04  0.32485750745E+04  0.29935626989E+04 0.  0.
        2    1    3    3  502    0 -0.55021471258E+03  0.87975101088E+03  0.18014598562E+04  0.20789313804E+04  0.25500000920E-02 0.  1.
       -2    1    3    3    0  502  0.55021471258E+03 -0.87975101088E+03 -0.53978542021E+03  0.11696436940E+04  0.25500000920E-02 0. -1.
</event>
<event>
 5   0  0.7307508E-07  0.3000564E+04  0.7818609E-02  0.8243570E-01
       -2   -1    0    0    0  501  0.00000000000E+00  0.00000000000E+00  0.11528175125E+04  0.11528175125E+04  0.25500000920E-02 0. -1.
        2   -1    0    0  501    0  0.00000000000E+00  0.00000000000E+00 -0.19524738938E+04  0.19524738938E+04  0.25500000920E-02 0.  1.
    10030    2    1    2    0    0  0.00000000000E+00  0.00000000000E+00 -0.79965638123E+03  0.31052914063E+04  0.30005640120E+04 0.  0.
        1    1    3    3  502    0 -0.50475295290E+03  0.31353171871E+03 -0.18255049580E+04  0.19197776001E+04  0.50400001928E-02 0.  1.
       -1    1    3    3    0  502  0.50475295290E+03 -0.31353171871E+03  0.10258485768E+04  0.11855138062E+04  0.50400001928E-02 0. -1.
</event>
<event>
 5   0  0.2621825E-07  0.2993570E+04  0.7818609E-02  0.8245569E-01
        1   -1    0    0  501    0  0.00000000000E+00  0.00000000000E+00  0.12170697775E+04  0.12170697775E+04  0.50400001928E-02 0. -1.
       -1   -1    0    0    0  501  0.00000000000E+00  0.00000000000E+00 -0.18407862805E+04  0.18407862806E+04  0.50400001928E-02 0.  1.
    10030    2    1    2    0    0  0.00000000000E+00  0.00000000000E+00 -0.62371650303E+03  0.30578560581E+04  0.29935700085E+04 0.  0.
        3    1    3    3  502    0 -0.77098627635E+03  0.52587147013E+03  0.88348745393E+03  0.12851111753E+04  0.10100000352E+00 0. -1.
       -3    1    3    3    0  502  0.77098627635E+03 -0.52587147013E+03 -0.15072039570E+04  0.17727448828E+04  0.10100000352E+00 0.  1.
</event>
<event>
 5   0  0.2640081E-07  0.2997377E+04  0.7818609E-02  0.8244480E-01
       -1   -1    0    0    0  501  0.00000000000E+00  0.00000000000E+00  0.16514649412E+04  0.16514649413E+04  0.50400001928E-02 0. -1.
        1   -1    0    0  501    0  0.00000000000E+00  0.00000000000E+00 -0.13600452043E+04  0.13600452043E+04  0.50400001928E-02 0.  1.
    10030    2    1    2    0    0  0.00000000000E+00  0.00000000000E+00  0.29141973694E+03  0.30115101456E+04  0.29973768355E+04 0.  0.
        1    1    3    3  502    0 -0.17123249736E+03 -0.43151010969E+03  0.15774010149E+04  0.16442978759E+04  0.50400001928E-02 0. -1.
       -1    1    3    3    0  502  0.17123249736E+03  0.43151010969E+03 -0.12859812780E+04  0.13672122696E+04  0.50400001928E-02 0.  1.
</event>
<event>
 5   0  0.2621825E-07  0.3027111E+04  0.7818609E-02  0.8236031E-01
       -1   -1    0    0    0  501  0.00000000000E+00  0.00000000000E+00  0.15906043075E+04  0.15906043075E+04  0.50400001928E-02 0. -1.
        1   -1    0    0  501    0  0.00000000000E+00  0.00000000000E+00 -0.14402393580E+04  0.14402393580E+04  0.50400001928E-02 0.  1.
    10030    2    1    2    0    0  0.00000000000E+00  0.00000000000E+00  0.15036494944E+03  0.30308436655E+04  0.30271114460E+04 0.  0.
        3    1    3    3  502    0 -0.93737230881E+02 -0.18016828091E+03  0.15768995820E+04  0.15899243944E+04  0.10100000352E+00 0. -1.
       -3    1    3    3    0  502  0.93737230881E+02  0.18016828091E+03 -0.14265346325E+04  0.14409192711E+04  0.10100000352E+00 0.  1.
</event>
<event>
 5   0  0.7399409E-07  0.3000170E+04  0.7818609E-02  0.8243682E-01
        2   -1    0    0  501    0  0.00000000000E+00  0.00000000000E+00  0.27607095824E+04  0.27607095824E+04  0.25500000920E-02 0. -1.
       -2   -1    0    0    0  501  0.00000000000E+00  0.00000000000E+00 -0.81510046899E+03  0.81510046900E+03  0.25500000920E-02 0.  1.
    10030    2    1    2    0    0  0.00000000000E+00  0.00000000000E+00  0.19456091134E+04  0.35758100514E+04  0.30001704454E+04 0.  0.
        3    1    3    3  502    0 -0.35820501272E+03  0.14530964383E+04  0.85093296774E+03  0.17215943239E+04  0.10100000352E+00 0. -1.
       -3    1    3    3    0  502  0.35820501272E+03 -0.14530964383E+04  0.10946761457E+04  0.18542157275E+04  0.10100000352E+00 0.  1.
</event>
<event>
 5   0  0.7278657E-07  0.2988461E+04  0.7818609E-02  0.8247034E-01
       -2   -1    0    0    0  501  0.00000000000E+00  0.00000000000E+00  0.13533256718E+04  0.13533256719E+04  0.25500000920E-02 0.  1.
        2   -1    0    0  501    0  0.00000000000E+00  0.00000000000E+00 -0.16498063441E+04  0.16498063441E+04  0.25500000920E-02 0. -1.
    10030    2    1    2    0    0  0.00000000000E+00  0.00000000000E+00 -0.29648067227E+03  0.30031320160E+04  0.29884613292E+04 0.  0.
        2    1    3    3  502    0  0.84037437597E+03 -0.12344842381E+04 -0.97546151586E+02  0.14965612843E+04  0.25500000920E-02 0. -1.
       -2    1    3    3    0  502 -0.84037437597E+03  0.12344842381E+04 -0.19893452068E+03  0.15065707317E+04  0.25500000920E-02 0.  1.
</event>
<event>
 5   0  0.2792361E-07  0.2999241E+04  0.7818609E-02  0.8243948E-01
       -1   -1    0    0    0  501  0.00000000000E+00  0.00000000000E+00  0.11422390069E+04  0.11422390069E+04  0.50400001928E-02 0. -1.
        1   -1    0    0  501    0  0.00000000000E+00  0.00000000000E+00 -0.19688185802E+04  0.19688185802E+04  0.50400001928E-02 0.  1.
    10030    2    1    2    0    0  0.00000000000E+00  0.00000000000E+00 -0.82657957336E+03  0.31110575871E+04  0.29992408238E+04 0.  0.
        4    1    3    3  502    0  0.52480804222E+03 -0.34686754180E+03 -0.18253343030E+04  0.19306961189E+04  0.12699999809E+01 0.  1.
       -4    1    3    3    0  502 -0.52480804222E+03  0.34686754180E+03  0.99875472969E+03  0.11803614682E+04  0.12699999809E+01 0. -1.
</event>
<event>
 5   0  0.7307508E-07  0.3003561E+04  0.7818609E-02  0.8242715E-01
       -2   -1    0    0    0  501  0.00000000000E+00  0.00000000000E+00  0.96497511189E+03  0.96497511189E+03  0.25500000920E-02 0.  1.
        2   -1    0    0  501    0  0.00000000000E+00  0.00000000000E+00 -0.23372042483E+04  0.23372042483E+04  0.25500000920E-02 0. -1.
    10030    2    1    2    0    0  0.00000000000E+00  0.00000000000E+00 -0.13722291364E+04  0.33021793602E+04  0.30035605078E+04 0.  0.
        1    1    3    3  502    0 -0.21481311636E+03 -0.60741969179E+02 -0.23188610486E+04  0.23295816844E+04  0.50400001928E-02 0. -1.
       -1    1    3    3    0  502  0.21481311636E+03  0.60741969179E+02  0.94663191216E+03  0.97259767578E+03  0.50400001928E-02 0.  1.
</event>
<event>
 5   0  0.7585823E-07  0.3000115E+04  0.7818609E-02  0.8243698E-01
       -2   -1    0    0    0  501  0.00000000000E+00  0.00000000000E+00  0.15845925699E+04  0.15845925699E+04  0.25500000920E-02 0.  1.
        2   -1    0    0  501    0  0.00000000000E+00  0.00000000000E+00 -0.14200319035E+04  0.14200319035E+04  0.25500000920E-02 0. -1.
    10030    2    1    2    0    0  0.00000000000E+00  0.00000000000E+00  0.16456066640E+03  0.30046244734E+04  0.30001146667E+04 0.  0.
        5    1    3    3  502    0 -0.14236079822E+04  0.44938019447E+03  0.22929222856E+03  0.15103639502E+04  0.46999998093E+01 0.  1.
       -5    1    3    3    0  502  0.14236079822E+04 -0.44938019447E+03 -0.64731562152E+02  0.14942605232E+04  0.46999998093E+01 0. -1.
</event>
<event>
 5   0  0.2792361E-07  0.2997177E+04  0.7818609E-02  0.8244537E-01
        1   -1    0    0  501    0  0.00000000000E+00  0.00000000000E+00  0.18681075849E+04  0.18681075849E+04  0.50400001928E-02 0. -1.
       -1   -1    0    0    0  501  0.00000000000E+00  0.00000000000E+00 -0.12021618666E+04  0.12021618666E+04  0.50400001928E-02 0.  1.
    10030    2    1    2    0    0  0.00000000000E+00  0.00000000000E+00  0.66594571836E+03  0.30702694515E+04  0.29971771394E+04 0.  0.
        4    1    3    3  502    0  0.20244097142E+03 -0.65865886067E+02  0.18525382062E+04  0.18647305650E+04  0.12699999809E+01 0. -1.
       -4    1    3    3    0  502 -0.20244097142E+03  0.65865886067E+02 -0.11865924878E+04  0.12055388865E+04  0.12699999809E+01 0.  1.
</event>
<event>
 5   0  0.7307508E-07  0.2992079E+04  0.7818609E-02  0.8245997E-01
        2   -1    0    0  501    0  0.00000000000E+00  0.00000000000E+00  0.18496980192E+04  0.18496980192E+04  0.25500000920E-02 0. -1.
       -2   -1    0    0    0  501  0.00000000000E+00  0.00000000000E+00 -0.12099993854E+04  0.12099993854E+04  0.25500000920E-02 0.  1.
    10030    2    1    2    0    0  0.00000000000E+00  0.00000000000E+00  0.63969863382E+03  0.30596974045E+04  0.29920785192E+04 0.  0.
        1    1    3    3  502    0  0.76345836728E+03  0.46852165063E+03 -0.90545861451E+03  0.12736704905E+04  0.50400001928E-02 0.  1.
       -1    1    3    3    0  502 -0.76345836728E+03 -0.46852165063E+03  0.15451572483E+04  0.17860269141E+04  0.50400001928E-02 0. -1.
</event>
<event>
 5   0  0.2640081E-07  0.2921119E+04  0.7818609E-02  0.8266622E-01
       -1   -1    0    0    0  501  0.00000000000E+00  0.00000000000E+00  0.11005353842E+04  0.11005353842E+04  0.50400001928E-02 0. -1.
        1   -1    0    0  501    0  0.00000000000E+00  0.00000000000E+00 -0.19383596609E+04  0.19383596609E+04  0.50400001928E-02 0.  1.
    10030    2    1    2    0    0  0.00000000000E+00  0.00000000000E+00 -0.83782427665E+03  0.30388950451E+04  0.29211185489E+04 0.  0.
        1    1    3    3  502    0 -0.10397534628E+04 -0.49869287937E+03 -0.13514068189E+04  0.17765365861E+04  0.50400001928E-02 0.  1.
       -1    1    3    3    0  502  0.10397534628E+04  0.49869287937E+03  0.51358254224E+03  0.12623584591E+04  0.50400001928E-02 0. -1.
</event>
<event>
 5   0  0.7307508E-07  0.2995504E+04  0.7818609E-02  0.8245016E-01
        2   -1    0    0  501    0  0.00000000000E+00  0.00000000000E+00  0.20787987803E+04  0.20787987803E+04  0.25500000920E-02 0.  1.
       -2   -1    0    0    0  501  0.00000000000E+00  0.00000000000E+00 -0.10791141297E+04  0.10791141297E+04  0.25500000920E-02 0. -1.
    10030    2    1    2    0    0  0.00000000000E+00  0.00000000000E+00  0.99968465055E+03  0.31579129100E+04  0.29955040555E+04 0.  0.
        1    1    3    3  502    0 -0.57490398967E+03 -0.11439385550E+04 -0.31957101454E+03  0.13195588840E+04  0.50400001928E-02 0. -1.
       -1    1    3    3    0  502  0.57490398967E+03  0.11439385550E+04  0.13192556651E+04  0.18383540260E+04  0.50400001928E-02 0.  1.
</event>
<event>
 5   0  0.2792361E-07  0.3014749E+04  0.7818609E-02  0.8239532E-01
        1   -1    0    0  501    0  0.00000000000E+00  0.00000000000E+00  0.14120354324E+04  0.14120354324E+04  0.50400001928E-02 0.  1.
       -1   -1    0    0    0  501  0.00000000000E+00  0.00000000000E+00 -0.16091503609E+04  0.16091503609E+04  0.50400001928E-02 0. -1.
    10030    2    1    2    0    0  0.00000000000E+00  0.00000000000E+00 -0.19711492850E+03  0.30211857933E+04  0.30147486301E+04 0.  0.
        4    1    3    3  502    0 -0.13978009651E+04  0.49690518086E+03  0.16924602479E+03  0.14931202653E+04  0.12699999809E+01 0.  1.
       -4    1    3    3    0  502  0.13978009651E+04 -0.49690518086E+03 -0.36636095329E+03  0.15280655280E+04  0.12699999809E+01 0. -1.
</event>
<event>
 5   0  0.7278657E-07  0.3001345E+04  0.7818609E-02  0.8243347E-01
        2   -1    0    0  501    0  0.00000000000E+00  0.00000000000E+00  0.17581370345E+04  0.17581370345E+04  0.25500000920E-02 0.  1.
       -2   -1    0    0    0  501  0.00000000000E+00  0.00000000000E+00 -0.12809116434E+04  0.12809116434E+04  0.25500000920E-02 0. -1.
    10030    2    1    2    0    0  0.00000000000E+00  0.00000000000E+00  0.47722539108E+03  0.30390486780E+04  0.30013451639E+04 0.  0.
        2    1    3    3  502    0 -0.13837203616E+04  0.20723608578E+03  0.78800525139E+03  0.16057960987E+04  0.25500000920E-02 0.  1.
       -2    1    3    3    0  502  0.13837203616E+04 -0.20723608578E+03 -0.31077986031E+03  0.14332525793E+04  0.25500000920E-02 0. -1.
</event>
<event>
 5   0  0.7278657E-07  0.3000243E+04  0.7818609E-02  0.8243662E-01
       -2   -1    0    0    0  501  0.00000000000E+00  0.00000000000E+00  0.19144668982E+04  0.19144668982E+04  0.25500000920E-02 0. -1.
        2   -1    0    0  501    0  0.00000000000E+00  0.00000000000E+00 -0.11754522021E+04  0.11754522021E+04  0.25500000920E-02 0.  1.
    10030    2    1    2    0    0  0.00000000000E+00  0.00000000000E+00  0.73901469611E+03  0.30899191004E+04  0.30002428778E+04 0.  0.
        2    1    3    3  502    0  0.80972866128E+03  0.11815012008E+04 -0.89641830693E+02  0.14351450276E+04  0.25500000920E-02 0.  1.
       -2    1    3    3    0  502 -0.80972866128E+03 -0.11815012008E+04  0.82865652680E+03  0.16547740728E+04  0.25500000920E-02 0. -1.
</event>
<event>
 5   0  0.2792361E-07  0.3004690E+04  0.7818609E-02  0.8242393E-01
        1   -1    0    0  501    0  0.00000000000E+00  0.00000000000E+00  0.16673128859E+04  0.16673128859E+04  0.50400001928E-02 0.  1.
       -1   -1    0    0    0  501  0.00000000000E+00  0.00000000000E+00 -0.13536990643E+04  0.13536990643E+04  0.50400001928E-02 0. -1.
    10030    2    1    2    0    0  0.00000000000E+00  0.00000000000E+00  0.31361382154E+03  0.30210119502E+04  0.30046895970E+04 0.  0.
        4    1    3    3  502    0  0.14699856483E+04  0.12803225407E+03  0.44080944021E+03  0.15399885194E+04  0.12699999809E+01 0.  1.
       -4    1    3    3    0  502 -0.14699856483E+04 -0.12803225407E+03 -0.12719561867E+03  0.14810234308E+04  0.12699999809E+01 0. -1.
</event>
<event>
 5   0  0.2602891E-07  0.3001575E+04  0.7818609E-02  0.8243281E-01
        1   -1    0    0  501    0  0.00000000000E+00  0.00000000000E+00  0.84750155398E+03  0.84750155400E+03  0.50400001928E-02 0. -1.
       -1   -1    0    0    0  501  0.00000000000E+00  0.00000000000E+00 -0.26576514437E+04  0.26576514438E+04  0.50400001928E-02 0.  1.
    10030    2    1    2    0    0  0.00000000000E+00  0.00000000000E+00 -0.18101498898E+04  0.35051529978E+04  0.30015754054E+04 0.  0.
        5    1    3    3  502    0 -0.48246638187E+03 -0.12208278168E+03 -0.25584770115E+04  0.26064352521E+04  0.46999998093E+01 0.  1.
       -5    1    3    3    0  502  0.48246638187E+03  0.12208278168E+03  0.74832712172E+03  0.89871774563E+03  0.46999998093E+01 0. -1.
</event>
<event>
 5   0  0.2679935E-07  0.3003144E+04  0.7818609E-02  0.8242834E-01
       -1   -1    0    0    0  501  0.00000000000E+00  0.00000000000E+00  0.12310898335E+04  0.12310898335E+04  0.50400001928E-02 0. -1.
        1   -1    0    0  501    0  0.00000000000E+00  0.00000000000E+00 -0.18314817336E+04  0.18314817336E+04  0.50400001928E-02 0.  1.
    10030    2    1    2    0    0  0.00000000000E+00  0.00000000000E+00 -0.60039190006E+03  0.30625715671E+04  0.30031440474E+04 0.  0.
        2    1    3    3  502    0 -0.11962593322E+04  0.13193383878E+03 -0.12158930628E+04  0.17108006511E+04  0.25500000920E-02 0.  1.
       -2    1    3    3    0  502  0.11962593322E+04 -0.13193383878E+03  0.61550116273E+03  0.13517709159E+04  0.25500000920E-02 0. -1.
</event>
<event>
 5   0  0.7399409E-07  0.3000015E+04  0.7818609E-02  0.8243727E-01
       -2   -1    0    0    0  501  0.00000000000E+00  0.00000000000E+00  0.11543619684E+04  0.11543619684E+04  0.25500000920E-02 0.  1.
        2   -1    0    0  501    0  0.00000000000E+00  0.00000000000E+00 -0.19491477663E+04  0.19491477663E+04  0.25500000920E-02 0. -1.
    10030    2    1    2    0    0  0.00000000000E+00  0.00000000000E+00 -0.79478579790E+03  0.31035097346E+04  0.30000147014E+04 0.  0.
        3    1    3    3  502    0 -0.23734405303E+03  0.72087695169E+03 -0.17358697441E+04  0.18945288485E+04  0.10100000352E+00 0. -1.
       -3    1    3    3    0  502  0.23734405303E+03 -0.72087695169E+03  0.94108394623E+03  0.12089808861E+04  0.10100000352E+00 0.  1.
</event>
<event>
 5   0  0.2679935E-07  0.3000590E+04  0.7818609E-02  0.8243562E-01
        1   -1    0    0  501    0  0.00000000000E+00  0.00000000000E+00  0.16896916185E+04  0.16896916185E+04  0.50400001928E-02 0.  1.
       -1   -1    0    0    0  501  0.00000000000E+00  0.00000000000E+00 -0.13321275984E+04  0.13321275984E+04  0.50400001928E-02 0. -1.
    10030    2    1    2    0    0  0.00000000000E+00  0.00000000000E+00  0.35756402011E+03  0.30218192169E+04  0.30005898339E+04 0.  0.
        2    1    3    3  502    0 -0.11016642314E+04  0.57553929688E+03  0.10249499983E+04  0.16110344690E+04  0.25500000920E-02 0.  1.
       -2    1    3    3    0  502  0.11016642314E+04 -0.57553929688E+03 -0.66738597823E+03  0.14107847479E+04  0.25500000920E-02 0. -1.
</event>
<event>
 5   0  0.2640081E-07  0.2998438E+04  0.7818609E-02  0.8244177E-01
        1   -1    0    0  501    0  0.00000000000E+00  0.00000000000E+00  0.15410670271E+04  0.15410670271E+04  0.50400001928E-02 0.  1.
       -1   -1    0    0    0  501  0.00000000000E+00  0.00000000000E+00 -0.14585073443E+04  0.14585073443E+04  0.50400001928E-02 0. -1.
    10030    2    1    2    0    0  0.00000000000E+00  0.00000000000E+00  0.82559682764E+02  0.29995743714E+04  0.29984379781E+04 0.  0.
        1    1    3    3  502    0 -0.14646805771E+04  0.29368312008E+03 -0.85727359808E+02  0.14962914650E+04  0.50400001928E-02 0.  1.
       -1    1    3    3    0  502  0.14646805771E+04 -0.29368312008E+03  0.16828704257E+03  0.15032829064E+04  0.50400001928E-02 0. -1.
</event>
<event>
 5   0  0.7307508E-07  0.2999801E+04  0.7818609E-02  0.8243788E-01
        2   -1    0    0  501    0  0.00000000000E+00  0.00000000000E+00  0.13008542267E+04  0.13008542267E+04  0.25500000920E-02 0.  1.
       -2   -1    0    0    0  501  0.00000000000E+00  0.00000000000E+00 -0.17294027808E+04  0.17294027808E+04  0.25500000920E-02 0. -1.
    10030    2    1    2    0    0  0.00000000000E+00  0.00000000000E+00 -0.42854855417E+03  0.30302570075E+04  0.29998006048E+04 0.  0.
        1    1    3    3  502    0 -0.12877685040E+04  0.74363097376E+03 -0.41213578349E+03  0.15431107054E+04  0.50400001928E-02 0.  1.
       -1    1    3    3    0  502  0.12877685040E+04 -0.74363097376E+03 -0.16412770677E+02  0.14871463022E+04  0.50400001928E-02 0. -1.
</event>
<event>
 5   0  0.2414250E-07  0.2997066E+04  0.7818609E-02  0.8244569E-01
        3   -1    0    0  501    0  0.00000000000E+00  0.00000000000E+00  0.14249428154E+04  0.14249428190E+04  0.10100000352E+00 0. -1.
       -3   -1    0    0    0  501  0.00000000000E+00  0.00000000000E+00 -0.15759232839E+04  0.15759232871E+04  0.10100000352E+00 0.  1.
    10030    2    1    2    0    0  0.00000000000E+00  0.00000000000E+00 -0.15098046846E+03  0.30008661061E+04  0.29970656124E+04 0.  0.
        2    1    3    3  502    0 -0.18348017564E+02  0.24567449675E+03  0.14045275751E+04  0.14259699567E+04  0.25500000920E-02 0. -1.
       -2    1    3    3    0  502  0.18348017564E+02 -0.24567449675E+03 -0.15555080435E+04  0.15748961495E+04  0.25500000920E-02 0.  1.
</event>
<event>
 5   0  0.2602891E-07  0.2991735E+04  0.7818609E-02  0.8246095E-01
       -1   -1    0    0    0  501  0.00000000000E+00  0.00000000000E+00  0.11889559996E+04  0.11889559997E+04  0.50400001928E-02 0.  1.
        1   -1    0    0  501    0  0.00000000000E+00  0.00000000000E+00 -0.18820031755E+04  0.18820031755E+04  0.50400001928E-02 0. -1.
    10030    2    1    2    0    0  0.00000000000E+00  0.00000000000E+00 -0.69304717585E+03  0.30709591751E+04  0.29917345918E+04 0.  0.
        5    1    3    3  502    0 -0.66427233481E+03 -0.12353819467E+04 -0.88006730964E+03  0.16558885375E+04  0.46999998093E+01 0.  1.
       -5    1    3    3    0  502  0.66427233481E+03  0.12353819467E+04  0.18702013379E+03  0.14150706377E+04  0.46999998093E+01 0. -1.
</event>
<event>
 5   0  0.7278657E-07  0.3026780E+04  0.7818609E-02  0.8236125E-01
       -2   -1    0    0    0  501  0.00000000000E+00  0.00000000000E+00  0.13138823573E+04  0.13138823573E+04  0.25500000920E-02 0. -1.
        2   -1    0    0  501    0  0.00000000000E+00  0.00000000000E+00 -0.17431925459E+04  0.17431925459E+04  0.25500000920E-02 0.  1.
    10030    2    1    2    0    0  0.00000000000E+00  0.00000000000E+00 -0.42931018860E+03  0.30570749032E+04  0.30267804225E+04 0.  0.
        2    1    3    3  502    0 -0.13949883390E+04  0.12055010951E+03  0.36539705333E+03  0.14470797495E+04  0.25500000920E-02 0.  1.
       -2    1    3    3    0  502  0.13949883390E+04 -0.12055010951E+03 -0.79470724193E+03  0.16099951538E+04  0.25500000920E-02 0. -1.
</event>
<event>
 5   0  0.7278657E-07  0.3005724E+04  0.7818609E-02  0.8242098E-01
       -2   -1    0    0    0  501  0.00000000000E+00  0.00000000000E+00  0.87405067596E+03  0.87405067597E+03  0.25500000920E-02 0.  1.
        2   -1    0    0  501    0  0.00000000000E+00  0.00000000000E+00 -0.25840536002E+04  0.25840536002E+04  0.25500000920E-02 0. -1.
    10030    2    1    2    0    0  0.00000000000E+00  0.00000000000E+00 -0.17100029243E+04  0.34581042762E+04  0.30057237372E+04 0.  0.
        2    1    3    3  502    0  0.26666015343E+03 -0.92269432055E+03  0.47487707056E+03  0.10714386024E+04  0.25500000920E-02 0.  1.
       -2    1    3    3    0  502 -0.26666015343E+03  0.92269432055E+03 -0.21848799948E+04  0.23866656738E+04  0.25500000920E-02 0. -1.
</event>
<event>
 5   0  0.2621825E-07  0.2999652E+04  0.7818609E-02  0.8243830E-01
       -1   -1    0    0    0  501  0.00000000000E+00  0.00000000000E+00  0.22695031733E+04  0.22695031733E+04  0.50400001928E-02 0.  1.
        1   -1    0    0  501    0  0.00000000000E+00  0.00000000000E+00 -0.99117668250E+03  0.99117668252E+03  0.50400001928E-02 0. -1.
    10030    2    1    2    0    0  0.00000000000E+00  0.00000000000E+00  0.12783264908E+04  0.32606798558E+04  0.29996523974E+04 0.  0.
        3    1    3    3  502    0  0.13728173949E+04 -0.60400060337E+03  0.64552834323E+03  0.16328353195E+04  0.10100000352E+00 0. -1.
       -3    1    3    3    0  502 -0.13728173949E+04  0.60400060337E+03  0.63279814756E+03  0.16278445363E+04  0.10100000352E+00 0.  1.
</event>
<event>
 5   0  0.7585823E-07  0.2997082E+04  0.7818609E-02  0.8244564E-01
        2   -1    0    0  501    0  0.00000000000E+00  0.00000000000E+00  0.25447883396E+04  0.25447883396E+04  0.25500000920E-02 0.  1.
       -2   -1    0    0    0  501  0.00000000000E+00  0.00000000000E+00 -0.88244110745E+03  0.88244110746E+03  0.25500000920E-02 0. -1.
    10030    2    1    2    0    0  0.00000000000E+00  0.00000000000E+00  0.16623472322E+04  0.34272294471E+04  0.29970824751E+04 0.  0.
        5    1    3    3  502    0 -0.22584013060E+03 -0.14447493138E+04  0.45659485771E+03  0.15319286206E+04  0.46999998093E+01 0. -1.
       -5    1    3    3    0  502  0.22584013060E+03  0.14447493138E+04  0.12057523745E+04  0.18953008265E+04  0.46999998093E+01 0.  1.
</event>
<event>
 5   0  0.2792361E-07  0.2999995E+04  0.7818609E-02  0.8243732E-01
       -1   -1    0    0    0  501  0.00000000000E+00  0.00000000000E+00  0.10813394443E+04  0.10813394443E+04  0.50400001928E-02 0. -1.
        1   -1    0    0  501    0  0.00000000000E+00  0.00000000000E+00 -0.20807460921E+04  0.20807460921E+04  0.50400001928E-02 0.  1.
    10030    2    1    2    0    0  0.00000000000E+00  0.00000000000E+00 -0.99940664781E+03  0.31620855365E+04  0.29999952154E+04 0.  0.
        4    1    3    3  502    0 -0.25553931810E+03  0.10654227252E+04  0.58013262179E+03  0.12397505387E+04  0.12699999809E+01 0. -1.
       -4    1    3    3    0  502  0.25553931810E+03 -0.10654227252E+04 -0.15795392696E+04  0.19223349978E+04  0.12699999809E+01 0.  1.
</event>
<event>
 5   0  0.7278657E-07  0.2995986E+04  0.7818609E-02  0.8244878E-01
        2   -1    0    0  501    0  0.00000000000E+00  0.00000000000E+00  0.23973685415E+04  0.23973685415E+04  0.25500000920E-02 0.  1.
       -2   -1    0    0    0  501  0.00000000000E+00  0.00000000000E+00 -0.93601919232E+03  0.93601919232E+03  0.25500000920E-02 0. -1.
    10030    2    1    2    0    0  0.00000000000E+00  0.00000000000E+00  0.14613493492E+04  0.33333877338E+04  0.29959859585E+04 0.  0.
        2    1    3    3  502    0  0.24418562335E+03  0.35833046463E+03  0.23260134748E+04  0.23660866480E+04  0.25500000920E-02 0.  1.
       -2    1    3    3    0  502 -0.24418562335E+03 -0.35833046463E+03 -0.86466412565E+03  0.96730108587E+03  0.25500000920E-02 0. -1.
</event>
<event>
 5   0  0.2602891E-07  0.2999701E+04  0.7818609E-02  0.8243816E-01
       -1   -1    0    0    0  501  0.00000000000E+00  0.00000000000E+00  0.87652024932E+03  0.87652024934E+03  0.50400001928E-02 0. -1.
        1   -1    0    0  501    0  0.00000000000E+00  0.00000000000E+00 -0.25664572539E+04  0.25664572539E+04  0.50400001928E-02 0.  1.
    10030    2    1    2    0    0  0.00000000000E+00  0.00000000000E+00 -0.16899370046E+04  0.34429775032E+04  0.29997011532E+04 0.  0.
        5    1    3    3  502    0  0.12161034136E+04  0.11818331839E+02  0.16251415242E+03  0.12269800835E+04  0.46999998093E+01 0. -1.
       -5    1    3    3    0  502 -0.12161034136E+04 -0.11818331839E+02 -0.18524511570E+04  0.22159974198E+04  0.46999998093E+01 0.  1.
</event>
<event>
 5   0  0.2414250E-07  0.2996435E+04  0.7818609E-02  0.8244750E-01
        3   -1    0    0  501    0  0.00000000000E+00  0.00000000000E+00  0.13839895308E+04  0.13839895345E+04  0.10100000352E+00 0.  1.
       -3   -1    0    0    0  501  0.00000000000E+00  0.00000000000E+00 -0.16218729677E+04  0.16218729708E+04  0.10100000352E+00 0. -1.
    10030    2    1    2    0    0  0.00000000000E+00  0.00000000000E+00 -0.23788343686E+03  0.30058625053E+04  0.29964346933E+04 0.  0.
        2    1    3    3  502    0  0.76690702891E+03 -0.69797510076E+03  0.96582067432E+03  0.14170833452E+04  0.25500000920E-02 0.  1.
       -2    1    3    3    0  502 -0.76690702891E+03  0.69797510076E+03 -0.12037041112E+04  0.15887791601E+04  0.25500000920E-02 0. -1.
</event>
<event>
 5   0  0.2679935E-07  0.2979265E+04  0.7818609E-02  0.8249677E-01
       -1   -1    0    0    0  501  0.00000000000E+00  0.00000000000E+00  0.13297028650E+04  0.13297028651E+04  0.50400001928E-02 0.  1.
        1   -1    0    0  501    0  0.00000000000E+00  0.00000000000E+00 -0.16687976672E+04  0.16687976672E+04  0.50400001928E-02 0. -1.
    10030    2    1    2    0    0  0.00000000000E+00  0.00000000000E+00 -0.33909480217E+03  0.29985005323E+04  0.29792650364E+04 0.  0.
        2    1    3    3  502    0  0.59684230870E+03 -0.14360811542E+03 -0.15355728272E+04  0.16537315199E+04  0.25500000920E-02 0. -1.
       -2    1    3    3    0  502 -0.59684230870E+03  0.14360811542E+03  0.11964780250E+04  0.13447690124E+04  0.25500000920E-02 0.  1.
</event>
<event>
 5   0  0.2602891E-07  0.3023802E+04  0.7818609E-02  0.8236966E-01
       -1   -1    0    0    0  501  0.00000000000E+00  0.00000000000E+00  0.10089411096E+04  0.10089411096E+04  0.50400001928E-02 0. -1.
        1   -1    0    0  501    0  0.00000000000E+00  0.00000000000E+00 -0.22655883856E+04  0.22655883856E+04  0.50400001928E-02 0.  1.
    10030    2    1    2    0    0  0.00000000000E+00  0.00000000000E+00 -0.12566472760E+04  0.32745294952E+04  0.30238024139E+04 0.  0.
        5    1    3    3  502    0  0.12884619548E+04  0.77986056803E+03 -0.77160661780E+03  0.16922516294E+04  0.46999998093E+01 0. -1.
       -5    1    3    3    0  502 -0.12884619548E+04 -0.77986056803E+03 -0.48504065821E+03  0.15822778658E+04  0.46999998093E+01 0.  1.
</event>
<event>
 5   0  0.7278657E-07  0.2994678E+04  0.7818609E-02  0.8245252E-01
       -2   -1    0    0    0  501  0.00000000000E+00  0.00000000000E+00  0.10783376523E+04  0.10783376523E+04  0.25500000920E-02 0. -1.
        2   -1    0    0  501    0  0.00000000000E+00  0.00000000000E+00 -0.20791485440E+04  0.20791485440E+04  0.25500000920E-02 0.  1.
    10030    2    1    2    0    0  0.00000000000E+00  0.00000000000E+00 -0.10008108916E+04  0.31574861963E+04  0.29946780526E+04 0.  0.
        2    1    3    3  502    0 -0.35557257644E+03  0.71791927202E+03 -0.18341612204E+04  0.20014962704E+04  0.25500000920E-02 0.  1.
       -2    1    3    3    0  502  0.35557257644E+03 -0.71791927202E+03  0.83335032873E+03  0.11559899258E+04  0.25500000920E-02 0. -1.
</event>
<event>
 5   0  0.7278657E-07  0.2999109E+04  0.7818609E-02  0.8243985E-01
        2   -1    0    0  501    0  0.00000000000E+00  0.00000000000E+00  0.13522173139E+04  0.13522173139E+04  0.25500000920E-02 0.  1.
       -2   -1    0    0    0  501  0.00000000000E+00  0.00000000000E+00 -0.16629453731E+04  0.16629453731E+04  0.25500000920E-02 0. -1.
    10030    2    1    2    0    0  0.00000000000E+00  0.00000000000E+00 -0.31072805923E+03  0.30151626870E+04  0.29991088847E+04 0.  0.
        2    1    3    3  502    0 -0.32069206482E+03 -0.68443937326E+03 -0.14574271232E+04  0.16417656579E+04  0.25500000920E-02 0. -1.
       -2    1    3    3    0  502  0.32069206482E+03  0.68443937326E+03  0.11466990640E+04  0.13733970291E+04  0.25500000920E-02 0.  1.
</event>
<event>
 5   0  0.2792361E-07  0.2997269E+04  0.7818609E-02  0.8244511E-01
        1   -1    0    0  501    0  0.00000000000E+00  0.00000000000E+00  0.23763350918E+04  0.23763350918E+04  0.50400001928E-02 0.  1.
       -1   -1    0    0    0  501  0.00000000000E+00  0.00000000000E+00 -0.94511302871E+03  0.94511302872E+03  0.50400001928E-02 0. -1.
    10030    2    1    2    0    0  0.00000000000E+00  0.00000000000E+00  0.14312220631E+04  0.33214481205E+04  0.29972689275E+04 0.  0.
        4    1    3    3  502    0  0.34288239137E+03  0.11204953116E+04  0.17509093083E+04  0.21068372259E+04  0.12699999809E+01 0.  1.
       -4    1    3    3    0  502 -0.34288239137E+03 -0.11204953116E+04 -0.31968724522E+03  0.12146108946E+04  0.12699999809E+01 0. -1.
</event>
<event>
 5   0  0.7208273E-07  0.3003828E+04  0.7818609E-02  0.8242639E-01
        2   -1    0    0  501    0  0.00000000000E+00  0.00000000000E+00  0.99822754536E+03  0.99822754536E+03  0.25500000920E-02 0.  1.
       -2   -1    0    0    0  501  0.00000000000E+00  0.00000000000E+00 -0.22597509379E+04  0.22597509379E+04  0.25500000920E-02 0. -1.
    10030    2    1    2    0    0  0.00000000000E+00  0.00000000000E+00 -0.12615233926E+04  0.32579784833E+04  0.30038279790E+04 0.  0.
        4    1    3    3  502    0  0.12734128199E+04 -0.24456477457E+03  0.19122005726E+03  0.13107092973E+04  0.12699999809E+01 0.  1.
       -4    1    3    3    0  502 -0.12734128199E+04  0.24456477457E+03 -0.14527434498E+04  0.19472691860E+04  0.12699999809E+01 0. -1.
</event>
<event>
 5   0  0.2414250E-07  0.2990298E+04  0.7818609E-02  0.8246507E-01
        3   -1    0    0  501    0  0.00000000000E+00  0.00000000000E+00  0.15014839644E+04  0.15014839678E+04  0.10100000352E+00 0.  1.
       -3   -1    0    0    0  501  0.00000000000E+00  0.00000000000E+00 -0.14888409516E+04  0.14888409550E+04  0.10100000352E+00 0. -1.
    10030    2    1    2    0    0  0.00000000000E+00  0.00000000000E+00  0.12643012797E+02  0.29903249228E+04  0.29902981955E+04 0.  0.
        3    1    3    3  502    0 -0.18275301755E+03 -0.10079607192E+04  0.10954076095E+04  0.14997670880E+04  0.10100000352E+00 0.  1.
       -3    1    3    3    0  502  0.18275301755E+03  0.10079607192E+04 -0.10827645967E+04  0.14905578349E+04  0.10100000352E+00 0. -1.
</event>
<event>
 5   0  0.2414250E-07  0.3001591E+04  0.7818609E-02  0.8243277E-01
        3   -1    0    0  501    0  0.00000000000E+00  0.00000000000E+00  0.26157042313E+04  0.26157042333E+04  0.10100000352E+00 0.  1.
       -3   -1    0    0    0  501  0.00000000000E+00  0.00000000000E+00 -0.86110154284E+03  0.86110154876E+03  0.10100000352E+00 0. -1.
    10030    2    1    2    0    0  0.00000000000E+00  0.00000000000E+00  0.17546026885E+04  0.34768057820E+04  0.30015908868E+04 0.  0.
        2    1    3    3  502    0 -0.12597258665E+04  0.51210154384E+03  0.16128394830E+04  0.21095991202E+04  0.25500000920E-02 0.  1.
       -2    1    3    3    0  502  0.12597258665E+04 -0.51210154384E+03  0.14176320547E+03  0.13672066619E+04  0.25500000920E-02 0. -1.
</event>
<event>
 5   0  0.2621825E-07  0.3000061E+04  0.7818609E-02  0.8243714E-01
        1   -1    0    0  501    0  0.00000000000E+00  0.00000000000E+00  0.14754357925E+04  0.14754357925E+04  0.50400001928E-02 0. -1.
       -1   -1    0    0    0  501  0.00000000000E+00  0.00000000000E+00 -0.15250349749E+04  0.15250349749E+04  0.50400001928E-02 0.  1.
    10030    2    1    2    0    0  0.00000000000E+00  0.00000000000E+00 -0.49599182381E+02  0.30004707674E+04  0.30000607906E+04 0.  0.
        3    1    3    3  502    0 -0.95183489585E+02  0.13573117445E+04  0.60674224836E+03  0.14897957023E+04  0.10100000352E+00 0. -1.
       -3    1    3    3    0  502  0.95183489585E+02 -0.13573117445E+04 -0.65634143074E+03  0.15106750651E+04  0.10100000352E+00 0.  1.
</event>
<event>
 5   0  0.7278657E-07  0.3001631E+04  0.7818609E-02  0.8243265E-01
       -2   -1    0    0    0  501  0.00000000000E+00  0.00000000000E+00  0.13686218084E+04  0.13686218084E+04  0.25500000920E-02 0. -1.
        2   -1    0    0  501    0  0.00000000000E+00  0.00000000000E+00 -0.16457778125E+04  0.16457778125E+04  0.25500000920E-02 0.  1.
    10030    2    1    2    0    0  0.00000000000E+00  0.00000000000E+00 -0.27715600406E+03  0.30143996208E+04  0.30016311605E+04 0.  0.
        2    1    3    3  502    0 -0.11471157967E+03 -0.10854358624E+04 -0.11730655561E+04  0.16023147497E+04  0.25500000920E-02 0.  1.
       -2    1    3    3    0  502  0.11471157967E+03  0.10854358624E+04  0.89590955209E+03  0.14120848712E+04  0.25500000920E-02 0. -1.
</event>
<event>
 5   0  0.2640081E-07  0.2998473E+04  0.7818609E-02  0.8244167E-01
        1   -1    0    0  501    0  0.00000000000E+00  0.00000000000E+00  0.16663894507E+04  0.16663894507E+04  0.50400001928E-02 0. -1.
       -1   -1    0    0    0  501  0.00000000000E+00  0.00000000000E+00 -0.13488503499E+04  0.13488503499E+04  0.50400001928E-02 0.  1.
    10030    2    1    2    0    0  0.00000000000E+00  0.00000000000E+00  0.31753910077E+03  0.30152398007E+04  0.29984729405E+04 0.  0.
        1    1    3    3  502    0 -0.13209904266E+04 -0.28019541424E+03 -0.49616708236E+03  0.14386476118E+04  0.50400001928E-02 0.  1.
       -1    1    3    3    0  502  0.13209904266E+04  0.28019541424E+03  0.81370618314E+03  0.15765921888E+04  0.50400001928E-02 0. -1.
</event>
<event>
 5   0  0.7278657E-07  0.2996057E+04  0.7818609E-02  0.8244858E-01
        2   -1    0    0  501    0  0.00000000000E+00  0.00000000000E+00  0.21678929840E+04  0.21678929840E+04  0.25500000920E-02 0. -1.
       -2   -1    0    0    0  501  0.00000000000E+00  0.00000000000E+00 -0.10351474267E+04  0.10351474267E+04  0.25500000920E-02 0.  1.
    10030    2    1    2    0    0  0.00000000000E+00  0.00000000000E+00  0.11327455573E+04  0.32030404107E+04  0.29960566375E+04 0.  0.
        2    1    3    3  502    0 -0.12590750007E+03 -0.88127520577E+03 -0.72168221666E+03  0.11460034506E+04  0.25500000920E-02 0.  1.
       -2    1    3    3    0  502  0.12590750007E+03  0.88127520577E+03  0.18544277739E+04  0.20570369602E+04  0.25500000920E-02 0. -1.
</event>
<event>
 5   0  0.7278657E-07  0.3001529E+04  0.7818609E-02  0.8243295E-01
        2   -1    0    0  501    0  0.00000000000E+00  0.00000000000E+00  0.12712634316E+04  0.12712634316E+04  0.25500000920E-02 0.  1.
       -2   -1    0    0    0  501  0.00000000000E+00  0.00000000000E+00 -0.17716968231E+04  0.17716968231E+04  0.25500000920E-02 0. -1.
    10030    2    1    2    0    0  0.00000000000E+00  0.00000000000E+00 -0.50043339155E+03  0.30429602547E+04  0.30015285327E+04 0.  0.
        2    1    3    3  502    0  0.19679899913E+03 -0.92702263095E+03 -0.14299776500E+04  0.17154990189E+04  0.25500000920E-02 0. -1.
       -2    1    3    3    0  502 -0.19679899913E+03  0.92702263095E+03  0.92954425841E+03  0.13274612359E+04  0.25500000920E-02 0.  1.
</event>
<event>
 5   0  0.2621825E-07  0.3005414E+04  0.7818609E-02  0.8242186E-01
       -1   -1    0    0    0  501  0.00000000000E+00  0.00000000000E+00  0.16082838768E+04  0.16082838768E+04  0.50400001928E-02 0.  1.
        1   -1    0    0  501    0  0.00000000000E+00  0.00000000000E+00 -0.14040611798E+04  0.14040611798E+04  0.50400001928E-02 0. -1.
    10030    2    1    2    0    0  0.00000000000E+00  0.00000000000E+00  0.20422269705E+03  0.30123450566E+04  0.30054144190E+04 0.  0.
        3    1    3    3  502    0 -0.72959720493E+03 -0.59482252498E+03  0.12761378144E+04  0.15857659503E+04  0.10100000352E+00 0.  1.
       -3    1    3    3    0  502  0.72959720493E+03  0.59482252498E+03 -0.10719151173E+04  0.14265791063E+04  0.10100000352E+00 0. -1.
</event>
<event>
 5   0  0.2640081E-07  0.3003697E+04  0.7818609E-02  0.8242676E-01
        1   -1    0    0  501    0  0.00000000000E+00  0.00000000000E+00  0.20004216852E+04  0.20004216852E+04  0.50400001928E-02 0.  1.
       -1   -1    0    0    0  501  0.00000000000E+00  0.00000000000E+00 -0.11275364456E+04  0.11275364457E+04  0.50400001928E-02 0. -1.
    10030    2    1    2    0    0  0.00000000000E+00  0.00000000000E+00  0.87288523956E+03  0.31279581309E+04  0.30036966270E+04 0.  0.
        1    1    3    3  502    0 -0.72198575537E+03  0.10981225684E+04 -0.32054904524E+03  0.13527336385E+04  0.50400001928E-02 0. -1.
       -1    1    3    3    0  502  0.72198575537E+03 -0.10981225684E+04  0.11934342848E+04  0.17752244924E+04  0.50400001928E-02 0.  1.
</event>
<event>
 5   0  0.2621825E-07  0.2998704E+04  0.7818609E-02  0.8244101E-01
       -1   -1    0    0    0  501  0.00000000000E+00  0.00000000000E+00  0.11171671366E+04  0.11171671366E+04  0.50400001928E-02 0.  1.
        1   -1    0    0  501    0  0.00000000000E+00  0.00000000000E+00 -0.20122824310E+04  0.20122824310E+04  0.50400001928E-02 0. -1.
    10030    2    1    2    0    0  0.00000000000E+00  0.00000000000E+00 -0.89511529445E+03  0.31294495676E+04  0.29987035875E+04 0.  0.
        3    1    3    3  502    0  0.18565022687E+03  0.13492768509E+04 -0.11018227675E+04  0.17518639925E+04  0.10100000352E+00 0.  1.
       -3    1    3    3    0  502 -0.18565022687E+03 -0.13492768509E+04  0.20670747303E+03  0.13775855751E+04  0.10100000352E+00 0. -1.
</event>
<event>
 5   0  0.2414250E-07  0.2996999E+04  0.7818609E-02  0.8244588E-01
        3   -1    0    0  501    0  0.00000000000E+00  0.00000000000E+00  0.15593676255E+04  0.15593676288E+04  0.10100000352E+00 0.  1.
       -3   -1    0    0    0  501  0.00000000000E+00  0.00000000000E+00 -0.14400074657E+04  0.14400074692E+04  0.10100000352E+00 0. -1.
    10030    2    1    2    0    0  0.00000000000E+00  0.00000000000E+00  0.11936015979E+03  0.29993750980E+04  0.29969991877E+04 0.  0.
        1    1    3    3  502    0 -0.53430810408E+02 -0.88520697798E+03  0.12685510713E+04  0.15477945813E+04  0.50400001928E-02 0.  1.
       -1    1    3    3    0  502  0.53430810408E+02  0.88520697798E+03 -0.11491909115E+04  0.14515805167E+04  0.50400001928E-02 0. -1.
</event>
<event>
 5   0  0.2792361E-07  0.2995165E+04  0.7818609E-02  0.8245113E-01
        1   -1    0    0  501    0  0.00000000000E+00  0.00000000000E+00  0.24856841368E+04  0.24856841368E+04  0.50400001928E-02 0. -1.
       -1   -1    0    0    0  501  0.00000000000E+00  0.00000000000E+00 -0.90226823874E+03  0.90226823876E+03  0.50400001928E-02 0.  1.
    10030    2    1    2    0    0  0.00000000000E+00  0.00000000000E+00  0.15834158980E+04  0.33879523755E+04  0.29951653365E+04 0.  0.
        4    1    3    3  502    0  0.14049848135E+04  0.51752857564E+03  0.75713717619E+03  0.16778189620E+04  0.12699999809E+01 0. -1.
       -4    1    3    3    0  502 -0.14049848135E+04 -0.51752857564E+03  0.82627872182E+03  0.17101334135E+04  0.12699999809E+01 0.  1.
</event>
<event>
 5   0  0.2792361E-07  0.2992107E+04  0.7818609E-02  0.8245988E-01
       -1   -1    0    0    0  501  0.00000000000E+00  0.00000000000E+00  0.16758090071E+04  0.16758090071E+04  0.50400001928E-02 0.  1.
        1   -1    0    0  501    0  0.00000000000E+00  0.00000000000E+00 -0.13355798416E+04  0.13355798416E+04  0.50400001928E-02 0. -1.
    10030    2    1    2    0    0  0.00000000000E+00  0.00000000000E+00  0.34022916542E+03  0.30113888487E+04  0.29921074368E+04 0.  0.
        4    1    3    3  502    0 -0.13156319230E+04  0.64802417229E+03  0.46757360859E+03  0.15393015874E+04  0.12699999809E+01 0.  1.
       -4    1    3    3    0  502  0.13156319230E+04 -0.64802417229E+03 -0.12734444317E+03  0.14720872613E+04  0.12699999809E+01 0. -1.
</event>
<event>
 5   0  0.7307508E-07  0.3001348E+04  0.7818609E-02  0.8243346E-01
       -2   -1    0    0    0  501  0.00000000000E+00  0.00000000000E+00  0.12760270363E+04  0.12760270363E+04  0.25500000920E-02 0. -1.
        2   -1    0    0  501    0  0.00000000000E+00  0.00000000000E+00 -0.17648704873E+04  0.17648704873E+04  0.25500000920E-02 0.  1.
    10030    2    1    2    0    0  0.00000000000E+00  0.00000000000E+00 -0.48884345103E+03  0.30408975236E+04  0.30013480020E+04 0.  0.
        1    1    3    3  502    0 -0.10778868527E+04  0.74620113828E+03  0.49552115674E+03  0.14014982778E+04  0.50400001928E-02 0. -1.
       -1    1    3    3    0  502  0.10778868527E+04 -0.74620113828E+03 -0.98436460777E+03  0.16393992457E+04  0.50400001928E-02 0.  1.
</event>
<event>
 5   0  0.7399409E-07  0.3023840E+04  0.7818609E-02  0.8236956E-01
       -2   -1    0    0    0  501  0.00000000000E+00  0.00000000000E+00  0.12787528988E+04  0.12787528988E+04  0.25500000920E-02 0.  1.
        2   -1    0    0  501    0  0.00000000000E+00  0.00000000000E+00 -0.17876021592E+04  0.17876021592E+04  0.25500000920E-02 0. -1.
    10030    2    1    2    0    0  0.00000000000E+00  0.00000000000E+00 -0.50884926039E+03  0.30663550580E+04  0.30238395745E+04 0.  0.
        3    1    3    3  502    0  0.16251426330E+03 -0.26970580807E+03  0.12451331174E+04  0.12843319660E+04  0.10100000352E+00 0.  1.
       -3    1    3    3    0  502 -0.16251426330E+03  0.26970580807E+03 -0.17539823778E+04  0.17820230920E+04  0.10100000352E+00 0. -1.
</event>
<event>
 5   0  0.2414250E-07  0.2993242E+04  0.7818609E-02  0.8245663E-01
        3   -1    0    0  501    0  0.00000000000E+00  0.00000000000E+00  0.76875756568E+03  0.76875757231E+03  0.10100000352E+00 0.  1.
       -3   -1    0    0    0  501  0.00000000000E+00  0.00000000000E+00 -0.29136296999E+04  0.29136297016E+04  0.10100000352E+00 0. -1.
    10030    2    1    2    0    0  0.00000000000E+00  0.00000000000E+00 -0.21448721342E+04  0.36823872739E+04  0.29932423161E+04 0.  0.
        2    1    3    3  502    0  0.20797150480E+03  0.13373114568E+04 -0.18584588885E+04  0.22990266461E+04  0.25500000920E-02 0. -1.
       -2    1    3    3    0  502 -0.20797150480E+03 -0.13373114568E+04 -0.28641324569E+03  0.13833606278E+04  0.25500000920E-02 0.  1.
</event>
<event>
 5   0  0.7278657E-07  0.2998955E+04  0.7818609E-02  0.8244029E-01
        2   -1    0    0  501    0  0.00000000000E+00  0.00000000000E+00  0.13881753270E+04  0.13881753270E+04  0.25500000920E-02 0.  1.
       -2   -1    0    0    0  501  0.00000000000E+00  0.00000000000E+00 -0.16197036494E+04  0.16197036494E+04  0.25500000920E-02 0. -1.
    10030    2    1    2    0    0  0.00000000000E+00  0.00000000000E+00 -0.23152832242E+03  0.30078789765E+04  0.29989549135E+04 0.  0.
        2    1    3    3  502    0 -0.11466320954E+04 -0.87178711918E+02 -0.10809517056E+04  0.15782337849E+04  0.25500000920E-02 0. -1.
       -2    1    3    3    0  502  0.11466320954E+04  0.87178711918E+02  0.84942338317E+03  0.14296451916E+04  0.25500000920E-02 0.  1.
</event>
<event>
 5   0  0.7208273E-07  0.2996823E+04  0.7818609E-02  0.8244639E-01
       -2   -1    0    0    0  501  0.00000000000E+00  0.00000000000E+00  0.10185171439E+04  0.10185171439E+04  0.25500000920E-02 0.  1.
        2   -1    0    0  501    0  0.00000000000E+00  0.00000000000E+00 -0.22044176463E+04  0.22044176463E+04  0.25500000920E-02 0. -1.
    10030    2    1    2    0    0  0.00000000000E+00  0.00000000000E+00 -0.11859005024E+04  0.32229347903E+04  0.29968230947E+04 0.  0.
        4    1    3    3  502    0  0.36551332605E+03  0.43627739664E+03  0.89774109766E+03  0.10629575013E+04  0.12699999809E+01 0.  1.
       -4    1    3    3    0  502 -0.36551332605E+03 -0.43627739664E+03 -0.20836416000E+04  0.21599772889E+04  0.12699999809E+01 0. -1.
</event>
<event>
 5   0  0.2792361E-07  0.3002048E+04  0.7818609E-02  0.8243146E-01
       -1   -1    0    0    0  501  0.00000000000E+00  0.00000000000E+00  0.25243532088E+04  0.25243532088E+04  0.50400001928E-02 0. -1.
        1   -1    0    0  501    0  0.00000000000E+00  0.00000000000E+00 -0.89253485244E+03  0.89253485246E+03  0.50400001928E-02 0.  1.
    10030    2    1    2    0    0  0.00000000000E+00  0.00000000000E+00  0.16318183564E+04  0.34168880613E+04  0.30020481134E+04 0.  0.
        4    1    3    3  502    0  0.62214212579E+03 -0.12264233507E+04  0.13120130425E+03  0.13814450604E+04  0.12699999809E+01 0.  1.
       -4    1    3    3    0  502 -0.62214212579E+03  0.12264233507E+04  0.15006170521E+04  0.20354430009E+04  0.12699999809E+01 0. -1.
</event>
<event>
 5   0  0.7585823E-07  0.3001109E+04  0.7818609E-02  0.8243414E-01
        2   -1    0    0  501    0  0.00000000000E+00  0.00000000000E+00  0.21781308303E+04  0.21781308303E+04  0.25500000920E-02 0. -1.
       -2   -1    0    0    0  501  0.00000000000E+00  0.00000000000E+00 -0.10337594819E+04  0.10337594819E+04  0.25500000920E-02 0.  1.
    10030    2    1    2    0    0  0.00000000000E+00  0.00000000000E+00  0.11443713484E+04  0.32118903121E+04  0.30011087275E+04 0.  0.
        5    1    3    3  502    0 -0.13919739795E+04 -0.33331497625E+03  0.90044256904E+02  0.14341619474E+04  0.46999998093E+01 0.  1.
       -5    1    3    3    0  502  0.13919739795E+04  0.33331497625E+03  0.10543270915E+04  0.17777283648E+04  0.46999998093E+01 0. -1.
</event>
<event>
 5   0  0.7307508E-07  0.3000146E+04  0.7818609E-02  0.8243689E-01
       -2   -1    0    0    0  501  0.00000000000E+00  0.00000000000E+00  0.13577418293E+04  0.13577418293E+04  0.25500000920E-02 0. -1.
        2   -1    0    0  501    0  0.00000000000E+00  0.00000000000E+00 -0.16573245467E+04  0.16573245467E+04  0.25500000920E-02 0.  1.
    10030    2    1    2    0    0  0.00000000000E+00  0.00000000000E+00 -0.29958271740E+03  0.30150663760E+04  0.30001459043E+04 0.  0.
        1    1    3    3  502    0  0.91478344848E+03  0.63790003951E+03  0.85842956181E+03  0.14073544439E+04  0.50400001928E-02 0. -1.
       -1    1    3    3    0  502 -0.91478344848E+03 -0.63790003951E+03 -0.11580122792E+04  0.16077119322E+04  0.50400001928E-02 0.  1.
</event>
<event>
 5   0  0.2792361E-07  0.2996920E+04  0.7818609E-02  0.8244611E-01
        1   -1    0    0  501    0  0.00000000000E+00  0.00000000000E+00  0.14104968600E+04  0.14104968600E+04  0.50400001928E-02 0. -1.
       -1   -1    0    0    0  501  0.00000000000E+00  0.00000000000E+00 -0.15919092045E+04  0.15919092045E+04  0.50400001928E-02 0.  1.
    10030    2    1    2    0    0  0.00000000000E+00  0.00000000000E+00 -0.18141234449E+03  0.30024060646E+04  0.29969203756E+04 0.  0.
        4    1    3    3  502    0 -0.95753521478E+03 -0.11525204725E+04 -0.10502199373E+03  0.15020680275E+04  0.12699999809E+01 0.  1.
       -4    1    3    3    0  502  0.95753521478E+03  0.11525204725E+04 -0.76390350755E+02  0.15003380371E+04  0.12699999809E+01 0. -1.
</event>
<event>
 5   0  0.2621825E-07  0.2995909E+04  0.7818609E-02  0.8244900E-01
       -1   -1    0    0    0  501  0.00000000000E+00  0.00000000000E+00  0.15232896009E+04  0.15232896009E+04  0.50400001928E-02 0.  1.
        1   -1    0    0  501    0  0.00000000000E+00  0.00000000000E+00 -0.14730405211E+04  0.14730405211E+04  0.50400001928E-02 0. -1.
    10030    2    1    2    0    0  0.00000000000E+00  0.00000000000E+00  0.50249079811E+02  0.29963301220E+04  0.29959087486E+04 0.  0.
        3    1    3    3  502    0  0.14049628253E+04  0.51474040438E+03 -0.45518764710E+02  0.14969803581E+04  0.10100000352E+00 0. -1.
       -3    1    3    3    0  502 -0.14049628253E+04 -0.51474040438E+03  0.95767844521E+02  0.14993497639E+04  0.10100000352E+00 0.  1.
</event>
<event>
 5   0  0.7208273E-07  0.2985159E+04  0.7818609E-02  0.8247982E-01
        2   -1    0    0  501    0  0.00000000000E+00  0.00000000000E+00  0.16554822558E+04  0.16554822558E+04  0.25500000920E-02 0.  1.
       -2   -1    0    0    0  501  0.00000000000E+00  0.00000000000E+00 -0.13457063309E+04  0.13457063309E+04  0.25500000920E-02 0. -1.
    10030    2    1    2    0    0  0.00000000000E+00  0.00000000000E+00  0.30977592488E+03  0.30011885867E+04  0.29851585904E+04 0.  0.
        4    1    3    3  502    0  0.10249995390E+04  0.30384414791E+03 -0.89226452170E+03  0.13925095730E+04  0.12699999809E+01 0. -1.
       -4    1    3    3    0  502 -0.10249995390E+04 -0.30384414791E+03  0.12020404466E+04  0.16086790138E+04  0.12699999809E+01 0.  1.
</event>
<event>
 5   0  0.7399409E-07  0.3000228E+04  0.7818609E-02  0.8243666E-01
        2   -1    0    0  501    0  0.00000000000E+00  0.00000000000E+00  0.21915518610E+04  0.21915518610E+04  0.25500000920E-02 0.  1.
       -2   -1    0    0    0  501  0.00000000000E+00  0.00000000000E+00 -0.10268261221E+04  0.10268261221E+04  0.25500000920E-02 0. -1.
    10030    2    1    2    0    0  0.00000000000E+00  0.00000000000E+00  0.11647257389E+04  0.32183779831E+04  0.30002284572E+04 0.  0.
        3    1    3    3  502    0  0.17823488813E+03  0.13079157254E+04 -0.18215084862E+03  0.13325127248E+04  0.10100000352E+00 0. -1.
       -3    1    3    3    0  502 -0.17823488813E+03 -0.13079157254E+04  0.13468765875E+04  0.18858652582E+04  0.10100000352E+00 0.  1.
</event>
<event>
 5   0  0.7278657E-07  0.2999525E+04  0.7818609E-02  0.8243866E-01
       -2   -1    0    0    0  501  0.00000000000E+00  0.00000000000E+00  0.15793640000E+04  0.15793640000E+04  0.25500000920E-02 0.  1.
        2   -1    0    0  501    0  0.00000000000E+00  0.00000000000E+00 -0.14241732305E+04  0.14241732305E+04  0.25500000920E-02 0. -1.
    10030    2    1    2    0    0  0.00000000000E+00  0.00000000000E+00  0.15519076951E+03  0.30035372305E+04  0.29995252491E+04 0.  0.
        2    1    3    3  502    0  0.11653629999E+04 -0.13439122693E+03  0.10132733896E+04  0.15501144749E+04  0.25500000920E-02 0.  1.
       -2    1    3    3    0  502 -0.11653629999E+04  0.13439122693E+03 -0.85808262007E+03  0.14534227555E+04  0.25500000920E-02 0. -1.
</event>
<event>
 5   0  0.7278657E-07  0.2998807E+04  0.7818609E-02  0.8244072E-01
        2   -1    0    0  501    0  0.00000000000E+00  0.00000000000E+00  0.23144515959E+04  0.23144515959E+04  0.25500000920E-02 0. -1.
       -2   -1    0    0    0  501  0.00000000000E+00  0.00000000000E+00 -0.97137945937E+03  0.97137945937E+03  0.25500000920E-02 0.  1.
    10030    2    1    2    0    0  0.00000000000E+00  0.00000000000E+00  0.13430721365E+04  0.32858310552E+04  0.29988069227E+04 0.  0.
        2    1    3    3  502    0  0.42521155392E+03 -0.56685525545E+03  0.21194038949E+04  0.22347265193E+04  0.25500000920E-02 0. -1.
       -2    1    3    3    0  502 -0.42521155392E+03  0.56685525545E+03 -0.77633175846E+03  0.10511045359E+04  0.25500000920E-02 0.  1.
</event>
<event>
 5   0  0.7208273E-07  0.3004151E+04  0.7818609E-02  0.8242547E-01
        2   -1    0    0  501    0  0.00000000000E+00  0.00000000000E+00  0.17620455875E+04  0.17620455875E+04  0.25500000920E-02 0. -1.
       -2   -1    0    0    0  501  0.00000000000E+00  0.00000000000E+00 -0.12804606773E+04  0.12804606773E+04  0.25500000920E-02 0.  1.
    10030    2    1    2    0    0  0.00000000000E+00  0.00000000000E+00  0.48158491021E+03  0.30425062648E+04  0.30041505198E+04 0.  0.
        4    1    3    3  502    0  0.68903085754E+02  0.11742810167E+03  0.17557829096E+04  0.17610542958E+04  0.12699999809E+01 0. -1.
       -4    1    3    3    0  502 -0.68903085754E+02 -0.11742810167E+03 -0.12741979994E+04  0.12814519690E+04  0.12699999809E+01 0.  1.
</event>
<event>
 5   0  0.7585823E-07  0.2987291E+04  0.7818609E-02  0.8247369E-01
        2   -1    0    0  501    0  0.00000000000E+00  0.00000000000E+00  0.94071480350E+03  0.94071480350E+03  0.25500000920E-02 0.  1.
       -2   -1    0    0    0  501  0.00000000000E+00  0.00000000000E+00 -0.23715754502E+04  0.23715754502E+04  0.25500000920E-02 0. -1.
    10030    2    1    2    0    0  0.00000000000E+00  0.00000000000E+00 -0.14308606467E+04  0.33122902537E+04  0.29872905005E+04 0.  0.
        5    1    3    3  502    0  0.10759296509E+04 -0.83760506173E+03 -0.39386613401E+02  0.13641041927E+04  0.46999998093E+01 0.  1.
       -5    1    3    3    0  502 -0.10759296509E+04  0.83760506173E+03 -0.13914740333E+04  0.19481860610E+04  0.46999998093E+01 0. -1.
</event>
<event>
 5   0  0.7585823E-07  0.2998200E+04  0.7818609E-02  0.8244245E-01
       -2   -1    0    0    0  501  0.00000000000E+00  0.00000000000E+00  0.14169874751E+04  0.14169874751E+04  0.25500000920E-02 0.  1.
        2   -1    0    0  501    0  0.00000000000E+00  0.00000000000E+00 -0.15859704120E+04  0.15859704120E+04  0.25500000920E-02 0. -1.
    10030    2    1    2    0    0  0.00000000000E+00  0.00000000000E+00 -0.16898293696E+03  0.30029578871E+04  0.29981995996E+04 0.  0.
        5    1    3    3  502    0  0.80506400159E+03 -0.17387947432E+02 -0.13509537287E+04  0.15727455148E+04  0.46999998093E+01 0. -1.
       -5    1    3    3    0  502 -0.80506400159E+03  0.17387947432E+02  0.11819707917E+04  0.14302123723E+04  0.46999998093E+01 0.  1.
</event>
<event>
 5   0  0.7399409E-07  0.2997826E+04  0.7818609E-02  0.8244352E-01
        2   -1    0    0  501    0  0.00000000000E+00  0.00000000000E+00  0.12950325935E+04  0.12950325935E+04  0.25500000920E-02 0. -1.
       -2   -1    0    0    0  501  0.00000000000E+00  0.00000000000E+00 -0.17348912683E+04  0.17348912683E+04  0.25500000920E-02 0.  1.
    10030    2    1    2    0    0  0.00000000000E+00  0.00000000000E+00 -0.43985867482E+03  0.30299238618E+04  0.29978263717E+04 0.  0.
        3    1    3    3  502    0 -0.14356746600E+04  0.13713736698E+03 -0.63267950004E+03  0.15748815025E+04  0.10100000352E+00 0. -1.
       -3    1    3    3    0  502  0.14356746600E+04 -0.13713736698E+03  0.19282082522E+03  0.14550423594E+04  0.10100000352E+00 0.  1.
</event>
<event>
 5   0  0.2640081E-07  0.3023526E+04  0.7818609E-02  0.8237045E-01
       -1   -1    0    0    0  501  0.00000000000E+00  0.00000000000E+00  0.12071081990E+04  0.12071081990E+04  0.50400001928E-02 0. -1.
        1   -1    0    0  501    0  0.00000000000E+00  0.00000000000E+00 -0.18933081467E+04  0.18933081467E+04  0.50400001928E-02 0.  1.
    10030    2    1    2    0    0  0.00000000000E+00  0.00000000000E+00 -0.68619994769E+03  0.31004163458E+04  0.30235262772E+04 0.  0.
        1    1    3    3  502    0  0.40773570224E+03 -0.12032367584E+04  0.49712804800E+03  0.13642446246E+04  0.50400001928E-02 0. -1.
       -1    1    3    3    0  502 -0.40773570224E+03  0.12032367584E+04 -0.11833279957E+04  0.17361717211E+04  0.50400001928E-02 0.  1.
</event>
<event>
 5   0  0.2640081E-07  0.2999665E+04  0.7818609E-02  0.8243827E-01
        1   -1    0    0  501    0  0.00000000000E+00  0.00000000000E+00  0.17990573867E+04  0.17990573867E+04  0.50400001928E-02 0. -1.
       -1   -1    0    0    0  501  0.00000000000E+00  0.00000000000E+00 -0.12503755884E+04  0.12503755884E+04  0.50400001928E-02 0.  1.
    10030    2    1    2    0    0  0.00000000000E+00  0.00000000000E+00  0.54868179825E+03  0.30494329751E+04  0.29996649403E+04 0.  0.
        1    1    3    3  502    0 -0.12556611014E+03 -0.10606583540E+04  0.13447754422E+04  0.17173188352E+04  0.50400001928E-02 0. -1.
       -1    1    3    3    0  502  0.12556611014E+03  0.10606583540E+04 -0.79609364391E+03  0.13321141399E+04  0.50400001928E-02 0.  1.
</event>
<event>
 5   0  0.7278657E-07  0.3000918E+04  0.7818609E-02  0.8243469E-01
        2   -1    0    0  501    0  0.00000000000E+00  0.00000000000E+00  0.20736810823E+04  0.20736810823E+04  0.25500000920E-02 0. -1.
       -2   -1    0    0    0  501  0.00000000000E+00  0.00000000000E+00 -0.10856908669E+04  0.10856908669E+04  0.25500000920E-02 0.  1.
    10030    2    1    2    0    0  0.00000000000E+00  0.00000000000E+00  0.98799021543E+03  0.31593719493E+04  0.30009176010E+04 0.  0.
        2    1    3    3  502    0  0.33968096443E+03 -0.10866139949E+04 -0.53498806975E+03  0.12579051500E+04  0.25500000920E-02 0.  1.
       -2    1    3    3    0  502 -0.33968096443E+03  0.10866139949E+04  0.15229782852E+04  0.19014667993E+04  0.25500000920E-02 0. -1.
</event>
<event>
 5   0  0.7208273E-07  0.2995375E+04  0.7818609E-02  0.8245053E-01
       -2   -1    0    0    0  501  0.00000000000E+00  0.00000000000E+00  0.12318043748E+04  0.12318043748E+04  0.25500000920E-02 0. -1.
        2   -1    0    0  501    0  0.00000000000E+00  0.00000000000E+00 -0.18209606809E+04  0.18209606809E+04  0.25500000920E-02 0.  1.
    10030    2    1    2    0    0  0.00000000000E+00  0.00000000000E+00 -0.58915630617E+03  0.30527650557E+04  0.29953746564E+04 0.  0.
        4    1    3    3  502    0  0.74909214029E+03  0.48232406242E+01 -0.16163081847E+04  0.17814645826E+04  0.12699999809E+01 0.  1.
       -4    1    3    3    0  502 -0.74909214029E+03 -0.48232406242E+01  0.10271518786E+04  0.12713004731E+04  0.12699999809E+01 0. -1.
</event>
<event>
 5   0  0.2602891E-07  0.2998416E+04  0.7818609E-02  0.8244183E-01
       -1   -1    0    0    0  501  0.00000000000E+00  0.00000000000E+00  0.97880085791E+03  0.97880085793E+03  0.50400001928E-02 0. -1.
        1   -1    0    0  501    0  0.00000000000E+00  0.00000000000E+00 -0.22963050651E+04  0.22963050651E+04  0.50400001928E-02 0.  1.
    10030    2    1    2    0    0  0.00000000000E+00  0.00000000000E+00 -0.13175042072E+04  0.32751059230E+04  0.29984164939E+04 0.  0.
        5    1    3    3  502    0 -0.35444922863E+03 -0.29823694416E+03 -0.22161680531E+04  0.22640676801E+04  0.46999998093E+01 0.  1.
       -5    1    3    3    0  502  0.35444922863E+03  0.29823694416E+03  0.89866384595E+03  0.10110382429E+04  0.46999998093E+01 0. -1.
</event>
<event>
 5   0  0.7208273E-07  0.3010156E+04  0.7818609E-02  0.8240837E-01
        2   -1    0    0  501    0  0.00000000000E+00  0.00000000000E+00  0.19009257586E+04  0.19009257586E+04  0.25500000920E-02 0. -1.
       -2   -1    0    0    0  501  0.00000000000E+00  0.00000000000E+00 -0.11916615933E+04  0.11916615933E+04  0.25500000920E-02 0.  1.
    10030    2    1    2    0    0  0.00000000000E+00  0.00000000000E+00  0.70926416530E+03  0.30925873519E+04  0.30101562871E+04 0.  0.
        4    1    3    3  502    0  0.12112033682E+04  0.81998287408E+03 -0.98694693701E+01  0.14626976899E+04  0.12699999809E+01 0.  1.
       -4    1    3    3    0  502 -0.12112033682E+04 -0.81998287408E+03  0.71913363467E+03  0.16298896620E+04  0.12699999809E+01 0. -1.
</event>
<event>
 5   0  0.2602891E-07  0.3000287E+04  0.7818609E-02  0.8243649E-01
       -1   -1    0    0    0  501  0.00000000000E+00  0.00000000000E+00  0.13859782264E+04  0.13859782264E+04  0.50400001928E-02 0.  1.
        1   -1    0    0  501    0  0.00000000000E+00  0.00000000000E+00 -0.16237123691E+04  0.16237123691E+04  0.50400001928E-02 0. -1.
    10030    2    1    2    0    0  0.00000000000E+00  0.00000000000E+00 -0.23773414277E+03  0.30096905955E+04  0.30002866460E+04 0.  0.
        5    1    3    3  502    0 -0.47105136268E+03 -0.60220410770E+03 -0.14135979021E+04  0.16071155194E+04  0.46999998093E+01 0. -1.
       -5    1    3    3    0  502  0.47105136268E+03  0.60220410770E+03  0.11758637594E+04  0.14025750761E+04  0.46999998093E+01 0.  1.
</event>
<event>
 5   0  0.2792361E-07  0.2992038E+04  0.7818609E-02  0.8246008E-01
       -1   -1    0    0    0  501  0.00000000000E+00  0.00000000000E+00  0.12613950591E+04  0.12613950591E+04  0.50400001928E-02 0. -1.
        1   -1    0    0  501    0  0.00000000000E+00  0.00000000000E+00 -0.17742843441E+04  0.17742843441E+04  0.50400001928E-02 0.  1.
    10030    2    1    2    0    0  0.00000000000E+00  0.00000000000E+00 -0.51288928499E+03  0.30356794032E+04  0.29920384390E+04 0.  0.
        4    1    3    3  502    0  0.92726612875E+03 -0.39541380985E+03  0.86507296074E+03  0.13283551464E+04  0.12699999809E+01 0. -1.
       -4    1    3    3    0  502 -0.92726612875E+03  0.39541380985E+03 -0.13779622457E+04  0.17073242569E+04  0.12699999809E+01 0.  1.
</event>
<event>
 5   0  0.2640081E-07  0.3000129E+04  0.7818609E-02  0.8243694E-01
       -1   -1    0    0    0  501  0.00000000000E+00  0.00000000000E+00  0.12225804729E+04  0.12225804729E+04  0.50400001928E-02 0.  1.
        1   -1    0    0  501    0  0.00000000000E+00  0.00000000000E+00 -0.18405275153E+04  0.18405275153E+04  0.50400001928E-02 0. -1.
    10030    2    1    2    0    0  0.00000000000E+00  0.00000000000E+00 -0.61794704242E+03  0.30631079882E+04  0.30001286639E+04 0.  0.
        1    1    3    3  502    0  0.44469004903E+03  0.13914611638E+04  0.39182710615E+02  0.14613174518E+04  0.50400001928E-02 0.  1.
       -1    1    3    3    0  502 -0.44469004903E+03 -0.13914611638E+04 -0.65712975304E+03  0.16017905364E+04  0.50400001928E-02 0. -1.
</event>
<event>
 5   0  0.2640081E-07  0.2998543E+04  0.7818609E-02  0.8244147E-01
        1   -1    0    0  501    0  0.00000000000E+00  0.00000000000E+00  0.15514201072E+04  0.15514201072E+04  0.50400001928E-02 0.  1.
       -1   -1    0    0    0  501  0.00000000000E+00  0.00000000000E+00 -0.14488761706E+04  0.14488761706E+04  0.50400001928E-02 0. -1.
    10030    2    1    2    0    0  0.00000000000E+00  0.00000000000E+00  0.10254393667E+03  0.30002962778E+04  0.29985433957E+04 0.  0.
        1    1    3    3  502    0  0.63839811155E+02  0.29120489260E+03 -0.14189200898E+04  0.14499000076E+04  0.50400001928E-02 0. -1.
       -1    1    3    3    0  502 -0.63839811155E+02 -0.29120489260E+03  0.15214640264E+04  0.15503962702E+04  0.50400001928E-02 0.  1.
</event>
<event>
 5   0  0.2640081E-07  0.2993552E+04  0.7818609E-02  0.8245575E-01
       -1   -1    0    0    0  501  0.00000000000E+00  0.00000000000E+00  0.11430864595E+04  0.11430864595E+04  0.50400001928E-02 0.  1.
        1   -1    0    0  501    0  0.00000000000E+00  0.00000000000E+00 -0.19599026074E+04  0.19599026074E+04  0.50400001928E-02 0. -1.
    10030    2    1    2    0    0  0.00000000000E+00  0.00000000000E+00 -0.81681614784E+03  0.31029890669E+04  0.29935518252E+04 0.  0.
        1    1    3    3  502    0  0.25805884097E+03  0.98072614508E+03 -0.15495257683E+04  0.18518769516E+04  0.50400001928E-02 0. -1.
       -1    1    3    3    0  502 -0.25805884097E+03 -0.98072614508E+03  0.73270962050E+03  0.12511121153E+04  0.50400001928E-02 0.  1.
</event>
<event>
 5   0  0.2679935E-07  0.2997141E+04  0.7818609E-02  0.8244548E-01
        1   -1    0    0  501    0  0.00000000000E+00  0.00000000000E+00  0.15874140654E+04  0.15874140654E+04  0.50400001928E-02 0. -1.
       -1   -1    0    0    0  501  0.00000000000E+00  0.00000000000E+00 -0.14146993407E+04  0.14146993407E+04  0.50400001928E-02 0.  1.
    10030    2    1    2    0    0  0.00000000000E+00  0.00000000000E+00  0.17271472472E+03  0.30021134061E+04  0.29971410589E+04 0.  0.
        2    1    3    3  502    0 -0.84404362444E+03 -0.36667481416E+03 -0.10983362279E+04  0.14329000415E+04  0.25500000920E-02 0.  1.
       -2    1    3    3    0  502  0.84404362444E+03  0.36667481416E+03  0.12710509526E+04  0.15692133646E+04  0.25500000920E-02 0. -1.
</event>
<event>
 5   0  0.2602891E-07  0.2996467E+04  0.7818609E-02  0.8244740E-01
        1   -1    0    0  501    0  0.00000000000E+00  0.00000000000E+00  0.13886085159E+04  0.13886085159E+04  0.50400001928E-02 0.  1.
       -1   -1    0    0    0  501  0.00000000000E+00  0.00000000000E+00 -0.16165130395E+04  0.16165130395E+04  0.50400001928E-02 0. -1.
    10030    2    1    2    0    0  0.00000000000E+00  0.00000000000E+00 -0.22790452367E+03  0.30051215554E+04  0.29964671016E+04 0.  0.
        5    1    3    3  502    0  0.12785107345E+04 -0.70193270619E+03 -0.45755303627E+03  0.15286190151E+04  0.46999998093E+01 0.  1.
       -5    1    3    3    0  502 -0.12785107345E+04  0.70193270619E+03  0.22964851260E+03  0.14765025403E+04  0.46999998093E+01 0. -1.
</event>
<event>
 5   0  0.7399409E-07  0.2995722E+04  0.7818609E-02  0.8244953E-01
        2   -1    0    0  501    0  0.00000000000E+00  0.00000000000E+00  0.22585110052E+04  0.22585110052E+04  0.25500000920E-02 0. -1.
       -2   -1    0    0    0  501  0.00000000000E+00  0.00000000000E+00 -0.99339264168E+03  0.99339264168E+03  0.25500000920E-02 0.  1.
    10030    2    1    2    0    0  0.00000000000E+00  0.00000000000E+00  0.12651183635E+04  0.32519036469E+04  0.29957224262E+04 0.  0.
        3    1    3    3  502    0 -0.13897218185E+04  0.50205533043E+03  0.89890216171E+03  0.17295697136E+04  0.10100000352E+00 0. -1.
       -3    1    3    3    0  502  0.13897218185E+04 -0.50205533043E+03  0.36621620182E+03  0.15223339333E+04  0.10100000352E+00 0.  1.
</event>
<event>
 5   0  0.2621825E-07  0.3053316E+04  0.7818609E-02  0.8228668E-01
       -1   -1    0    0    0  501  0.00000000000E+00  0.00000000000E+00  0.10315832817E+04  0.10315832817E+04  0.50400001928E-02 0.  1.
        1   -1    0    0  501    0  0.00000000000E+00  0.00000000000E+00 -0.22593272307E+04  0.22593272307E+04  0.50400001928E-02 0. -1.
    10030    2    1    2    0    0  0.00000000000E+00  0.00000000000E+00 -0.12277439490E+04  0.32909105124E+04  0.30533157053E+04 0.  0.
        3    1    3    3  502    0 -0.26611987112E+03  0.22833676380E+03  0.98759142974E+03  0.10479953749E+04  0.10100000352E+00 0.  1.
       -3    1    3    3    0  502  0.26611987112E+03 -0.22833676380E+03 -0.22153353788E+04  0.22429151375E+04  0.10100000352E+00 0. -1.
</event>
<event>
 5   0  0.2679935E-07  0.2997877E+04  0.7818609E-02  0.8244337E-01
        1   -1    0    0  501    0  0.00000000000E+00  0.00000000000E+00  0.20055556898E+04  0.20055556898E+04  0.50400001928E-02 0.  1.
       -1   -1    0    0    0  501  0.00000000000E+00  0.00000000000E+00 -0.11202962963E+04  0.11202962963E+04  0.50400001928E-02 0. -1.
    10030    2    1    2    0    0  0.00000000000E+00  0.00000000000E+00  0.88525939358E+03  0.31258519861E+04  0.29978769897E+04 0.  0.
        2    1    3    3  502    0 -0.14918211060E+04 -0.11402652916E+03  0.53753354244E+03  0.15898033120E+04  0.25500000920E-02 0.  1.
       -2    1    3    3    0  502  0.14918211060E+04  0.11402652916E+03  0.34772585114E+03  0.15360486741E+04  0.25500000920E-02 0. -1.
</event>
<event>
 5   0  0.7585823E-07  0.3001113E+04  0.7818609E-02  0.8243413E-01
        2   -1    0    0  501    0  0.00000000000E+00  0.00000000000E+00  0.17632810832E+04  0.17632810832E+04  0.25500000920E-02 0.  1.
       -2   -1    0    0    0  501  0.00000000000E+00  0.00000000000E+00 -0.12769768530E+04  0.12769768530E+04  0.25500000920E-02 0. -1.
    10030    2    1    2    0    0  0.00000000000E+00  0.00000000000E+00  0.48630423013E+03  0.30402579362E+04  0.30011125461E+04 0.  0.
        5    1    3    3  502    0  0.86759594102E+02 -0.10081518488E+04 -0.87933938200E+03  0.13405809249E+04  0.46999998093E+01 0. -1.
       -5    1    3    3    0  502 -0.86759594102E+02  0.10081518488E+04  0.13656436121E+04  0.16996770113E+04  0.46999998093E+01 0.  1.
</event>
<event>
 5   0  0.7399409E-07  0.2967366E+04  0.7818609E-02  0.8253112E-01
       -2   -1    0    0    0  501  0.00000000000E+00  0.00000000000E+00  0.80017591871E+03  0.80017591871E+03  0.25500000920E-02 0.  1.
        2   -1    0    0  501    0  0.00000000000E+00  0.00000000000E+00 -0.27510392342E+04  0.27510392342E+04  0.25500000920E-02 0. -1.
    10030    2    1    2    0    0  0.00000000000E+00  0.00000000000E+00 -0.19508633155E+04  0.35512151529E+04  0.29673660689E+04 0.  0.
        3    1    3    3  502    0  0.18844009331E+03 -0.31398003922E+03 -0.26961089970E+04  0.27208632578E+04  0.10100000352E+00 0. -1.
       -3    1    3    3    0  502 -0.18844009331E+03  0.31398003922E+03  0.74524568148E+03  0.83035189514E+03  0.10100000352E+00 0.  1.
</event>
<event>
 5   0  0.2640081E-07  0.3000005E+04  0.7818609E-02  0.8243729E-01
        1   -1    0    0  501    0  0.00000000000E+00  0.00000000000E+00  0.87401891552E+03  0.87401891553E+03  0.50400001928E-02 0.  1.
       -1   -1    0    0    0  501  0.00000000000E+00  0.00000000000E+00 -0.25743239948E+04  0.25743239948E+04  0.50400001928E-02 0. -1.
    10030    2    1    2    0    0  0.00000000000E+00  0.00000000000E+00 -0.17003050793E+04  0.34483429103E+04  0.30000052441E+04 0.  0.
        1    1    3    3  502    0 -0.10373909667E+04  0.40800920120E+03  0.30351319738E+03  0.11553232392E+04  0.50400001928E-02 0.  1.
       -1    1    3    3    0  502  0.10373909667E+04 -0.40800920120E+03 -0.20038182767E+04  0.22930196711E+04  0.50400001928E-02 0. -1.
</event>
<event>
 5   0  0.7208273E-07  0.3001276E+04  0.7818609E-02  0.8243367E-01
       -2   -1    0    0    0  501  0.00000000000E+00  0.00000000000E+00  0.98450024962E+03  0.98450024962E+03  0.25500000920E-02 0. -1.
        2   -1    0    0  501    0  0.00000000000E+00  0.00000000000E+00 -0.22873678078E+04  0.22873678078E+04  0.25500000920E-02 0.  1.
    10030    2    1    2    0    0  0.00000000000E+00  0.00000000000E+00 -0.13028675582E+04  0.32718680574E+04  0.30012758472E+04 0.  0.
        4    1    3    3  502    0 -0.89482999688E+03 -0.63831524235E+03  0.46231483120E+03  0.11924360310E+04  0.12699999809E+01 0. -1.
       -4    1    3    3    0  502  0.89482999688E+03  0.63831524235E+03 -0.17651823894E+04  0.20794320264E+04  0.12699999809E+01 0.  1.
</event>
<event>
 5   0  0.7307508E-07  0.2972854E+04  0.7818609E-02  0.8251525E-01
        2   -1    0    0  501    0  0.00000000000E+00  0.00000000000E+00  0.15302900992E+04  0.15302900992E+04  0.25500000920E-02 0.  1.
       -2   -1    0    0    0  501  0.00000000000E+00  0.00000000000E+00 -0.14438212816E+04  0.14438212816E+04  0.25500000920E-02 0. -1.
    10030    2    1    2    0    0  0.00000000000E+00  0.00000000000E+00  0.86468817537E+02  0.29741113808E+04  0.29728541251E+04 0.  0.
        1    1    3    3  502    0  0.54077716207E+03  0.60404897321E+03 -0.12031457238E+04  0.14508186426E+04  0.50400001928E-02 0. -1.
       -1    1    3    3    0  502 -0.54077716207E+03 -0.60404897321E+03  0.12896145413E+04  0.15232927382E+04  0.50400001928E-02 0.  1.
</event>
<event>
 5   0  0.7399409E-07  0.3009789E+04  0.7818609E-02  0.8240941E-01
       -2   -1    0    0    0  501  0.00000000000E+00  0.00000000000E+00  0.92500356826E+03  0.92500356827E+03  0.25500000920E-02 0. -1.
        2   -1    0    0  501    0  0.00000000000E+00  0.00000000000E+00 -0.24483232528E+04  0.24483232528E+04  0.25500000920E-02 0.  1.
    10030    2    1    2    0    0  0.00000000000E+00  0.00000000000E+00 -0.15233196845E+04  0.33733268210E+04  0.30097891920E+04 0.  0.
        3    1    3    3  502    0  0.45528706843E+03  0.92079058148E+03  0.47098268966E+03  0.11300293420E+04  0.10100000352E+00 0. -1.
       -3    1    3    3    0  502 -0.45528706843E+03 -0.92079058148E+03 -0.19943023742E+04  0.22432974790E+04  0.10100000352E+00 0.  1.
</event>
<event>
 5   0  0.2602891E-07  0.2981921E+04  0.7818609E-02  0.8248912E-01
        1   -1    0    0  501    0  0.00000000000E+00  0.00000000000E+00  0.28058092551E+04  0.28058092551E+04  0.50400001928E-02 0.  1.
       -1   -1    0    0    0  501  0.00000000000E+00  0.00000000000E+00 -0.79227152455E+03  0.79227152456E+03  0.50400001928E-02 0. -1.
    10030    2    1    2    0    0  0.00000000000E+00  0.00000000000E+00  0.20135377306E+04  0.35980807797E+04  0.29819207073E+04 0.  0.
        5    1    3    3  502    0  0.17390416554E+03 -0.15942233728E+03  0.27831354097E+04  0.27931206453E+04  0.46999998093E+01 0.  1.
       -5    1    3    3    0  502 -0.17390416554E+03  0.15942233728E+03 -0.76959767907E+03  0.80496013445E+03  0.46999998093E+01 0. -1.
</event>
<event>
 5   0  0.2679935E-07  0.3020428E+04  0.7818609E-02  0.8237922E-01
        1   -1    0    0  501    0  0.00000000000E+00  0.00000000000E+00  0.17569442096E+04  0.17569442096E+04  0.50400001928E-02 0. -1.
       -1   -1    0    0    0  501  0.00000000000E+00  0.00000000000E+00 -0.12981322975E+04  0.12981322975E+04  0.50400001928E-02 0.  1.
    10030    2    1    2    0    0  0.00000000000E+00  0.00000000000E+00  0.45881191210E+03  0.30550765070E+04  0.30204277997E+04 0.  0.
        2    1    3    3  502    0  0.10752276973E+04  0.73041992008E+03  0.10070677871E+04  0.16443276402E+04  0.25500000920E-02 0. -1.
       -2    1    3    3    0  502 -0.10752276973E+04 -0.73041992008E+03 -0.54825587498E+03  0.14107488668E+04  0.25500000920E-02 0.  1.
</event>
<event>
 5   0  0.2621825E-07  0.2982523E+04  0.7818609E-02  0.8248739E-01
        1   -1    0    0  501    0  0.00000000000E+00  0.00000000000E+00  0.19608828312E+04  0.19608828312E+04  0.50400001928E-02 0.  1.
       -1   -1    0    0    0  501  0.00000000000E+00  0.00000000000E+00 -0.11341116820E+04  0.11341116820E+04  0.50400001928E-02 0. -1.
    10030    2    1    2    0    0  0.00000000000E+00  0.00000000000E+00  0.82677114923E+03  0.30949945132E+04  0.29825225068E+04 0.  0.
        3    1    3    3  502    0 -0.19554119019E+03 -0.54632724167E+03 -0.10121543975E+04  0.11666903388E+04  0.10100000352E+00 0. -1.
       -3    1    3    3    0  502  0.19554119019E+03  0.54632724167E+03  0.18389255468E+04  0.19283041744E+04  0.10100000352E+00 0.  1.
</event>
<event>
 5   0  0.7278657E-07  0.2997819E+04  0.7818609E-02  0.8244354E-01
       -2   -1    0    0    0  501  0.00000000000E+00  0.00000000000E+00  0.89539478003E+03  0.89539478003E+03  0.25500000920E-02 0.  1.
        2   -1    0    0  501    0  0.00000000000E+00  0.00000000000E+00 -0.25092062793E+04  0.25092062793E+04  0.25500000920E-02 0. -1.
    10030    2    1    2    0    0  0.00000000000E+00  0.00000000000E+00 -0.16138114993E+04  0.34046010594E+04  0.29978193438E+04 0.  0.
        2    1    3    3  502    0 -0.23826833432E+03  0.11118487126E+04  0.30221349359E+03  0.11765680407E+04  0.25500000920E-02 0.  1.
       -2    1    3    3    0  502  0.23826833432E+03 -0.11118487126E+04 -0.19160249929E+04  0.22280330187E+04  0.25500000920E-02 0. -1.
</event>
<event>
 5   0  0.7208273E-07  0.2995900E+04  0.7818609E-02  0.8244903E-01
        2   -1    0    0  501    0  0.00000000000E+00  0.00000000000E+00  0.22247381510E+04  0.22247381510E+04  0.25500000920E-02 0.  1.
       -2   -1    0    0    0  501  0.00000000000E+00  0.00000000000E+00 -0.10085924769E+04  0.10085924769E+04  0.25500000920E-02 0. -1.
    10030    2    1    2    0    0  0.00000000000E+00  0.00000000000E+00  0.12161456741E+04  0.32333306280E+04  0.29958999732E+04 0.  0.
        4    1    3    3  502    0 -0.10182293510E+03 -0.29127563361E+03 -0.97392160406E+03  0.10216331576E+04  0.12699999809E+01 0. -1.
       -4    1    3    3    0  502  0.10182293510E+03  0.29127563361E+03  0.21900672782E+04  0.22116974704E+04  0.12699999809E+01 0.  1.
</event>
<event>
 5   0  0.2679935E-07  0.2997513E+04  0.7818609E-02  0.8244441E-01
       -1   -1    0    0    0  501  0.00000000000E+00  0.00000000000E+00  0.12204230058E+04  0.12204230058E+04  0.50400001928E-02 0. -1.
        1   -1    0    0  501    0  0.00000000000E+00  0.00000000000E+00 -0.18405678553E+04  0.18405678554E+04  0.50400001928E-02 0.  1.
    10030    2    1    2    0    0  0.00000000000E+00  0.00000000000E+00 -0.62014484959E+03  0.30609908611E+04  0.29975132055E+04 0.  0.
        2    1    3    3  502    0 -0.24671995047E+03 -0.14239723271E+04  0.95456186196E+02  0.14483369104E+04  0.25500000920E-02 0. -1.
       -2    1    3    3    0  502  0.24671995047E+03  0.14239723271E+04 -0.71560103579E+03  0.16126539507E+04  0.25500000920E-02 0.  1.
</event>
<event>
 5   0  0.2602891E-07  0.3013727E+04  0.7818609E-02  0.8239822E-01
       -1   -1    0    0    0  501  0.00000000000E+00  0.00000000000E+00  0.13546378643E+04  0.13546378643E+04  0.50400001928E-02 0. -1.
        1   -1    0    0  501    0  0.00000000000E+00  0.00000000000E+00 -0.16761952555E+04  0.16761952555E+04  0.50400001928E-02 0.  1.
    10030    2    1    2    0    0  0.00000000000E+00  0.00000000000E+00 -0.32155739127E+03  0.30308331198E+04  0.30137269691E+04 0.  0.
        5    1    3    3  502    0  0.94173914977E+02  0.77584708650E+02 -0.16712115486E+04  0.16756665073E+04  0.46999998093E+01 0.  1.
       -5    1    3    3    0  502 -0.94173914977E+02 -0.77584708650E+02  0.13496541574E+04  0.13551666125E+04  0.46999998093E+01 0. -1.
</event>
<event>
 5   0  0.2679935E-07  0.2999049E+04  0.7818609E-02  0.8244002E-01
        1   -1    0    0  501    0  0.00000000000E+00  0.00000000000E+00  0.29592298533E+04  0.29592298533E+04  0.50400001928E-02 0. -1.
       -1   -1    0    0    0  501  0.00000000000E+00  0.00000000000E+00 -0.75985105107E+03  0.75985105108E+03  0.50400001928E-02 0.  1.
    10030    2    1    2    0    0  0.00000000000E+00  0.00000000000E+00  0.21993788022E+04  0.37190809044E+04  0.29990491256E+04 0.  0.
        2    1    3    3  502    0 -0.12092509644E+04  0.22457802247E+02  0.42290323408E+00  0.12094595597E+04  0.25500000920E-02 0.  1.
       -2    1    3    3    0  502  0.12092509644E+04 -0.22457802247E+02  0.21989558990E+04  0.25096213447E+04  0.25500000920E-02 0. -1.
</event>
<event>
 5   0  0.7278657E-07  0.2997223E+04  0.7818609E-02  0.8244524E-01
       -2   -1    0    0    0  501  0.00000000000E+00  0.00000000000E+00  0.20509159803E+04  0.20509159803E+04  0.25500000920E-02 0.  1.
        2   -1    0    0  501    0  0.00000000000E+00  0.00000000000E+00 -0.10950406884E+04  0.10950406885E+04  0.25500000920E-02 0. -1.
    10030    2    1    2    0    0  0.00000000000E+00  0.00000000000E+00  0.95587529187E+03  0.31459566688E+04  0.29972230128E+04 0.  0.
        2    1    3    3  502    0  0.13267345271E+04 -0.67397141630E+03  0.29201945379E+03  0.15164884889E+04  0.25500000920E-02 0. -1.
       -2    1    3    3    0  502 -0.13267345271E+04  0.67397141630E+03  0.66385583808E+03  0.16294681799E+04  0.25500000920E-02 0.  1.
</event>
<event>
 5   0  0.7399409E-07  0.2991334E+04  0.7818609E-02  0.8246210E-01
        2   -1    0    0  501    0  0.00000000000E+00  0.00000000000E+00  0.23153312431E+04  0.23153312431E+04  0.25500000920E-02 0.  1.
       -2   -1    0    0    0  501  0.00000000000E+00  0.00000000000E+00 -0.96617708064E+03  0.96617708064E+03  0.25500000920E-02 0. -1.
    10030    2    1    2    0    0  0.00000000000E+00  0.00000000000E+00  0.13491541624E+04  0.32815083237E+04  0.29913341379E+04 0.  0.
        3    1    3    3  502    0  0.51398664080E+03 -0.58167071238E+03  0.20770698532E+04  0.22173728306E+04  0.10100000352E+00 0.  1.
       -3    1    3    3    0  502 -0.51398664080E+03  0.58167071238E+03 -0.72791569079E+03  0.10641354931E+04  0.10100000352E+00 0. -1.
</event>
<event>
 5   0  0.7278657E-07  0.2998670E+04  0.7818609E-02  0.8244111E-01
       -2   -1    0    0    0  501  0.00000000000E+00  0.00000000000E+00  0.11293990349E+04  0.11293990349E+04  0.25500000920E-02 0. -1.
        2   -1    0    0  501    0  0.00000000000E+00  0.00000000000E+00 -0.19904441837E+04  0.19904441837E+04  0.25500000920E-02 0.  1.
    10030    2    1    2    0    0  0.00000000000E+00  0.00000000000E+00 -0.86104514881E+03  0.31198432186E+04  0.29986701986E+04 0.  0.
        2    1    3    3  502    0  0.85173513911E+03  0.66653293367E+03  0.64984419911E+03  0.12617513154E+04  0.25500000920E-02 0. -1.
       -2    1    3    3    0  502 -0.85173513911E+03 -0.66653293367E+03 -0.15108893479E+04  0.18580919031E+04  0.25500000920E-02 0.  1.
</event>
<event>
 5   0  0.2621825E-07  0.3012009E+04  0.7818609E-02  0.8240310E-01
        1   -1    0    0  501    0  0.00000000000E+00  0.00000000000E+00  0.16837322167E+04  0.16837322167E+04  0.50400001928E-02 0.  1.
       -1   -1    0    0    0  501  0.00000000000E+00  0.00000000000E+00 -0.13470366465E+04  0.13470366466E+04  0.50400001928E-02 0. -1.
    10030    2    1    2    0    0  0.00000000000E+00  0.00000000000E+00  0.33669557012E+03  0.30307688632E+04  0.30120086314E+04 0.  0.
        3    1    3    3  502    0 -0.12865552651E+03 -0.97266272992E+03  0.13180156551E+04  0.16431038640E+04  0.10100000352E+00 0.  1.
       -3    1    3    3    0  502  0.12865552651E+03  0.97266272992E+03 -0.98132008497E+03  0.13876649992E+04  0.10100000352E+00 0. -1.
</event>
<event>
 5   0  0.2602891E-07  0.3045063E+04  0.7818609E-02  0.8230979E-01
       -1   -1    0    0    0  501  0.00000000000E+00  0.00000000000E+00  0.14165578312E+04  0.14165578312E+04  0.50400001928E-02 0.  1.
        1   -1    0    0  501    0  0.00000000000E+00  0.00000000000E+00 -0.16364326079E+04  0.16364326079E+04  0.50400001928E-02 0. -1.
    10030    2    1    2    0    0  0.00000000000E+00  0.00000000000E+00 -0.21987477670E+03  0.30529904390E+04  0.30450625122E+04 0.  0.
        5    1    3    3  502    0 -0.79740664136E+03 -0.15266465537E+03  0.11814048672E+04  0.14334934248E+04  0.46999998093E+01 0.  1.
       -5    1    3    3    0  502  0.79740664136E+03  0.15266465537E+03 -0.14012796439E+04  0.16194970142E+04  0.46999998093E+01 0. -1.
</event>
<event>
 5   0  0.7585823E-07  0.2998704E+04  0.7818609E-02  0.8244101E-01
        2   -1    0    0  501    0  0.00000000000E+00  0.00000000000E+00  0.15032558081E+04  0.15032558081E+04  0.25500000920E-02 0.  1.
       -2   -1    0    0    0  501  0.00000000000E+00  0.00000000000E+00 -0.14954582855E+04  0.14954582855E+04  0.25500000920E-02 0. -1.
    10030    2    1    2    0    0  0.00000000000E+00  0.00000000000E+00  0.77975225771E+01  0.29987140936E+04  0.29987039557E+04 0.  0.
        5    1    3    3  502    0  0.55175056566E+03 -0.56723457450E+03  0.12774220161E+04  0.15026685750E+04  0.46999998093E+01 0.  1.
       -5    1    3    3    0  502 -0.55175056566E+03  0.56723457450E+03 -0.12696244935E+04  0.14960455186E+04  0.46999998093E+01 0. -1.
</event>
<event>
 5   0  0.2602891E-07  0.3002286E+04  0.7818609E-02  0.8243078E-01
        1   -1    0    0  501    0  0.00000000000E+00  0.00000000000E+00  0.15109068687E+04  0.15109068687E+04  0.50400001928E-02 0. -1.
       -1   -1    0    0    0  501  0.00000000000E+00  0.00000000000E+00 -0.14914424561E+04  0.14914424561E+04  0.50400001928E-02 0.  1.
    10030    2    1    2    0    0  0.00000000000E+00  0.00000000000E+00  0.19464412639E+02  0.30023493248E+04  0.30022862296E+04 0.  0.
        5    1    3    3  502    0 -0.10204176222E+04  0.24568140676E+03 -0.10635084451E+04  0.14942167782E+04  0.46999998093E+01 0.  1.
       -5    1    3    3    0  502  0.10204176222E+04 -0.24568140676E+03  0.10829728578E+04  0.15081325466E+04  0.46999998093E+01 0. -1.
</event>
<event>
 5   0  0.2679935E-07  0.3001604E+04  0.7818609E-02  0.8243273E-01
       -1   -1    0    0    0  501  0.00000000000E+00  0.00000000000E+00  0.11840793514E+04  0.11840793514E+04  0.50400001928E-02 0.  1.
        1   -1    0    0  501    0  0.00000000000E+00  0.00000000000E+00 -0.19022424283E+04  0.19022424283E+04  0.50400001928E-02 0. -1.
    10030    2    1    2    0    0  0.00000000000E+00  0.00000000000E+00 -0.71816307694E+03  0.30863217797E+04  0.30016035586E+04 0.  0.
        2    1    3    3  502    0 -0.12317320500E+03  0.24424750950E+03 -0.18763928026E+04  0.18962274214E+04  0.25500000920E-02 0. -1.
       -2    1    3    3    0  502  0.12317320500E+03 -0.24424750950E+03  0.11582297256E+04  0.11900943583E+04  0.25500000920E-02 0.  1.
</event>
<event>
 5   0  0.7585823E-07  0.2994999E+04  0.7818609E-02  0.8245161E-01
       -2   -1    0    0    0  501  0.00000000000E+00  0.00000000000E+00  0.15260335378E+04  0.15260335378E+04  0.25500000920E-02 0. -1.
        2   -1    0    0  501    0  0.00000000000E+00  0.00000000000E+00 -0.14694985311E+04  0.14694985311E+04  0.25500000920E-02 0.  1.
    10030    2    1    2    0    0  0.00000000000E+00  0.00000000000E+00  0.56535006722E+02  0.29955320689E+04  0.29949985257E+04 0.  0.
        5    1    3    3  502    0 -0.20052123805E+03 -0.10210367313E+04 -0.10488445729E+04  0.14774375796E+04  0.46999998093E+01 0.  1.
       -5    1    3    3    0  502  0.20052123805E+03  0.10210367313E+04  0.11053795796E+04  0.15180944893E+04  0.46999998093E+01 0. -1.
</event>
<event>
 5   0  0.2640081E-07  0.2996166E+04  0.7818609E-02  0.8244827E-01
       -1   -1    0    0    0  501  0.00000000000E+00  0.00000000000E+00  0.83062716552E+03  0.83062716554E+03  0.50400001928E-02 0.  1.
        1   -1    0    0  501    0  0.00000000000E+00  0.00000000000E+00 -0.27018770955E+04  0.27018770955E+04  0.50400001928E-02 0. -1.
    10030    2    1    2    0    0  0.00000000000E+00  0.00000000000E+00 -0.18712499299E+04  0.35325042610E+04  0.29961658922E+04 0.  0.
        1    1    3    3  502    0 -0.38709134786E+03 -0.66983107275E+03 -0.24481317690E+04  0.25674622755E+04  0.50400001928E-02 0. -1.
       -1    1    3    3    0  502  0.38709134786E+03  0.66983107275E+03  0.57688183904E+03  0.96504198554E+03  0.50400001928E-02 0.  1.
</event>
<event>
 5   0  0.7399409E-07  0.2996423E+04  0.7818609E-02  0.8244753E-01
        2   -1    0    0  501    0  0.00000000000E+00  0.00000000000E+00  0.18693828794E+04  0.18693828794E+04  0.25500000920E-02 0.  1.
       -2   -1    0    0    0  501  0.00000000000E+00  0.00000000000E+00 -0.12007375115E+04  0.12007375115E+04  0.25500000920E-02 0. -1.
    10030    2    1    2    0    0  0.00000000000E+00  0.00000000000E+00  0.66864536798E+03  0.30701203909E+04  0.29964232989E+04 0.  0.
        3    1    3    3  502    0  0.84263226157E+03 -0.13039739312E+03  0.15965328995E+04  0.18099585403E+04  0.10100000352E+00 0.  1.
       -3    1    3    3    0  502 -0.84263226157E+03  0.13039739312E+03 -0.92788753148E+03  0.12601618506E+04  0.10100000352E+00 0. -1.
</event>
<event>
 5   0  0.7307508E-07  0.2994836E+04  0.7818609E-02  0.8245207E-01
       -2   -1    0    0    0  501  0.00000000000E+00  0.00000000000E+00  0.10940216530E+04  0.10940216530E+04  0.25500000920E-02 0. -1.
        2   -1    0    0  501    0  0.00000000000E+00  0.00000000000E+00 -0.20495572648E+04  0.20495572648E+04  0.25500000920E-02 0.  1.
    10030    2    1    2    0    0  0.00000000000E+00  0.00000000000E+00 -0.95553561177E+03  0.31435789179E+04  0.29948355727E+04 0.  0.
        1    1    3    3  502    0  0.22600500228E+03 -0.55690485044E+03 -0.19173957103E+04  0.20093848769E+04  0.50400001928E-02 0.  1.
       -1    1    3    3    0  502 -0.22600500228E+03  0.55690485044E+03  0.96186009852E+03  0.11341940410E+04  0.50400001928E-02 0. -1.
</event>
<event>
 5   0  0.7399409E-07  0.2999255E+04  0.7818609E-02  0.8243944E-01
        2   -1    0    0  501    0  0.00000000000E+00  0.00000000000E+00  0.23470784703E+04  0.23470784703E+04  0.25500000920E-02 0. -1.
       -2   -1    0    0    0  501  0.00000000000E+00  0.00000000000E+00 -0.95816240951E+03  0.95816240952E+03  0.25500000920E-02 0.  1.
    10030    2    1    2    0    0  0.00000000000E+00  0.00000000000E+00  0.13889160608E+04  0.33052408798E+04  0.29992548157E+04 0.  0.
        3    1    3    3  502    0  0.49764553159E+03 -0.57882947924E+03 -0.72804013257E+03  0.10548635390E+04  0.10100000352E+00 0.  1.
       -3    1    3    3    0  502 -0.49764553159E+03  0.57882947924E+03  0.21169561933E+04  0.22503773408E+04  0.10100000352E+00 0. -1.
</event>
<event>
 5   0  0.2679935E-07  0.3014734E+04  0.7818609E-02  0.8239536E-01
        1   -1    0    0  501    0  0.00000000000E+00  0.00000000000E+00  0.10925096306E+04  0.10925096306E+04  0.50400001928E-02 0.  1.
       -1   -1    0    0    0  501  0.00000000000E+00  0.00000000000E+00 -0.20797570144E+04  0.20797570144E+04  0.50400001928E-02 0. -1.
    10030    2    1    2    0    0  0.00000000000E+00  0.00000000000E+00 -0.98724738375E+03  0.31722666450E+04  0.30147335323E+04 0.  0.
        2    1    3    3  502    0  0.31060799369E+03  0.10596463845E+03 -0.20417072764E+04  0.20679154801E+04  0.25500000920E-02 0. -1.
       -2    1    3    3    0  502 -0.31060799369E+03 -0.10596463845E+03  0.10544598926E+04  0.11043511649E+04  0.25500000920E-02 0.  1.
</event>
<event>
 5   0  0.7208273E-07  0.3003018E+04  0.7818609E-02  0.8242870E-01
        2   -1    0    0  501    0  0.00000000000E+00  0.00000000000E+00  0.19961504948E+04  0.19961504948E+04  0.25500000920E-02 0.  1.
       -2   -1    0    0    0  501  0.00000000000E+00  0.00000000000E+00 -0.11294384299E+04  0.11294384299E+04  0.25500000920E-02 0. -1.
    10030    2    1    2    0    0  0.00000000000E+00  0.00000000000E+00  0.86671206485E+03  0.31255889247E+04  0.30030178692E+04 0.  0.
        4    1    3    3  502    0 -0.66867265305E+02 -0.13984739098E+04  0.99801855688E+03  0.17193728974E+04  0.12699999809E+01 0.  1.
       -4    1    3    3    0  502  0.66867265305E+02  0.13984739098E+04 -0.13130649203E+03  0.14062160273E+04  0.12699999809E+01 0. -1.
</event>
<event>
 5   0  0.2602891E-07  0.3001977E+04  0.7818609E-02  0.8243167E-01
       -1   -1    0    0    0  501  0.00000000000E+00  0.00000000000E+00  0.13198260120E+04  0.13198260120E+04  0.50400001928E-02 0.  1.
        1   -1    0    0  501    0  0.00000000000E+00  0.00000000000E+00 -0.17070178835E+04  0.17070178836E+04  0.50400001928E-02 0. -1.
    10030    2    1    2    0    0  0.00000000000E+00  0.00000000000E+00 -0.38719187156E+03  0.30268438955E+04  0.30019770856E+04 0.  0.
        5    1    3    3  502    0  0.12741518930E+04  0.67630048113E+03 -0.61188064240E+03  0.15669286511E+04  0.46999998093E+01 0.  1.
       -5    1    3    3    0  502 -0.12741518930E+04 -0.67630048113E+03  0.22468877084E+03  0.14599152444E+04  0.46999998093E+01 0. -1.
</event>
<event>
 5   0  0.2679935E-07  0.3001239E+04  0.7818609E-02  0.8243377E-01
        1   -1    0    0  501    0  0.00000000000E+00  0.00000000000E+00  0.15509878295E+04  0.15509878295E+04  0.50400001928E-02 0. -1.
       -1   -1    0    0    0  501  0.00000000000E+00  0.00000000000E+00 -0.14518866663E+04  0.14518866663E+04  0.50400001928E-02 0.  1.
    10030    2    1    2    0    0  0.00000000000E+00  0.00000000000E+00  0.99101163238E+02  0.30028744958E+04  0.30012387770E+04 0.  0.
        2    1    3    3  502    0 -0.84467266548E+02 -0.12954205314E+04 -0.70359433540E+03  0.14765818843E+04  0.25500000920E-02 0.  1.
       -2    1    3    3    0  502  0.84467266548E+02  0.12954205314E+04  0.80269549864E+03  0.15262926115E+04  0.25500000920E-02 0. -1.
</event>
<event>
 5   0  0.2679935E-07  0.3001874E+04  0.7818609E-02  0.8243196E-01
       -1   -1    0    0    0  501  0.00000000000E+00  0.00000000000E+00  0.17474396846E+04  0.17474396846E+04  0.50400001928E-02 0.  1.
        1   -1    0    0  501    0  0.00000000000E+00  0.00000000000E+00 -0.12892072961E+04  0.12892072961E+04  0.50400001928E-02 0. -1.
    10030    2    1    2    0    0  0.00000000000E+00  0.00000000000E+00  0.45823238849E+03  0.30366469808E+04  0.30018740753E+04 0.  0.
        2    1    3    3  502    0  0.14607039053E+04 -0.33251179041E+03  0.32288297447E+03  0.15324729704E+04  0.25500000920E-02 0. -1.
       -2    1    3    3    0  502 -0.14607039053E+04  0.33251179041E+03  0.13534941402E+03  0.15041740104E+04  0.25500000920E-02 0.  1.
</event>
<event>
 5   0  0.2621825E-07  0.2999169E+04  0.7818609E-02  0.8243968E-01
       -1   -1    0    0    0  501  0.00000000000E+00  0.00000000000E+00  0.16234217884E+04  0.16234217884E+04  0.50400001928E-02 0. -1.
        1   -1    0    0  501    0  0.00000000000E+00  0.00000000000E+00 -0.13851939530E+04  0.13851939530E+04  0.50400001928E-02 0.  1.
    10030    2    1    2    0    0  0.00000000000E+00  0.00000000000E+00  0.23822783542E+03  0.30086157414E+04  0.29991692479E+04 0.  0.
        3    1    3    3  502    0 -0.25035789828E+02  0.35229509425E+03 -0.13428766837E+04  0.13885447137E+04  0.10100000352E+00 0.  1.
       -3    1    3    3    0  502  0.25035789828E+02 -0.35229509425E+03  0.15811045191E+04  0.16200710277E+04  0.10100000352E+00 0. -1.
</event>
<event>
 5   0  0.2602891E-07  0.3003091E+04  0.7818609E-02  0.8242849E-01
       -1   -1    0    0    0  501  0.00000000000E+00  0.00000000000E+00  0.91847660868E+03  0.91847660870E+03  0.50400001928E-02 0.  1.
        1   -1    0    0  501    0  0.00000000000E+00  0.00000000000E+00 -0.24547591802E+04  0.24547591802E+04  0.50400001928E-02 0. -1.
    10030    2    1    2    0    0  0.00000000000E+00  0.00000000000E+00 -0.15362825715E+04  0.33732357889E+04  0.30030909989E+04 0.  0.
        5    1    3    3  502    0  0.79274112280E+03 -0.37808088064E+03  0.59984870503E+03  0.10635902402E+04  0.46999998093E+01 0.  1.
       -5    1    3    3    0  502 -0.79274112280E+03  0.37808088064E+03 -0.21361312765E+04  0.23096455487E+04  0.46999998093E+01 0. -1.
</event>
<event>
 5   0  0.7585823E-07  0.3001264E+04  0.7818609E-02  0.8243370E-01
       -2   -1    0    0    0  501  0.00000000000E+00  0.00000000000E+00  0.91543156611E+03  0.91543156612E+03  0.25500000920E-02 0. -1.
        2   -1    0    0  501    0  0.00000000000E+00  0.00000000000E+00 -0.24599295099E+04  0.24599295099E+04  0.25500000920E-02 0.  1.
    10030    2    1    2    0    0  0.00000000000E+00  0.00000000000E+00 -0.15444979438E+04  0.33753610760E+04  0.30012644827E+04 0.  0.
        5    1    3    3  502    0  0.13417452022E+04  0.67143926916E+03 -0.80333794754E+03  0.17019062335E+04  0.46999998093E+01 0.  1.
       -5    1    3    3    0  502 -0.13417452022E+04 -0.67143926916E+03 -0.74115999623E+03  0.16734548425E+04  0.46999998093E+01 0. -1.
</event>
<event>
 5   0  0.2621825E-07  0.2925078E+04  0.7818609E-02  0.8265455E-01
       -1   -1    0    0    0  501  0.00000000000E+00  0.00000000000E+00  0.12411145871E+04  0.12411145871E+04  0.50400001928E-02 0.  1.
        1   -1    0    0  501    0  0.00000000000E+00  0.00000000000E+00 -0.17234677440E+04  0.17234677440E+04  0.50400001928E-02 0. -1.
    10030    2    1    2    0    0  0.00000000000E+00  0.00000000000E+00 -0.48235315694E+03  0.29645823311E+04  0.29250784314E+04 0.  0.
        3    1    3    3  502    0  0.99466375355E+03 -0.85362515624E+02 -0.13244322085E+04  0.16585425610E+04  0.10100000352E+00 0. -1.
       -3    1    3    3    0  502 -0.99466375355E+03  0.85362515624E+02  0.84207905155E+03  0.13060397701E+04  0.10100000352E+00 0.  1.
</event>
<event>
 5   0  0.2602891E-07  0.2996066E+04  0.7818609E-02  0.8244855E-01
       -1   -1    0    0    0  501  0.00000000000E+00  0.00000000000E+00  0.15549466828E+04  0.15549466828E+04  0.50400001928E-02 0. -1.
        1   -1    0    0  501    0  0.00000000000E+00  0.00000000000E+00 -0.14432025778E+04  0.14432025778E+04  0.50400001928E-02 0.  1.
    10030    2    1    2    0    0  0.00000000000E+00  0.00000000000E+00  0.11174410500E+03  0.29981492605E+04  0.29960661280E+04 0.  0.
        5    1    3    3  502    0  0.57155965330E+03  0.31455432217E+03  0.14053110830E+04  0.15493696101E+04  0.46999998093E+01 0. -1.
       -5    1    3    3    0  502 -0.57155965330E+03 -0.31455432217E+03 -0.12935669780E+04  0.14487796504E+04  0.46999998093E+01 0.  1.
</event>
<event>
 5   0  0.2792361E-07  0.2994755E+04  0.7818609E-02  0.8245230E-01
        1   -1    0    0  501    0  0.00000000000E+00  0.00000000000E+00  0.13017476572E+04  0.13017476573E+04  0.50400001928E-02 0. -1.
       -1   -1    0    0    0  501  0.00000000000E+00  0.00000000000E+00 -0.17224068461E+04  0.17224068461E+04  0.50400001928E-02 0.  1.
    10030    2    1    2    0    0  0.00000000000E+00  0.00000000000E+00 -0.42065918887E+03  0.30241545034E+04  0.29947547992E+04 0.  0.
        4    1    3    3  502    0  0.43664210842E+03  0.10354962379E+04 -0.12096040069E+04  0.16510760903E+04  0.12699999809E+01 0.  1.
       -4    1    3    3    0  502 -0.43664210842E+03 -0.10354962379E+04  0.78894481806E+03  0.13730784131E+04  0.12699999809E+01 0. -1.
</event>
<event>
 5   0  0.2679935E-07  0.3013610E+04  0.7818609E-02  0.8239855E-01
       -1   -1    0    0    0  501  0.00000000000E+00  0.00000000000E+00  0.16927800593E+04  0.16927800593E+04  0.50400001928E-02 0. -1.
        1   -1    0    0  501    0  0.00000000000E+00  0.00000000000E+00 -0.13412619478E+04  0.13412619478E+04  0.50400001928E-02 0.  1.
    10030    2    1    2    0    0  0.00000000000E+00  0.00000000000E+00  0.35151811149E+03  0.30340420071E+04  0.30136101138E+04 0.  0.
        2    1    3    3  502    0 -0.29900296591E+03  0.61824354864E+03 -0.11745401826E+04  0.13605780021E+04  0.25500000920E-02 0.  1.
       -2    1    3    3    0  502  0.29900296591E+03 -0.61824354864E+03  0.15260582941E+04  0.16734640050E+04  0.25500000920E-02 0. -1.
</event>
<event>
 5   0  0.7278657E-07  0.2996403E+04  0.7818609E-02  0.8244759E-01
       -2   -1    0    0    0  501  0.00000000000E+00  0.00000000000E+00  0.85969435981E+03  0.85969435982E+03  0.25500000920E-02 0.  1.
        2   -1    0    0  501    0  0.00000000000E+00  0.00000000000E+00 -0.26109366895E+04  0.26109366895E+04  0.25500000920E-02 0. -1.
    10030    2    1    2    0    0  0.00000000000E+00  0.00000000000E+00 -0.17512423296E+04  0.34706310493E+04  0.29964028740E+04 0.  0.
        2    1    3    3  502    0  0.69461438422E+03 -0.86085122777E+03 -0.20460162953E+04  0.23258840598E+04  0.25500000920E-02 0. -1.
       -2    1    3    3    0  502 -0.69461438422E+03  0.86085122777E+03  0.29477396562E+03  0.11447469895E+04  0.25500000920E-02 0.  1.
</event>
<event>
 5   0  0.7399409E-07  0.2996848E+04  0.7818609E-02  0.8244631E-01
       -2   -1    0    0    0  501  0.00000000000E+00  0.00000000000E+00  0.13532171265E+04  0.13532171265E+04  0.25500000920E-02 0. -1.
        2   -1    0    0  501    0  0.00000000000E+00  0.00000000000E+00 -0.16592127160E+04  0.16592127160E+04  0.25500000920E-02 0.  1.
    10030    2    1    2    0    0  0.00000000000E+00  0.00000000000E+00 -0.30599558953E+03  0.30124298425E+04  0.29968483871E+04 0.  0.
        3    1    3    3  502    0  0.26242320531E+03  0.76552088952E+03  0.11146644670E+04  0.13774487486E+04  0.10100000352E+00 0. -1.
       -3    1    3    3    0  502 -0.26242320531E+03 -0.76552088952E+03 -0.14206600565E+04  0.16349810939E+04  0.10100000352E+00 0.  1.
</event>
<event>
 5   0  0.7208273E-07  0.3003589E+04  0.7818609E-02  0.8242707E-01
       -2   -1    0    0    0  501  0.00000000000E+00  0.00000000000E+00  0.13999068851E+04  0.13999068851E+04  0.25500000920E-02 0.  1.
        2   -1    0    0  501    0  0.00000000000E+00  0.00000000000E+00 -0.16110981385E+04  0.16110981385E+04  0.25500000920E-02 0. -1.
    10030    2    1    2    0    0  0.00000000000E+00  0.00000000000E+00 -0.21119125334E+03  0.30110050236E+04  0.30035894371E+04 0.  0.
        4    1    3    3  502    0  0.11623102386E+04  0.90578439916E+03  0.18490473783E+03  0.14851268779E+04  0.12699999809E+01 0.  1.
       -4    1    3    3    0  502 -0.11623102386E+04 -0.90578439916E+03 -0.39609599117E+03  0.15258781457E+04  0.12699999809E+01 0. -1.
</event>
<event>
 5   0  0.2602891E-07  0.2983772E+04  0.7818609E-02  0.8248380E-01
       -1   -1    0    0    0  501  0.00000000000E+00  0.00000000000E+00  0.11124569583E+04  0.11124569583E+04  0.50400001928E-02 0.  1.
        1   -1    0    0  501    0  0.00000000000E+00  0.00000000000E+00 -0.20007277208E+04  0.20007277208E+04  0.50400001928E-02 0. -1.
    10030    2    1    2    0    0  0.00000000000E+00  0.00000000000E+00 -0.88827076253E+03  0.31131846791E+04  0.29837717572E+04 0.  0.
        5    1    3    3  502    0 -0.11837659211E+04  0.45205261181E+03  0.37744860154E+03  0.13221735350E+04  0.46999998093E+01 0.  1.
       -5    1    3    3    0  502  0.11837659211E+04 -0.45205261181E+03 -0.12657193641E+04  0.17910111441E+04  0.46999998093E+01 0. -1.
</event>
<event>
 5   0  0.7307508E-07  0.3001796E+04  0.7818609E-02  0.8243218E-01
        2   -1    0    0  501    0  0.00000000000E+00  0.00000000000E+00  0.15234019277E+04  0.15234019277E+04  0.25500000920E-02 0.  1.
       -2   -1    0    0    0  501  0.00000000000E+00  0.00000000000E+00 -0.14787268948E+04  0.14787268948E+04  0.25500000920E-02 0. -1.
    10030    2    1    2    0    0  0.00000000000E+00  0.00000000000E+00  0.44675032868E+02  0.30021288225E+04  0.30017963969E+04 0.  0.
        1    1    3    3  502    0  0.14750895218E+04  0.25248114868E+03 -0.91953633811E+02  0.14993636312E+04  0.50400001928E-02 0.  1.
       -1    1    3    3    0  502 -0.14750895218E+04 -0.25248114868E+03  0.13662866668E+03  0.15027651914E+04  0.50400001928E-02 0. -1.
</event>
<event>
 5   0  0.7585823E-07  0.3001348E+04  0.7818609E-02  0.8243346E-01
       -2   -1    0    0    0  501  0.00000000000E+00  0.00000000000E+00  0.15990380927E+04  0.15990380927E+04  0.25500000920E-02 0. -1.
        2   -1    0    0  501    0  0.00000000000E+00  0.00000000000E+00 -0.14083609938E+04  0.14083609938E+04  0.25500000920E-02 0.  1.
    10030    2    1    2    0    0  0.00000000000E+00  0.00000000000E+00  0.19067709889E+03  0.30073990865E+04  0.30013482819E+04 0.  0.
        5    1    3    3  502    0 -0.83387593474E+03  0.45201567994E+03  0.12605817519E+04  0.15775790607E+04  0.46999998093E+01 0. -1.
       -5    1    3    3    0  502  0.83387593474E+03 -0.45201567994E+03 -0.10699046531E+04  0.14298200258E+04  0.46999998093E+01 0.  1.
</event>
<event>
 5   0  0.2792361E-07  0.2998017E+04  0.7818609E-02  0.8244297E-01
       -1   -1    0    0    0  501  0.00000000000E+00  0.00000000000E+00  0.96069984237E+03  0.96069984238E+03  0.50400001928E-02 0. -1.
        1   -1    0    0  501    0  0.00000000000E+00  0.00000000000E+00 -0.23389477209E+04  0.23389477209E+04  0.50400001928E-02 0.  1.
    10030    2    1    2    0    0  0.00000000000E+00  0.00000000000E+00 -0.13782478786E+04  0.32996475633E+04  0.29980171493E+04 0.  0.
        4    1    3    3  502    0 -0.83914910128E+03 -0.10690922243E+04  0.68721624790E+01  0.13591093546E+04  0.12699999809E+01 0. -1.
       -4    1    3    3    0  502  0.83914910128E+03  0.10690922243E+04 -0.13851200410E+04  0.19405382087E+04  0.12699999809E+01 0.  1.
</event>
<event>
 5   0  0.2679935E-07  0.3001947E+04  0.7818609E-02  0.8243175E-01
        1   -1    0    0  501    0  0.00000000000E+00  0.00000000000E+00  0.23225689796E+04  0.23225689796E+04  0.50400001928E-02 0.  1.
       -1   -1    0    0    0  501  0.00000000000E+00  0.00000000000E+00 -0.97001241339E+03  0.97001241340E+03  0.50400001928E-02 0. -1.
    10030    2    1    2    0    0  0.00000000000E+00  0.00000000000E+00  0.13525565662E+04  0.32925813930E+04  0.30019465293E+04 0.  0.
        2    1    3    3  502    0  0.32572736232E+03  0.68604535442E+03 -0.74373317050E+03  0.10629654612E+04  0.25500000920E-02 0. -1.
       -2    1    3    3    0  502 -0.32572736232E+03 -0.68604535442E+03  0.20962897367E+04  0.22296159318E+04  0.25500000920E-02 0.  1.
</event>
<event>
 5   0  0.2679935E-07  0.3007666E+04  0.7818609E-02  0.8241545E-01
       -1   -1    0    0    0  501  0.00000000000E+00  0.00000000000E+00  0.13727580941E+04  0.13727580942E+04  0.50400001928E-02 0.  1.
        1   -1    0    0  501    0  0.00000000000E+00  0.00000000000E+00 -0.16474229704E+04  0.16474229704E+04  0.50400001928E-02 0. -1.
    10030    2    1    2    0    0  0.00000000000E+00  0.00000000000E+00 -0.27466487629E+03  0.30201810646E+04  0.30076656843E+04 0.  0.
        2    1    3    3  502    0 -0.89513634016E+03  0.97861970812E+03  0.57452336265E+03  0.14453521006E+04  0.25500000920E-02 0.  1.
       -2    1    3    3    0  502  0.89513634016E+03 -0.97861970812E+03 -0.84918823893E+03  0.15748289640E+04  0.25500000920E-02 0. -1.
</event>
<event>
 5   0  0.2602891E-07  0.3002838E+04  0.7818609E-02  0.8242921E-01
       -1   -1    0    0    0  501  0.00000000000E+00  0.00000000000E+00  0.14623631293E+04  0.14623631293E+04  0.50400001928E-02 0. -1.
        1   -1    0    0  501    0  0.00000000000E+00  0.00000000000E+00 -0.15415180727E+04  0.15415180727E+04  0.50400001928E-02 0.  1.
    10030    2    1    2    0    0  0.00000000000E+00  0.00000000000E+00 -0.79154943431E+02  0.30038812020E+04  0.30028381193E+04 0.  0.
        5    1    3    3  502    0 -0.13519617863E+04  0.19163143741E+03  0.58491001144E+03  0.14854847999E+04  0.46999998093E+01 0. -1.
       -5    1    3    3    0  502  0.13519617863E+04 -0.19163143741E+03 -0.66406495487E+03  0.15183964020E+04  0.46999998093E+01 0.  1.
</event>
<event>
 5   0  0.2679935E-07  0.3003131E+04  0.7818609E-02  0.8242837E-01
        1   -1    0    0  501    0  0.00000000000E+00  0.00000000000E+00  0.14923906355E+04  0.14923906355E+04  0.50400001928E-02 0.  1.
       -1   -1    0    0    0  501  0.00000000000E+00  0.00000000000E+00 -0.15107963796E+04  0.15107963796E+04  0.50400001928E-02 0. -1.
    10030    2    1    2    0    0  0.00000000000E+00  0.00000000000E+00 -0.18405744118E+02  0.30031870151E+04  0.30031306126E+04 0.  0.
        2    1    3    3  502    0  0.51772842979E+03 -0.58250591986E+03  0.12743096422E+04  0.14937271966E+04  0.25500000920E-02 0.  1.
       -2    1    3    3    0  502 -0.51772842979E+03  0.58250591986E+03 -0.12927153863E+04  0.15094598185E+04  0.25500000920E-02 0. -1.
</event>
<event>
 5   0  0.7278657E-07  0.3023353E+04  0.7818609E-02  0.8237094E-01
        2   -1    0    0  501    0  0.00000000000E+00  0.00000000000E+00  0.10444294554E+04  0.10444294554E+04  0.25500000920E-02 0. -1.
       -2   -1    0    0    0  501  0.00000000000E+00  0.00000000000E+00 -0.21879560708E+04  0.21879560708E+04  0.25500000920E-02 0.  1.
    10030    2    1    2    0    0  0.00000000000E+00  0.00000000000E+00 -0.11435266154E+04  0.32323855262E+04  0.30233529516E+04 0.  0.
        2    1    3    3  502    0 -0.10897564889E+04 -0.57807381752E+03 -0.15059165477E+04  0.19466697697E+04  0.25500000920E-02 0.  1.
       -2    1    3    3    0  502  0.10897564889E+04  0.57807381752E+03  0.36238993230E+03  0.12857157565E+04  0.25500000920E-02 0. -1.
</event>
<event>
 5   0  0.7278657E-07  0.3001718E+04  0.7818609E-02  0.8243240E-01
       -2   -1    0    0    0  501  0.00000000000E+00  0.00000000000E+00  0.10372496783E+04  0.10372496783E+04  0.25500000920E-02 0. -1.
        2   -1    0    0  501    0  0.00000000000E+00  0.00000000000E+00 -0.21716836785E+04  0.21716836785E+04  0.25500000920E-02 0.  1.
    10030    2    1    2    0    0  0.00000000000E+00  0.00000000000E+00 -0.11344340002E+04  0.32089333568E+04  0.30017183058E+04 0.  0.
        2    1    3    3  502    0  0.32872552363E+03 -0.36191705227E+03 -0.20841633572E+04  0.21407431705E+04  0.25500000920E-02 0.  1.
       -2    1    3    3    0  502 -0.32872552363E+03  0.36191705227E+03  0.94972935697E+03  0.10681901863E+04  0.25500000920E-02 0. -1.
</event>
<event>
 5   0  0.7399409E-07  0.3009547E+04  0.7818609E-02  0.8241010E-01
        2   -1    0    0  501    0  0.00000000000E+00  0.00000000000E+00  0.24121718738E+04  0.24121718738E+04  0.25500000920E-02 0. -1.
       -2   -1    0    0    0  501  0.00000000000E+00  0.00000000000E+00 -0.93871568829E+03  0.93871568830E+03  0.25500000920E-02 0.  1.
    10030    2    1    2    0    0  0.00000000000E+00  0.00000000000E+00  0.14734561855E+04  0.33508875621E+04  0.30095471957E+04 0.  0.
        3    1    3    3  502    0  0.65016295504E+03  0.74746293403E+03 -0.52440326341E+03  0.11208976308E+04  0.10100000352E+00 0.  1.
       -3    1    3    3    0  502 -0.65016295504E+03 -0.74746293403E+03  0.19978594489E+04  0.22299899313E+04  0.10100000352E+00 0. -1.
</event>
<event>
 5   0  0.2640081E-07  0.2999854E+04  0.7818609E-02  0.8243773E-01
        1   -1    0    0  501    0  0.00000000000E+00  0.00000000000E+00  0.21877754506E+04  0.21877754506E+04  0.50400001928E-02 0.  1.
       -1   -1    0    0    0  501  0.00000000000E+00  0.00000000000E+00 -0.10283415060E+04  0.10283415060E+04  0.50400001928E-02 0. -1.
    10030    2    1    2    0    0  0.00000000000E+00  0.00000000000E+00  0.11594339447E+04  0.32161169566E+04  0.29998535309E+04 0.  0.
        1    1    3    3  502    0  0.85058974077E+02 -0.10403207474E+04 -0.57509908733E+03  0.11917387494E+04  0.50400001928E-02 0. -1.
       -1    1    3    3    0  502 -0.85058974077E+02  0.10403207474E+04  0.17345330320E+04  0.20243782072E+04  0.50400001928E-02 0.  1.
</event>
<event>
 5   0  0.2679935E-07  0.3009087E+04  0.7818609E-02  0.8241141E-01
        1   -1    0    0  501    0  0.00000000000E+00  0.00000000000E+00  0.17940142355E+04  0.17940142355E+04  0.50400001928E-02 0. -1.
       -1   -1    0    0    0  501  0.00000000000E+00  0.00000000000E+00 -0.12617797976E+04  0.12617797976E+04  0.50400001928E-02 0.  1.
    10030    2    1    2    0    0  0.00000000000E+00  0.00000000000E+00  0.53223443790E+03  0.30557940331E+04  0.30090868508E+04 0.  0.
        2    1    3    3  502    0  0.14510643476E+04  0.18367079996E+03  0.62419238796E+03  0.15902637645E+04  0.25500000920E-02 0. -1.
       -2    1    3    3    0  502 -0.14510643476E+04 -0.18367079996E+03 -0.91957950062E+02  0.14655302686E+04  0.25500000920E-02 0.  1.
</event>
<event>
 5   0  0.2679935E-07  0.3001376E+04  0.7818609E-02  0.8243338E-01
        1   -1    0    0  501    0  0.00000000000E+00  0.00000000000E+00  0.89119270151E+03  0.89119270153E+03  0.50400001928E-02 0.  1.
       -1   -1    0    0    0  501  0.00000000000E+00  0.00000000000E+00 -0.25270222603E+04  0.25270222603E+04  0.50400001928E-02 0. -1.
    10030    2    1    2    0    0  0.00000000000E+00  0.00000000000E+00 -0.16358295588E+04  0.34182149618E+04  0.30013755480E+04 0.  0.
        2    1    3    3  502    0  0.14936660532E+04 -0.10386148730E+03 -0.93315209328E+03  0.17642557400E+04  0.25500000920E-02 0. -1.
       -2    1    3    3    0  502 -0.14936660532E+04  0.10386148730E+03 -0.70267746552E+03  0.16539592218E+04  0.25500000920E-02 0.  1.
</event>
<event>
 5   0  0.7399409E-07  0.2997748E+04  0.7818609E-02  0.8244374E-01
        2   -1    0    0  501    0  0.00000000000E+00  0.00000000000E+00  0.16508766466E+04  0.16508766466E+04  0.25500000920E-02 0. -1.
       -2   -1    0    0    0  501  0.00000000000E+00  0.00000000000E+00 -0.13608667639E+04  0.13608667639E+04  0.25500000920E-02 0.  1.
    10030    2    1    2    0    0  0.00000000000E+00  0.00000000000E+00  0.29000988272E+03  0.30117434105E+04  0.29977479278E+04 0.  0.
        3    1    3    3  502    0  0.59144695225E+03  0.12278320749E+04  0.77181034500E+03  0.15662286935E+04  0.10100000352E+00 0. -1.
       -3    1    3    3    0  502 -0.59144695225E+03 -0.12278320749E+04 -0.48180046229E+03  0.14455147170E+04  0.10100000352E+00 0.  1.
</event>
<event>
 5   0  0.7278657E-07  0.3007514E+04  0.7818609E-02  0.8241588E-01
        2   -1    0    0  501    0  0.00000000000E+00  0.00000000000E+00  0.17013671558E+04  0.17013671558E+04  0.25500000920E-02 0. -1.
       -2   -1    0    0    0  501  0.00000000000E+00  0.00000000000E+00 -0.13290990382E+04  0.13290990382E+04  0.25500000920E-02 0.  1.
    10030    2    1    2    0    0  0.00000000000E+00  0.00000000000E+00  0.37226811756E+03  0.30304661941E+04  0.30075142231E+04 0.  0.
        2    1    3    3  502    0  0.75053498531E+03  0.27014366537E+03  0.14706192928E+04  0.16730216581E+04  0.25500000920E-02 0. -1.
       -2    1    3    3    0  502 -0.75053498531E+03 -0.27014366537E+03 -0.10983511752E+04  0.13574445360E+04  0.25500000920E-02 0.  1.
</event>
<event>
 5   0  0.7278657E-07  0.2995721E+04  0.7818609E-02  0.8244954E-01
        2   -1    0    0  501    0  0.00000000000E+00  0.00000000000E+00  0.18346139506E+04  0.18346139506E+04  0.25500000920E-02 0. -1.
       -2   -1    0    0    0  501  0.00000000000E+00  0.00000000000E+00 -0.12229199283E+04  0.12229199283E+04  0.25500000920E-02 0.  1.
    10030    2    1    2    0    0  0.00000000000E+00  0.00000000000E+00  0.61169402230E+03  0.30575338789E+04  0.29957209222E+04 0.  0.
        2    1    3    3  502    0  0.13796359916E+04  0.90216184508E+02  0.89397611248E+03  0.16464287774E+04  0.25500000920E-02 0. -1.
       -2    1    3    3    0  502 -0.13796359916E+04 -0.90216184508E+02 -0.28228209017E+03  0.14111051016E+04  0.25500000920E-02 0.  1.
</event>
<event>
 5   0  0.2792361E-07  0.3012260E+04  0.7818609E-02  0.8240239E-01
        1   -1    0    0  501    0  0.00000000000E+00  0.00000000000E+00  0.15190619991E+04  0.15190619991E+04  0.50400001928E-02 0. -1.
       -1   -1    0    0    0  501  0.00000000000E+00  0.00000000000E+00 -0.14933079455E+04  0.14933079455E+04  0.50400001928E-02 0.  1.
    10030    2    1    2    0    0  0.00000000000E+00  0.00000000000E+00  0.25754053582E+02  0.30123699446E+04  0.30122598513E+04 0.  0.
        4    1    3    3  502    0 -0.14420530217E+04  0.41277459055E+03 -0.12323805083E+03  0.15050212656E+04  0.12699999809E+01 0.  1.
       -4    1    3    3    0  502  0.14420530217E+04 -0.41277459055E+03  0.14899210442E+03  0.15073486790E+04  0.12699999809E+01 0. -1.
</event>
<event>
 5   0  0.2414250E-07  0.3000360E+04  0.7818609E-02  0.8243628E-01
        3   -1    0    0  501    0  0.00000000000E+00  0.00000000000E+00  0.10549697637E+04  0.10549697685E+04  0.10100000352E+00 0.  1.
       -3   -1    0    0    0  501  0.00000000000E+00  0.00000000000E+00 -0.21332742541E+04  0.21332742564E+04  0.10100000352E+00 0. -1.
    10030    2    1    2    0    0  0.00000000000E+00  0.00000000000E+00 -0.10783044903E+04  0.31882440250E+04  0.30003598766E+04 0.  0.
        1    1    3    3  502    0  0.30175707218E+03 -0.10834862110E+04 -0.15940621392E+04  0.19509058931E+04  0.50400001928E-02 0. -1.
       -1    1    3    3    0  502 -0.30175707218E+03  0.10834862110E+04  0.51575764889E+03  0.12373381319E+04  0.50400001928E-02 0.  1.
</event>
<event>
 5   0  0.7307508E-07  0.3002871E+04  0.7818609E-02  0.8242911E-01
       -2   -1    0    0    0  501  0.00000000000E+00  0.00000000000E+00  0.11211536553E+04  0.11211536553E+04  0.25500000920E-02 0.  1.
        2   -1    0    0  501    0  0.00000000000E+00  0.00000000000E+00 -0.20107045547E+04  0.20107045547E+04  0.25500000920E-02 0. -1.
    10030    2    1    2    0    0  0.00000000000E+00  0.00000000000E+00 -0.88955089939E+03  0.31318582099E+04  0.30028711335E+04 0.  0.
        1    1    3    3  502    0 -0.57399508742E+03  0.13870608493E+04 -0.41347636458E+03  0.15570391338E+04  0.50400001928E-02 0. -1.
       -1    1    3    3    0  502  0.57399508742E+03 -0.13870608493E+04 -0.47607453482E+03  0.15748190762E+04  0.50400001928E-02 0.  1.
</event>
<event>
 5   0  0.7399409E-07  0.2999247E+04  0.7818609E-02  0.8243946E-01
       -2   -1    0    0    0  501  0.00000000000E+00  0.00000000000E+00  0.10347211220E+04  0.10347211220E+04  0.25500000920E-02 0. -1.
        2   -1    0    0  501    0  0.00000000000E+00  0.00000000000E+00 -0.21734074731E+04  0.21734074731E+04  0.25500000920E-02 0.  1.
    10030    2    1    2    0    0  0.00000000000E+00  0.00000000000E+00 -0.11386863511E+04  0.32081285951E+04  0.29992469849E+04 0.  0.
        3    1    3    3  502    0 -0.38902260873E+03  0.12616109711E+04 -0.13301228547E+04  0.18740938213E+04  0.10100000352E+00 0.  1.
       -3    1    3    3    0  502  0.38902260873E+03 -0.12616109711E+04  0.19143650355E+03  0.13340347737E+04  0.10100000352E+00 0. -1.
</event>
<event>
 5   0  0.2679935E-07  0.3008350E+04  0.7818609E-02  0.8241351E-01
        1   -1    0    0  501    0  0.00000000000E+00  0.00000000000E+00  0.12425204809E+04  0.12425204809E+04  0.50400001928E-02 0.  1.
       -1   -1    0    0    0  501  0.00000000000E+00  0.00000000000E+00 -0.18209296684E+04  0.18209296684E+04  0.50400001928E-02 0. -1.
    10030    2    1    2    0    0  0.00000000000E+00  0.00000000000E+00 -0.57840918755E+03  0.30634501493E+04  0.30083499845E+04 0.  0.
        2    1    3    3  502    0  0.10237860194E+04  0.77034954018E+03 -0.10916517303E+04  0.16832348997E+04  0.25500000920E-02 0. -1.
       -2    1    3    3    0  502 -0.10237860194E+04 -0.77034954018E+03  0.51324254272E+03  0.13802152496E+04  0.25500000920E-02 0.  1.
</event>
<event>
 5   0  0.7399409E-07  0.2996233E+04  0.7818609E-02  0.8244807E-01
       -2   -1    0    0    0  501  0.00000000000E+00  0.00000000000E+00  0.84563718893E+03  0.84563718893E+03  0.25500000920E-02 0.  1.
        2   -1    0    0  501    0  0.00000000000E+00  0.00000000000E+00 -0.26540376388E+04  0.26540376388E+04  0.25500000920E-02 0. -1.
    10030    2    1    2    0    0  0.00000000000E+00  0.00000000000E+00 -0.18084004499E+04  0.34996748277E+04  0.29962329203E+04 0.  0.
        3    1    3    3  502    0 -0.13196759746E+03 -0.60213267765E+03  0.69064523868E+03  0.92572677621E+03  0.10100000352E+00 0.  1.
       -3    1    3    3    0  502  0.13196759746E+03  0.60213267765E+03 -0.24990456885E+04  0.25739480515E+04  0.10100000352E+00 0. -1.
</event>
<event>
 5   0  0.7278657E-07  0.3001749E+04  0.7818609E-02  0.8243232E-01
       -2   -1    0    0    0  501  0.00000000000E+00  0.00000000000E+00  0.10253897816E+04  0.10253897816E+04  0.25500000920E-02 0. -1.
        2   -1    0    0  501    0  0.00000000000E+00  0.00000000000E+00 -0.21968471328E+04  0.21968471328E+04  0.25500000920E-02 0.  1.
    10030    2    1    2    0    0  0.00000000000E+00  0.00000000000E+00 -0.11714573513E+04  0.32222369144E+04  0.30017492244E+04 0.  0.
        2    1    3    3  502    0  0.82646407544E+03 -0.66010187049E+01  0.75910631772E+03  0.11221982191E+04  0.25500000920E-02 0. -1.
       -2    1    3    3    0  502 -0.82646407544E+03  0.66010187049E+01 -0.19305636690E+04  0.21000386952E+04  0.25500000920E-02 0.  1.
</event>
<event>
 5   0  0.7399409E-07  0.3012963E+04  0.7818609E-02  0.8240039E-01
        2   -1    0    0  501    0  0.00000000000E+00  0.00000000000E+00  0.13604189755E+04  0.13604189755E+04  0.25500000920E-02 0.  1.
       -2   -1    0    0    0  501  0.00000000000E+00  0.00000000000E+00 -0.16682265751E+04  0.16682265751E+04  0.25500000920E-02 0. -1.
    10030    2    1    2    0    0  0.00000000000E+00  0.00000000000E+00 -0.30780759960E+03  0.30286455506E+04  0.30129633839E+04 0.  0.
        3    1    3    3  502    0  0.34225758695E+03 -0.13704450021E+04  0.37248901724E+03  0.14608243692E+04  0.10100000352E+00 0.  1.
       -3    1    3    3    0  502 -0.34225758695E+03  0.13704450021E+04 -0.68029661684E+03  0.15678211814E+04  0.10100000352E+00 0. -1.
</event>
<event>
 5   0  0.2602891E-07  0.3001929E+04  0.7818609E-02  0.8243180E-01
       -1   -1    0    0    0  501  0.00000000000E+00  0.00000000000E+00  0.16004529309E+04  0.16004529309E+04  0.50400001928E-02 0.  1.
        1   -1    0    0  501    0  0.00000000000E+00  0.00000000000E+00 -0.14076601494E+04  0.14076601494E+04  0.50400001928E-02 0. -1.
    10030    2    1    2    0    0  0.00000000000E+00  0.00000000000E+00  0.19279278148E+03  0.30081130804E+04  0.30019285880E+04 0.  0.
        5    1    3    3  502    0  0.78126317511E+02 -0.13110678795E+04  0.82443914987E+03  0.15507174817E+04  0.46999998093E+01 0.  1.
       -5    1    3    3    0  502 -0.78126317511E+02  0.13110678795E+04 -0.63164636839E+03  0.14573955986E+04  0.46999998093E+01 0. -1.
</event>
<event>
 5   0  0.2602891E-07  0.2998334E+04  0.7818609E-02  0.8244207E-01
       -1   -1    0    0    0  501  0.00000000000E+00  0.00000000000E+00  0.14222840527E+04  0.14222840528E+04  0.50400001928E-02 0.  1.
        1   -1    0    0  501    0  0.00000000000E+00  0.00000000000E+00 -0.15802054989E+04  0.15802054989E+04  0.50400001928E-02 0. -1.
    10030    2    1    2    0    0  0.00000000000E+00  0.00000000000E+00 -0.15792144612E+03  0.30024895516E+04  0.29983335913E+04 0.  0.
        5    1    3    3  502    0  0.10993745600E+04  0.47941145471E+03  0.82174096251E+03  0.14538707183E+04  0.46999998093E+01 0.  1.
       -5    1    3    3    0  502 -0.10993745600E+04 -0.47941145471E+03 -0.97966240864E+03  0.15486188333E+04  0.46999998093E+01 0. -1.
</event>
<event>
 5   0  0.7307508E-07  0.3052692E+04  0.7818609E-02  0.8228842E-01
        2   -1    0    0  501    0  0.00000000000E+00  0.00000000000E+00  0.20026565752E+04  0.20026565752E+04  0.25500000920E-02 0.  1.
       -2   -1    0    0    0  501  0.00000000000E+00  0.00000000000E+00 -0.11633207136E+04  0.11633207136E+04  0.25500000920E-02 0. -1.
    10030    2    1    2    0    0  0.00000000000E+00  0.00000000000E+00  0.83933586155E+03  0.31659772888E+04  0.30526918457E+04 0.  0.
        1    1    3    3  502    0 -0.80001046055E+03 -0.87525643518E+01 -0.92843089676E+03  0.12255926217E+04  0.50400001928E-02 0. -1.
       -1    1    3    3    0  502  0.80001046055E+03  0.87525643518E+01  0.17677667583E+04  0.19403846671E+04  0.50400001928E-02 0.  1.
</event>
<event>
 5   0  0.2792361E-07  0.2999730E+04  0.7818609E-02  0.8243808E-01
       -1   -1    0    0    0  501  0.00000000000E+00  0.00000000000E+00  0.11351350051E+04  0.11351350051E+04  0.50400001928E-02 0. -1.
        1   -1    0    0  501    0  0.00000000000E+00  0.00000000000E+00 -0.19817861526E+04  0.19817861526E+04  0.50400001928E-02 0.  1.
    10030    2    1    2    0    0  0.00000000000E+00  0.00000000000E+00 -0.84665114750E+03  0.31169211577E+04  0.29997298775E+04 0.  0.
        4    1    3    3  502    0 -0.12990329547E+04 -0.74875477462E+03 -0.38344797002E+03  0.15476286016E+04  0.12699999809E+01 0. -1.
       -4    1    3    3    0  502  0.12990329547E+04  0.74875477462E+03 -0.46320317747E+03  0.15692925561E+04  0.12699999809E+01 0.  1.
</event>
<event>
 5   0  0.7278657E-07  0.3008745E+04  0.7818609E-02  0.8241238E-01
       -2   -1    0    0    0  501  0.00000000000E+00  0.00000000000E+00  0.14083649852E+04  0.14083649852E+04  0.25500000920E-02 0.  1.
        2   -1    0    0  501    0  0.00000000000E+00  0.00000000000E+00 -0.16069245207E+04  0.16069245207E+04  0.25500000920E-02 0. -1.
    10030    2    1    2    0    0  0.00000000000E+00  0.00000000000E+00 -0.19855953551E+03  0.30152895059E+04  0.30087447408E+04 0.  0.
        2    1    3    3  502    0 -0.30695791139E+03 -0.95706701363E+03  0.10225012362E+04  0.14337744613E+04  0.25500000920E-02 0.  1.
       -2    1    3    3    0  502  0.30695791139E+03  0.95706701363E+03 -0.12210607717E+04  0.15815150446E+04  0.25500000920E-02 0. -1.
</event>
<event>
 5   0  0.2640081E-07  0.2942633E+04  0.7818609E-02  0.8260305E-01
       -1   -1    0    0    0  501  0.00000000000E+00  0.00000000000E+00  0.17053163582E+04  0.17053163582E+04  0.50400001928E-02 0. -1.
        1   -1    0    0  501    0  0.00000000000E+00  0.00000000000E+00 -0.12694259538E+04  0.12694259539E+04  0.50400001928E-02 0.  1.
    10030    2    1    2    0    0  0.00000000000E+00  0.00000000000E+00  0.43589040434E+03  0.29747423121E+04  0.29426334088E+04 0.  0.
        1    1    3    3  502    0 -0.20796364436E+03 -0.23378096356E+03 -0.12354034602E+04  0.12744112860E+04  0.50400001928E-02 0.  1.
       -1    1    3    3    0  502  0.20796364436E+03  0.23378096356E+03  0.16712938646E+04  0.17003310260E+04  0.50400001928E-02 0. -1.
</event>
<event>
 5   0  0.7208273E-07  0.2997593E+04  0.7818609E-02  0.8244419E-01
       -2   -1    0    0    0  501  0.00000000000E+00  0.00000000000E+00  0.17014097254E+04  0.17014097254E+04  0.25500000920E-02 0. -1.
        2   -1    0    0  501    0  0.00000000000E+00  0.00000000000E+00 -0.13203117069E+04  0.13203117069E+04  0.25500000920E-02 0.  1.
    10030    2    1    2    0    0  0.00000000000E+00  0.00000000000E+00  0.38109801847E+03  0.30217214323E+04  0.29975931537E+04 0.  0.
        4    1    3    3  502    0  0.44492014749E+03 -0.12258657500E+04  0.93520254054E+03  0.16047760527E+04  0.12699999809E+01 0.  1.
       -4    1    3    3    0  502 -0.44492014749E+03  0.12258657500E+04 -0.55410452207E+03  0.14169453796E+04  0.12699999809E+01 0. -1.
</event>
<event>
 5   0  0.2792361E-07  0.2989567E+04  0.7818609E-02  0.8246716E-01
        1   -1    0    0  501    0  0.00000000000E+00  0.00000000000E+00  0.18721040272E+04  0.18721040272E+04  0.50400001928E-02 0. -1.
       -1   -1    0    0    0  501  0.00000000000E+00  0.00000000000E+00 -0.11935116826E+04  0.11935116826E+04  0.50400001928E-02 0.  1.
    10030    2    1    2    0    0  0.00000000000E+00  0.00000000000E+00  0.67859234458E+03  0.30656157098E+04  0.29895672111E+04 0.  0.
        4    1    3    3  502    0  0.23530368226E+03 -0.69581973781E+03 -0.99568207860E+03  0.12373024468E+04  0.12699999809E+01 0.  1.
       -4    1    3    3    0  502 -0.23530368226E+03  0.69581973781E+03  0.16742744232E+04  0.18283132629E+04  0.12699999809E+01 0. -1.
</event>
<event>
 5   0  0.7585823E-07  0.3002041E+04  0.7818609E-02  0.8243148E-01
        2   -1    0    0  501    0  0.00000000000E+00  0.00000000000E+00  0.20968522238E+04  0.20968522238E+04  0.25500000920E-02 0. -1.
       -2   -1    0    0    0  501  0.00000000000E+00  0.00000000000E+00 -0.10744978304E+04  0.10744978304E+04  0.25500000920E-02 0.  1.
    10030    2    1    2    0    0  0.00000000000E+00  0.00000000000E+00  0.10223543934E+04  0.31713500543E+04  0.30020414156E+04 0.  0.
        5    1    3    3  502    0  0.10325668116E+04 -0.74141580208E+03  0.13544113020E+04  0.18575100745E+04  0.46999998093E+01 0. -1.
       -5    1    3    3    0  502 -0.10325668116E+04  0.74141580208E+03 -0.33205690862E+03  0.13138399798E+04  0.46999998093E+01 0.  1.
</event>
<event>
 5   0  0.2792361E-07  0.3016054E+04  0.7818609E-02  0.8239161E-01
       -1   -1    0    0    0  501  0.00000000000E+00  0.00000000000E+00  0.12424850553E+04  0.12424850553E+04  0.50400001928E-02 0.  1.
        1   -1    0    0  501    0  0.00000000000E+00  0.00000000000E+00 -0.18303202148E+04  0.18303202148E+04  0.50400001928E-02 0. -1.
    10030    2    1    2    0    0  0.00000000000E+00  0.00000000000E+00 -0.58783515950E+03  0.30728052701E+04  0.30160540534E+04 0.  0.
        4    1    3    3  502    0 -0.22646399693E+03  0.82707836605E+03 -0.15577424963E+04  0.17781754309E+04  0.12699999809E+01 0. -1.
       -4    1    3    3    0  502  0.22646399693E+03 -0.82707836605E+03  0.96990733680E+03  0.12946298391E+04  0.12699999809E+01 0.  1.
</event>
<event>
 5   0  0.2602891E-07  0.2999496E+04  0.7818609E-02  0.8243875E-01
        1   -1    0    0  501    0  0.00000000000E+00  0.00000000000E+00  0.24654053142E+04  0.24654053142E+04  0.50400001928E-02 0. -1.
       -1   -1    0    0    0  501  0.00000000000E+00  0.00000000000E+00 -0.91232202331E+03  0.91232202332E+03  0.50400001928E-02 0.  1.
    10030    2    1    2    0    0  0.00000000000E+00  0.00000000000E+00  0.15530832909E+04  0.33777273375E+04  0.29994956673E+04 0.  0.
        5    1    3    3  502    0  0.59566610211E+03  0.12293630400E+04  0.79569606107E+02  0.13683950458E+04  0.46999998093E+01 0.  1.
       -5    1    3    3    0  502 -0.59566610211E+03 -0.12293630400E+04  0.14735136848E+04  0.20093322917E+04  0.46999998093E+01 0. -1.
</event>
<event>
 5   0  0.7307508E-07  0.3002540E+04  0.7818609E-02  0.8243006E-01
       -2   -1    0    0    0  501  0.00000000000E+00  0.00000000000E+00  0.15166716079E+04  0.15166716079E+04  0.25500000920E-02 0.  1.
        2   -1    0    0  501    0  0.00000000000E+00  0.00000000000E+00 -0.14860250187E+04  0.14860250187E+04  0.25500000920E-02 0. -1.
    10030    2    1    2    0    0  0.00000000000E+00  0.00000000000E+00  0.30646589196E+02  0.30026966265E+04  0.30025402275E+04 0.  0.
        1    1    3    3  502    0  0.89113397571E+03  0.97785464897E+03  0.72493229348E+03  0.15085908350E+04  0.50400001928E-02 0.  1.
       -1    1    3    3    0  502 -0.89113397571E+03 -0.97785464897E+03 -0.69428570428E+03  0.14941057916E+04  0.50400001928E-02 0. -1.
</event>
<event>
 5   0  0.2602891E-07  0.3001302E+04  0.7818609E-02  0.8243359E-01
        1   -1    0    0  501    0  0.00000000000E+00  0.00000000000E+00  0.19759253566E+04  0.19759253566E+04  0.50400001928E-02 0.  1.
       -1   -1    0    0    0  501  0.00000000000E+00  0.00000000000E+00 -0.11396954010E+04  0.11396954010E+04  0.50400001928E-02 0. -1.
    10030    2    1    2    0    0  0.00000000000E+00  0.00000000000E+00  0.83622995558E+03  0.31156207577E+04  0.30013017454E+04 0.  0.
        5    1    3    3  502    0  0.36399124601E+03 -0.13118183173E+04  0.10734893053E+04  0.17337122897E+04  0.46999998093E+01 0.  1.
       -5    1    3    3    0  502 -0.36399124601E+03  0.13118183173E+04 -0.23725934972E+03  0.13819084680E+04  0.46999998093E+01 0. -1.
</event>
<event>
 5   0  0.7307508E-07  0.3004057E+04  0.7818609E-02  0.8242573E-01
        2   -1    0    0  501    0  0.00000000000E+00  0.00000000000E+00  0.15828772783E+04  0.15828772783E+04  0.25500000920E-02 0.  1.
       -2   -1    0    0    0  501  0.00000000000E+00  0.00000000000E+00 -0.14253097003E+04  0.14253097003E+04  0.25500000920E-02 0. -1.
    10030    2    1    2    0    0  0.00000000000E+00  0.00000000000E+00  0.15756757802E+03  0.30081869787E+04  0.30040574823E+04 0.  0.
        1    1    3    3  502    0  0.12446070576E+04 -0.31306774152E+03 -0.70269413838E+03  0.14631600018E+04  0.50400001928E-02 0. -1.
       -1    1    3    3    0  502 -0.12446070576E+04  0.31306774152E+03  0.86026171640E+03  0.15450269769E+04  0.50400001928E-02 0.  1.
</event>
<event>
 5   0  0.2621825E-07  0.2953077E+04  0.7818609E-02  0.8257258E-01
       -1   -1    0    0    0  501  0.00000000000E+00  0.00000000000E+00  0.12551311934E+04  0.12551311934E+04  0.50400001928E-02 0. -1.
        1   -1    0    0  501    0  0.00000000000E+00  0.00000000000E+00 -0.17370024534E+04  0.17370024534E+04  0.50400001928E-02 0.  1.
    10030    2    1    2    0    0  0.00000000000E+00  0.00000000000E+00 -0.48187126003E+03  0.29921336468E+04  0.29530770137E+04 0.  0.
        3    1    3    3  502    0  0.80426352378E+03  0.50081923273E+03  0.90652014709E+03  0.13112736201E+04  0.10100000352E+00 0. -1.
       -3    1    3    3    0  502 -0.80426352378E+03 -0.50081923273E+03 -0.13883914071E+04  0.16808600266E+04  0.10100000352E+00 0.  1.
</event>
<event>
 5   0  0.2602891E-07  0.3001778E+04  0.7818609E-02  0.8243223E-01
       -1   -1    0    0    0  501  0.00000000000E+00  0.00000000000E+00  0.15879920218E+04  0.15879920218E+04  0.50400001928E-02 0.  1.
        1   -1    0    0  501    0  0.00000000000E+00  0.00000000000E+00 -0.14185632918E+04  0.14185632918E+04  0.50400001928E-02 0. -1.
    10030    2    1    2    0    0  0.00000000000E+00  0.00000000000E+00  0.16942872999E+03  0.30065553137E+04  0.30017776000E+04 0.  0.
        5    1    3    3  502    0  0.61317718079E+03  0.12848575319E+04 -0.39122609212E+03  0.14764569339E+04  0.46999998093E+01 0. -1.
       -5    1    3    3    0  502 -0.61317718079E+03 -0.12848575319E+04  0.56065482211E+03  0.15300983798E+04  0.46999998093E+01 0.  1.
</event>
<event>
 5   0  0.7208273E-07  0.3010898E+04  0.7818609E-02  0.8240626E-01
        2   -1    0    0  501    0  0.00000000000E+00  0.00000000000E+00  0.19452313084E+04  0.19452313084E+04  0.25500000920E-02 0. -1.
       -2   -1    0    0    0  501  0.00000000000E+00  0.00000000000E+00 -0.11650933381E+04  0.11650933381E+04  0.25500000920E-02 0.  1.
    10030    2    1    2    0    0  0.00000000000E+00  0.00000000000E+00  0.78013797034E+03  0.31103246465E+04  0.30108975661E+04 0.  0.
        4    1    3    3  502    0  0.10154988182E+04 -0.77546307175E+03 -0.43233208332E+03  0.13488860102E+04  0.12699999809E+01 0.  1.
       -4    1    3    3    0  502 -0.10154988182E+04  0.77546307175E+03  0.12124700537E+04  0.17614386363E+04  0.12699999809E+01 0. -1.
</event>
<event>
 5   0  0.7278657E-07  0.2997910E+04  0.7818609E-02  0.8244328E-01
       -2   -1    0    0    0  501  0.00000000000E+00  0.00000000000E+00  0.10000964900E+04  0.10000964900E+04  0.25500000920E-02 0.  1.
        2   -1    0    0  501    0  0.00000000000E+00  0.00000000000E+00 -0.22466486858E+04  0.22466486858E+04  0.25500000920E-02 0. -1.
    10030    2    1    2    0    0  0.00000000000E+00  0.00000000000E+00 -0.12465521958E+04  0.32467451758E+04  0.29979095816E+04 0.  0.
        2    1    3    3  502    0  0.91798431377E+02 -0.36687742709E+03 -0.21941306419E+04  0.22264849589E+04  0.25500000920E-02 0. -1.
       -2    1    3    3    0  502 -0.91798431377E+02  0.36687742709E+03  0.94757844613E+03  0.10202602168E+04  0.25500000920E-02 0.  1.
</event>
<event>
 5   0  0.2792361E-07  0.2993804E+04  0.7818609E-02  0.8245502E-01
       -1   -1    0    0    0  501  0.00000000000E+00  0.00000000000E+00  0.15580676886E+04  0.15580676886E+04  0.50400001928E-02 0. -1.
        1   -1    0    0  501    0  0.00000000000E+00  0.00000000000E+00 -0.14381374843E+04  0.14381374843E+04  0.50400001928E-02 0.  1.
    10030    2    1    2    0    0  0.00000000000E+00  0.00000000000E+00  0.11993020424E+03  0.29962051729E+04  0.29938039656E+04 0.  0.
        4    1    3    3  502    0  0.94347374793E+03  0.10118564203E+04 -0.51208569016E+03  0.14752048994E+04  0.12699999809E+01 0. -1.
       -4    1    3    3    0  502 -0.94347374793E+03 -0.10118564203E+04  0.63201589440E+03  0.15210002735E+04  0.12699999809E+01 0.  1.
</event>
<event>
 5   0  0.7585823E-07  0.3007192E+04  0.7818609E-02  0.8241680E-01
       -2   -1    0    0    0  501  0.00000000000E+00  0.00000000000E+00  0.10751079679E+04  0.10751079679E+04  0.25500000920E-02 0. -1.
        2   -1    0    0  501    0  0.00000000000E+00  0.00000000000E+00 -0.21028601267E+04  0.21028601267E+04  0.25500000920E-02 0.  1.
    10030    2    1    2    0    0  0.00000000000E+00  0.00000000000E+00 -0.10277521588E+04  0.31779680946E+04  0.30071924964E+04 0.  0.
        5    1    3    3  502    0 -0.27511790461E+02 -0.11650220606E+04  0.49021049279E+03  0.12642633102E+04  0.46999998093E+01 0. -1.
       -5    1    3    3    0  502  0.27511790461E+02  0.11650220606E+04 -0.15179626516E+04  0.19137047844E+04  0.46999998093E+01 0.  1.
</event>
<event>
 5   0  0.2640081E-07  0.3002635E+04  0.7818609E-02  0.8242979E-01
       -1   -1    0    0    0  501  0.00000000000E+00  0.00000000000E+00  0.13321208685E+04  0.13321208685E+04  0.50400001928E-02 0.  1.
        1   -1    0    0  501    0  0.00000000000E+00  0.00000000000E+00 -0.16920042288E+04  0.16920042288E+04  0.50400001928E-02 0. -1.
    10030    2    1    2    0    0  0.00000000000E+00  0.00000000000E+00 -0.35988336032E+03  0.30241250973E+04  0.30026349380E+04 0.  0.
        1    1    3    3  502    0  0.82226273820E+03 -0.12308133086E+04  0.72725777974E+02  0.14819940790E+04  0.50400001928E-02 0. -1.
       -1    1    3    3    0  502 -0.82226273820E+03  0.12308133086E+04 -0.43260913829E+03  0.15421310184E+04  0.50400001928E-02 0.  1.
</event>
<event>
 5   0  0.7208273E-07  0.2981725E+04  0.7818609E-02  0.8248969E-01
       -2   -1    0    0    0  501  0.00000000000E+00  0.00000000000E+00  0.98113818527E+03  0.98113818527E+03  0.25500000920E-02 0.  1.
        2   -1    0    0  501    0  0.00000000000E+00  0.00000000000E+00 -0.22654011955E+04  0.22654011955E+04  0.25500000920E-02 0. -1.
    10030    2    1    2    0    0  0.00000000000E+00  0.00000000000E+00 -0.12842630102E+04  0.32465393807E+04  0.29817254185E+04 0.  0.
        4    1    3    3  502    0  0.82786047267E+03 -0.20143098279E+03 -0.19742000949E+04  0.21502081366E+04  0.12699999809E+01 0. -1.
       -4    1    3    3    0  502 -0.82786047267E+03  0.20143098279E+03  0.68993708474E+03  0.10963312441E+04  0.12699999809E+01 0.  1.
</event>
<event>
 5   0  0.2679935E-07  0.2999676E+04  0.7818609E-02  0.8243824E-01
        1   -1    0    0  501    0  0.00000000000E+00  0.00000000000E+00  0.22217571493E+04  0.22217571493E+04  0.50400001928E-02 0.  1.
       -1   -1    0    0    0  501  0.00000000000E+00  0.00000000000E+00 -0.10124928764E+04  0.10124928764E+04  0.50400001928E-02 0. -1.
    10030    2    1    2    0    0  0.00000000000E+00  0.00000000000E+00  0.12092642729E+04  0.32342500257E+04  0.29996755070E+04 0.  0.
        2    1    3    3  502    0 -0.36750134164E+03  0.14323395185E+04  0.87495635857E+03  0.17181974164E+04  0.25500000920E-02 0.  1.
       -2    1    3    3    0  502  0.36750134164E+03 -0.14323395185E+04  0.33430791436E+03  0.15160526093E+04  0.25500000920E-02 0. -1.
</event>
<event>
 5   0  0.2679935E-07  0.2993772E+04  0.7818609E-02  0.8245511E-01
       -1   -1    0    0    0  501  0.00000000000E+00  0.00000000000E+00  0.95229944626E+03  0.95229944627E+03  0.50400001928E-02 0.  1.
        1   -1    0    0  501    0  0.00000000000E+00  0.00000000000E+00 -0.23529029606E+04  0.23529029606E+04  0.50400001928E-02 0. -1.
    10030    2    1    2    0    0  0.00000000000E+00  0.00000000000E+00 -0.14006035143E+04  0.33052024069E+04  0.29937723270E+04 0.  0.
        2    1    3    3  502    0 -0.27124890065E+03  0.41355413155E+03 -0.22600936269E+04  0.23135743317E+04  0.25500000920E-02 0. -1.
       -2    1    3    3    0  502  0.27124890065E+03 -0.41355413155E+03  0.85949011259E+03  0.99162807517E+03  0.25500000920E-02 0.  1.
</event>
<event>
 5   0  0.7278657E-07  0.2996928E+04  0.7818609E-02  0.8244609E-01
        2   -1    0    0  501    0  0.00000000000E+00  0.00000000000E+00  0.24743851947E+04  0.24743851947E+04  0.25500000920E-02 0. -1.
       -2   -1    0    0    0  501  0.00000000000E+00  0.00000000000E+00 -0.90745535779E+03  0.90745535779E+03  0.25500000920E-02 0.  1.
    10030    2    1    2    0    0  0.00000000000E+00  0.00000000000E+00  0.15669298369E+04  0.33818405524E+04  0.29969278284E+04 0.  0.
        2    1    3    3  502    0 -0.59515992396E+03  0.35626409912E+03  0.22823125278E+04  0.23853909361E+04  0.25500000920E-02 0. -1.
       -2    1    3    3    0  502  0.59515992396E+03 -0.35626409912E+03 -0.71538269095E+03  0.99644961635E+03  0.25500000920E-02 0.  1.
</event>
<event>
 5   0  0.2602891E-07  0.3012903E+04  0.7818609E-02  0.8240056E-01
        1   -1    0    0  501    0  0.00000000000E+00  0.00000000000E+00  0.22264005663E+04  0.22264005663E+04  0.50400001928E-02 0.  1.
       -1   -1    0    0    0  501  0.00000000000E+00  0.00000000000E+00 -0.10193113943E+04  0.10193113943E+04  0.50400001928E-02 0. -1.
    10030    2    1    2    0    0  0.00000000000E+00  0.00000000000E+00  0.12070891720E+04  0.32457119606E+04  0.30129025643E+04 0.  0.
        5    1    3    3  502    0 -0.17529374744E+03  0.37850430940E+03  0.21629401069E+04  0.22027994476E+04  0.46999998093E+01 0.  1.
       -5    1    3    3    0  502  0.17529374744E+03 -0.37850430940E+03 -0.95585093492E+03  0.10429125131E+04  0.46999998093E+01 0. -1.
</event>
<event>
 5   0  0.2640081E-07  0.2938742E+04  0.7818609E-02  0.8261443E-01
        1   -1    0    0  501    0  0.00000000000E+00  0.00000000000E+00  0.18725986738E+04  0.18725986738E+04  0.50400001928E-02 0.  1.
       -1   -1    0    0    0  501  0.00000000000E+00  0.00000000000E+00 -0.11529705652E+04  0.11529705653E+04  0.50400001928E-02 0. -1.
    10030    2    1    2    0    0  0.00000000000E+00  0.00000000000E+00  0.71962810854E+03  0.30255692391E+04  0.29387420107E+04 0.  0.
        1    1    3    3  502    0  0.35377208856E+02 -0.84143547371E+03 -0.87983164385E+03  0.12179363386E+04  0.50400001928E-02 0. -1.
       -1    1    3    3    0  502 -0.35377208856E+02  0.84143547371E+03  0.15994597524E+04  0.18076329005E+04  0.50400001928E-02 0.  1.
</event>
<event>
 5   0  0.2602891E-07  0.3003216E+04  0.7818609E-02  0.8242813E-01
        1   -1    0    0  501    0  0.00000000000E+00  0.00000000000E+00  0.20946232487E+04  0.20946232487E+04  0.50400001928E-02 0.  1.
       -1   -1    0    0    0  501  0.00000000000E+00  0.00000000000E+00 -0.10764828182E+04  0.10764828182E+04  0.50400001928E-02 0. -1.
    10030    2    1    2    0    0  0.00000000000E+00  0.00000000000E+00  0.10181404305E+04  0.31711060669E+04  0.30032155686E+04 0.  0.
        5    1    3    3  502    0  0.14812958246E+04 -0.23691427292E+03  0.57941396254E+03  0.16081381541E+04  0.46999998093E+01 0.  1.
       -5    1    3    3    0  502 -0.14812958246E+04  0.23691427292E+03  0.43872646794E+03  0.15629679128E+04  0.46999998093E+01 0. -1.
</event>
<event>
 5   0  0.7278657E-07  0.3000514E+04  0.7818609E-02  0.8243584E-01
       -2   -1    0    0    0  501  0.00000000000E+00  0.00000000000E+00  0.16289037244E+04  0.16289037244E+04  0.25500000920E-02 0. -1.
        2   -1    0    0  501    0  0.00000000000E+00  0.00000000000E+00 -0.13817702862E+04  0.13817702862E+04  0.25500000920E-02 0.  1.
    10030    2    1    2    0    0  0.00000000000E+00  0.00000000000E+00  0.24713343819E+03  0.30106740106E+04  0.30005137997E+04 0.  0.
        2    1    3    3  502    0 -0.32462941140E+03 -0.14647128297E+04  0.12187657948E+03  0.15051982689E+04  0.25500000920E-02 0. -1.
       -2    1    3    3    0  502  0.32462941140E+03  0.14647128297E+04  0.12525685871E+03  0.15054757417E+04  0.25500000920E-02 0.  1.
</event>
<event>
 5   0  0.7278657E-07  0.2990642E+04  0.7818609E-02  0.8246408E-01
        2   -1    0    0  501    0  0.00000000000E+00  0.00000000000E+00  0.16573023718E+04  0.16573023718E+04  0.25500000920E-02 0.  1.
       -2   -1    0    0    0  501  0.00000000000E+00  0.00000000000E+00 -0.13491715174E+04  0.13491715174E+04  0.25500000920E-02 0. -1.
    10030    2    1    2    0    0  0.00000000000E+00  0.00000000000E+00  0.30813085434E+03  0.30064738892E+04  0.29906421757E+04 0.  0.
        2    1    3    3  502    0 -0.37313080447E+03 -0.91372104935E+03 -0.97521214734E+03  0.13874982831E+04  0.25500000920E-02 0. -1.
       -2    1    3    3    0  502  0.37313080447E+03  0.91372104935E+03  0.12833430017E+04  0.16189756061E+04  0.25500000920E-02 0.  1.
</event>
<event>
 5   0  0.2640081E-07  0.2995318E+04  0.7818609E-02  0.8245069E-01
        1   -1    0    0  501    0  0.00000000000E+00  0.00000000000E+00  0.18207860870E+04  0.18207860870E+04  0.50400001928E-02 0. -1.
       -1   -1    0    0    0  501  0.00000000000E+00  0.00000000000E+00 -0.12318756871E+04  0.12318756871E+04  0.50400001928E-02 0.  1.
    10030    2    1    2    0    0  0.00000000000E+00  0.00000000000E+00  0.58891039996E+03  0.30526617741E+04  0.29953177541E+04 0.  0.
        1    1    3    3  502    0 -0.52128097167E+03 -0.43797415040E+03  0.16539447199E+04  0.17885995484E+04  0.50400001928E-02 0. -1.
       -1    1    3    3    0  502  0.52128097167E+03  0.43797415040E+03 -0.10650343200E+04  0.12640622258E+04  0.50400001928E-02 0.  1.
</event>
<event>
 5   0  0.7399409E-07  0.3003083E+04  0.7818609E-02  0.8242851E-01
       -2   -1    0    0    0  501  0.00000000000E+00  0.00000000000E+00  0.16595604348E+04  0.16595604348E+04  0.25500000920E-02 0.  1.
        2   -1    0    0  501    0  0.00000000000E+00  0.00000000000E+00 -0.13585686200E+04  0.13585686200E+04  0.25500000920E-02 0. -1.
    10030    2    1    2    0    0  0.00000000000E+00  0.00000000000E+00  0.30099181474E+03  0.30181290548E+04  0.30030829024E+04 0.  0.
        3    1    3    3  502    0  0.41490804665E+03 -0.50312311822E+03  0.15098052839E+04  0.16446256610E+04  0.10100000352E+00 0.  1.
       -3    1    3    3    0  502 -0.41490804665E+03  0.50312311822E+03 -0.12088134692E+04  0.13735033938E+04  0.10100000352E+00 0. -1.
</event>
<event>
 5   0  0.7399409E-07  0.2994195E+04  0.7818609E-02  0.8245390E-01
       -2   -1    0    0    0  501  0.00000000000E+00  0.00000000000E+00  0.12958098762E+04  0.12958098762E+04  0.25500000920E-02 0.  1.
        2   -1    0    0  501    0  0.00000000000E+00  0.00000000000E+00 -0.17296530520E+04  0.17296530520E+04  0.25500000920E-02 0. -1.
    10030    2    1    2    0    0  0.00000000000E+00  0.00000000000E+00 -0.43384317574E+03  0.30254629282E+04  0.29941953892E+04 0.  0.
        3    1    3    3  502    0 -0.13418890140E+04 -0.28702384450E+03  0.38787095108E+03  0.14260058548E+04  0.10100000352E+00 0.  1.
       -3    1    3    3    0  502  0.13418890140E+04  0.28702384450E+03 -0.82171412682E+03  0.15994570734E+04  0.10100000352E+00 0. -1.
</event>
<event>
 5   0  0.7208273E-07  0.2998970E+04  0.7818609E-02  0.8244025E-01
        2   -1    0    0  501    0  0.00000000000E+00  0.00000000000E+00  0.16268841108E+04  0.16268841108E+04  0.25500000920E-02 0.  1.
       -2   -1    0    0    0  501  0.00000000000E+00  0.00000000000E+00 -0.13820627153E+04  0.13820627153E+04  0.25500000920E-02 0. -1.
    10030    2    1    2    0    0  0.00000000000E+00  0.00000000000E+00  0.24482139550E+03  0.30089468261E+04  0.29989704044E+04 0.  0.
        4    1    3    3  502    0  0.34444094933E+03 -0.10160132133E+04  0.11735273042E+04  0.15899969697E+04  0.12699999809E+01 0.  1.
       -4    1    3    3    0  502 -0.34444094933E+03  0.10160132133E+04 -0.92870590870E+03  0.14189498564E+04  0.12699999809E+01 0. -1.
</event>
<event>
 5   0  0.2792361E-07  0.2982014E+04  0.7818609E-02  0.8248885E-01
       -1   -1    0    0    0  501  0.00000000000E+00  0.00000000000E+00  0.91136500153E+03  0.91136500154E+03  0.50400001928E-02 0.  1.
        1   -1    0    0  501    0  0.00000000000E+00  0.00000000000E+00 -0.24393107326E+04  0.24393107326E+04  0.50400001928E-02 0. -1.
    10030    2    1    2    0    0  0.00000000000E+00  0.00000000000E+00 -0.15279457310E+04  0.33506757341E+04  0.29820143726E+04 0.  0.
        4    1    3    3  502    0 -0.12678380644E+04 -0.10737223852E+03  0.10939693589E+03  0.12770714380E+04  0.12699999809E+01 0. -1.
       -4    1    3    3    0  502  0.12678380644E+04  0.10737223852E+03 -0.16373426669E+04  0.20736042961E+04  0.12699999809E+01 0.  1.
</event>
<event>
 5   0  0.2792361E-07  0.3008188E+04  0.7818609E-02  0.8241397E-01
        1   -1    0    0  501    0  0.00000000000E+00  0.00000000000E+00  0.20377969723E+04  0.20377969723E+04  0.50400001928E-02 0. -1.
       -1   -1    0    0    0  501  0.00000000000E+00  0.00000000000E+00 -0.11101686541E+04  0.11101686541E+04  0.50400001928E-02 0.  1.
    10030    2    1    2    0    0  0.00000000000E+00  0.00000000000E+00  0.92762831823E+03  0.31479656265E+04  0.30081877083E+04 0.  0.
        4    1    3    3  502    0 -0.47294824684E+03  0.10848809254E+04  0.14351971757E+04  0.18602255811E+04  0.12699999809E+01 0. -1.
       -4    1    3    3    0  502  0.47294824684E+03 -0.10848809254E+04 -0.50756885744E+03  0.12877400454E+04  0.12699999809E+01 0.  1.
</event>
<event>
 5   0  0.7585823E-07  0.2994435E+04  0.7818609E-02  0.8245322E-01
       -2   -1    0    0    0  501  0.00000000000E+00  0.00000000000E+00  0.75024089374E+03  0.75024089375E+03  0.25500000920E-02 0. -1.
        2   -1    0    0  501    0  0.00000000000E+00  0.00000000000E+00 -0.29879213894E+04  0.29879213894E+04  0.25500000920E-02 0.  1.
    10030    2    1    2    0    0  0.00000000000E+00  0.00000000000E+00 -0.22376804957E+04  0.37381622831E+04  0.29944353816E+04 0.  0.
        5    1    3    3  502    0 -0.12049199165E+04  0.75298151916E+03 -0.17081256726E+04  0.22218300063E+04  0.46999998093E+01 0.  1.
       -5    1    3    3    0  502  0.12049199165E+04 -0.75298151916E+03 -0.52955482307E+03  0.15163322769E+04  0.46999998093E+01 0. -1.
</event>
<event>
 5   0  0.2792361E-07  0.3015730E+04  0.7818609E-02  0.8239253E-01
        1   -1    0    0  501    0  0.00000000000E+00  0.00000000000E+00  0.25458480085E+04  0.25458480085E+04  0.50400001928E-02 0. -1.
       -1   -1    0    0    0  501  0.00000000000E+00  0.00000000000E+00 -0.89308440388E+03  0.89308440389E+03  0.50400001928E-02 0.  1.
    10030    2    1    2    0    0  0.00000000000E+00  0.00000000000E+00  0.16527636046E+04  0.34389324124E+04  0.30157301942E+04 0.  0.
        4    1    3    3  502    0  0.26728938067E+02  0.62023538945E+03  0.23933522526E+04  0.24725579856E+04  0.12699999809E+01 0. -1.
       -4    1    3    3    0  502 -0.26728938067E+02 -0.62023538945E+03 -0.74058864792E+03  0.96637442681E+03  0.12699999809E+01 0.  1.
</event>
<event>
 5   0  0.7399409E-07  0.2996256E+04  0.7818609E-02  0.8244801E-01
        2   -1    0    0  501    0  0.00000000000E+00  0.00000000000E+00  0.23914620147E+04  0.23914620147E+04  0.25500000920E-02 0.  1.
       -2   -1    0    0    0  501  0.00000000000E+00  0.00000000000E+00 -0.93849994596E+03  0.93849994596E+03  0.25500000920E-02 0. -1.
    10030    2    1    2    0    0  0.00000000000E+00  0.00000000000E+00  0.14529620687E+04  0.33299619606E+04  0.29962556443E+04 0.  0.
        3    1    3    3  502    0 -0.11348428098E+04  0.62325941615E+03  0.15641259965E+04  0.20304705479E+04  0.10100000352E+00 0.  1.
       -3    1    3    3    0  502  0.11348428098E+04 -0.62325941615E+03 -0.11116392775E+03  0.12994914128E+04  0.10100000352E+00 0. -1.
</event>
<event>
 5   0  0.7399409E-07  0.3003513E+04  0.7818609E-02  0.8242728E-01
       -2   -1    0    0    0  501  0.00000000000E+00  0.00000000000E+00  0.11305803149E+04  0.11305803149E+04  0.25500000920E-02 0.  1.
        2   -1    0    0  501    0  0.00000000000E+00  0.00000000000E+00 -0.19947920625E+04  0.19947920625E+04  0.25500000920E-02 0. -1.
    10030    2    1    2    0    0  0.00000000000E+00  0.00000000000E+00 -0.86421174755E+03  0.31253723774E+04  0.30035130353E+04 0.  0.
        3    1    3    3  502    0 -0.17919840138E+03  0.12077494349E+04  0.47772678627E+03  0.13111039840E+04  0.10100000352E+00 0.  1.
       -3    1    3    3    0  502  0.17919840138E+03 -0.12077494349E+04 -0.13419385338E+04  0.18142683934E+04  0.10100000352E+00 0. -1.
</event>
<event>
 5   0  0.2792361E-07  0.3007331E+04  0.7818609E-02  0.8241641E-01
        1   -1    0    0  501    0  0.00000000000E+00  0.00000000000E+00  0.22415143940E+04  0.22415143940E+04  0.50400001928E-02 0.  1.
       -1   -1    0    0    0  501  0.00000000000E+00  0.00000000000E+00 -0.10086976289E+04  0.10086976289E+04  0.50400001928E-02 0. -1.
    10030    2    1    2    0    0  0.00000000000E+00  0.00000000000E+00  0.12328167651E+04  0.32502120230E+04  0.30073312119E+04 0.  0.
        4    1    3    3  502    0 -0.44483874990E+03 -0.14198439387E+04  0.38168041791E+03  0.15360728752E+04  0.12699999809E+01 0. -1.
       -4    1    3    3    0  502  0.44483874990E+03  0.14198439387E+04  0.85113634719E+03  0.17141391478E+04  0.12699999809E+01 0.  1.
</event>
<event>
 5   0  0.2621825E-07  0.2997675E+04  0.7818609E-02  0.8244395E-01
        1   -1    0    0  501    0  0.00000000000E+00  0.00000000000E+00  0.11375265125E+04  0.11375265125E+04  0.50400001928E-02 0.  1.
       -1   -1    0    0    0  501  0.00000000000E+00  0.00000000000E+00 -0.19749114568E+04  0.19749114568E+04  0.50400001928E-02 0. -1.
    10030    2    1    2    0    0  0.00000000000E+00  0.00000000000E+00 -0.83738494425E+03  0.31124379693E+04  0.29976751939E+04 0.  0.
        3    1    3    3  502    0  0.14069144814E+04  0.24397431420E+03  0.54362158969E+02  0.14289461427E+04  0.10100000352E+00 0. -1.
       -3    1    3    3    0  502 -0.14069144814E+04 -0.24397431420E+03 -0.89174710322E+03  0.16834918266E+04  0.10100000352E+00 0.  1.
</event>
<event>
 5   0  0.2792361E-07  0.3002573E+04  0.7818609E-02  0.8242996E-01
        1   -1    0    0  501    0  0.00000000000E+00  0.00000000000E+00  0.17917864853E+04  0.17917864854E+04  0.50400001928E-02 0.  1.
       -1   -1    0    0    0  501  0.00000000000E+00  0.00000000000E+00 -0.12578850976E+04  0.12578850976E+04  0.50400001928E-02 0. -1.
    10030    2    1    2    0    0  0.00000000000E+00  0.00000000000E+00  0.53390138772E+03  0.30496715830E+04  0.30025732418E+04 0.  0.
        4    1    3    3  502    0  0.41290075266E+03 -0.75102478957E+03 -0.98499699486E+03  0.13056592047E+04  0.12699999809E+01 0. -1.
       -4    1    3    3    0  502 -0.41290075266E+03  0.75102478957E+03  0.15188983826E+04  0.17440123783E+04  0.12699999809E+01 0.  1.
</event>
<event>
 5   0  0.7585823E-07  0.2949960E+04  0.7818609E-02  0.8258166E-01
        2   -1    0    0  501    0  0.00000000000E+00  0.00000000000E+00  0.14945050913E+04  0.14945050913E+04  0.25500000920E-02 0. -1.
       -2   -1    0    0    0  501  0.00000000000E+00  0.00000000000E+00 -0.14557095185E+04  0.14557095185E+04  0.25500000920E-02 0.  1.
    10030    2    1    2    0    0  0.00000000000E+00  0.00000000000E+00  0.38795572733E+02  0.29502146098E+04  0.29499595162E+04 0.  0.
        5    1    3    3  502    0 -0.37154937506E+03 -0.81896781081E+03 -0.11497995347E+04  0.14597322608E+04  0.46999998093E+01 0.  1.
       -5    1    3    3    0  502  0.37154937506E+03  0.81896781081E+03  0.11885951074E+04  0.14904823490E+04  0.46999998093E+01 0. -1.
</event>
<event>
 5   0  0.2792361E-07  0.3006220E+04  0.7818609E-02  0.8241957E-01
        1   -1    0    0  501    0  0.00000000000E+00  0.00000000000E+00  0.21901989605E+04  0.21901989605E+04  0.50400001928E-02 0. -1.
       -1   -1    0    0    0  501  0.00000000000E+00  0.00000000000E+00 -0.10315684786E+04  0.10315684786E+04  0.50400001928E-02 0.  1.
    10030    2    1    2    0    0  0.00000000000E+00  0.00000000000E+00  0.11586304819E+04  0.32217674391E+04  0.30062203575E+04 0.  0.
        4    1    3    3  502    0 -0.14293788506E+04 -0.41778848703E+03  0.79807729105E+03  0.16895561825E+04  0.12699999809E+01 0.  1.
       -4    1    3    3    0  502  0.14293788506E+04  0.41778848703E+03  0.36055319088E+03  0.15322112566E+04  0.12699999809E+01 0. -1.
</event>
<event>
 5   0  0.2679935E-07  0.3006706E+04  0.7818609E-02  0.8241819E-01
        1   -1    0    0  501    0  0.00000000000E+00  0.00000000000E+00  0.19946249191E+04  0.19946249191E+04  0.50400001928E-02 0. -1.
       -1   -1    0    0    0  501  0.00000000000E+00  0.00000000000E+00 -0.11330801853E+04  0.11330801853E+04  0.50400001928E-02 0.  1.
    10030    2    1    2    0    0  0.00000000000E+00  0.00000000000E+00  0.86154473384E+03  0.31277051044E+04  0.30067058206E+04 0.  0.
        2    1    3    3  502    0 -0.14303344216E+04 -0.20466451395E+03 -0.10549161026E+01  0.14449031918E+04  0.25500000920E-02 0. -1.
       -2    1    3    3    0  502  0.14303344216E+04  0.20466451395E+03  0.86259964995E+03  0.16828019126E+04  0.25500000920E-02 0.  1.
</event>
<event>
 5   0  0.2602891E-07  0.3002049E+04  0.7818609E-02  0.8243146E-01
       -1   -1    0    0    0  501  0.00000000000E+00  0.00000000000E+00  0.12694018292E+04  0.12694018292E+04  0.50400001928E-02 0. -1.
        1   -1    0    0  501    0  0.00000000000E+00  0.00000000000E+00 -0.17749102452E+04  0.17749102452E+04  0.50400001928E-02 0.  1.
    10030    2    1    2    0    0  0.00000000000E+00  0.00000000000E+00 -0.50550841607E+03  0.30443120744E+04  0.30020488417E+04 0.  0.
        5    1    3    3  502    0  0.91662770090E+03 -0.18393319493E+01  0.95260999955E+03  0.13220051537E+04  0.46999998093E+01 0. -1.
       -5    1    3    3    0  502 -0.91662770090E+03  0.18393319493E+01 -0.14581184156E+04  0.17223069207E+04  0.46999998093E+01 0.  1.
</event>
<event>
 5   0  0.7278657E-07  0.3000451E+04  0.7818609E-02  0.8243602E-01
       -2   -1    0    0    0  501  0.00000000000E+00  0.00000000000E+00  0.25821515139E+04  0.25821515139E+04  0.25500000920E-02 0. -1.
        2   -1    0    0  501    0  0.00000000000E+00  0.00000000000E+00 -0.87162853060E+03  0.87162853061E+03  0.25500000920E-02 0.  1.
    10030    2    1    2    0    0  0.00000000000E+00  0.00000000000E+00  0.17105229833E+04  0.34537800445E+04  0.30004512526E+04 0.  0.
        2    1    3    3  502    0 -0.10747445906E+04  0.84097634820E+03  0.15726017780E+04  0.20821607780E+04  0.25500000920E-02 0. -1.
       -2    1    3    3    0  502  0.10747445906E+04 -0.84097634820E+03  0.13792120528E+03  0.13716192665E+04  0.25500000920E-02 0.  1.
</event>
<event>
 5   0  0.7208273E-07  0.2997293E+04  0.7818609E-02  0.8244504E-01
       -2   -1    0    0    0  501  0.00000000000E+00  0.00000000000E+00  0.13335435507E+04  0.13335435507E+04  0.25500000920E-02 0.  1.
        2   -1    0    0  501    0  0.00000000000E+00  0.00000000000E+00 -0.16841904643E+04  0.16841904643E+04  0.25500000920E-02 0. -1.
    10030    2    1    2    0    0  0.00000000000E+00  0.00000000000E+00 -0.35064691365E+03  0.30177340150E+04  0.29972929999E+04 0.  0.
        4    1    3    3  502    0 -0.54040550825E+03  0.35093995441E+03 -0.15376004455E+04  0.16671573735E+04  0.12699999809E+01 0. -1.
       -4    1    3    3    0  502  0.54040550825E+03 -0.35093995441E+03  0.11869535319E+04  0.13505766416E+04  0.12699999809E+01 0.  1.
</event>
<event>
 5   0  0.7399409E-07  0.2997185E+04  0.7818609E-02  0.8244535E-01
       -2   -1    0    0    0  501  0.00000000000E+00  0.00000000000E+00  0.19761865580E+04  0.19761865580E+04  0.25500000920E-02 0.  1.
        2   -1    0    0  501    0  0.00000000000E+00  0.00000000000E+00 -0.11364208879E+04  0.11364208879E+04  0.25500000920E-02 0. -1.
    10030    2    1    2    0    0  0.00000000000E+00  0.00000000000E+00  0.83976567011E+03  0.31126074460E+04  0.29971851348E+04 0.  0.
        3    1    3    3  502    0  0.42373310069E+03 -0.83065101799E+03 -0.79843124017E+03  0.12276087772E+04  0.10100000352E+00 0. -1.
       -3    1    3    3    0  502 -0.42373310069E+03  0.83065101799E+03  0.16381969103E+04  0.18849986688E+04  0.10100000352E+00 0.  1.
</event>
<event>
 5   0  0.2640081E-07  0.3000257E+04  0.7818609E-02  0.8243657E-01
       -1   -1    0    0    0  501  0.00000000000E+00  0.00000000000E+00  0.31079241333E+04  0.31079241333E+04  0.50400001928E-02 0. -1.
        1   -1    0    0  501    0  0.00000000000E+00  0.00000000000E+00 -0.72408015869E+03  0.72408015870E+03  0.50400001928E-02 0.  1.
    10030    2    1    2    0    0  0.00000000000E+00  0.00000000000E+00  0.23838439746E+04  0.38320042920E+04  0.30002574554E+04 0.  0.
        1    1    3    3  502    0  0.12371275247E+03 -0.65320431017E+03  0.29094956456E+04  0.29844841477E+04  0.50400001928E-02 0. -1.
       -1    1    3    3    0  502 -0.12371275247E+03  0.65320431017E+03 -0.52565167093E+03  0.84752014438E+03  0.50400001928E-02 0.  1.
</event>
<event>
 5   0  0.2621825E-07  0.3002964E+04  0.7818609E-02  0.8242885E-01
       -1   -1    0    0    0  501  0.00000000000E+00  0.00000000000E+00  0.97071163041E+03  0.97071163042E+03  0.50400001928E-02 0.  1.
        1   -1    0    0  501    0  0.00000000000E+00  0.00000000000E+00 -0.23224693813E+04  0.23224693813E+04  0.50400001928E-02 0. -1.
    10030    2    1    2    0    0  0.00000000000E+00  0.00000000000E+00 -0.13517577509E+04  0.32931810117E+04  0.30029638957E+04 0.  0.
        3    1    3    3  502    0 -0.10759193089E+04  0.92291569123E+03 -0.12187698263E+04  0.18694319009E+04  0.10100000352E+00 0.  1.
       -3    1    3    3    0  502  0.10759193089E+04 -0.92291569123E+03 -0.13298792454E+03  0.14237491108E+04  0.10100000352E+00 0. -1.
</event>
<event>
 5   0  0.2602891E-07  0.3005154E+04  0.7818609E-02  0.8242261E-01
        1   -1    0    0  501    0  0.00000000000E+00  0.00000000000E+00  0.23176561430E+04  0.23176561430E+04  0.50400001928E-02 0. -1.
       -1   -1    0    0    0  501  0.00000000000E+00  0.00000000000E+00 -0.97414715894E+03  0.97414715895E+03  0.50400001928E-02 0.  1.
    10030    2    1    2    0    0  0.00000000000E+00  0.00000000000E+00  0.13435089840E+04  0.32918033019E+04  0.30051543369E+04 0.  0.
        5    1    3    3  502    0 -0.11519604449E+04  0.29731280700E+03  0.16770705778E+04  0.20562090324E+04  0.46999998093E+01 0. -1.
       -5    1    3    3    0  502  0.11519604449E+04 -0.29731280700E+03 -0.33356159382E+03  0.12355942695E+04  0.46999998093E+01 0.  1.
</event>
<event>
 5   0  0.2602891E-07  0.2999341E+04  0.7818609E-02  0.8243919E-01
        1   -1    0    0  501    0  0.00000000000E+00  0.00000000000E+00  0.26830987137E+04  0.26830987137E+04  0.50400001928E-02 0.  1.
       -1   -1    0    0    0  501  0.00000000000E+00  0.00000000000E+00 -0.83821430996E+03  0.83821430998E+03  0.50400001928E-02 0. -1.
    10030    2    1    2    0    0  0.00000000000E+00  0.00000000000E+00  0.18448844037E+04  0.35213130237E+04  0.29993410856E+04 0.  0.
        5    1    3    3  502    0  0.72940400050E+02 -0.14119946728E+04  0.15093866473E+04  0.20681681264E+04  0.46999998093E+01 0.  1.
       -5    1    3    3    0  502 -0.72940400050E+02  0.14119946728E+04  0.33549775643E+03  0.14531448973E+04  0.46999998093E+01 0. -1.
</event>
<event>
 5   0  0.7278657E-07  0.3003578E+04  0.7818609E-02  0.8242710E-01
       -2   -1    0    0    0  501  0.00000000000E+00  0.00000000000E+00  0.18629054088E+04  0.18629054088E+04  0.25500000920E-02 0.  1.
        2   -1    0    0  501    0  0.00000000000E+00  0.00000000000E+00 -0.12106734617E+04  0.12106734617E+04  0.25500000920E-02 0. -1.
    10030    2    1    2    0    0  0.00000000000E+00  0.00000000000E+00  0.65223194711E+03  0.30735788705E+04  0.30035779597E+04 0.  0.
        2    1    3    3  502    0 -0.20998444125E+03  0.76327723055E+03  0.16320581278E+04  0.18139182255E+04  0.25500000920E-02 0.  1.
       -2    1    3    3    0  502  0.20998444125E+03 -0.76327723055E+03 -0.97982618067E+03  0.12596606450E+04  0.25500000920E-02 0. -1.
</event>
<event>
 5   0  0.7278657E-07  0.2997178E+04  0.7818609E-02  0.8244537E-01
        2   -1    0    0  501    0  0.00000000000E+00  0.00000000000E+00  0.20291273278E+04  0.20291273278E+04  0.25500000920E-02 0. -1.
       -2   -1    0    0    0  501  0.00000000000E+00  0.00000000000E+00 -0.11067657035E+04  0.11067657035E+04  0.25500000920E-02 0.  1.
    10030    2    1    2    0    0  0.00000000000E+00  0.00000000000E+00  0.92236162424E+03  0.31358930313E+04  0.29971776954E+04 0.  0.
        2    1    3    3  502    0 -0.87851685717E+02 -0.11388685417E+04  0.14761439411E+04  0.18664780762E+04  0.25500000920E-02 0. -1.
       -2    1    3    3    0  502  0.87851685717E+02  0.11388685417E+04 -0.55378231687E+03  0.12694149552E+04  0.25500000920E-02 0.  1.
</event>
<event>
 5   0  0.2621825E-07  0.3000757E+04  0.7818609E-02  0.8243515E-01
        1   -1    0    0  501    0  0.00000000000E+00  0.00000000000E+00  0.22006560723E+04  0.22006560723E+04  0.50400001928E-02 0.  1.
       -1   -1    0    0    0  501  0.00000000000E+00  0.00000000000E+00 -0.10229384155E+04  0.10229384155E+04  0.50400001928E-02 0. -1.
    10030    2    1    2    0    0  0.00000000000E+00  0.00000000000E+00  0.11777176568E+04  0.32235944878E+04  0.30007569950E+04 0.  0.
        3    1    3    3  502    0 -0.62767693203E+03  0.33813453085E+03  0.20070544350E+04  0.21299250708E+04  0.10100000352E+00 0.  1.
       -3    1    3    3    0  502  0.62767693203E+03 -0.33813453085E+03 -0.82933677818E+03  0.10936694171E+04  0.10100000352E+00 0. -1.
</event>
<event>
 5   0  0.2640081E-07  0.3003189E+04  0.7818609E-02  0.8242821E-01
        1   -1    0    0  501    0  0.00000000000E+00  0.00000000000E+00  0.20827894548E+04  0.20827894548E+04  0.50400001928E-02 0. -1.
       -1   -1    0    0    0  501  0.00000000000E+00  0.00000000000E+00 -0.10825796488E+04  0.10825796488E+04  0.50400001928E-02 0.  1.
    10030    2    1    2    0    0  0.00000000000E+00  0.00000000000E+00  0.10002098061E+04  0.31653691036E+04  0.30031886231E+04 0.  0.
        1    1    3    3  502    0 -0.12717865767E+04  0.79444922970E+03  0.41714744390E+03  0.15564712221E+04  0.50400001928E-02 0.  1.
       -1    1    3    3    0  502  0.12717865767E+04 -0.79444922970E+03  0.58306236215E+03  0.16088978816E+04  0.50400001928E-02 0. -1.
</event>
<event>
 5   0  0.7307508E-07  0.2992318E+04  0.7818609E-02  0.8245928E-01
       -2   -1    0    0    0  501  0.00000000000E+00  0.00000000000E+00  0.11372694220E+04  0.11372694220E+04  0.25500000920E-02 0. -1.
        2   -1    0    0  501    0  0.00000000000E+00  0.00000000000E+00 -0.19683032558E+04  0.19683032558E+04  0.25500000920E-02 0.  1.
    10030    2    1    2    0    0  0.00000000000E+00  0.00000000000E+00 -0.83103383378E+03  0.31055726779E+04  0.29923175675E+04 0.  0.
        1    1    3    3  502    0 -0.10510532997E+04 -0.23759203792E+03 -0.14927458437E+04  0.18410467591E+04  0.50400001928E-02 0. -1.
       -1    1    3    3    0  502  0.10510532997E+04  0.23759203792E+03  0.66171200990E+03  0.12645259188E+04  0.50400001928E-02 0.  1.
</event>
<event>
 5   0  0.7585823E-07  0.3017299E+04  0.7818609E-02  0.8238808E-01
       -2   -1    0    0    0  501  0.00000000000E+00  0.00000000000E+00  0.87544428165E+03  0.87544428165E+03  0.25500000920E-02 0.  1.
        2   -1    0    0  501    0  0.00000000000E+00  0.00000000000E+00 -0.25998502090E+04  0.25998502090E+04  0.25500000920E-02 0. -1.
    10030    2    1    2    0    0  0.00000000000E+00  0.00000000000E+00 -0.17244059273E+04  0.34752944906E+04  0.30172994539E+04 0.  0.
        5    1    3    3  502    0 -0.73885055829E+03 -0.12919020719E+04 -0.11468856765E+04  0.18789039241E+04  0.46999998093E+01 0.  1.
       -5    1    3    3    0  502  0.73885055829E+03  0.12919020719E+04 -0.57752025086E+03  0.15963905666E+04  0.46999998093E+01 0. -1.
</event>
<event>
 5   0  0.2679935E-07  0.2986513E+04  0.7818609E-02  0.8247593E-01
        1   -1    0    0  501    0  0.00000000000E+00  0.00000000000E+00  0.18376714945E+04  0.18376714946E+04  0.50400001928E-02 0. -1.
       -1   -1    0    0    0  501  0.00000000000E+00  0.00000000000E+00 -0.12133917241E+04  0.12133917241E+04  0.50400001928E-02 0.  1.
    10030    2    1    2    0    0  0.00000000000E+00  0.00000000000E+00  0.62427977048E+03  0.30510632186E+04  0.29865132734E+04 0.  0.
        2    1    3    3  502    0  0.59461891835E+03 -0.13106004530E+04 -0.94675635303E+02  0.14422928556E+04  0.25500000920E-02 0.  1.
       -2    1    3    3    0  502 -0.59461891835E+03  0.13106004530E+04  0.71895540579E+03  0.16087703630E+04  0.25500000920E-02 0. -1.
</event>
<event>
 5   0  0.2679935E-07  0.3004149E+04  0.7818609E-02  0.8242547E-01
       -1   -1    0    0    0  501  0.00000000000E+00  0.00000000000E+00  0.14742882403E+04  0.14742882404E+04  0.50400001928E-02 0. -1.
        1   -1    0    0  501    0  0.00000000000E+00  0.00000000000E+00 -0.15303847317E+04  0.15303847317E+04  0.50400001928E-02 0.  1.
    10030    2    1    2    0    0  0.00000000000E+00  0.00000000000E+00 -0.56096491306E+02  0.30046729720E+04  0.30041492727E+04 0.  0.
        2    1    3    3  502    0  0.12999827298E+04 -0.59728533627E+03 -0.48586523881E+03  0.15108838145E+04  0.25500000920E-02 0. -1.
       -2    1    3    3    0  502 -0.12999827298E+04  0.59728533627E+03  0.42976874750E+03  0.14937891575E+04  0.25500000920E-02 0.  1.
</event>
<event>
 5   0  0.2621825E-07  0.2979642E+04  0.7818609E-02  0.8249568E-01
       -1   -1    0    0    0  501  0.00000000000E+00  0.00000000000E+00  0.16368566982E+04  0.16368566982E+04  0.50400001928E-02 0. -1.
        1   -1    0    0  501    0  0.00000000000E+00  0.00000000000E+00 -0.13559934776E+04  0.13559934776E+04  0.50400001928E-02 0.  1.
    10030    2    1    2    0    0  0.00000000000E+00  0.00000000000E+00  0.28086322057E+03  0.29928501758E+04  0.29796422648E+04 0.  0.
        3    1    3    3  502    0 -0.14012338906E+04 -0.33568225276E+03 -0.23996604348E+03  0.14607267723E+04  0.10100000352E+00 0. -1.
       -3    1    3    3    0  502  0.14012338906E+04  0.33568225276E+03  0.52082926405E+03  0.15321234035E+04  0.10100000352E+00 0.  1.
</event>
<event>
 5   0  0.7399409E-07  0.2997162E+04  0.7818609E-02  0.8244542E-01
        2   -1    0    0  501    0  0.00000000000E+00  0.00000000000E+00  0.13087874552E+04  0.13087874552E+04  0.25500000920E-02 0.  1.
       -2   -1    0    0    0  501  0.00000000000E+00  0.00000000000E+00 -0.17158971848E+04  0.17158971848E+04  0.25500000920E-02 0. -1.
    10030    2    1    2    0    0  0.00000000000E+00  0.00000000000E+00 -0.40710972962E+03  0.30246846400E+04  0.29971617973E+04 0.  0.
        3    1    3    3  502    0 -0.84622575078E+03  0.14462437681E+03  0.10360285102E+04  0.13454996528E+04  0.10100000352E+00 0.  1.
       -3    1    3    3    0  502  0.84622575078E+03 -0.14462437681E+03 -0.14431382398E+04  0.16791849872E+04  0.10100000352E+00 0. -1.
</event>
<event>
 5   0  0.2602891E-07  0.2998730E+04  0.7818609E-02  0.8244094E-01
       -1   -1    0    0    0  501  0.00000000000E+00  0.00000000000E+00  0.19646730822E+04  0.19646730822E+04  0.50400001928E-02 0. -1.
        1   -1    0    0  501    0  0.00000000000E+00  0.00000000000E+00 -0.11442589432E+04  0.11442589432E+04  0.50400001928E-02 0.  1.
    10030    2    1    2    0    0  0.00000000000E+00  0.00000000000E+00  0.82041413903E+03  0.31089320254E+04  0.29987295608E+04 0.  0.
        5    1    3    3  502    0  0.74450801432E+03  0.98072626416E+03 -0.47677849448E+03  0.13203999437E+04  0.46999998093E+01 0.  1.
       -5    1    3    3    0  502 -0.74450801432E+03 -0.98072626416E+03  0.12971926335E+04  0.17885320816E+04  0.46999998093E+01 0. -1.
</event>
<event>
 5   0  0.2679935E-07  0.2999024E+04  0.7818609E-02  0.8244010E-01
       -1   -1    0    0    0  501  0.00000000000E+00  0.00000000000E+00  0.18517991476E+04  0.18517991476E+04  0.50400001928E-02 0. -1.
        1   -1    0    0  501    0  0.00000000000E+00  0.00000000000E+00 -0.12142439265E+04  0.12142439265E+04  0.50400001928E-02 0.  1.
    10030    2    1    2    0    0  0.00000000000E+00  0.00000000000E+00  0.63755522114E+03  0.30660430741E+04  0.29990237532E+04 0.  0.
        2    1    3    3  502    0 -0.14096307267E+03  0.94576781606E+03  0.14996608152E+04  0.17785752473E+04  0.25500000920E-02 0. -1.
       -2    1    3    3    0  502  0.14096307267E+03 -0.94576781606E+03 -0.86210559402E+03  0.12874678268E+04  0.25500000920E-02 0.  1.
</event>
<event>
 5   0  0.7399409E-07  0.3002549E+04  0.7818609E-02  0.8243003E-01
       -2   -1    0    0    0  501  0.00000000000E+00  0.00000000000E+00  0.10598148528E+04  0.10598148528E+04  0.25500000920E-02 0.  1.
        2   -1    0    0  501    0  0.00000000000E+00  0.00000000000E+00 -0.21266218341E+04  0.21266218341E+04  0.25500000920E-02 0. -1.
    10030    2    1    2    0    0  0.00000000000E+00  0.00000000000E+00 -0.10668069813E+04  0.31864366870E+04  0.30025491877E+04 0.  0.
        3    1    3    3  502    0  0.10322588127E+04 -0.58732579623E+03  0.44116017745E+03  0.12669381042E+04  0.10100000352E+00 0.  1.
       -3    1    3    3    0  502 -0.10322588127E+04  0.58732579623E+03 -0.15079671587E+04  0.19194985828E+04  0.10100000352E+00 0. -1.
</event>
<event>
 5   0  0.7585823E-07  0.2994461E+04  0.7818609E-02  0.8245314E-01
       -2   -1    0    0    0  501  0.00000000000E+00  0.00000000000E+00  0.88050693288E+03  0.88050693288E+03  0.25500000920E-02 0.  1.
        2   -1    0    0  501    0  0.00000000000E+00  0.00000000000E+00 -0.25459196283E+04  0.25459196283E+04  0.25500000920E-02 0. -1.
    10030    2    1    2    0    0  0.00000000000E+00  0.00000000000E+00 -0.16654126954E+04  0.34264265612E+04  0.29944614763E+04 0.  0.
        5    1    3    3  502    0 -0.44451409485E+03 -0.95007293651E+03 -0.20552108421E+04  0.23074108998E+04  0.46999998093E+01 0. -1.
       -5    1    3    3    0  502  0.44451409485E+03  0.95007293651E+03  0.38979814667E+03  0.11190156614E+04  0.46999998093E+01 0.  1.
</event>
<event>
 5   0  0.7585823E-07  0.3031280E+04  0.7818609E-02  0.8234855E-01
        2   -1    0    0  501    0  0.00000000000E+00  0.00000000000E+00  0.14077214549E+04  0.14077214549E+04  0.25500000920E-02 0. -1.
       -2   -1    0    0    0  501  0.00000000000E+00  0.00000000000E+00 -0.16318315498E+04  0.16318315498E+04  0.25500000920E-02 0.  1.
    10030    2    1    2    0    0  0.00000000000E+00  0.00000000000E+00 -0.22411009489E+03  0.30395530048E+04  0.30312797849E+04 0.  0.
        5    1    3    3  502    0  0.10081718384E+04 -0.10954954024E+04  0.17265926522E+03  0.14987841553E+04  0.46999998093E+01 0. -1.
       -5    1    3    3    0  502 -0.10081718384E+04  0.10954954024E+04 -0.39676936011E+03  0.15407688495E+04  0.46999998093E+01 0.  1.
</event>
<event>
 5   0  0.7585823E-07  0.2992370E+04  0.7818609E-02  0.8245913E-01
       -2   -1    0    0    0  501  0.00000000000E+00  0.00000000000E+00  0.11469729059E+04  0.11469729059E+04  0.25500000920E-02 0. -1.
        2   -1    0    0  501    0  0.00000000000E+00  0.00000000000E+00 -0.19517194325E+04  0.19517194325E+04  0.25500000920E-02 0.  1.
    10030    2    1    2    0    0  0.00000000000E+00  0.00000000000E+00 -0.80474652660E+03  0.30986923383E+04  0.29923698360E+04 0.  0.
        5    1    3    3  502    0  0.22466702866E+03 -0.14791889029E+04 -0.41116825420E+03  0.15516302741E+04  0.46999998093E+01 0.  1.
       -5    1    3    3    0  502 -0.22466702866E+03  0.14791889029E+04 -0.39357827240E+03  0.15470620643E+04  0.46999998093E+01 0. -1.
</event>
<event>
 5   0  0.7278657E-07  0.2995445E+04  0.7818609E-02  0.8245033E-01
       -2   -1    0    0    0  501  0.00000000000E+00  0.00000000000E+00  0.13242888907E+04  0.13242888907E+04  0.25500000920E-02 0. -1.
        2   -1    0    0  501    0  0.00000000000E+00  0.00000000000E+00 -0.16938697024E+04  0.16938697024E+04  0.25500000920E-02 0.  1.
    10030    2    1    2    0    0  0.00000000000E+00  0.00000000000E+00 -0.36958081166E+03  0.30181585931E+04  0.29954450950E+04 0.  0.
        2    1    3    3  502    0 -0.11052805321E+04 -0.28417971935E+03 -0.11620779079E+04  0.16287505123E+04  0.25500000920E-02 0.  1.
       -2    1    3    3    0  502  0.11052805321E+04  0.28417971935E+03  0.79249709621E+03  0.13894080808E+04  0.25500000920E-02 0. -1.
</event>
<event>
 5   0  0.7208273E-07  0.3001627E+04  0.7818609E-02  0.8243266E-01
       -2   -1    0    0    0  501  0.00000000000E+00  0.00000000000E+00  0.92515066831E+03  0.92515066831E+03  0.25500000920E-02 0. -1.
        2   -1    0    0  501    0  0.00000000000E+00  0.00000000000E+00 -0.24346748784E+04  0.24346748784E+04  0.25500000920E-02 0.  1.
    10030    2    1    2    0    0  0.00000000000E+00  0.00000000000E+00 -0.15095242101E+04  0.33598255467E+04  0.30016269527E+04 0.  0.
        4    1    3    3  502    0 -0.51909865985E+03 -0.70425912074E+03  0.61018174971E+03  0.10666619466E+04  0.12699999809E+01 0. -1.
       -4    1    3    3    0  502  0.51909865985E+03  0.70425912074E+03 -0.21197059598E+04  0.22931636001E+04  0.12699999809E+01 0.  1.
</event>
<event>
 5   0  0.7399409E-07  0.3001681E+04  0.7818609E-02  0.8243251E-01
        2   -1    0    0  501    0  0.00000000000E+00  0.00000000000E+00  0.22766715934E+04  0.22766715934E+04  0.25500000920E-02 0.  1.
       -2   -1    0    0    0  501  0.00000000000E+00  0.00000000000E+00 -0.98939250380E+03  0.98939250381E+03  0.25500000920E-02 0. -1.
    10030    2    1    2    0    0  0.00000000000E+00  0.00000000000E+00  0.12872790896E+04  0.32660640972E+04  0.30016807346E+04 0.  0.
        3    1    3    3  502    0 -0.14131195674E+04  0.44507528660E+03  0.38267560568E+03  0.15301763140E+04  0.10100000352E+00 0. -1.
       -3    1    3    3    0  502  0.14131195674E+04 -0.44507528660E+03  0.90460348389E+03  0.17358877832E+04  0.10100000352E+00 0.  1.
</event>
<event>
 5   0  0.7585823E-07  0.3006331E+04  0.7818609E-02  0.8241925E-01
        2   -1    0    0  501    0  0.00000000000E+00  0.00000000000E+00  0.18758695647E+04  0.18758695647E+04  0.25500000920E-02 0. -1.
       -2   -1    0    0    0  501  0.00000000000E+00  0.00000000000E+00 -0.12045112941E+04  0.12045112941E+04  0.25500000920E-02 0.  1.
    10030    2    1    2    0    0  0.00000000000E+00  0.00000000000E+00  0.67135827064E+03  0.30803808589E+04  0.30063307050E+04 0.  0.
        5    1    3    3  502    0 -0.10830297320E+04  0.96442685602E+03  0.74090942614E+03  0.16285089588E+04  0.46999998093E+01 0. -1.
       -5    1    3    3    0  502  0.10830297320E+04 -0.96442685602E+03 -0.69551155503E+02  0.14518719001E+04  0.46999998093E+01 0.  1.
</event>
<event>
 5   0  0.7208273E-07  0.2999997E+04  0.7818609E-02  0.8243732E-01
       -2   -1    0    0    0  501  0.00000000000E+00  0.00000000000E+00  0.11079011841E+04  0.11079011841E+04  0.25500000920E-02 0. -1.
        2   -1    0    0  501    0  0.00000000000E+00  0.00000000000E+00 -0.20308629826E+04  0.20308629826E+04  0.25500000920E-02 0.  1.
    10030    2    1    2    0    0  0.00000000000E+00  0.00000000000E+00 -0.92296179852E+03  0.31387641667E+04  0.29999970021E+04 0.  0.
        4    1    3    3  502    0  0.14813351195E+04 -0.58977814189E+02 -0.22252705024E+03  0.14991170801E+04  0.12699999809E+01 0.  1.
       -4    1    3    3    0  502 -0.14813351195E+04  0.58977814189E+02 -0.70043474827E+03  0.16396470865E+04  0.12699999809E+01 0. -1.
</event>
<event>
 5   0  0.7307508E-07  0.2996211E+04  0.7818609E-02  0.8244814E-01
       -2   -1    0    0    0  501  0.00000000000E+00  0.00000000000E+00  0.12190091524E+04  0.12190091524E+04  0.25500000920E-02 0.  1.
        2   -1    0    0  501    0  0.00000000000E+00  0.00000000000E+00 -0.18411013856E+04  0.18411013856E+04  0.25500000920E-02 0. -1.
    10030    2    1    2    0    0  0.00000000000E+00  0.00000000000E+00 -0.62209223318E+03  0.30601105380E+04  0.29962105664E+04 0.  0.
        1    1    3    3  502    0  0.67074650237E+03  0.67777418081E+03 -0.14911277219E+04  0.17699549693E+04  0.50400001928E-02 0. -1.
       -1    1    3    3    0  502 -0.67074650237E+03 -0.67777418081E+03  0.86903548867E+03  0.12901555686E+04  0.50400001928E-02 0.  1.
</event>
<event>
 5   0  0.2679935E-07  0.2941109E+04  0.7818609E-02  0.8260750E-01
        1   -1    0    0  501    0  0.00000000000E+00  0.00000000000E+00  0.14340325655E+04  0.14340325655E+04  0.50400001928E-02 0.  1.
       -1   -1    0    0    0  501  0.00000000000E+00  0.00000000000E+00 -0.15080066824E+04  0.15080066824E+04  0.50400001928E-02 0. -1.
    10030    2    1    2    0    0  0.00000000000E+00  0.00000000000E+00 -0.73974116943E+02  0.29420392479E+04  0.29411091048E+04 0.  0.
        2    1    3    3  502    0 -0.12047802153E+04  0.27361640369E+03 -0.83484157927E+03  0.14910807376E+04  0.25500000920E-02 0. -1.
       -2    1    3    3    0  502  0.12047802153E+04 -0.27361640369E+03  0.76086746233E+03  0.14509585103E+04  0.25500000920E-02 0.  1.
</event>
<event>
 5   0  0.7399409E-07  0.2997106E+04  0.7818609E-02  0.8244558E-01
        2   -1    0    0  501    0  0.00000000000E+00  0.00000000000E+00  0.16196102490E+04  0.16196102490E+04  0.25500000920E-02 0.  1.
       -2   -1    0    0    0  501  0.00000000000E+00  0.00000000000E+00 -0.13865442961E+04  0.13865442961E+04  0.25500000920E-02 0. -1.
    10030    2    1    2    0    0  0.00000000000E+00  0.00000000000E+00  0.23306595287E+03  0.30061545451E+04  0.29971061727E+04 0.  0.
        3    1    3    3  502    0  0.95257075788E+03 -0.89086042146E+03 -0.62369099717E+03  0.14456880056E+04  0.10100000352E+00 0. -1.
       -3    1    3    3    0  502 -0.95257075788E+03  0.89086042146E+03  0.85675695004E+03  0.15604665395E+04  0.10100000352E+00 0.  1.
</event>
<event>
 5   0  0.2792361E-07  0.2999615E+04  0.7818609E-02  0.8243841E-01
       -1   -1    0    0    0  501  0.00000000000E+00  0.00000000000E+00  0.17622665780E+04  0.17622665780E+04  0.50400001928E-02 0.  1.
        1   -1    0    0  501    0  0.00000000000E+00  0.00000000000E+00 -0.12764374440E+04  0.12764374440E+04  0.50400001928E-02 0. -1.
    10030    2    1    2    0    0  0.00000000000E+00  0.00000000000E+00  0.48582913397E+03  0.30387040220E+04  0.29996153397E+04 0.  0.
        4    1    3    3  502    0 -0.71934140560E+03  0.12815475129E+04 -0.60327745799E+02  0.14708695168E+04  0.12699999809E+01 0. -1.
       -4    1    3    3    0  502  0.71934140560E+03 -0.12815475129E+04  0.54615687977E+03  0.15678345052E+04  0.12699999809E+01 0.  1.
</event>
<event>
 5   0  0.2640081E-07  0.2993936E+04  0.7818609E-02  0.8245465E-01
       -1   -1    0    0    0  501  0.00000000000E+00  0.00000000000E+00  0.12191631089E+04  0.12191631089E+04  0.50400001928E-02 0.  1.
        1   -1    0    0  501    0  0.00000000000E+00  0.00000000000E+00 -0.18380745359E+04  0.18380745359E+04  0.50400001928E-02 0. -1.
    10030    2    1    2    0    0  0.00000000000E+00  0.00000000000E+00 -0.61891142705E+03  0.30572376448E+04  0.29939356476E+04 0.  0.
        1    1    3    3  502    0  0.11971811142E+04  0.19434451866E+03  0.58653594929E+03  0.13472330281E+04  0.50400001928E-02 0.  1.
       -1    1    3    3    0  502 -0.11971811142E+04 -0.19434451866E+03 -0.12054473763E+04  0.17100046167E+04  0.50400001928E-02 0. -1.
</event>
<event>
 5   0  0.2602891E-07  0.3003219E+04  0.7818609E-02  0.8242812E-01
        1   -1    0    0  501    0  0.00000000000E+00  0.00000000000E+00  0.14788190599E+04  0.14788190599E+04  0.50400001928E-02 0. -1.
       -1   -1    0    0    0  501  0.00000000000E+00  0.00000000000E+00 -0.15247512265E+04  0.15247512265E+04  0.50400001928E-02 0.  1.
    10030    2    1    2    0    0  0.00000000000E+00  0.00000000000E+00 -0.45932166577E+02  0.30035702864E+04  0.30032190565E+04 0.  0.
        5    1    3    3  502    0  0.20072285813E+03 -0.21704352223E+03  0.14494192335E+04  0.14792686574E+04  0.46999998093E+01 0. -1.
       -5    1    3    3    0  502 -0.20072285813E+03  0.21704352223E+03 -0.14953514001E+04  0.15243016290E+04  0.46999998093E+01 0.  1.
</event>
<event>
 5   0  0.7208273E-07  0.3001436E+04  0.7818609E-02  0.8243321E-01
        2   -1    0    0  501    0  0.00000000000E+00  0.00000000000E+00  0.11983740964E+04  0.11983740964E+04  0.25500000920E-02 0.  1.
       -2   -1    0    0    0  501  0.00000000000E+00  0.00000000000E+00 -0.18793421074E+04  0.18793421074E+04  0.25500000920E-02 0. -1.
    10030    2    1    2    0    0  0.00000000000E+00  0.00000000000E+00 -0.68096801102E+03  0.30777162039E+04  0.30014362561E+04 0.  0.
        4    1    3    3  502    0 -0.34241485634E+02  0.42339635778E+03  0.11354420224E+04  0.12122982942E+04  0.12699999809E+01 0.  1.
       -4    1    3    3    0  502  0.34241485634E+02 -0.42339635778E+03 -0.18164100334E+04  0.18654179096E+04  0.12699999809E+01 0. -1.
</event>
<event>
 5   0  0.2679935E-07  0.3006219E+04  0.7818609E-02  0.8241957E-01
        1   -1    0    0  501    0  0.00000000000E+00  0.00000000000E+00  0.12158003790E+04  0.12158003790E+04  0.50400001928E-02 0.  1.
       -1   -1    0    0    0  501  0.00000000000E+00  0.00000000000E+00 -0.18583136009E+04  0.18583136009E+04  0.50400001928E-02 0. -1.
    10030    2    1    2    0    0  0.00000000000E+00  0.00000000000E+00 -0.64251322190E+03  0.30741139799E+04  0.30062191405E+04 0.  0.
        2    1    3    3  502    0 -0.52407021171E+03 -0.10569252600E+04 -0.12737424957E+04  0.17361337901E+04  0.25500000920E-02 0. -1.
       -2    1    3    3    0  502  0.52407021171E+03  0.10569252600E+04  0.63122927375E+03  0.13379801897E+04  0.25500000920E-02 0.  1.
</event>
<event>
 5   0  0.7278657E-07  0.3000508E+04  0.7818609E-02  0.8243586E-01
       -2   -1    0    0    0  501  0.00000000000E+00  0.00000000000E+00  0.13497464656E+04  0.13497464656E+04  0.25500000920E-02 0. -1.
        2   -1    0    0  501    0  0.00000000000E+00  0.00000000000E+00 -0.16675438549E+04  0.16675438549E+04  0.25500000920E-02 0.  1.
    10030    2    1    2    0    0  0.00000000000E+00  0.00000000000E+00 -0.31779738937E+03  0.30172903205E+04  0.30005075733E+04 0.  0.
        2    1    3    3  502    0 -0.12158379778E+03  0.64169948395E+03 -0.15170828718E+04  0.16516964877E+04  0.25500000920E-02 0.  1.
       -2    1    3    3    0  502  0.12158379778E+03 -0.64169948395E+03  0.11992854825E+04  0.13655938328E+04  0.25500000920E-02 0. -1.
</event>
<event>
 5   0  0.7307508E-07  0.3000309E+04  0.7818609E-02  0.8243643E-01
       -2   -1    0    0    0  501  0.00000000000E+00  0.00000000000E+00  0.10541978248E+04  0.10541978248E+04  0.25500000920E-02 0.  1.
        2   -1    0    0  501    0  0.00000000000E+00  0.00000000000E+00 -0.21347640257E+04  0.21347640257E+04  0.25500000920E-02 0. -1.
    10030    2    1    2    0    0  0.00000000000E+00  0.00000000000E+00 -0.10805662009E+04  0.31889618505E+04  0.30003090456E+04 0.  0.
        1    1    3    3  502    0  0.62853836129E+03 -0.13051396718E+04 -0.12587857064E+03  0.14540617075E+04  0.50400001928E-02 0.  1.
       -1    1    3    3    0  502 -0.62853836129E+03  0.13051396718E+04 -0.95468763030E+03  0.17349001430E+04  0.50400001928E-02 0. -1.
</event>
<event>
 5   0  0.7585823E-07  0.2996591E+04  0.7818609E-02  0.8244705E-01
        2   -1    0    0  501    0  0.00000000000E+00  0.00000000000E+00  0.26328357147E+04  0.26328357147E+04  0.25500000920E-02 0.  1.
       -2   -1    0    0    0  501  0.00000000000E+00  0.00000000000E+00 -0.85265090338E+03  0.85265090338E+03  0.25500000920E-02 0. -1.
    10030    2    1    2    0    0  0.00000000000E+00  0.00000000000E+00  0.17801848113E+04  0.34854866181E+04  0.29965912305E+04 0.  0.
        5    1    3    3  502    0  0.39750973141E+03 -0.75107980984E+03  0.23254091979E+04  0.24758200449E+04  0.46999998093E+01 0.  1.
       -5    1    3    3    0  502 -0.39750973141E+03  0.75107980984E+03 -0.54522438653E+03  0.10096665732E+04  0.46999998093E+01 0. -1.
</event>
<event>
 5   0  0.2679935E-07  0.3025817E+04  0.7818609E-02  0.8236397E-01
        1   -1    0    0  501    0  0.00000000000E+00  0.00000000000E+00  0.11427730347E+04  0.11427730347E+04  0.50400001928E-02 0.  1.
       -1   -1    0    0    0  501  0.00000000000E+00  0.00000000000E+00 -0.20029276953E+04  0.20029276953E+04  0.50400001928E-02 0. -1.
    10030    2    1    2    0    0  0.00000000000E+00  0.00000000000E+00 -0.86015466061E+03  0.31457007301E+04  0.30258167564E+04 0.  0.
        2    1    3    3  502    0 -0.50113528220E+03  0.13249892973E+04  0.12215444009E+03  0.14218491186E+04  0.25500000920E-02 0.  1.
       -2    1    3    3    0  502  0.50113528220E+03 -0.13249892973E+04 -0.98230910071E+03  0.17238516114E+04  0.25500000920E-02 0. -1.
</event>
<event>
 5   0  0.2792361E-07  0.3001733E+04  0.7818609E-02  0.8243236E-01
        1   -1    0    0  501    0  0.00000000000E+00  0.00000000000E+00  0.12407740853E+04  0.12407740853E+04  0.50400001928E-02 0.  1.
       -1   -1    0    0    0  501  0.00000000000E+00  0.00000000000E+00 -0.18154796434E+04  0.18154796434E+04  0.50400001928E-02 0. -1.
    10030    2    1    2    0    0  0.00000000000E+00  0.00000000000E+00 -0.57470555804E+03  0.30562537287E+04  0.30017328955E+04 0.  0.
        4    1    3    3  502    0 -0.52512906685E+03 -0.13810226827E+04 -0.18715318697E+02  0.14776116077E+04  0.12699999809E+01 0.  1.
       -4    1    3    3    0  502  0.52512906685E+03  0.13810226827E+04 -0.55599023934E+03  0.15786421210E+04  0.12699999809E+01 0. -1.
</event>
<event>
 5   0  0.7208273E-07  0.3005070E+04  0.7818609E-02  0.8242285E-01
        2   -1    0    0  501    0  0.00000000000E+00  0.00000000000E+00  0.24352650474E+04  0.24352650474E+04  0.25500000920E-02 0. -1.
       -2   -1    0    0    0  501  0.00000000000E+00  0.00000000000E+00 -0.92704937015E+03  0.92704937015E+03  0.25500000920E-02 0.  1.
    10030    2    1    2    0    0  0.00000000000E+00  0.00000000000E+00  0.15082156773E+04  0.33623144176E+04  0.30050696687E+04 0.  0.
        4    1    3    3  502    0  0.79716851826E+03  0.12513151149E+04  0.48852470298E+03  0.15620259798E+04  0.12699999809E+01 0.  1.
       -4    1    3    3    0  502 -0.79716851826E+03 -0.12513151149E+04  0.10196909743E+04  0.18002884378E+04  0.12699999809E+01 0. -1.
</event>
<event>
 5   0  0.7399409E-07  0.2996586E+04  0.7818609E-02  0.8244706E-01
       -2   -1    0    0    0  501  0.00000000000E+00  0.00000000000E+00  0.12014026964E+04  0.12014026964E+04  0.25500000920E-02 0. -1.
        2   -1    0    0  501    0  0.00000000000E+00  0.00000000000E+00 -0.18685510680E+04  0.18685510680E+04  0.25500000920E-02 0.  1.
    10030    2    1    2    0    0  0.00000000000E+00  0.00000000000E+00 -0.66714837157E+03  0.30699537643E+04  0.29965862520E+04 0.  0.
        3    1    3    3  502    0 -0.80643991906E+03 -0.73226434540E+03 -0.13875114434E+04  0.17640137274E+04  0.10100000352E+00 0.  1.
       -3    1    3    3    0  502  0.80643991906E+03  0.73226434540E+03  0.72036307185E+03  0.13059400369E+04  0.10100000352E+00 0. -1.
</event>
<event>
 5   0  0.2640081E-07  0.2995960E+04  0.7818609E-02  0.8244885E-01
       -1   -1    0    0    0  501  0.00000000000E+00  0.00000000000E+00  0.12348803009E+04  0.12348803009E+04  0.50400001928E-02 0.  1.
        1   -1    0    0  501    0  0.00000000000E+00  0.00000000000E+00 -0.18171354348E+04  0.18171354348E+04  0.50400001928E-02 0. -1.
    10030    2    1    2    0    0  0.00000000000E+00  0.00000000000E+00 -0.58225513398E+03  0.30520157357E+04  0.29959604487E+04 0.  0.
        1    1    3    3  502    0 -0.95760099860E+03 -0.11429812235E+04 -0.14513176482E+03  0.14981551919E+04  0.50400001928E-02 0.  1.
       -1    1    3    3    0  502  0.95760099860E+03  0.11429812235E+04 -0.43712336915E+03  0.15538605438E+04  0.50400001928E-02 0. -1.
</event>
<event>
 5   0  0.2621825E-07  0.3010268E+04  0.7818609E-02  0.8240805E-01
        1   -1    0    0  501    0  0.00000000000E+00  0.00000000000E+00  0.20433941293E+04  0.20433941293E+04  0.50400001928E-02 0.  1.
       -1   -1    0    0    0  501  0.00000000000E+00  0.00000000000E+00 -0.11086592986E+04  0.11086592986E+04  0.50400001928E-02 0. -1.
    10030    2    1    2    0    0  0.00000000000E+00  0.00000000000E+00  0.93473483069E+03  0.31520534279E+04  0.30102676972E+04 0.  0.
        3    1    3    3  502    0  0.56882678572E+03 -0.13521486790E+04  0.11451167628E+03  0.14713880849E+04  0.10100000352E+00 0. -1.
       -3    1    3    3    0  502 -0.56882678572E+03  0.13521486790E+04  0.82022315441E+03  0.16806653431E+04  0.10100000352E+00 0.  1.
</event>
<event>
 5   0  0.2679935E-07  0.3002727E+04  0.7818609E-02  0.8242953E-01
       -1   -1    0    0    0  501  0.00000000000E+00  0.00000000000E+00  0.28916014719E+04  0.28916014719E+04  0.50400001928E-02 0.  1.
        1   -1    0    0  501    0  0.00000000000E+00  0.00000000000E+00 -0.77953074554E+03  0.77953074556E+03  0.50400001928E-02 0. -1.
    10030    2    1    2    0    0  0.00000000000E+00  0.00000000000E+00  0.21120707263E+04  0.36711322174E+04  0.30027269281E+04 0.  0.
        2    1    3    3  502    0 -0.14908573792E+04 -0.27148873030E+02  0.84182050572E+03  0.17123243122E+04  0.25500000920E-02 0. -1.
       -2    1    3    3    0  502  0.14908573792E+04  0.27148873030E+02  0.12702502206E+04  0.19588079052E+04  0.25500000920E-02 0.  1.
</event>
<event>
 5   0  0.2679935E-07  0.2999157E+04  0.7818609E-02  0.8243972E-01
       -1   -1    0    0    0  501  0.00000000000E+00  0.00000000000E+00  0.11457125491E+04  0.11457125491E+04  0.50400001928E-02 0.  1.
        1   -1    0    0  501    0  0.00000000000E+00  0.00000000000E+00 -0.19627404655E+04  0.19627404655E+04  0.50400001928E-02 0. -1.
    10030    2    1    2    0    0  0.00000000000E+00  0.00000000000E+00 -0.81702791641E+03  0.31084530147E+04  0.29991574697E+04 0.  0.
        2    1    3    3  502    0  0.87082456638E+03  0.72040258132E+03  0.61301057117E+03  0.12857283014E+04  0.25500000920E-02 0.  1.
       -2    1    3    3    0  502 -0.87082456638E+03 -0.72040258132E+03 -0.14300384876E+04  0.18227247133E+04  0.25500000920E-02 0. -1.
</event>
<event>
 5   0  0.7585823E-07  0.3001111E+04  0.7818609E-02  0.8243414E-01
        2   -1    0    0  501    0  0.00000000000E+00  0.00000000000E+00  0.22903113495E+04  0.22903113495E+04  0.25500000920E-02 0.  1.
       -2   -1    0    0    0  501  0.00000000000E+00  0.00000000000E+00 -0.98312704605E+03  0.98312704605E+03  0.25500000920E-02 0. -1.
    10030    2    1    2    0    0  0.00000000000E+00  0.00000000000E+00  0.13071843035E+04  0.32734383956E+04  0.30011111486E+04 0.  0.
        5    1    3    3  502    0  0.95400534206E+03  0.32547317340E+03 -0.55884315497E+03  0.11525566108E+04  0.46999998093E+01 0. -1.
       -5    1    3    3    0  502 -0.95400534206E+03 -0.32547317340E+03  0.18660274585E+04  0.21208817848E+04  0.46999998093E+01 0.  1.
</event>
<event>
 5   0  0.2602891E-07  0.3002020E+04  0.7818609E-02  0.8243154E-01
        1   -1    0    0  501    0  0.00000000000E+00  0.00000000000E+00  0.95328527656E+03  0.95328527657E+03  0.50400001928E-02 0. -1.
       -1   -1    0    0    0  501  0.00000000000E+00  0.00000000000E+00 -0.23634387906E+04  0.23634387906E+04  0.50400001928E-02 0.  1.
    10030    2    1    2    0    0  0.00000000000E+00  0.00000000000E+00 -0.14101535140E+04  0.33167240671E+04  0.30020202538E+04 0.  0.
        5    1    3    3  502    0 -0.72697991526E+03 -0.10669846357E+04 -0.15508701386E+04  0.20179634008E+04  0.46999998093E+01 0.  1.
       -5    1    3    3    0  502  0.72697991526E+03  0.10669846357E+04  0.14071662457E+03  0.12987606664E+04  0.46999998093E+01 0. -1.
</event>
<event>
 5   0  0.2621825E-07  0.2998831E+04  0.7818609E-02  0.8244065E-01
        1   -1    0    0  501    0  0.00000000000E+00  0.00000000000E+00  0.22135308106E+04  0.22135308106E+04  0.50400001928E-02 0.  1.
       -1   -1    0    0    0  501  0.00000000000E+00  0.00000000000E+00 -0.10156837306E+04  0.10156837306E+04  0.50400001928E-02 0. -1.
    10030    2    1    2    0    0  0.00000000000E+00  0.00000000000E+00  0.11978470800E+04  0.32292145413E+04  0.29988312601E+04 0.  0.
        3    1    3    3  502    0 -0.10268418092E+04 -0.85478411150E+02 -0.57404248408E+03  0.11795064407E+04  0.10100000352E+00 0. -1.
       -3    1    3    3    0  502  0.10268418092E+04  0.85478411150E+02  0.17718895641E+04  0.20497081006E+04  0.10100000352E+00 0.  1.
</event>
<event>
 5   0  0.2602891E-07  0.3001965E+04  0.7818609E-02  0.8243170E-01
       -1   -1    0    0    0  501  0.00000000000E+00  0.00000000000E+00  0.13440203669E+04  0.13440203669E+04  0.50400001928E-02 0.  1.
        1   -1    0    0  501    0  0.00000000000E+00  0.00000000000E+00 -0.16762754543E+04  0.16762754543E+04  0.50400001928E-02 0. -1.
    10030    2    1    2    0    0  0.00000000000E+00  0.00000000000E+00 -0.33225508742E+03  0.30202958212E+04  0.30019649239E+04 0.  0.
        5    1    3    3  502    0  0.84933015824E+03 -0.11736354255E+04 -0.56113726894E+03  0.15536019292E+04  0.46999998093E+01 0. -1.
       -5    1    3    3    0  502 -0.84933015824E+03  0.11736354255E+04  0.22888218153E+03  0.14666938920E+04  0.46999998093E+01 0.  1.
</event>
<event>
 5   0  0.2640081E-07  0.2996133E+04  0.7818609E-02  0.8244836E-01
        1   -1    0    0  501    0  0.00000000000E+00  0.00000000000E+00  0.15592935034E+04  0.15592935034E+04  0.50400001928E-02 0. -1.
       -1   -1    0    0    0  501  0.00000000000E+00  0.00000000000E+00 -0.14392434343E+04  0.14392434343E+04  0.50400001928E-02 0.  1.
    10030    2    1    2    0    0  0.00000000000E+00  0.00000000000E+00  0.12005006909E+03  0.29985369377E+04  0.29961327988E+04 0.  0.
        1    1    3    3  502    0  0.34137129025E+03  0.97909192557E+03 -0.10220675925E+04  0.14559455760E+04  0.50400001928E-02 0.  1.
       -1    1    3    3    0  502 -0.34137129025E+03 -0.97909192557E+03  0.11421176616E+04  0.15425913618E+04  0.50400001928E-02 0. -1.
</event>
<event>
 5   0  0.7278657E-07  0.3000234E+04  0.7818609E-02  0.8243664E-01
        2   -1    0    0  501    0  0.00000000000E+00  0.00000000000E+00  0.21635864035E+04  0.21635864035E+04  0.25500000920E-02 0.  1.
       -2   -1    0    0    0  501  0.00000000000E+00  0.00000000000E+00 -0.10401024496E+04  0.10401024496E+04  0.25500000920E-02 0. -1.
    10030    2    1    2    0    0  0.00000000000E+00  0.00000000000E+00  0.11234839539E+04  0.32036888532E+04  0.30002343364E+04 0.  0.
        2    1    3    3  502    0 -0.95976719337E+03  0.73933738854E+03  0.15063663757E+04  0.19331095410E+04  0.25500000920E-02 0.  1.
       -2    1    3    3    0  502  0.95976719337E+03 -0.73933738854E+03 -0.38288242182E+03  0.12705793122E+04  0.25500000920E-02 0. -1.
</event>
<event>
 5   0  0.7307508E-07  0.2991322E+04  0.7818609E-02  0.8246213E-01
        2   -1    0    0  501    0  0.00000000000E+00  0.00000000000E+00  0.18808063851E+04  0.18808063851E+04  0.25500000920E-02 0.  1.
       -2   -1    0    0    0  501  0.00000000000E+00  0.00000000000E+00 -0.11893844738E+04  0.11893844738E+04  0.25500000920E-02 0. -1.
    10030    2    1    2    0    0  0.00000000000E+00  0.00000000000E+00  0.69142191132E+03  0.30701908589E+04  0.29913220574E+04 0.  0.
        1    1    3    3  502    0  0.94628062956E+03 -0.65430844039E+03 -0.63522602572E+03  0.13141836511E+04  0.50400001928E-02 0. -1.
       -1    1    3    3    0  502 -0.94628062956E+03  0.65430844039E+03  0.13266479370E+04  0.17560072078E+04  0.50400001928E-02 0.  1.
</event>
<event>
 5   0  0.2602891E-07  0.2995793E+04  0.7818609E-02  0.8244933E-01
       -1   -1    0    0    0  501  0.00000000000E+00  0.00000000000E+00  0.93111025791E+03  0.93111025793E+03  0.50400001928E-02 0. -1.
        1   -1    0    0  501    0  0.00000000000E+00  0.00000000000E+00 -0.24096980183E+04  0.24096980183E+04  0.50400001928E-02 0.  1.
    10030    2    1    2    0    0  0.00000000000E+00  0.00000000000E+00 -0.14785877604E+04  0.33408082762E+04  0.29957934130E+04 0.  0.
        5    1    3    3  502    0 -0.82247012136E+03  0.54888598438E+03  0.51542424530E+03  0.11150861702E+04  0.46999998093E+01 0. -1.
       -5    1    3    3    0  502  0.82247012136E+03 -0.54888598438E+03 -0.19940120057E+04  0.22257221060E+04  0.46999998093E+01 0.  1.
</event>
<event>
 5   0  0.2679935E-07  0.3002407E+04  0.7818609E-02  0.8243044E-01
        1   -1    0    0  501    0  0.00000000000E+00  0.00000000000E+00  0.85306370301E+03  0.85306370302E+03  0.50400001928E-02 0. -1.
       -1   -1    0    0    0  501  0.00000000000E+00  0.00000000000E+00 -0.26417853894E+04  0.26417853894E+04  0.50400001928E-02 0.  1.
    10030    2    1    2    0    0  0.00000000000E+00  0.00000000000E+00 -0.17887216864E+04  0.34948490924E+04  0.30024065193E+04 0.  0.
        2    1    3    3  502    0  0.13367393159E+04  0.51072415161E+03 -0.14225472004E+04  0.20177590776E+04  0.25500000920E-02 0.  1.
       -2    1    3    3    0  502 -0.13367393159E+04 -0.51072415161E+03 -0.36617448598E+03  0.14770900148E+04  0.25500000920E-02 0. -1.
</event>
<event>
 5   0  0.2621825E-07  0.2999240E+04  0.7818609E-02  0.8243948E-01
       -1   -1    0    0    0  501  0.00000000000E+00  0.00000000000E+00  0.11430804733E+04  0.11430804733E+04  0.50400001928E-02 0. -1.
        1   -1    0    0  501    0  0.00000000000E+00  0.00000000000E+00 -0.19673684537E+04  0.19673684537E+04  0.50400001928E-02 0.  1.
    10030    2    1    2    0    0  0.00000000000E+00  0.00000000000E+00 -0.82428798036E+03  0.31104489270E+04  0.29992402126E+04 0.  0.
        3    1    3    3  502    0 -0.11064012398E+04  0.76107341138E+03 -0.11043536158E+04  0.17386642459E+04  0.10100000352E+00 0.  1.
       -3    1    3    3    0  502  0.11064012398E+04 -0.76107341138E+03  0.28006563546E+03  0.13717846811E+04  0.10100000352E+00 0. -1.
</event>
<event>
 5   0  0.7278657E-07  0.3047056E+04  0.7818609E-02  0.8230420E-01
       -2   -1    0    0    0  501  0.00000000000E+00  0.00000000000E+00  0.13382128989E+04  0.13382128989E+04  0.25500000920E-02 0.  1.
        2   -1    0    0  501    0  0.00000000000E+00  0.00000000000E+00 -0.17345049861E+04  0.17345049861E+04  0.25500000920E-02 0. -1.
    10030    2    1    2    0    0  0.00000000000E+00  0.00000000000E+00 -0.39629208715E+03  0.30727178850E+04  0.30470555923E+04 0.  0.
        2    1    3    3  502    0  0.10538927311E+04  0.71847532387E+03  0.64208207263E+03  0.14279937211E+04  0.25500000920E-02 0.  1.
       -2    1    3    3    0  502 -0.10538927311E+04 -0.71847532387E+03 -0.10383741598E+04  0.16447241639E+04  0.25500000920E-02 0. -1.
</event>
<event>
 5   0  0.7307508E-07  0.2980288E+04  0.7818609E-02  0.8249382E-01
       -2   -1    0    0    0  501  0.00000000000E+00  0.00000000000E+00  0.20617978220E+04  0.20617978220E+04  0.25500000920E-02 0. -1.
        2   -1    0    0  501    0  0.00000000000E+00  0.00000000000E+00 -0.10769869200E+04  0.10769869200E+04  0.25500000920E-02 0.  1.
    10030    2    1    2    0    0  0.00000000000E+00  0.00000000000E+00  0.98481090197E+03  0.31387847419E+04  0.29802880974E+04 0.  0.
        1    1    3    3  502    0  0.50321096534E+03  0.70437016563E+03 -0.78501779481E+03  0.11685938319E+04  0.50400001928E-02 0.  1.
       -1    1    3    3    0  502 -0.50321096534E+03 -0.70437016563E+03  0.17698286968E+04  0.19701909100E+04  0.50400001928E-02 0. -1.
</event>
<event>
 5   0  0.2640081E-07  0.2996977E+04  0.7818609E-02  0.8244595E-01
        1   -1    0    0  501    0  0.00000000000E+00  0.00000000000E+00  0.13751329473E+04  0.13751329473E+04  0.50400001928E-02 0. -1.
       -1   -1    0    0    0  501  0.00000000000E+00  0.00000000000E+00 -0.16329100708E+04  0.16329100709E+04  0.50400001928E-02 0.  1.
    10030    2    1    2    0    0  0.00000000000E+00  0.00000000000E+00 -0.25777712352E+03  0.30080430182E+04  0.29969774363E+04 0.  0.
        1    1    3    3  502    0 -0.76175685050E+03 -0.45431510427E+03  0.10833758729E+04  0.14001353489E+04  0.50400001928E-02 0. -1.
       -1    1    3    3    0  502  0.76175685050E+03  0.45431510427E+03 -0.13411529964E+04  0.16079076693E+04  0.50400001928E-02 0.  1.
</event>
<event>
 5   0  0.7278657E-07  0.3000468E+04  0.7818609E-02  0.8243597E-01
        2   -1    0    0  501    0  0.00000000000E+00  0.00000000000E+00  0.22975885009E+04  0.22975885009E+04  0.25500000920E-02 0. -1.
       -2   -1    0    0    0  501  0.00000000000E+00  0.00000000000E+00 -0.97959304825E+03  0.97959304825E+03  0.25500000920E-02 0.  1.
    10030    2    1    2    0    0  0.00000000000E+00  0.00000000000E+00  0.13179954526E+04  0.32771815491E+04  0.30004677790E+04 0.  0.
        2    1    3    3  502    0  0.42984445259E+03  0.12725141946E+04  0.13889455962E+04  0.19321564372E+04  0.25500000920E-02 0. -1.
       -2    1    3    3    0  502 -0.42984445259E+03 -0.12725141946E+04 -0.70950143550E+02  0.13450251119E+04  0.25500000920E-02 0.  1.
</event>
<event>
 5   0  0.2792361E-07  0.3002052E+04  0.7818609E-02  0.8243145E-01
       -1   -1    0    0    0  501  0.00000000000E+00  0.00000000000E+00  0.13337129490E+04  0.13337129490E+04  0.50400001928E-02 0.  1.
        1   -1    0    0  501    0  0.00000000000E+00  0.00000000000E+00 -0.16893285854E+04  0.16893285855E+04  0.50400001928E-02 0. -1.
    10030    2    1    2    0    0  0.00000000000E+00  0.00000000000E+00 -0.35561563644E+03  0.30230415345E+04  0.30020522378E+04 0.  0.
        4    1    3    3  502    0 -0.70262038473E+03  0.20704797323E+03  0.11415178577E+04  0.13563218278E+04  0.12699999809E+01 0.  1.
       -4    1    3    3    0  502  0.70262038473E+03 -0.20704797323E+03 -0.14971334942E+04  0.16667197066E+04  0.12699999809E+01 0. -1.
</event>
<event>
 5   0  0.2621825E-07  0.2998534E+04  0.7818609E-02  0.8244150E-01
        1   -1    0    0  501    0  0.00000000000E+00  0.00000000000E+00  0.22489425079E+04  0.22489425079E+04  0.50400001928E-02 0. -1.
       -1   -1    0    0    0  501  0.00000000000E+00  0.00000000000E+00 -0.99949244817E+03  0.99949244818E+03  0.50400001928E-02 0.  1.
    10030    2    1    2    0    0  0.00000000000E+00  0.00000000000E+00  0.12494500597E+04  0.32484349561E+04  0.29985336770E+04 0.  0.
        3    1    3    3  502    0 -0.10085330206E+04 -0.29487647684E+03  0.17832975239E+04  0.20698408294E+04  0.10100000352E+00 0. -1.
       -3    1    3    3    0  502  0.10085330206E+04  0.29487647684E+03 -0.53384746414E+03  0.11785941267E+04  0.10100000352E+00 0.  1.
</event>
<event>
 5   0  0.7585823E-07  0.3026720E+04  0.7818609E-02  0.8236142E-01
        2   -1    0    0  501    0  0.00000000000E+00  0.00000000000E+00  0.13918656013E+04  0.13918656013E+04  0.25500000920E-02 0.  1.
       -2   -1    0    0    0  501  0.00000000000E+00  0.00000000000E+00 -0.16454594398E+04  0.16454594398E+04  0.25500000920E-02 0. -1.
    10030    2    1    2    0    0  0.00000000000E+00  0.00000000000E+00 -0.25359383850E+03  0.30373250410E+04  0.30267199358E+04 0.  0.
        5    1    3    3  502    0 -0.11182257224E+04 -0.68152848869E+03  0.63436351600E+03  0.14551113385E+04  0.46999998093E+01 0.  1.
       -5    1    3    3    0  502  0.11182257224E+04  0.68152848869E+03 -0.88795735450E+03  0.15822137025E+04  0.46999998093E+01 0. -1.
</event>
<event>
 5   0  0.7278657E-07  0.2960560E+04  0.7818609E-02  0.8255084E-01
        2   -1    0    0  501    0  0.00000000000E+00  0.00000000000E+00  0.19742606041E+04  0.19742606041E+04  0.25500000920E-02 0. -1.
       -2   -1    0    0    0  501  0.00000000000E+00  0.00000000000E+00 -0.11098986927E+04  0.11098986927E+04  0.25500000920E-02 0.  1.
    10030    2    1    2    0    0  0.00000000000E+00  0.00000000000E+00  0.86436191134E+03  0.30841592968E+04  0.29605602602E+04 0.  0.
        2    1    3    3  502    0  0.40834860487E+03 -0.24767246422E+03 -0.10274344041E+04  0.11330100120E+04  0.25500000920E-02 0.  1.
       -2    1    3    3    0  502 -0.40834860487E+03  0.24767246422E+03  0.18917963154E+04  0.19511492848E+04  0.25500000920E-02 0. -1.
</event>
<event>
 5   0  0.2414250E-07  0.2998274E+04  0.7818609E-02  0.8244224E-01
       -3   -1    0    0    0  501  0.00000000000E+00  0.00000000000E+00  0.14547216894E+04  0.14547216929E+04  0.10100000352E+00 0.  1.
        3   -1    0    0  501    0  0.00000000000E+00  0.00000000000E+00 -0.15449084084E+04  0.15449084117E+04  0.10100000352E+00 0. -1.
    10030    2    1    2    0    0  0.00000000000E+00  0.00000000000E+00 -0.90186718923E+02  0.29996301046E+04  0.29982740235E+04 0.  0.
        3    1    3    3  502    0 -0.75043642702E+03  0.40035921138E+03 -0.12801432760E+04  0.15369479973E+04  0.10100000352E+00 0. -1.
       -3    1    3    3    0  502  0.75043642702E+03 -0.40035921138E+03  0.11899565571E+04  0.14626821073E+04  0.10100000352E+00 0.  1.
</event>
<event>
 5   0  0.2602891E-07  0.2996376E+04  0.7818609E-02  0.8244766E-01
       -1   -1    0    0    0  501  0.00000000000E+00  0.00000000000E+00  0.13832812608E+04  0.13832812608E+04  0.50400001928E-02 0.  1.
        1   -1    0    0  501    0  0.00000000000E+00  0.00000000000E+00 -0.16226400498E+04  0.16226400498E+04  0.50400001928E-02 0. -1.
    10030    2    1    2    0    0  0.00000000000E+00  0.00000000000E+00 -0.23935878908E+03  0.30059213106E+04  0.29963761940E+04 0.  0.
        5    1    3    3  502    0  0.14765606821E+04 -0.17557952660E+02 -0.37347890488E+03  0.15231704802E+04  0.46999998093E+01 0.  1.
       -5    1    3    3    0  502 -0.14765606821E+04  0.17557952660E+02  0.13412011580E+03  0.14827508304E+04  0.46999998093E+01 0. -1.
</event>
<event>
 5   0  0.2679935E-07  0.2999716E+04  0.7818609E-02  0.8243812E-01
       -1   -1    0    0    0  501  0.00000000000E+00  0.00000000000E+00  0.15879213993E+04  0.15879213993E+04  0.50400001928E-02 0.  1.
        1   -1    0    0  501    0  0.00000000000E+00  0.00000000000E+00 -0.14166784059E+04  0.14166784059E+04  0.50400001928E-02 0. -1.
    10030    2    1    2    0    0  0.00000000000E+00  0.00000000000E+00  0.17124299341E+03  0.30045998052E+04  0.29997159576E+04 0.  0.
        2    1    3    3  502    0 -0.14745126642E+03  0.12951548166E+04 -0.65747996102E+03  0.14599478669E+04  0.25500000920E-02 0. -1.
       -2    1    3    3    0  502  0.14745126642E+03 -0.12951548166E+04  0.82872295443E+03  0.15446519382E+04  0.25500000920E-02 0.  1.
</event>
<event>
 5   0  0.2640081E-07  0.2997778E+04  0.7818609E-02  0.8244366E-01
       -1   -1    0    0    0  501  0.00000000000E+00  0.00000000000E+00  0.19749336195E+04  0.19749336195E+04  0.50400001928E-02 0. -1.
        1   -1    0    0  501    0  0.00000000000E+00  0.00000000000E+00 -0.11375920329E+04  0.11375920329E+04  0.50400001928E-02 0.  1.
    10030    2    1    2    0    0  0.00000000000E+00  0.00000000000E+00  0.83734158662E+03  0.31125256525E+04  0.29977783448E+04 0.  0.
        1    1    3    3  502    0  0.11964139181E+04 -0.89832489116E+03  0.51311910701E+03  0.15816716131E+04  0.50400001928E-02 0.  1.
       -1    1    3    3    0  502 -0.11964139181E+04  0.89832489116E+03  0.32422247961E+03  0.15308540394E+04  0.50400001928E-02 0. -1.
</event>
<event>
 5   0  0.7278657E-07  0.2991602E+04  0.7818609E-02  0.8246133E-01
        2   -1    0    0  501    0  0.00000000000E+00  0.00000000000E+00  0.18044916551E+04  0.18044916551E+04  0.25500000920E-02 0.  1.
       -2   -1    0    0    0  501  0.00000000000E+00  0.00000000000E+00 -0.12399176349E+04  0.12399176349E+04  0.25500000920E-02 0. -1.
    10030    2    1    2    0    0  0.00000000000E+00  0.00000000000E+00  0.56457402023E+03  0.30444092900E+04  0.29916022631E+04 0.  0.
        2    1    3    3  502    0  0.83187338535E+03 -0.75481559460E+03 -0.72290420281E+03  0.13357957919E+04  0.25500000920E-02 0. -1.
       -2    1    3    3    0  502 -0.83187338535E+03  0.75481559460E+03  0.12874782230E+04  0.17086134981E+04  0.25500000920E-02 0.  1.
</event>
<event>
 5   0  0.2640081E-07  0.2993510E+04  0.7818609E-02  0.8245587E-01
       -1   -1    0    0    0  501  0.00000000000E+00  0.00000000000E+00  0.13743098549E+04  0.13743098549E+04  0.50400001928E-02 0.  1.
        1   -1    0    0  501    0  0.00000000000E+00  0.00000000000E+00 -0.16301095450E+04  0.16301095450E+04  0.50400001928E-02 0. -1.
    10030    2    1    2    0    0  0.00000000000E+00  0.00000000000E+00 -0.25579969005E+03  0.30044193999E+04  0.29935100549E+04 0.  0.
        1    1    3    3  502    0  0.12028472632E+04  0.31158342518E+03 -0.96541674127E+03  0.15735168425E+04  0.50400001928E-02 0. -1.
       -1    1    3    3    0  502 -0.12028472632E+04 -0.31158342518E+03  0.70961705122E+03  0.14309025574E+04  0.50400001928E-02 0.  1.
</event>
<event>
 5   0  0.7585823E-07  0.2999006E+04  0.7818609E-02  0.8244015E-01
       -2   -1    0    0    0  501  0.00000000000E+00  0.00000000000E+00  0.93253659573E+03  0.93253659574E+03  0.25500000920E-02 0. -1.
        2   -1    0    0  501    0  0.00000000000E+00  0.00000000000E+00 -0.24111750230E+04  0.24111750230E+04  0.25500000920E-02 0.  1.
    10030    2    1    2    0    0  0.00000000000E+00  0.00000000000E+00 -0.14786384272E+04  0.33437116187E+04  0.29990058004E+04 0.  0.
        5    1    3    3  502    0 -0.82926091907E+03  0.11283244131E+04 -0.13373441997E+04  0.19363112486E+04  0.46999998093E+01 0.  1.
       -5    1    3    3    0  502  0.82926091907E+03 -0.11283244131E+04 -0.14129422753E+03  0.14074003701E+04  0.46999998093E+01 0. -1.
</event>
<event>
 5   0  0.2621825E-07  0.2998379E+04  0.7818609E-02  0.8244194E-01
       -1   -1    0    0    0  501  0.00000000000E+00  0.00000000000E+00  0.12072168603E+04  0.12072168603E+04  0.50400001928E-02 0.  1.
        1   -1    0    0  501    0  0.00000000000E+00  0.00000000000E+00 -0.18617780374E+04  0.18617780374E+04  0.50400001928E-02 0. -1.
    10030    2    1    2    0    0  0.00000000000E+00  0.00000000000E+00 -0.65456117704E+03  0.30689948977E+04  0.29983794536E+04 0.  0.
        3    1    3    3  502    0  0.46193898109E+03 -0.11639518898E+04 -0.11709489639E+04  0.17144366743E+04  0.10100000352E+00 0. -1.
       -3    1    3    3    0  502 -0.46193898109E+03  0.11639518898E+04  0.51638778685E+03  0.13545582234E+04  0.10100000352E+00 0.  1.
</event>
<event>
 5   0  0.2414250E-07  0.2997459E+04  0.7818609E-02  0.8244457E-01
       -3   -1    0    0    0  501  0.00000000000E+00  0.00000000000E+00  0.12892787001E+04  0.12892787040E+04  0.10100000352E+00 0.  1.
        3   -1    0    0  501    0  0.00000000000E+00  0.00000000000E+00 -0.17422068083E+04  0.17422068112E+04  0.10100000352E+00 0. -1.
    10030    2    1    2    0    0  0.00000000000E+00  0.00000000000E+00 -0.45292810822E+03  0.30314855153E+04  0.29974590169E+04 0.  0.
        1    1    3    3  502    0 -0.30661251707E+03 -0.38598362990E+03  0.12049455145E+04  0.13018787544E+04  0.50400001928E-02 0.  1.
       -1    1    3    3    0  502  0.30661251707E+03  0.38598362990E+03 -0.16578736228E+04  0.17296067609E+04  0.50400001928E-02 0. -1.
</event>
<event>
 5   0  0.2602891E-07  0.3028586E+04  0.7818609E-02  0.8235615E-01
       -1   -1    0    0    0  501  0.00000000000E+00  0.00000000000E+00  0.22251379074E+04  0.22251379074E+04  0.50400001928E-02 0.  1.
        1   -1    0    0  501    0  0.00000000000E+00  0.00000000000E+00 -0.10305352087E+04  0.10305352087E+04  0.50400001928E-02 0. -1.
    10030    2    1    2    0    0  0.00000000000E+00  0.00000000000E+00  0.11946026987E+04  0.32556731161E+04  0.30285857807E+04 0.  0.
        5    1    3    3  502    0 -0.10687313275E+04  0.93112539072E+03  0.11700553106E+04  0.18379969161E+04  0.46999998093E+01 0.  1.
       -5    1    3    3    0  502  0.10687313275E+04 -0.93112539072E+03  0.24547388115E+02  0.14176762000E+04  0.46999998093E+01 0. -1.
</event>
<event>
 5   0  0.7278657E-07  0.2993879E+04  0.7818609E-02  0.8245481E-01
        2   -1    0    0  501    0  0.00000000000E+00  0.00000000000E+00  0.25582052272E+04  0.25582052272E+04  0.25500000920E-02 0. -1.
       -2   -1    0    0    0  501  0.00000000000E+00  0.00000000000E+00 -0.87593753920E+03  0.87593753920E+03  0.25500000920E-02 0.  1.
    10030    2    1    2    0    0  0.00000000000E+00  0.00000000000E+00  0.16822676880E+04  0.34341427664E+04  0.29938790834E+04 0.  0.
        2    1    3    3  502    0  0.61228775765E+03  0.20969815755E+03  0.23894274324E+04  0.24755268268E+04  0.25500000920E-02 0. -1.
       -2    1    3    3    0  502 -0.61228775765E+03 -0.20969815755E+03 -0.70715974443E+03  0.95861593957E+03  0.25500000920E-02 0.  1.
</event>
<event>
 5   0  0.2414250E-07  0.3001781E+04  0.7818609E-02  0.8243223E-01
       -3   -1    0    0    0  501  0.00000000000E+00  0.00000000000E+00  0.14219367465E+04  0.14219367501E+04  0.10100000352E+00 0.  1.
        3   -1    0    0  501    0  0.00000000000E+00  0.00000000000E+00 -0.15842278689E+04  0.15842278721E+04  0.10100000352E+00 0. -1.
    10030    2    1    2    0    0  0.00000000000E+00  0.00000000000E+00 -0.16229112246E+03  0.30061646222E+04  0.30017806927E+04 0.  0.
        3    1    3    3  502    0 -0.71211663278E+03  0.12362249554E+04 -0.54799112725E+03  0.15282854854E+04  0.10100000352E+00 0. -1.
       -3    1    3    3    0  502  0.71211663278E+03 -0.12362249554E+04  0.38570000479E+03  0.14778791368E+04  0.10100000352E+00 0.  1.
</event>
<event>
 5   0  0.2640081E-07  0.3000688E+04  0.7818609E-02  0.8243535E-01
       -1   -1    0    0    0  501  0.00000000000E+00  0.00000000000E+00  0.13966180065E+04  0.13966180065E+04  0.50400001928E-02 0. -1.
        1   -1    0    0  501    0  0.00000000000E+00  0.00000000000E+00 -0.16117733322E+04  0.16117733322E+04  0.50400001928E-02 0.  1.
    10030    2    1    2    0    0  0.00000000000E+00  0.00000000000E+00 -0.21515532574E+03  0.30083913387E+04  0.30006876933E+04 0.  0.
        1    1    3    3  502    0 -0.46107698090E+03 -0.51795741212E+03 -0.14414669015E+04  0.15995932893E+04  0.50400001928E-02 0.  1.
       -1    1    3    3    0  502  0.46107698090E+03  0.51795741212E+03  0.12263115758E+04  0.14087980494E+04  0.50400001928E-02 0. -1.
</event>
<event>
 5   0  0.7278657E-07  0.3014949E+04  0.7818609E-02  0.8239475E-01
       -2   -1    0    0    0  501  0.00000000000E+00  0.00000000000E+00  0.13964766170E+04  0.13964766170E+04  0.25500000920E-02 0. -1.
        2   -1    0    0  501    0  0.00000000000E+00  0.00000000000E+00 -0.16272948989E+04  0.16272948989E+04  0.25500000920E-02 0.  1.
    10030    2    1    2    0    0  0.00000000000E+00  0.00000000000E+00 -0.23081828185E+03  0.30237715159E+04  0.30149489384E+04 0.  0.
        2    1    3    3  502    0  0.30344411409E+03  0.31224700452E+03 -0.15628589302E+04  0.16223762073E+04  0.25500000920E-02 0.  1.
       -2    1    3    3    0  502 -0.30344411409E+03 -0.31224700452E+03  0.13320406483E+04  0.14013953086E+04  0.25500000920E-02 0. -1.
</event>
<event>
 5   0  0.2679935E-07  0.3001041E+04  0.7818609E-02  0.8243434E-01
       -1   -1    0    0    0  501  0.00000000000E+00  0.00000000000E+00  0.18086619389E+04  0.18086619389E+04  0.50400001928E-02 0. -1.
        1   -1    0    0  501    0  0.00000000000E+00  0.00000000000E+00 -0.12448767848E+04  0.12448767848E+04  0.50400001928E-02 0.  1.
    10030    2    1    2    0    0  0.00000000000E+00  0.00000000000E+00  0.56378515414E+03  0.30535387237E+04  0.30010406590E+04 0.  0.
        2    1    3    3  502    0  0.18338234955E+03 -0.22783640228E+03 -0.12155944167E+04  0.12502832872E+04  0.25500000920E-02 0.  1.
       -2    1    3    3    0  502 -0.18338234955E+03  0.22783640228E+03  0.17793795708E+04  0.18032554365E+04  0.25500000920E-02 0. -1.
</event>
<event>
 5   0  0.2679935E-07  0.3003885E+04  0.7818609E-02  0.8242622E-01
       -1   -1    0    0    0  501  0.00000000000E+00  0.00000000000E+00  0.16566843639E+04  0.16566843639E+04  0.50400001928E-02 0.  1.
        1   -1    0    0  501    0  0.00000000000E+00  0.00000000000E+00 -0.13616540893E+04  0.13616540893E+04  0.50400001928E-02 0. -1.
    10030    2    1    2    0    0  0.00000000000E+00  0.00000000000E+00  0.29503027452E+03  0.30183384532E+04  0.30038848439E+04 0.  0.
        2    1    3    3  502    0  0.49173187473E+03 -0.88185068020E+03 -0.96975686997E+03  0.13999604443E+04  0.25500000920E-02 0. -1.
       -2    1    3    3    0  502 -0.49173187473E+03  0.88185068020E+03  0.12647871445E+04  0.16183780089E+04  0.25500000920E-02 0.  1.
</event>
<event>
 5   0  0.2792361E-07  0.3001179E+04  0.7818609E-02  0.8243394E-01
       -1   -1    0    0    0  501  0.00000000000E+00  0.00000000000E+00  0.11667616056E+04  0.11667616056E+04  0.50400001928E-02 0.  1.
        1   -1    0    0  501    0  0.00000000000E+00  0.00000000000E+00 -0.19299309844E+04  0.19299309844E+04  0.50400001928E-02 0. -1.
    10030    2    1    2    0    0  0.00000000000E+00  0.00000000000E+00 -0.76316937882E+03  0.30966925900E+04  0.30011793509E+04 0.  0.
        4    1    3    3  502    0  0.18118051004E+03  0.35981478576E+02 -0.19181546059E+04  0.19270287359E+04  0.12699999809E+01 0. -1.
       -4    1    3    3    0  502 -0.18118051004E+03 -0.35981478576E+02  0.11549852271E+04  0.11696638541E+04  0.12699999809E+01 0.  1.
</event>
<event>
 5   0  0.2792361E-07  0.3012196E+04  0.7818609E-02  0.8240257E-01
        1   -1    0    0  501    0  0.00000000000E+00  0.00000000000E+00  0.12969417214E+04  0.12969417214E+04  0.50400001928E-02 0.  1.
       -1   -1    0    0    0  501  0.00000000000E+00  0.00000000000E+00 -0.17489844699E+04  0.17489844699E+04  0.50400001928E-02 0. -1.
    10030    2    1    2    0    0  0.00000000000E+00  0.00000000000E+00 -0.45204274854E+03  0.30459261913E+04  0.30121958297E+04 0.  0.
        4    1    3    3  502    0  0.12384118968E+04  0.45551578979E+03 -0.96021698895E+03  0.16319243057E+04  0.12699999809E+01 0.  1.
       -4    1    3    3    0  502 -0.12384118968E+04 -0.45551578979E+03  0.50817424040E+03  0.14140018856E+04  0.12699999809E+01 0. -1.
</event>
<event>
 5   0  0.2602891E-07  0.3000624E+04  0.7818609E-02  0.8243553E-01
        1   -1    0    0  501    0  0.00000000000E+00  0.00000000000E+00  0.27271865233E+04  0.27271865233E+04  0.50400001928E-02 0. -1.
       -1   -1    0    0    0  501  0.00000000000E+00  0.00000000000E+00 -0.82536918335E+03  0.82536918337E+03  0.50400001928E-02 0.  1.
    10030    2    1    2    0    0  0.00000000000E+00  0.00000000000E+00  0.19018173400E+04  0.35525557067E+04  0.30006237443E+04 0.  0.
        5    1    3    3  502    0 -0.13955730167E+04 -0.54477400685E+03  0.10464405980E+04  0.18274197051E+04  0.46999998093E+01 0.  1.
       -5    1    3    3    0  502  0.13955730167E+04  0.54477400685E+03  0.85537674197E+03  0.17251360016E+04  0.46999998093E+01 0. -1.
</event>
<event>
 5   0  0.2621825E-07  0.3006846E+04  0.7818609E-02  0.8241779E-01
       -1   -1    0    0    0  501  0.00000000000E+00  0.00000000000E+00  0.13443444468E+04  0.13443444469E+04  0.50400001928E-02 0. -1.
        1   -1    0    0  501    0  0.00000000000E+00  0.00000000000E+00 -0.16813257603E+04  0.16813257603E+04  0.50400001928E-02 0.  1.
    10030    2    1    2    0    0  0.00000000000E+00  0.00000000000E+00 -0.33698131349E+03  0.30256702072E+04  0.30068461545E+04 0.  0.
        3    1    3    3  502    0  0.80277444641E+02  0.66774633685E+02 -0.16776724798E+04  0.16809188795E+04  0.10100000352E+00 0.  1.
       -3    1    3    3    0  502 -0.80277444641E+02 -0.66774633685E+02  0.13406911663E+04  0.13447513277E+04  0.10100000352E+00 0. -1.
</event>
<event>
 5   0  0.7585823E-07  0.3002727E+04  0.7818609E-02  0.8242952E-01
        2   -1    0    0  501    0  0.00000000000E+00  0.00000000000E+00  0.15720827190E+04  0.15720827190E+04  0.25500000920E-02 0.  1.
       -2   -1    0    0    0  501  0.00000000000E+00  0.00000000000E+00 -0.14338259250E+04  0.14338259250E+04  0.25500000920E-02 0. -1.
    10030    2    1    2    0    0  0.00000000000E+00  0.00000000000E+00  0.13825679400E+03  0.30059086441E+04  0.30027273995E+04 0.  0.
        5    1    3    3  502    0 -0.80276854723E+03  0.80391453355E+03  0.10516747260E+04  0.15481465489E+04  0.46999998093E+01 0.  1.
       -5    1    3    3    0  502  0.80276854723E+03 -0.80391453355E+03 -0.91341793197E+03  0.14577620952E+04  0.46999998093E+01 0. -1.
</event>
<event>
 5   0  0.2602891E-07  0.2966329E+04  0.7818609E-02  0.8253412E-01
        1   -1    0    0  501    0  0.00000000000E+00  0.00000000000E+00  0.14451429650E+04  0.14451429650E+04  0.50400001928E-02 0.  1.
       -1   -1    0    0    0  501  0.00000000000E+00  0.00000000000E+00 -0.15221868305E+04  0.15221868305E+04  0.50400001928E-02 0. -1.
    10030    2    1    2    0    0  0.00000000000E+00  0.00000000000E+00 -0.77043865474E+02  0.29673297955E+04  0.29663294420E+04 0.  0.
        5    1    3    3  502    0 -0.10824636609E+04 -0.97097243194E+03 -0.33058007911E+03  0.14912479068E+04  0.46999998093E+01 0.  1.
       -5    1    3    3    0  502  0.10824636609E+04  0.97097243194E+03  0.25353621364E+03  0.14760818888E+04  0.46999998093E+01 0. -1.
</event>
<event>
 5   0  0.7307508E-07  0.3001127E+04  0.7818609E-02  0.8243409E-01
        2   -1    0    0  501    0  0.00000000000E+00  0.00000000000E+00  0.14154504233E+04  0.14154504233E+04  0.25500000920E-02 0. -1.
       -2   -1    0    0    0  501  0.00000000000E+00  0.00000000000E+00 -0.15907950536E+04  0.15907950536E+04  0.25500000920E-02 0.  1.
    10030    2    1    2    0    0  0.00000000000E+00  0.00000000000E+00 -0.17534463038E+03  0.30062454769E+04  0.30011274761E+04 0.  0.
        1    1    3    3  502    0 -0.13904564920E+03  0.12913901387E+04  0.66505400933E+03  0.14592186328E+04  0.50400001928E-02 0. -1.
       -1    1    3    3    0  502  0.13904564920E+03 -0.12913901387E+04 -0.84039863971E+03  0.15470268441E+04  0.50400001928E-02 0.  1.
</event>
<event>
 5   0  0.2621825E-07  0.2995543E+04  0.7818609E-02  0.8245005E-01
        1   -1    0    0  501    0  0.00000000000E+00  0.00000000000E+00  0.13877451444E+04  0.13877451445E+04  0.50400001928E-02 0.  1.
       -1   -1    0    0    0  501  0.00000000000E+00  0.00000000000E+00 -0.16165216142E+04  0.16165216142E+04  0.50400001928E-02 0. -1.
    10030    2    1    2    0    0  0.00000000000E+00  0.00000000000E+00 -0.22877646977E+03  0.30042667587E+04  0.29955433704E+04 0.  0.
        3    1    3    3  502    0  0.10741187282E+04 -0.10436990706E+04 -0.13120664733E+03  0.15034141102E+04  0.10100000352E+00 0.  1.
       -3    1    3    3    0  502 -0.10741187282E+04  0.10436990706E+04 -0.97569822441E+02  0.15008526485E+04  0.10100000352E+00 0. -1.
</event>
<event>
 5   0  0.2792361E-07  0.2994211E+04  0.7818609E-02  0.8245386E-01
        1   -1    0    0  501    0  0.00000000000E+00  0.00000000000E+00  0.18503692871E+04  0.18503692871E+04  0.50400001928E-02 0.  1.
       -1   -1    0    0    0  501  0.00000000000E+00  0.00000000000E+00 -0.12112852179E+04  0.12112852180E+04  0.50400001928E-02 0. -1.
    10030    2    1    2    0    0  0.00000000000E+00  0.00000000000E+00  0.63908406920E+03  0.30616545051E+04  0.29942110582E+04 0.  0.
        4    1    3    3  502    0  0.10649948821E+04  0.82973273613E+03 -0.34206603202E+03  0.13927244148E+04  0.12699999809E+01 0.  1.
       -4    1    3    3    0  502 -0.10649948821E+04 -0.82973273613E+03  0.98115010121E+03  0.16689300903E+04  0.12699999809E+01 0. -1.
</event>
<event>
 5   0  0.7307508E-07  0.3019818E+04  0.7818609E-02  0.8238094E-01
       -2   -1    0    0    0  501  0.00000000000E+00  0.00000000000E+00  0.14089090880E+04  0.14089090880E+04  0.25500000920E-02 0.  1.
        2   -1    0    0  501    0  0.00000000000E+00  0.00000000000E+00 -0.16181488702E+04  0.16181488702E+04  0.25500000920E-02 0. -1.
    10030    2    1    2    0    0  0.00000000000E+00  0.00000000000E+00 -0.20923978220E+03  0.30270579582E+04  0.30198176428E+04 0.  0.
        1    1    3    3  502    0 -0.98402326159E+03 -0.11427392402E+04 -0.18009915504E+03  0.15187463436E+04  0.50400001928E-02 0.  1.
       -1    1    3    3    0  502  0.98402326159E+03  0.11427392402E+04 -0.29140627161E+02  0.15083116146E+04  0.50400001928E-02 0. -1.
</event>
<event>
 5   0  0.7399409E-07  0.3017251E+04  0.7818609E-02  0.8238822E-01
       -2   -1    0    0    0  501  0.00000000000E+00  0.00000000000E+00  0.13484190204E+04  0.13484190204E+04  0.25500000920E-02 0. -1.
        2   -1    0    0  501    0  0.00000000000E+00  0.00000000000E+00 -0.16878666746E+04  0.16878666746E+04  0.25500000920E-02 0.  1.
    10030    2    1    2    0    0  0.00000000000E+00  0.00000000000E+00 -0.33944765412E+03  0.30362856950E+04  0.30172514167E+04 0.  0.
        3    1    3    3  502    0 -0.60526069647E+03  0.12794479050E+04  0.35570419223E+03  0.14594015674E+04  0.10100000352E+00 0. -1.
       -3    1    3    3    0  502  0.60526069647E+03 -0.12794479050E+04 -0.69515184635E+03  0.15768841276E+04  0.10100000352E+00 0.  1.
</event>
<event>
 5   0  0.7307508E-07  0.2997280E+04  0.7818609E-02  0.8244508E-01
        2   -1    0    0  501    0  0.00000000000E+00  0.00000000000E+00  0.18151354830E+04  0.18151354830E+04  0.25500000920E-02 0.  1.
       -2   -1    0    0    0  501  0.00000000000E+00  0.00000000000E+00 -0.12373300080E+04  0.12373300080E+04  0.25500000920E-02 0. -1.
    10030    2    1    2    0    0  0.00000000000E+00  0.00000000000E+00  0.57780547494E+03  0.30524654910E+04  0.29972798346E+04 0.  0.
        1    1    3    3  502    0 -0.12917420174E+04 -0.73469393213E+03  0.48624613030E+03  0.15635881532E+04  0.50400001928E-02 0. -1.
       -1    1    3    3    0  502  0.12917420174E+04  0.73469393213E+03  0.91559344640E+02  0.14888773378E+04  0.50400001928E-02 0.  1.
</event>
<event>
 5   0  0.7399409E-07  0.3004771E+04  0.7818609E-02  0.8242370E-01
        2   -1    0    0  501    0  0.00000000000E+00  0.00000000000E+00  0.27310407113E+04  0.27310407113E+04  0.25500000920E-02 0. -1.
       -2   -1    0    0    0  501  0.00000000000E+00  0.00000000000E+00 -0.82648421645E+03  0.82648421646E+03  0.25500000920E-02 0.  1.
    10030    2    1    2    0    0  0.00000000000E+00  0.00000000000E+00  0.19045564948E+04  0.35575249278E+04  0.30047709013E+04 0.  0.
        3    1    3    3  502    0 -0.79601232869E+03  0.11651718411E+04  0.34176293569E+03  0.14519169953E+04  0.10100000352E+00 0.  1.
       -3    1    3    3    0  502  0.79601232869E+03 -0.11651718411E+04  0.15627935592E+04  0.21056079325E+04  0.10100000352E+00 0. -1.
</event>
<event>
 5   0  0.7278657E-07  0.2994410E+04  0.7818609E-02  0.8245329E-01
        2   -1    0    0  501    0  0.00000000000E+00  0.00000000000E+00  0.21516097773E+04  0.21516097773E+04  0.25500000920E-02 0.  1.
       -2   -1    0    0    0  501  0.00000000000E+00  0.00000000000E+00 -0.10418352562E+04  0.10418352562E+04  0.25500000920E-02 0. -1.
    10030    2    1    2    0    0  0.00000000000E+00  0.00000000000E+00  0.11097745212E+04  0.31934450335E+04  0.29944100745E+04 0.  0.
        2    1    3    3  502    0  0.10881196761E+03 -0.26499110933E+03 -0.10123367189E+04  0.10520864816E+04  0.25500000920E-02 0. -1.
       -2    1    3    3    0  502 -0.10881196761E+03  0.26499110933E+03  0.21221112401E+04  0.21413585519E+04  0.25500000920E-02 0.  1.
</event>
<event>
 5   0  0.7307508E-07  0.3001146E+04  0.7818609E-02  0.8243404E-01
       -2   -1    0    0    0  501  0.00000000000E+00  0.00000000000E+00  0.11553017858E+04  0.11553017858E+04  0.25500000920E-02 0. -1.
        2   -1    0    0  501    0  0.00000000000E+00  0.00000000000E+00 -0.19490318401E+04  0.19490318401E+04  0.25500000920E-02 0.  1.
    10030    2    1    2    0    0  0.00000000000E+00  0.00000000000E+00 -0.79373005432E+03  0.31043336259E+04  0.30011464246E+04 0.  0.
        1    1    3    3  502    0  0.14170880391E+04 -0.69413981967E+02  0.10856944371E+03  0.14229350427E+04  0.50400001928E-02 0. -1.
       -1    1    3    3    0  502 -0.14170880391E+04  0.69413981967E+02 -0.90229949803E+03  0.16813985832E+04  0.50400001928E-02 0.  1.
</event>
<event>
 5   0  0.2602891E-07  0.2998038E+04  0.7818609E-02  0.8244291E-01
       -1   -1    0    0    0  501  0.00000000000E+00  0.00000000000E+00  0.13203405570E+04  0.13203405570E+04  0.50400001928E-02 0.  1.
        1   -1    0    0  501    0  0.00000000000E+00  0.00000000000E+00 -0.17018776900E+04  0.17018776900E+04  0.50400001928E-02 0. -1.
    10030    2    1    2    0    0  0.00000000000E+00  0.00000000000E+00 -0.38153713300E+03  0.30222182470E+04  0.29980381166E+04 0.  0.
        5    1    3    3  502    0  0.22739034229E+03 -0.12908259444E+04 -0.92402647897E+03  0.16036785870E+04  0.46999998093E+01 0. -1.
       -5    1    3    3    0  502 -0.22739034229E+03  0.12908259444E+04  0.54248934596E+03  0.14185396600E+04  0.46999998093E+01 0.  1.
</event>
<event>
 5   0  0.2602891E-07  0.2998487E+04  0.7818609E-02  0.8244163E-01
       -1   -1    0    0    0  501  0.00000000000E+00  0.00000000000E+00  0.10850133002E+04  0.10850133002E+04  0.50400001928E-02 0. -1.
        1   -1    0    0  501    0  0.00000000000E+00  0.00000000000E+00 -0.20716155910E+04  0.20716155910E+04  0.50400001928E-02 0.  1.
    10030    2    1    2    0    0  0.00000000000E+00  0.00000000000E+00 -0.98660229082E+03  0.31566288913E+04  0.29984865978E+04 0.  0.
        5    1    3    3  502    0 -0.71830609544E+03 -0.12212572871E+04  0.22730153319E+02  0.14170292015E+04  0.46999998093E+01 0.  1.
       -5    1    3    3    0  502  0.71830609544E+03  0.12212572871E+04 -0.10093324441E+04  0.17395996898E+04  0.46999998093E+01 0. -1.
</event>
<event>
 5   0  0.7278657E-07  0.2998247E+04  0.7818609E-02  0.8244232E-01
       -2   -1    0    0    0  501  0.00000000000E+00  0.00000000000E+00  0.14485731731E+04  0.14485731731E+04  0.25500000920E-02 0.  1.
        2   -1    0    0  501    0  0.00000000000E+00  0.00000000000E+00 -0.15514381617E+04  0.15514381617E+04  0.25500000920E-02 0. -1.
    10030    2    1    2    0    0  0.00000000000E+00  0.00000000000E+00 -0.10286498866E+03  0.30000113348E+04  0.29982472885E+04 0.  0.
        2    1    3    3  502    0 -0.10008590632E+03 -0.14645030649E+04 -0.35588982117E+03  0.15104449611E+04  0.25500000920E-02 0. -1.
       -2    1    3    3    0  502  0.10008590632E+03  0.14645030649E+04  0.25302483251E+03  0.14895663737E+04  0.25500000920E-02 0.  1.
</event>
<event>
 5   0  0.2621825E-07  0.3044496E+04  0.7818609E-02  0.8231138E-01
        1   -1    0    0  501    0  0.00000000000E+00  0.00000000000E+00  0.22525829495E+04  0.22525829495E+04  0.50400001928E-02 0.  1.
       -1   -1    0    0    0  501  0.00000000000E+00  0.00000000000E+00 -0.10287027543E+04  0.10287027543E+04  0.50400001928E-02 0. -1.
    10030    2    1    2    0    0  0.00000000000E+00  0.00000000000E+00  0.12238801952E+04  0.32812857038E+04  0.30444955473E+04 0.  0.
        3    1    3    3  502    0 -0.58190256374E+03 -0.13931464794E+04  0.40247799564E+03  0.15625160012E+04  0.10100000352E+00 0. -1.
       -3    1    3    3    0  502  0.58190256374E+03  0.13931464794E+04  0.82140219960E+03  0.17187697026E+04  0.10100000352E+00 0.  1.
</event>
<event>
 5   0  0.2602891E-07  0.3003681E+04  0.7818609E-02  0.8242681E-01
       -1   -1    0    0    0  501  0.00000000000E+00  0.00000000000E+00  0.10343513365E+04  0.10343513365E+04  0.50400001928E-02 0. -1.
        1   -1    0    0  501    0  0.00000000000E+00  0.00000000000E+00 -0.21806176166E+04  0.21806176166E+04  0.50400001928E-02 0.  1.
    10030    2    1    2    0    0  0.00000000000E+00  0.00000000000E+00 -0.11462662801E+04  0.32149689531E+04  0.30036809060E+04 0.  0.
        5    1    3    3  502    0 -0.63485528727E+03 -0.52514554869E+03  0.77085445729E+03  0.11282986162E+04  0.46999998093E+01 0. -1.
       -5    1    3    3    0  502  0.63485528727E+03  0.52514554869E+03 -0.19171207374E+04  0.20866703369E+04  0.46999998093E+01 0.  1.
</event>
<event>
 5   0  0.7585823E-07  0.3000920E+04  0.7818609E-02  0.8243468E-01
        2   -1    0    0  501    0  0.00000000000E+00  0.00000000000E+00  0.24462351737E+04  0.24462351737E+04  0.25500000920E-02 0.  1.
       -2   -1    0    0    0  501  0.00000000000E+00  0.00000000000E+00 -0.92034520410E+03  0.92034520410E+03  0.25500000920E-02 0. -1.
    10030    2    1    2    0    0  0.00000000000E+00  0.00000000000E+00  0.15258899696E+04  0.33665803778E+04  0.30009203990E+04 0.  0.
        5    1    3    3  502    0  0.13633265732E+04  0.52623258806E+03  0.11446683385E+04  0.18563048718E+04  0.46999998093E+01 0.  1.
       -5    1    3    3    0  502 -0.13633265732E+04 -0.52623258806E+03  0.38122163115E+03  0.15102755060E+04  0.46999998093E+01 0. -1.
</event>
<event>
 5   0  0.7399409E-07  0.3006614E+04  0.7818609E-02  0.8241845E-01
       -2   -1    0    0    0  501  0.00000000000E+00  0.00000000000E+00  0.88764746143E+03  0.88764746143E+03  0.25500000920E-02 0.  1.
        2   -1    0    0  501    0  0.00000000000E+00  0.00000000000E+00 -0.25459787951E+04  0.25459787951E+04  0.25500000920E-02 0. -1.
    10030    2    1    2    0    0  0.00000000000E+00  0.00000000000E+00 -0.16583313337E+04  0.34336262565E+04  0.30066137859E+04 0.  0.
        3    1    3    3  502    0 -0.95108248979E+03  0.76537698412E+03  0.17267796523E+03  0.12329547924E+04  0.10100000352E+00 0.  1.
       -3    1    3    3    0  502  0.95108248979E+03 -0.76537698412E+03 -0.18310092989E+04  0.22006714641E+04  0.10100000352E+00 0. -1.
</event>
<event>
 5   0  0.2602891E-07  0.3005011E+04  0.7818609E-02  0.8242302E-01
        1   -1    0    0  501    0  0.00000000000E+00  0.00000000000E+00  0.12190982591E+04  0.12190982591E+04  0.50400001928E-02 0.  1.
       -1   -1    0    0    0  501  0.00000000000E+00  0.00000000000E+00 -0.18517967056E+04  0.18517967056E+04  0.50400001928E-02 0. -1.
    10030    2    1    2    0    0  0.00000000000E+00  0.00000000000E+00 -0.63269844655E+03  0.30708949647E+04  0.30050105757E+04 0.  0.
        5    1    3    3  502    0  0.11638141164E+04 -0.39983706162E+02  0.65390803848E+03  0.13355447604E+04  0.46999998093E+01 0.  1.
       -5    1    3    3    0  502 -0.11638141164E+04  0.39983706162E+02 -0.12866064850E+04  0.17353502043E+04  0.46999998093E+01 0. -1.
</event>
<event>
 5   0  0.7278657E-07  0.2995972E+04  0.7818609E-02  0.8244882E-01
        2   -1    0    0  501    0  0.00000000000E+00  0.00000000000E+00  0.25980149337E+04  0.25980149337E+04  0.25500000920E-02 0.  1.
       -2   -1    0    0    0  501  0.00000000000E+00  0.00000000000E+00 -0.86372152143E+03  0.86372152143E+03  0.25500000920E-02 0. -1.
    10030    2    1    2    0    0  0.00000000000E+00  0.00000000000E+00  0.17342934123E+04  0.34617364551E+04  0.29959715694E+04 0.  0.
        2    1    3    3  502    0  0.48615728717E+03  0.20577252865E+02 -0.76985999273E+03  0.91074515624E+03  0.25500000920E-02 0. -1.
       -2    1    3    3    0  502 -0.48615728717E+03 -0.20577252865E+02  0.25041534050E+04  0.25509912989E+04  0.25500000920E-02 0.  1.
</event>
<event>
 5   0  0.2640081E-07  0.2998933E+04  0.7818609E-02  0.8244036E-01
        1   -1    0    0  501    0  0.00000000000E+00  0.00000000000E+00  0.13147255413E+04  0.13147255413E+04  0.50400001928E-02 0.  1.
       -1   -1    0    0    0  501  0.00000000000E+00  0.00000000000E+00 -0.17101662346E+04  0.17101662346E+04  0.50400001928E-02 0. -1.
    10030    2    1    2    0    0  0.00000000000E+00  0.00000000000E+00 -0.39544069332E+03  0.30248917758E+04  0.29989326291E+04 0.  0.
        1    1    3    3  502    0  0.89309703184E+02  0.10927562167E+04  0.83402535266E+03  0.13775669353E+04  0.50400001928E-02 0.  1.
       -1    1    3    3    0  502 -0.89309703184E+02 -0.10927562167E+04 -0.12294660460E+04  0.16473248406E+04  0.50400001928E-02 0. -1.
</event>
<event>
 5   0  0.7307508E-07  0.2983218E+04  0.7818609E-02  0.8248539E-01
       -2   -1    0    0    0  501  0.00000000000E+00  0.00000000000E+00  0.14105574846E+04  0.14105574846E+04  0.25500000920E-02 0. -1.
        2   -1    0    0  501    0  0.00000000000E+00  0.00000000000E+00 -0.15773174026E+04  0.15773174027E+04  0.25500000920E-02 0.  1.
    10030    2    1    2    0    0  0.00000000000E+00  0.00000000000E+00 -0.16675991803E+03  0.29878748873E+04  0.29832176373E+04 0.  0.
        1    1    3    3  502    0 -0.14402019474E+04 -0.38354088841E+03 -0.23189505121E+02  0.14905780810E+04  0.50400001928E-02 0. -1.
       -1    1    3    3    0  502  0.14402019474E+04  0.38354088841E+03 -0.14357041291E+03  0.14972968062E+04  0.50400001928E-02 0.  1.
</event>
<event>
 5   0  0.2679935E-07  0.2985049E+04  0.7818609E-02  0.8248013E-01
        1   -1    0    0  501    0  0.00000000000E+00  0.00000000000E+00  0.19696858841E+04  0.19696858841E+04  0.50400001928E-02 0.  1.
       -1   -1    0    0    0  501  0.00000000000E+00  0.00000000000E+00 -0.11309566242E+04  0.11309566242E+04  0.50400001928E-02 0. -1.
    10030    2    1    2    0    0  0.00000000000E+00  0.00000000000E+00  0.83872925985E+03  0.31006425083E+04  0.29850489431E+04 0.  0.
        2    1    3    3  502    0 -0.55354374512E+03 -0.15707969374E+03  0.18498445616E+04  0.19372685953E+04  0.25500000920E-02 0.  1.
       -2    1    3    3    0  502  0.55354374512E+03  0.15707969374E+03 -0.10111153018E+04  0.11633739130E+04  0.25500000920E-02 0. -1.
</event>
<event>
 5   0  0.2621825E-07  0.2996870E+04  0.7818609E-02  0.8244625E-01
       -1   -1    0    0    0  501  0.00000000000E+00  0.00000000000E+00  0.13642149544E+04  0.13642149544E+04  0.50400001928E-02 0. -1.
        1   -1    0    0  501    0  0.00000000000E+00  0.00000000000E+00 -0.16458602893E+04  0.16458602894E+04  0.50400001928E-02 0.  1.
    10030    2    1    2    0    0  0.00000000000E+00  0.00000000000E+00 -0.28164533495E+03  0.30100752438E+04  0.29968698468E+04 0.  0.
        3    1    3    3  502    0 -0.12180390823E+03  0.21859173365E+03  0.13430798343E+04  0.13661925156E+04  0.10100000352E+00 0. -1.
       -3    1    3    3    0  502  0.12180390823E+03 -0.21859173365E+03 -0.16247251693E+04  0.16438827282E+04  0.10100000352E+00 0.  1.
</event>
<event>
 5   0  0.2602891E-07  0.3054169E+04  0.7818609E-02  0.8228430E-01
       -1   -1    0    0    0  501  0.00000000000E+00  0.00000000000E+00  0.11382296130E+04  0.11382296130E+04  0.50400001928E-02 0.  1.
        1   -1    0    0  501    0  0.00000000000E+00  0.00000000000E+00 -0.20487844924E+04  0.20487844924E+04  0.50400001928E-02 0. -1.
    10030    2    1    2    0    0  0.00000000000E+00  0.00000000000E+00 -0.91055487941E+03  0.31870141055E+04  0.30541690720E+04 0.  0.
        5    1    3    3  502    0  0.22380637291E+02  0.38882016883E+03  0.10855264007E+04  0.11532873334E+04  0.46999998093E+01 0.  1.
       -5    1    3    3    0  502 -0.22380637291E+02 -0.38882016883E+03 -0.19960812802E+04  0.20337267721E+04  0.46999998093E+01 0. -1.
</event>
<event>
 5   0  0.2679935E-07  0.3001655E+04  0.7818609E-02  0.8243258E-01
        1   -1    0    0  501    0  0.00000000000E+00  0.00000000000E+00  0.10435952297E+04  0.10435952297E+04  0.50400001928E-02 0. -1.
       -1   -1    0    0    0  501  0.00000000000E+00  0.00000000000E+00 -0.21583881918E+04  0.21583881918E+04  0.50400001928E-02 0.  1.
    10030    2    1    2    0    0  0.00000000000E+00  0.00000000000E+00 -0.11147929621E+04  0.32019834214E+04  0.30016552905E+04 0.  0.
        2    1    3    3  502    0  0.10523293075E+03  0.74872694162E+03  0.82559198544E+03  0.11194945865E+04  0.25500000920E-02 0. -1.
       -2    1    3    3    0  502 -0.10523293075E+03 -0.74872694162E+03 -0.19403849476E+04  0.20824888349E+04  0.25500000920E-02 0.  1.
</event>
<event>
 5   0  0.7208273E-07  0.3013935E+04  0.7818609E-02  0.8239763E-01
        2   -1    0    0  501    0  0.00000000000E+00  0.00000000000E+00  0.17640009330E+04  0.17640009330E+04  0.25500000920E-02 0. -1.
       -2   -1    0    0    0  501  0.00000000000E+00  0.00000000000E+00 -0.12873868670E+04  0.12873868670E+04  0.25500000920E-02 0.  1.
    10030    2    1    2    0    0  0.00000000000E+00  0.00000000000E+00  0.47661406602E+03  0.30513878000E+04  0.30139353905E+04 0.  0.
        4    1    3    3  502    0  0.26242061164E+03 -0.13887292601E+03 -0.12574822440E+04  0.12920578446E+04  0.12699999809E+01 0.  1.
       -4    1    3    3    0  502 -0.26242061164E+03  0.13887292601E+03  0.17340963100E+04  0.17593299555E+04  0.12699999809E+01 0. -1.
</event>
<event>
 5   0  0.2792361E-07  0.3063830E+04  0.7818609E-02  0.8225735E-01
        1   -1    0    0  501    0  0.00000000000E+00  0.00000000000E+00  0.23104982841E+04  0.23104982841E+04  0.50400001928E-02 0.  1.
       -1   -1    0    0    0  501  0.00000000000E+00  0.00000000000E+00 -0.10156960888E+04  0.10156960888E+04  0.50400001928E-02 0. -1.
    10030    2    1    2    0    0  0.00000000000E+00  0.00000000000E+00  0.12948021953E+04  0.33261943729E+04  0.30638303285E+04 0.  0.
        4    1    3    3  502    0  0.11027275079E+04 -0.91386609599E+03  0.57149022136E+02  0.14333271859E+04  0.12699999809E+01 0. -1.
       -4    1    3    3    0  502 -0.11027275079E+04  0.91386609599E+03  0.12376531731E+04  0.18928671871E+04  0.12699999809E+01 0.  1.
</event>
<event>
 5   0  0.2602891E-07  0.3005856E+04  0.7818609E-02  0.8242061E-01
        1   -1    0    0  501    0  0.00000000000E+00  0.00000000000E+00  0.20673508876E+04  0.20673508876E+04  0.50400001928E-02 0. -1.
       -1   -1    0    0    0  501  0.00000000000E+00  0.00000000000E+00 -0.10926025597E+04  0.10926025597E+04  0.50400001928E-02 0.  1.
    10030    2    1    2    0    0  0.00000000000E+00  0.00000000000E+00  0.97474832786E+03  0.31599534473E+04  0.30058561985E+04 0.  0.
        5    1    3    3  502    0  0.45876016735E+03  0.10538835505E+04  0.15053334250E+04  0.18939858077E+04  0.46999998093E+01 0. -1.
       -5    1    3    3    0  502 -0.45876016735E+03 -0.10538835505E+04 -0.53058509713E+03  0.12659676396E+04  0.46999998093E+01 0.  1.
</event>
<event>
 5   0  0.2679935E-07  0.2991866E+04  0.7818609E-02  0.8246057E-01
        1   -1    0    0  501    0  0.00000000000E+00  0.00000000000E+00  0.22505227300E+04  0.22505227300E+04  0.50400001928E-02 0.  1.
       -1   -1    0    0    0  501  0.00000000000E+00  0.00000000000E+00 -0.99435376890E+03  0.99435376891E+03  0.50400001928E-02 0. -1.
    10030    2    1    2    0    0  0.00000000000E+00  0.00000000000E+00  0.12561689611E+04  0.32448764989E+04  0.29918661458E+04 0.  0.
        2    1    3    3  502    0 -0.73256327829E+03  0.27607354347E+03 -0.75445021941E+03  0.10872261456E+04  0.25500000920E-02 0. -1.
       -2    1    3    3    0  502  0.73256327829E+03 -0.27607354347E+03  0.20106191805E+04  0.21576503533E+04  0.25500000920E-02 0.  1.
</event>
<event>
 5   0  0.7307508E-07  0.2994821E+04  0.7818609E-02  0.8245211E-01
        2   -1    0    0  501    0  0.00000000000E+00  0.00000000000E+00  0.16828041402E+04  0.16828041402E+04  0.25500000920E-02 0. -1.
       -2   -1    0    0    0  501  0.00000000000E+00  0.00000000000E+00 -0.13324415588E+04  0.13324415588E+04  0.25500000920E-02 0.  1.
    10030    2    1    2    0    0  0.00000000000E+00  0.00000000000E+00  0.35036258143E+03  0.30152456990E+04  0.29948209775E+04 0.  0.
        1    1    3    3  502    0 -0.11557061493E+04  0.53218927618E+03  0.97009489009E+03  0.15999894453E+04  0.50400001928E-02 0. -1.
       -1    1    3    3    0  502  0.11557061493E+04 -0.53218927618E+03 -0.61973230865E+03  0.14152562537E+04  0.50400001928E-02 0.  1.
</event>
<event>
 5   0  0.7399409E-07  0.2996453E+04  0.7818609E-02  0.8244745E-01
        2   -1    0    0  501    0  0.00000000000E+00  0.00000000000E+00  0.21117840062E+04  0.21117840062E+04  0.25500000920E-02 0.  1.
       -2   -1    0    0    0  501  0.00000000000E+00  0.00000000000E+00 -0.10629317743E+04  0.10629317743E+04  0.25500000920E-02 0. -1.
    10030    2    1    2    0    0  0.00000000000E+00  0.00000000000E+00  0.10488522319E+04  0.31747157805E+04  0.29964527833E+04 0.  0.
        3    1    3    3  502    0 -0.70613355212E+03  0.13657144441E+03  0.19169242395E+04  0.20474068729E+04  0.10100000352E+00 0.  1.
       -3    1    3    3    0  502  0.70613355212E+03 -0.13657144441E+03 -0.86807200755E+03  0.11273089077E+04  0.10100000352E+00 0. -1.
</event>
<event>
 5   0  0.7399409E-07  0.2996397E+04  0.7818609E-02  0.8244760E-01
        2   -1    0    0  501    0  0.00000000000E+00  0.00000000000E+00  0.18741325984E+04  0.18741325984E+04  0.25500000920E-02 0.  1.
       -2   -1    0    0    0  501  0.00000000000E+00  0.00000000000E+00 -0.11976737459E+04  0.11976737459E+04  0.25500000920E-02 0. -1.
    10030    2    1    2    0    0  0.00000000000E+00  0.00000000000E+00  0.67645885247E+03  0.30718063443E+04  0.29963974433E+04 0.  0.
        3    1    3    3  502    0 -0.70209057929E+03  0.75108566480E+03  0.14553968724E+04  0.17819205717E+04  0.10100000352E+00 0.  1.
       -3    1    3    3    0  502  0.70209057929E+03 -0.75108566480E+03 -0.77893801994E+03  0.12898857727E+04  0.10100000352E+00 0. -1.
</event>
<event>
 5   0  0.2792361E-07  0.3010612E+04  0.7818609E-02  0.8240707E-01
       -1   -1    0    0    0  501  0.00000000000E+00  0.00000000000E+00  0.12117873614E+04  0.12117873615E+04  0.50400001928E-02 0. -1.
        1   -1    0    0  501    0  0.00000000000E+00  0.00000000000E+00 -0.18699209147E+04  0.18699209148E+04  0.50400001928E-02 0.  1.
    10030    2    1    2    0    0  0.00000000000E+00  0.00000000000E+00 -0.65813355330E+03  0.30817082762E+04  0.30106122510E+04 0.  0.
        4    1    3    3  502    0 -0.99584100722E+02  0.13972754266E+04 -0.89312358763E+03  0.16613148307E+04  0.12699999809E+01 0.  1.
       -4    1    3    3    0  502  0.99584100722E+02 -0.13972754266E+04  0.23499003433E+03  0.14203934455E+04  0.12699999809E+01 0. -1.
</event>
<event>
 5   0  0.7307508E-07  0.2994197E+04  0.7818609E-02  0.8245390E-01
       -2   -1    0    0    0  501  0.00000000000E+00  0.00000000000E+00  0.19464108811E+04  0.19464108811E+04  0.25500000920E-02 0.  1.
        2   -1    0    0  501    0  0.00000000000E+00  0.00000000000E+00 -0.11515060361E+04  0.11515060361E+04  0.25500000920E-02 0. -1.
    10030    2    1    2    0    0  0.00000000000E+00  0.00000000000E+00  0.79490484501E+03  0.30979169172E+04  0.29941969730E+04 0.  0.
        1    1    3    3  502    0 -0.28633215614E+03 -0.14263520476E+04  0.31889514483E+02  0.14551574515E+04  0.50400001928E-02 0.  1.
       -1    1    3    3    0  502  0.28633215614E+03  0.14263520476E+04  0.76301533053E+03  0.16427594657E+04  0.50400001928E-02 0. -1.
</event>
<event>
 5   0  0.2679935E-07  0.2990341E+04  0.7818609E-02  0.8246494E-01
       -1   -1    0    0    0  501  0.00000000000E+00  0.00000000000E+00  0.13266005732E+04  0.13266005732E+04  0.50400001928E-02 0.  1.
        1   -1    0    0  501    0  0.00000000000E+00  0.00000000000E+00 -0.16851603318E+04  0.16851603318E+04  0.50400001928E-02 0. -1.
    10030    2    1    2    0    0  0.00000000000E+00  0.00000000000E+00 -0.35855975856E+03  0.30117609050E+04  0.29903408917E+04 0.  0.
        2    1    3    3  502    0  0.13909114101E+04  0.50127030370E+03  0.45089727970E+02  0.14791685339E+04  0.25500000920E-02 0. -1.
       -2    1    3    3    0  502 -0.13909114101E+04 -0.50127030370E+03 -0.40364948653E+03  0.15325923711E+04  0.25500000920E-02 0.  1.
</event>
<event>
 5   0  0.2621825E-07  0.3006160E+04  0.7818609E-02  0.8241974E-01
       -1   -1    0    0    0  501  0.00000000000E+00  0.00000000000E+00  0.96718806662E+03  0.96718806663E+03  0.50400001928E-02 0. -1.
        1   -1    0    0  501    0  0.00000000000E+00  0.00000000000E+00 -0.23358942125E+04  0.23358942125E+04  0.50400001928E-02 0.  1.
    10030    2    1    2    0    0  0.00000000000E+00  0.00000000000E+00 -0.13687061459E+04  0.33030822792E+04  0.30061596812E+04 0.  0.
        3    1    3    3  502    0  0.32118336564E+03 -0.11570327321E+04  0.30902712280E+03  0.12399117994E+04  0.10100000352E+00 0. -1.
       -3    1    3    3    0  502 -0.32118336564E+03  0.11570327321E+04 -0.16777332687E+04  0.20631704798E+04  0.10100000352E+00 0.  1.
</event>
<event>
 5   0  0.2602891E-07  0.3000032E+04  0.7818609E-02  0.8243722E-01
       -1   -1    0    0    0  501  0.00000000000E+00  0.00000000000E+00  0.16239001035E+04  0.16239001035E+04  0.50400001928E-02 0. -1.
        1   -1    0    0  501    0  0.00000000000E+00  0.00000000000E+00 -0.13855827157E+04  0.13855827157E+04  0.50400001928E-02 0.  1.
    10030    2    1    2    0    0  0.00000000000E+00  0.00000000000E+00  0.23831738779E+03  0.30094828192E+04  0.30000319435E+04 0.  0.
        5    1    3    3  502    0 -0.63366394956E+02 -0.15933282476E+03 -0.13757114310E+04  0.13863644111E+04  0.46999998093E+01 0.  1.
       -5    1    3    3    0  502  0.63366394956E+02  0.15933282476E+03  0.16140288187E+04  0.16231184081E+04  0.46999998093E+01 0. -1.
</event>
<event>
 5   0  0.7278657E-07  0.3055863E+04  0.7818609E-02  0.8227956E-01
       -2   -1    0    0    0  501  0.00000000000E+00  0.00000000000E+00  0.14949044673E+04  0.14949044673E+04  0.25500000920E-02 0.  1.
        2   -1    0    0  501    0  0.00000000000E+00  0.00000000000E+00 -0.15616886079E+04  0.15616886079E+04  0.25500000920E-02 0. -1.
    10030    2    1    2    0    0  0.00000000000E+00  0.00000000000E+00 -0.66784140567E+02  0.30565930752E+04  0.30558633978E+04 0.  0.
        2    1    3    3  502    0  0.94586351138E+03  0.13475086447E+02 -0.12335685395E+04  0.15545194440E+04  0.25500000920E-02 0. -1.
       -2    1    3    3    0  502 -0.94586351138E+03 -0.13475086447E+02  0.11667843989E+04  0.15020736312E+04  0.25500000920E-02 0.  1.
</event>
<event>
 5   0  0.7307508E-07  0.3006825E+04  0.7818609E-02  0.8241785E-01
        2   -1    0    0  501    0  0.00000000000E+00  0.00000000000E+00  0.12918314113E+04  0.12918314113E+04  0.25500000920E-02 0.  1.
       -2   -1    0    0    0  501  0.00000000000E+00  0.00000000000E+00 -0.17496467415E+04  0.17496467415E+04  0.25500000920E-02 0. -1.
    10030    2    1    2    0    0  0.00000000000E+00  0.00000000000E+00 -0.45781533019E+03  0.30414781528E+04  0.30068246503E+04 0.  0.
        1    1    3    3  502    0  0.88716799723E+03  0.11341179598E+04  0.20846198783E+03  0.14549044651E+04  0.50400001928E-02 0.  1.
       -1    1    3    3    0  502 -0.88716799723E+03 -0.11341179598E+04 -0.66627731802E+03  0.15865736878E+04  0.50400001928E-02 0. -1.
</event>
<event>
 5   0  0.7399409E-07  0.2995085E+04  0.7818609E-02  0.8245136E-01
        2   -1    0    0  501    0  0.00000000000E+00  0.00000000000E+00  0.99786151526E+03  0.99786151526E+03  0.25500000920E-02 0.  1.
       -2   -1    0    0    0  501  0.00000000000E+00  0.00000000000E+00 -0.22474398811E+04  0.22474398811E+04  0.25500000920E-02 0. -1.
    10030    2    1    2    0    0  0.00000000000E+00  0.00000000000E+00 -0.12495783658E+04  0.32453013963E+04  0.29950851508E+04 0.  0.
        3    1    3    3  502    0 -0.35374828923E+03 -0.48980030962E+03 -0.21095155624E+04  0.21943331820E+04  0.10100000352E+00 0. -1.
       -3    1    3    3    0  502  0.35374828923E+03  0.48980030962E+03  0.85993719654E+03  0.10509682144E+04  0.10100000352E+00 0.  1.
</event>
<event>
 5   0  0.2679935E-07  0.3024055E+04  0.7818609E-02  0.8236895E-01
       -1   -1    0    0    0  501  0.00000000000E+00  0.00000000000E+00  0.19398156925E+04  0.19398156925E+04  0.50400001928E-02 0.  1.
        1   -1    0    0  501    0  0.00000000000E+00  0.00000000000E+00 -0.11785795932E+04  0.11785795932E+04  0.50400001928E-02 0. -1.
    10030    2    1    2    0    0  0.00000000000E+00  0.00000000000E+00  0.76123609927E+03  0.31183952858E+04  0.30240550192E+04 0.  0.
        2    1    3    3  502    0 -0.10891153365E+03  0.12382790624E+03 -0.11692783862E+04  0.11808501247E+04  0.25500000920E-02 0. -1.
       -2    1    3    3    0  502  0.10891153365E+03 -0.12382790624E+03  0.19305144855E+04  0.19375451611E+04  0.25500000920E-02 0.  1.
</event>
<event>
 5   0  0.7208273E-07  0.3000493E+04  0.7818609E-02  0.8243590E-01
        2   -1    0    0  501    0  0.00000000000E+00  0.00000000000E+00  0.22458109524E+04  0.22458109524E+04  0.25500000920E-02 0.  1.
       -2   -1    0    0    0  501  0.00000000000E+00  0.00000000000E+00 -0.10021943453E+04  0.10021943453E+04  0.25500000920E-02 0. -1.
    10030    2    1    2    0    0  0.00000000000E+00  0.00000000000E+00  0.12436166071E+04  0.32480052978E+04  0.30004926510E+04 0.  0.
        4    1    3    3  502    0 -0.10875318206E+04  0.77948197359E+03 -0.11270753527E+03  0.13427666250E+04  0.12699999809E+01 0. -1.
       -4    1    3    3    0  502  0.10875318206E+04 -0.77948197359E+03  0.13563241424E+04  0.19052386727E+04  0.12699999809E+01 0.  1.
</event>
<event>
 5   0  0.7307508E-07  0.2993443E+04  0.7818609E-02  0.8245606E-01
        2   -1    0    0  501    0  0.00000000000E+00  0.00000000000E+00  0.79050137981E+03  0.79050137981E+03  0.25500000920E-02 0.  1.
       -2   -1    0    0    0  501  0.00000000000E+00  0.00000000000E+00 -0.28338663466E+04  0.28338663466E+04  0.25500000920E-02 0. -1.
    10030    2    1    2    0    0  0.00000000000E+00  0.00000000000E+00 -0.20433649668E+04  0.36243677264E+04  0.29934430057E+04 0.  0.
        1    1    3    3  502    0  0.37919103625E+03  0.42502942020E+03 -0.26975106177E+04  0.27569910016E+04  0.50400001928E-02 0. -1.
       -1    1    3    3    0  502 -0.37919103625E+03 -0.42502942020E+03  0.65414565097E+03  0.86737672480E+03  0.50400001928E-02 0.  1.
</event>
<event>
 5   0  0.2640081E-07  0.2993520E+04  0.7818609E-02  0.8245584E-01
        1   -1    0    0  501    0  0.00000000000E+00  0.00000000000E+00  0.20281422156E+04  0.20281422156E+04  0.50400001928E-02 0.  1.
       -1   -1    0    0    0  501  0.00000000000E+00  0.00000000000E+00 -0.11046023106E+04  0.11046023106E+04  0.50400001928E-02 0. -1.
    10030    2    1    2    0    0  0.00000000000E+00  0.00000000000E+00  0.92353990495E+03  0.31327445262E+04  0.29935200535E+04 0.  0.
        1    1    3    3  502    0  0.30141306656E+03  0.14296717088E+04  0.12188891595E+03  0.14661745938E+04  0.50400001928E-02 0. -1.
       -1    1    3    3    0  502 -0.30141306656E+03 -0.14296717088E+04  0.80165098900E+03  0.16665699325E+04  0.50400001928E-02 0.  1.
</event>
<event>
 5   0  0.2602891E-07  0.2999804E+04  0.7818609E-02  0.8243787E-01
       -1   -1    0    0    0  501  0.00000000000E+00  0.00000000000E+00  0.13510138483E+04  0.13510138483E+04  0.50400001928E-02 0.  1.
        1   -1    0    0  501    0  0.00000000000E+00  0.00000000000E+00 -0.16651978992E+04  0.16651978992E+04  0.50400001928E-02 0. -1.
    10030    2    1    2    0    0  0.00000000000E+00  0.00000000000E+00 -0.31418405089E+03  0.30162117475E+04  0.29998036082E+04 0.  0.
        5    1    3    3  502    0  0.65884140832E+03  0.12362412294E+03  0.11920102383E+04  0.13675764780E+04  0.46999998093E+01 0.  1.
       -5    1    3    3    0  502 -0.65884140832E+03 -0.12362412294E+03 -0.15061942892E+04  0.16486352695E+04  0.46999998093E+01 0. -1.
</event>
<event>
 5   0  0.7585823E-07  0.2998591E+04  0.7818609E-02  0.8244133E-01
        2   -1    0    0  501    0  0.00000000000E+00  0.00000000000E+00  0.15595578126E+04  0.15595578126E+04  0.25500000920E-02 0.  1.
       -2   -1    0    0    0  501  0.00000000000E+00  0.00000000000E+00 -0.14413621210E+04  0.14413621210E+04  0.25500000920E-02 0. -1.
    10030    2    1    2    0    0  0.00000000000E+00  0.00000000000E+00  0.11819569156E+03  0.30009199337E+04  0.29985913737E+04 0.  0.
        5    1    3    3  502    0 -0.58435187994E+03 -0.11793922095E+04 -0.65939585176E+03  0.14721610247E+04  0.46999998093E+01 0. -1.
       -5    1    3    3    0  502  0.58435187994E+03  0.11793922095E+04  0.77759154332E+03  0.15287589089E+04  0.46999998093E+01 0.  1.
</event>
<event>
 5   0  0.7585823E-07  0.3003278E+04  0.7818609E-02  0.8242795E-01
        2   -1    0    0  501    0  0.00000000000E+00  0.00000000000E+00  0.22066840713E+04  0.22066840713E+04  0.25500000920E-02 0. -1.
       -2   -1    0    0    0  501  0.00000000000E+00  0.00000000000E+00 -0.10218588035E+04  0.10218588035E+04  0.25500000920E-02 0.  1.
    10030    2    1    2    0    0  0.00000000000E+00  0.00000000000E+00  0.11848252678E+04  0.32285428747E+04  0.30032779057E+04 0.  0.
        5    1    3    3  502    0  0.38876895162E+03  0.12568397196E+04  0.13706683007E+04  0.18998792222E+04  0.46999998093E+01 0. -1.
       -5    1    3    3    0  502 -0.38876895162E+03 -0.12568397196E+04 -0.18584303292E+03  0.13286636525E+04  0.46999998093E+01 0.  1.
</event>
<event>
 5   0  0.7585823E-07  0.2996054E+04  0.7818609E-02  0.8244859E-01
        2   -1    0    0  501    0  0.00000000000E+00  0.00000000000E+00  0.17786642747E+04  0.17786642747E+04  0.25500000920E-02 0.  1.
       -2   -1    0    0    0  501  0.00000000000E+00  0.00000000000E+00 -0.12616683481E+04  0.12616683481E+04  0.25500000920E-02 0. -1.
    10030    2    1    2    0    0  0.00000000000E+00  0.00000000000E+00  0.51699592665E+03  0.30403326228E+04  0.29960536826E+04 0.  0.
        5    1    3    3  502    0  0.20754299981E+03  0.14158286554E+04  0.70823799075E+03  0.15966427339E+04  0.46999998093E+01 0.  1.
       -5    1    3    3    0  502 -0.20754299981E+03 -0.14158286554E+04 -0.19124206410E+03  0.14436898889E+04  0.46999998093E+01 0. -1.
</event>
<event>
 5   0  0.7208273E-07  0.3012285E+04  0.7818609E-02  0.8240232E-01
       -2   -1    0    0    0  501  0.00000000000E+00  0.00000000000E+00  0.97465806967E+03  0.97465806968E+03  0.25500000920E-02 0. -1.
        2   -1    0    0  501    0  0.00000000000E+00  0.00000000000E+00 -0.23274469263E+04  0.23274469263E+04  0.25500000920E-02 0.  1.
    10030    2    1    2    0    0  0.00000000000E+00  0.00000000000E+00 -0.13527888566E+04  0.33021049959E+04  0.30122847996E+04 0.  0.
        4    1    3    3  502    0  0.46679587835E+03  0.13862290047E+04 -0.10700158213E+04  0.18123092220E+04  0.12699999809E+01 0.  1.
       -4    1    3    3    0  502 -0.46679587835E+03 -0.13862290047E+04 -0.28277303525E+03  0.14897957739E+04  0.12699999809E+01 0. -1.
</event>
<event>
 5   0  0.7208273E-07  0.3006596E+04  0.7818609E-02  0.8241850E-01
       -2   -1    0    0    0  501  0.00000000000E+00  0.00000000000E+00  0.12972717554E+04  0.12972717555E+04  0.25500000920E-02 0.  1.
        2   -1    0    0  501    0  0.00000000000E+00  0.00000000000E+00 -0.17420444838E+04  0.17420444838E+04  0.25500000920E-02 0. -1.
    10030    2    1    2    0    0  0.00000000000E+00  0.00000000000E+00 -0.44477272831E+03  0.30393162392E+04  0.30065961521E+04 0.  0.
        4    1    3    3  502    0 -0.13823508086E+04 -0.15288890353E+03 -0.79924067674E+03  0.16040748259E+04  0.12699999809E+01 0. -1.
       -4    1    3    3    0  502  0.13823508086E+04  0.15288890353E+03  0.35446794843E+03  0.14352414133E+04  0.12699999809E+01 0.  1.
</event>
<event>
 5   0  0.2602891E-07  0.2992642E+04  0.7818609E-02  0.8245835E-01
       -1   -1    0    0    0  501  0.00000000000E+00  0.00000000000E+00  0.17546605610E+04  0.17546605610E+04  0.50400001928E-02 0.  1.
        1   -1    0    0  501    0  0.00000000000E+00  0.00000000000E+00 -0.12760169101E+04  0.12760169101E+04  0.50400001928E-02 0. -1.
    10030    2    1    2    0    0  0.00000000000E+00  0.00000000000E+00  0.47864365092E+03  0.30306774712E+04  0.29926420083E+04 0.  0.
        5    1    3    3  502    0  0.13161450251E+04 -0.65612632252E+03  0.51890119473E+03  0.15594935133E+04  0.46999998093E+01 0.  1.
       -5    1    3    3    0  502 -0.13161450251E+04  0.65612632252E+03 -0.40257543805E+02  0.14711839579E+04  0.46999998093E+01 0. -1.
</event>
<event>
 5   0  0.7399409E-07  0.2999621E+04  0.7818609E-02  0.8243839E-01
        2   -1    0    0  501    0  0.00000000000E+00  0.00000000000E+00  0.12568192582E+04  0.12568192582E+04  0.25500000920E-02 0. -1.
       -2   -1    0    0    0  501  0.00000000000E+00  0.00000000000E+00 -0.17897809924E+04  0.17897809924E+04  0.25500000920E-02 0.  1.
    10030    2    1    2    0    0  0.00000000000E+00  0.00000000000E+00 -0.53296173426E+03  0.30466002506E+04  0.29996207888E+04 0.  0.
        3    1    3    3  502    0 -0.10083995668E+04  0.77193577748E+03  0.54393622032E+03  0.13815285567E+04  0.10100000352E+00 0. -1.
       -3    1    3    3    0  502  0.10083995668E+04 -0.77193577748E+03 -0.10768979546E+04  0.16650716939E+04  0.10100000352E+00 0.  1.
</event>
<event>
 5   0  0.7278657E-07  0.2998438E+04  0.7818609E-02  0.8244177E-01
        2   -1    0    0  501    0  0.00000000000E+00  0.00000000000E+00  0.81694215252E+03  0.81694215253E+03  0.25500000920E-02 0.  1.
       -2   -1    0    0    0  501  0.00000000000E+00  0.00000000000E+00 -0.27513052398E+04  0.27513052398E+04  0.25500000920E-02 0. -1.
    10030    2    1    2    0    0  0.00000000000E+00  0.00000000000E+00 -0.19343630873E+04  0.35682473924E+04  0.29984377432E+04 0.  0.
        2    1    3    3  502    0 -0.30293405709E+03  0.84050410723E+03  0.46553473771E+03  0.10074417051E+04  0.25500000920E-02 0.  1.
       -2    1    3    3    0  502  0.30293405709E+03 -0.84050410723E+03 -0.23998978250E+04  0.25608056872E+04  0.25500000920E-02 0. -1.
</event>
<event>
 5   0  0.2621825E-07  0.2999000E+04  0.7818609E-02  0.8244017E-01
       -1   -1    0    0    0  501  0.00000000000E+00  0.00000000000E+00  0.17662031603E+04  0.17662031603E+04  0.50400001928E-02 0. -1.
        1   -1    0    0  501    0  0.00000000000E+00  0.00000000000E+00 -0.12730697039E+04  0.12730697039E+04  0.50400001928E-02 0.  1.
    10030    2    1    2    0    0  0.00000000000E+00  0.00000000000E+00  0.49313345633E+03  0.30392728642E+04  0.29989996561E+04 0.  0.
        3    1    3    3  502    0 -0.15502031989E+03  0.11122235436E+04  0.12536046447E+04  0.16830321227E+04  0.10100000352E+00 0. -1.
       -3    1    3    3    0  502  0.15502031989E+03 -0.11122235436E+04 -0.76047118840E+03  0.13562407415E+04  0.10100000352E+00 0.  1.
</event>
<event>
 5   0  0.7585823E-07  0.2997713E+04  0.7818609E-02  0.8244384E-01
       -2   -1    0    0    0  501  0.00000000000E+00  0.00000000000E+00  0.89342745582E+03  0.89342745582E+03  0.25500000920E-02 0. -1.
        2   -1    0    0  501    0  0.00000000000E+00  0.00000000000E+00 -0.25145537322E+04  0.25145537322E+04  0.25500000920E-02 0.  1.
    10030    2    1    2    0    0  0.00000000000E+00  0.00000000000E+00 -0.16211262764E+04  0.34079811880E+04  0.29977133576E+04 0.  0.
        5    1    3    3  502    0  0.45742628867E+03 -0.13625907075E+04 -0.32735471945E+03  0.14741354917E+04  0.46999998093E+01 0.  1.
       -5    1    3    3    0  502 -0.45742628867E+03  0.13625907075E+04 -0.12937715570E+04  0.19338456963E+04  0.46999998093E+01 0. -1.
</event>
<event>
 5   0  0.7278657E-07  0.2996857E+04  0.7818609E-02  0.8244629E-01
        2   -1    0    0  501    0  0.00000000000E+00  0.00000000000E+00  0.11793476431E+04  0.11793476431E+04  0.25500000920E-02 0. -1.
       -2   -1    0    0    0  501  0.00000000000E+00  0.00000000000E+00 -0.19038389477E+04  0.19038389477E+04  0.25500000920E-02 0.  1.
    10030    2    1    2    0    0  0.00000000000E+00  0.00000000000E+00 -0.72449130469E+03  0.30831865908E+04  0.29968570041E+04 0.  0.
        2    1    3    3  502    0 -0.57544690004E+03  0.12162489891E+03 -0.17801175661E+04  0.18747667322E+04  0.25500000920E-02 0.  1.
       -2    1    3    3    0  502  0.57544690004E+03 -0.12162489891E+03  0.10556262615E+04  0.12084198586E+04  0.25500000920E-02 0. -1.
</event>
<event>
 5   0  0.2640081E-07  0.2999805E+04  0.7818609E-02  0.8243787E-01
       -1   -1    0    0    0  501  0.00000000000E+00  0.00000000000E+00  0.91686761015E+03  0.91686761016E+03  0.50400001928E-02 0.  1.
        1   -1    0    0  501    0  0.00000000000E+00  0.00000000000E+00 -0.24536883356E+04  0.24536883356E+04  0.50400001928E-02 0. -1.
    10030    2    1    2    0    0  0.00000000000E+00  0.00000000000E+00 -0.15368207254E+04  0.33705559457E+04  0.29998049005E+04 0.  0.
        1    1    3    3  502    0 -0.59992156408E+03 -0.75534791568E+03  0.52213194474E+03  0.10968491804E+04  0.50400001928E-02 0.  1.
       -1    1    3    3    0  502  0.59992156408E+03  0.75534791568E+03 -0.20589526702E+04  0.22737067653E+04  0.50400001928E-02 0. -1.
</event>
<event>
 5   0  0.7585823E-07  0.2970222E+04  0.7818609E-02  0.8252286E-01
        2   -1    0    0  501    0  0.00000000000E+00  0.00000000000E+00  0.24841382102E+04  0.24841382102E+04  0.25500000920E-02 0.  1.
       -2   -1    0    0    0  501  0.00000000000E+00  0.00000000000E+00 -0.88785525536E+03  0.88785525537E+03  0.25500000920E-02 0. -1.
    10030    2    1    2    0    0  0.00000000000E+00  0.00000000000E+00  0.15962829548E+04  0.33719934656E+04  0.29702223250E+04 0.  0.
        5    1    3    3  502    0  0.67512228091E+02  0.13965002551E+04  0.22964364649E+03  0.14168730211E+04  0.46999998093E+01 0. -1.
       -5    1    3    3    0  502 -0.67512228091E+02 -0.13965002551E+04  0.13666393083E+04  0.19551204445E+04  0.46999998093E+01 0.  1.
</event>
<event>
 5   0  0.7585823E-07  0.2993231E+04  0.7818609E-02  0.8245667E-01
       -2   -1    0    0    0  501  0.00000000000E+00  0.00000000000E+00  0.28706788525E+04  0.28706788525E+04  0.25500000920E-02 0. -1.
        2   -1    0    0  501    0  0.00000000000E+00  0.00000000000E+00 -0.78025361777E+03  0.78025361778E+03  0.25500000920E-02 0.  1.
    10030    2    1    2    0    0  0.00000000000E+00  0.00000000000E+00  0.20904252347E+04  0.36509324703E+04  0.29932307363E+04 0.  0.
        5    1    3    3  502    0 -0.13929939975E+03  0.23905466476E+03  0.28392040903E+04  0.28526572546E+04  0.46999998093E+01 0. -1.
       -5    1    3    3    0  502  0.13929939975E+03 -0.23905466476E+03 -0.74877885557E+03  0.79827521574E+03  0.46999998093E+01 0.  1.
</event>
<event>
 5   0  0.7399409E-07  0.3000457E+04  0.7818609E-02  0.8243600E-01
       -2   -1    0    0    0  501  0.00000000000E+00  0.00000000000E+00  0.11155729122E+04  0.11155729122E+04  0.25500000920E-02 0. -1.
        2   -1    0    0  501    0  0.00000000000E+00  0.00000000000E+00 -0.20175152332E+04  0.20175152332E+04  0.25500000920E-02 0.  1.
    10030    2    1    2    0    0  0.00000000000E+00  0.00000000000E+00 -0.90194232099E+03  0.31330881454E+04  0.30004568612E+04 0.  0.
        3    1    3    3  502    0 -0.28935121953E+02 -0.45300200859E+03 -0.19440865199E+04  0.19963768352E+04  0.10100000352E+00 0.  1.
       -3    1    3    3    0  502  0.28935121953E+02  0.45300200859E+03  0.10421441989E+04  0.11367113101E+04  0.10100000352E+00 0. -1.
</event>
<event>
 5   0  0.2679935E-07  0.2990025E+04  0.7818609E-02  0.8246585E-01
        1   -1    0    0  501    0  0.00000000000E+00  0.00000000000E+00  0.19480300523E+04  0.19480300523E+04  0.50400001928E-02 0. -1.
       -1   -1    0    0    0  501  0.00000000000E+00  0.00000000000E+00 -0.11473449960E+04  0.11473449960E+04  0.50400001928E-02 0.  1.
    10030    2    1    2    0    0  0.00000000000E+00  0.00000000000E+00  0.80068505623E+03  0.30953750483E+04  0.29900251053E+04 0.  0.
        2    1    3    3  502    0  0.11700055861E+04  0.77435388514E+03  0.93479346599E+03  0.16859347067E+04  0.25500000920E-02 0. -1.
       -2    1    3    3    0  502 -0.11700055861E+04 -0.77435388514E+03 -0.13410840976E+03  0.14094403416E+04  0.25500000920E-02 0.  1.
</event>
<event>
 5   0  0.2602891E-07  0.3000277E+04  0.7818609E-02  0.8243652E-01
       -1   -1    0    0    0  501  0.00000000000E+00  0.00000000000E+00  0.17988774900E+04  0.17988774900E+04  0.50400001928E-02 0.  1.
        1   -1    0    0  501    0  0.00000000000E+00  0.00000000000E+00 -0.12510112989E+04  0.12510112989E+04  0.50400001928E-02 0. -1.
    10030    2    1    2    0    0  0.00000000000E+00  0.00000000000E+00  0.54786619113E+03  0.30498887889E+04  0.30002773640E+04 0.  0.
        5    1    3    3  502    0  0.12672536737E+04 -0.24949501352E+03 -0.50171377945E+03  0.13856112159E+04  0.46999998093E+01 0. -1.
       -5    1    3    3    0  502 -0.12672536737E+04  0.24949501352E+03  0.10495799706E+04  0.16642775729E+04  0.46999998093E+01 0.  1.
</event>
<event>
 5   0  0.7278657E-07  0.2994007E+04  0.7818609E-02  0.8245444E-01
       -2   -1    0    0    0  501  0.00000000000E+00  0.00000000000E+00  0.98338975635E+03  0.98338975636E+03  0.25500000920E-02 0. -1.
        2   -1    0    0  501    0  0.00000000000E+00  0.00000000000E+00 -0.22788715161E+04  0.22788715161E+04  0.25500000920E-02 0.  1.
    10030    2    1    2    0    0  0.00000000000E+00  0.00000000000E+00 -0.12954817597E+04  0.32622612724E+04  0.29940066165E+04 0.  0.
        2    1    3    3  502    0 -0.81958935119E+03 -0.95568046146E+03  0.23474344318E+03  0.12806858839E+04  0.25500000920E-02 0. -1.
       -2    1    3    3    0  502  0.81958935119E+03  0.95568046146E+03 -0.15302252029E+04  0.19815753886E+04  0.25500000920E-02 0.  1.
</event>
<event>
 5   0  0.7307508E-07  0.2997228E+04  0.7818609E-02  0.8244523E-01
       -2   -1    0    0    0  501  0.00000000000E+00  0.00000000000E+00  0.92218382097E+03  0.92218382097E+03  0.25500000920E-02 0.  1.
        2   -1    0    0  501    0  0.00000000000E+00  0.00000000000E+00 -0.24353542563E+04  0.24353542563E+04  0.25500000920E-02 0. -1.
    10030    2    1    2    0    0  0.00000000000E+00  0.00000000000E+00 -0.15131704353E+04  0.33575380773E+04  0.29972282485E+04 0.  0.
        1    1    3    3  502    0  0.11525543890E+04  0.28072040383E+03 -0.17824586086E+04  0.21411081841E+04  0.50400001928E-02 0. -1.
       -1    1    3    3    0  502 -0.11525543890E+04 -0.28072040383E+03  0.26928817324E+03  0.12164298932E+04  0.50400001928E-02 0.  1.
</event>
<event>
 5   0  0.2792361E-07  0.2996664E+04  0.7818609E-02  0.8244684E-01
        1   -1    0    0  501    0  0.00000000000E+00  0.00000000000E+00  0.14642398584E+04  0.14642398584E+04  0.50400001928E-02 0. -1.
       -1   -1    0    0    0  501  0.00000000000E+00  0.00000000000E+00 -0.15332183713E+04  0.15332183713E+04  0.50400001928E-02 0.  1.
    10030    2    1    2    0    0  0.00000000000E+00  0.00000000000E+00 -0.68978512957E+02  0.29974582297E+04  0.29966644463E+04 0.  0.
        4    1    3    3  502    0 -0.35219807443E+03  0.16412950417E+02 -0.14911321813E+04  0.15322498698E+04  0.12699999809E+01 0.  1.
       -4    1    3    3    0  502  0.35219807443E+03 -0.16412950417E+02  0.14221536684E+04  0.14652083599E+04  0.12699999809E+01 0. -1.
</event>
<event>
 5   0  0.2621825E-07  0.3001544E+04  0.7818609E-02  0.8243290E-01
        1   -1    0    0  501    0  0.00000000000E+00  0.00000000000E+00  0.16673235500E+04  0.16673235500E+04  0.50400001928E-02 0. -1.
       -1   -1    0    0    0  501  0.00000000000E+00  0.00000000000E+00 -0.13508577872E+04  0.13508577872E+04  0.50400001928E-02 0.  1.
    10030    2    1    2    0    0  0.00000000000E+00  0.00000000000E+00  0.31646576280E+03  0.30181813373E+04  0.30015442702E+04 0.  0.
        3    1    3    3  502    0  0.21160677981E+03 -0.16866902241E+03  0.16425892911E+04  0.16647300856E+04  0.10100000352E+00 0. -1.
       -3    1    3    3    0  502 -0.21160677981E+03  0.16866902241E+03 -0.13261235283E+04  0.13534512517E+04  0.10100000352E+00 0.  1.
</event>
<event>
 5   0  0.7278657E-07  0.2999179E+04  0.7818609E-02  0.8243965E-01
       -2   -1    0    0    0  501  0.00000000000E+00  0.00000000000E+00  0.13242406225E+04  0.13242406225E+04  0.25500000920E-02 0. -1.
        2   -1    0    0  501    0  0.00000000000E+00  0.00000000000E+00 -0.16981573425E+04  0.16981573425E+04  0.25500000920E-02 0.  1.
    10030    2    1    2    0    0  0.00000000000E+00  0.00000000000E+00 -0.37391671997E+03  0.30223979650E+04  0.29991791786E+04 0.  0.
        2    1    3    3  502    0 -0.29034512784E+03  0.57598566480E+03 -0.15512147940E+04  0.16799783083E+04  0.25500000920E-02 0.  1.
       -2    1    3    3    0  502  0.29034512784E+03 -0.57598566480E+03  0.11772980741E+04  0.13424196566E+04  0.25500000920E-02 0. -1.
</event>
<event>
 5   0  0.2621825E-07  0.3004738E+04  0.7818609E-02  0.8242379E-01
       -1   -1    0    0    0  501  0.00000000000E+00  0.00000000000E+00  0.99757055135E+03  0.99757055136E+03  0.50400001928E-02 0.  1.
        1   -1    0    0  501    0  0.00000000000E+00  0.00000000000E+00 -0.22626100687E+04  0.22626100687E+04  0.50400001928E-02 0. -1.
    10030    2    1    2    0    0  0.00000000000E+00  0.00000000000E+00 -0.12650395173E+04  0.32601806201E+04  0.30047383738E+04 0.  0.
        3    1    3    3  502    0  0.13530165704E+04  0.58522363716E+03 -0.31810433260E+03  0.15080884993E+04  0.10100000352E+00 0.  1.
       -3    1    3    3    0  502 -0.13530165704E+04 -0.58522363716E+03 -0.94693518475E+03  0.17520921207E+04  0.10100000352E+00 0. -1.
</event>
<event>
 5   0  0.2640081E-07  0.2997607E+04  0.7818609E-02  0.8244415E-01
       -1   -1    0    0    0  501  0.00000000000E+00  0.00000000000E+00  0.13637233285E+04  0.13637233285E+04  0.50400001928E-02 0. -1.
        1   -1    0    0  501    0  0.00000000000E+00  0.00000000000E+00 -0.16472632308E+04  0.16472632308E+04  0.50400001928E-02 0.  1.
    10030    2    1    2    0    0  0.00000000000E+00  0.00000000000E+00 -0.28353990233E+03  0.30109865593E+04  0.29976065759E+04 0.  0.
        1    1    3    3  502    0  0.68318046068E+03 -0.92594949132E+03  0.82287769614E+03  0.14146539171E+04  0.50400001928E-02 0. -1.
       -1    1    3    3    0  502 -0.68318046068E+03  0.92594949132E+03 -0.11064175985E+04  0.15963326422E+04  0.50400001928E-02 0.  1.
</event>
<event>
 5   0  0.2679935E-07  0.2998833E+04  0.7818609E-02  0.8244064E-01
       -1   -1    0    0    0  501  0.00000000000E+00  0.00000000000E+00  0.18761088023E+04  0.18761088023E+04  0.50400001928E-02 0. -1.
        1   -1    0    0  501    0  0.00000000000E+00  0.00000000000E+00 -0.11983579158E+04  0.11983579158E+04  0.50400001928E-02 0.  1.
    10030    2    1    2    0    0  0.00000000000E+00  0.00000000000E+00  0.67775088648E+03  0.30744667181E+04  0.29988329958E+04 0.  0.
        2    1    3    3  502    0  0.12655592016E+04 -0.74302491733E+03  0.65407667275E+03  0.16067179013E+04  0.25500000920E-02 0.  1.
       -2    1    3    3    0  502 -0.12655592016E+04  0.74302491733E+03  0.23674213730E+02  0.14677488167E+04  0.25500000920E-02 0. -1.
</event>
<event>
 5   0  0.7208273E-07  0.2994257E+04  0.7818609E-02  0.8245373E-01
        2   -1    0    0  501    0  0.00000000000E+00  0.00000000000E+00  0.15467696661E+04  0.15467696661E+04  0.25500000920E-02 0. -1.
       -2   -1    0    0    0  501  0.00000000000E+00  0.00000000000E+00 -0.14490804674E+04  0.14490804674E+04  0.25500000920E-02 0.  1.
    10030    2    1    2    0    0  0.00000000000E+00  0.00000000000E+00  0.97689198667E+02  0.29958501335E+04  0.29942569768E+04 0.  0.
        4    1    3    3  502    0 -0.21058290514E+03  0.14590289624E+04 -0.21260158099E+03  0.14893997845E+04  0.12699999809E+01 0.  1.
       -4    1    3    3    0  502  0.21058290514E+03 -0.14590289624E+04  0.31029077966E+03  0.15064503490E+04  0.12699999809E+01 0. -1.
</event>
<event>
 5   0  0.2414250E-07  0.3012758E+04  0.7818609E-02  0.8240097E-01
       -4   -1    0    0    0  501  0.00000000000E+00  0.00000000000E+00  0.11148833204E+04  0.11148840438E+04  0.12699999809E+01 0. -1.
        4   -1    0    0  501    0  0.00000000000E+00  0.00000000000E+00 -0.20353489503E+04  0.20353493465E+04  0.12699999809E+01 0.  1.
    10030    2    1    2    0    0  0.00000000000E+00  0.00000000000E+00 -0.92046562987E+03  0.31502333903E+04  0.30127584433E+04 0.  0.
        4    1    3    3  502    0 -0.42548902704E+03 -0.37921620766E+03  0.99778727294E+03  0.11490982983E+04  0.12699999809E+01 0. -1.
       -4    1    3    3    0  502  0.42548902704E+03  0.37921620766E+03 -0.19182529028E+04  0.20011350920E+04  0.12699999809E+01 0.  1.
</event>
<event>
 5   0  0.7208273E-07  0.2997679E+04  0.7818609E-02  0.8244394E-01
        2   -1    0    0  501    0  0.00000000000E+00  0.00000000000E+00  0.11906962463E+04  0.11906962463E+04  0.25500000920E-02 0.  1.
       -2   -1    0    0    0  501  0.00000000000E+00  0.00000000000E+00 -0.18867276754E+04  0.18867276754E+04  0.25500000920E-02 0. -1.
    10030    2    1    2    0    0  0.00000000000E+00  0.00000000000E+00 -0.69603142914E+03  0.30774239217E+04  0.29976788093E+04 0.  0.
        4    1    3    3  502    0 -0.34545920316E+03 -0.88847177156E+03 -0.15354150912E+04  0.18072701141E+04  0.12699999809E+01 0. -1.
       -4    1    3    3    0  502  0.34545920316E+03  0.88847177156E+03  0.83938366210E+03  0.12701538076E+04  0.12699999809E+01 0.  1.
</event>
<event>
 5   0  0.7307508E-07  0.2992612E+04  0.7818609E-02  0.8245844E-01
        2   -1    0    0  501    0  0.00000000000E+00  0.00000000000E+00  0.16094580507E+04  0.16094580508E+04  0.25500000920E-02 0. -1.
       -2   -1    0    0    0  501  0.00000000000E+00  0.00000000000E+00 -0.13911093747E+04  0.13911093747E+04  0.25500000920E-02 0.  1.
    10030    2    1    2    0    0  0.00000000000E+00  0.00000000000E+00  0.21834867607E+03  0.30005674254E+04  0.29926123588E+04 0.  0.
        1    1    3    3  502    0 -0.62182690211E+03 -0.11885787079E+04 -0.55556927456E+03  0.14519108995E+04  0.50400001928E-02 0.  1.
       -1    1    3    3    0  502  0.62182690211E+03  0.11885787079E+04  0.77391795063E+03  0.15486565260E+04  0.50400001928E-02 0. -1.
</event>
<event>
 5   0  0.7585823E-07  0.3004391E+04  0.7818609E-02  0.8242478E-01
       -2   -1    0    0    0  501  0.00000000000E+00  0.00000000000E+00  0.15410820063E+04  0.15410820063E+04  0.25500000920E-02 0. -1.
        2   -1    0    0  501    0  0.00000000000E+00  0.00000000000E+00 -0.14642903629E+04  0.14642903629E+04  0.25500000920E-02 0.  1.
    10030    2    1    2    0    0  0.00000000000E+00  0.00000000000E+00  0.76791643369E+02  0.30053723692E+04  0.30043911398E+04 0.  0.
        5    1    3    3  502    0  0.14192833639E+04  0.48360151575E+03 -0.52923352473E+02  0.15003528466E+04  0.46999998093E+01 0.  1.
       -5    1    3    3    0  502 -0.14192833639E+04 -0.48360151575E+03  0.12971499584E+03  0.15050195226E+04  0.46999998093E+01 0. -1.
</event>
<event>
 5   0  0.7399409E-07  0.2999066E+04  0.7818609E-02  0.8243998E-01
       -2   -1    0    0    0  501  0.00000000000E+00  0.00000000000E+00  0.99441694655E+03  0.99441694655E+03  0.25500000920E-02 0. -1.
        2   -1    0    0  501    0  0.00000000000E+00  0.00000000000E+00 -0.22612244119E+04  0.22612244119E+04  0.25500000920E-02 0.  1.
    10030    2    1    2    0    0  0.00000000000E+00  0.00000000000E+00 -0.12668074654E+04  0.32556413585E+04  0.29990664382E+04 0.  0.
        3    1    3    3  502    0 -0.10598767581E+04 -0.18898820733E+03 -0.17665160813E+04  0.20687277155E+04  0.10100000352E+00 0.  1.
       -3    1    3    3    0  502  0.10598767581E+04  0.18898820733E+03  0.49970861595E+03  0.11869136430E+04  0.10100000352E+00 0. -1.
</event>
<event>
 5   0  0.7208273E-07  0.2997525E+04  0.7818609E-02  0.8244438E-01
        2   -1    0    0  501    0  0.00000000000E+00  0.00000000000E+00  0.14684857872E+04  0.14684857872E+04  0.25500000920E-02 0.  1.
       -2   -1    0    0    0  501  0.00000000000E+00  0.00000000000E+00 -0.15296632667E+04  0.15296632667E+04  0.25500000920E-02 0. -1.
    10030    2    1    2    0    0  0.00000000000E+00  0.00000000000E+00 -0.61177479472E+02  0.29981490539E+04  0.29975248232E+04 0.  0.
        4    1    3    3  502    0  0.29099713774E+03  0.13404576592E+04  0.57350813118E+03  0.14867478803E+04  0.12699999809E+01 0.  1.
       -4    1    3    3    0  502 -0.29099713774E+03 -0.13404576592E+04 -0.63468561065E+03  0.15114011736E+04  0.12699999809E+01 0. -1.
</event>
<event>
 5   0  0.2621825E-07  0.2997404E+04  0.7818609E-02  0.8244473E-01
       -1   -1    0    0    0  501  0.00000000000E+00  0.00000000000E+00  0.98357989477E+03  0.98357989479E+03  0.50400001928E-02 0.  1.
        1   -1    0    0  501    0  0.00000000000E+00  0.00000000000E+00 -0.22836046127E+04  0.22836046127E+04  0.50400001928E-02 0. -1.
    10030    2    1    2    0    0  0.00000000000E+00  0.00000000000E+00 -0.13000247179E+04  0.32671845075E+04  0.29974039332E+04 0.  0.
        3    1    3    3  502    0 -0.14215695865E+04 -0.46852323119E+03 -0.73254714937E+03  0.16664331500E+04  0.10100000352E+00 0. -1.
       -3    1    3    3    0  502  0.14215695865E+04  0.46852323119E+03 -0.56747756855E+03  0.16007513574E+04  0.10100000352E+00 0.  1.
</event>
<event>
 5   0  0.2679935E-07  0.3016977E+04  0.7818609E-02  0.8238900E-01
        1   -1    0    0  501    0  0.00000000000E+00  0.00000000000E+00  0.17549190204E+04  0.17549190204E+04  0.50400001928E-02 0. -1.
       -1   -1    0    0    0  501  0.00000000000E+00  0.00000000000E+00 -0.12966620617E+04  0.12966620617E+04  0.50400001928E-02 0.  1.
    10030    2    1    2    0    0  0.00000000000E+00  0.00000000000E+00  0.45825695868E+03  0.30515810821E+04  0.30169765761E+04 0.  0.
        2    1    3    3  502    0 -0.19218970117E+03  0.13744742851E+04  0.82702654661E+03  0.16155770952E+04  0.25500000920E-02 0. -1.
       -2    1    3    3    0  502  0.19218970117E+03 -0.13744742851E+04 -0.36876958793E+03  0.14360039870E+04  0.25500000920E-02 0.  1.
</event>
<event>
 5   0  0.2602891E-07  0.2998432E+04  0.7818609E-02  0.8244179E-01
       -1   -1    0    0    0  501  0.00000000000E+00  0.00000000000E+00  0.86639395697E+03  0.86639395698E+03  0.50400001928E-02 0.  1.
        1   -1    0    0  501    0  0.00000000000E+00  0.00000000000E+00 -0.25942573562E+04  0.25942573562E+04  0.50400001928E-02 0. -1.
    10030    2    1    2    0    0  0.00000000000E+00  0.00000000000E+00 -0.17278633992E+04  0.34606513132E+04  0.29984321878E+04 0.  0.
        5    1    3    3  502    0  0.49448554400E+03 -0.71683773591E+03 -0.22724032340E+04  0.24335592947E+04  0.46999998093E+01 0. -1.
       -5    1    3    3    0  502 -0.49448554400E+03  0.71683773591E+03  0.54453983476E+03  0.10270920185E+04  0.46999998093E+01 0.  1.
</event>
<event>
 5   0  0.7208273E-07  0.2995637E+04  0.7818609E-02  0.8244978E-01
       -2   -1    0    0    0  501  0.00000000000E+00  0.00000000000E+00  0.14771401689E+04  0.14771401689E+04  0.25500000920E-02 0.  1.
        2   -1    0    0  501    0  0.00000000000E+00  0.00000000000E+00 -0.15187858348E+04  0.15187858348E+04  0.25500000920E-02 0. -1.
    10030    2    1    2    0    0  0.00000000000E+00  0.00000000000E+00 -0.41645665910E+02  0.29959260037E+04  0.29956365364E+04 0.  0.
        4    1    3    3  502    0  0.14365523310E+04  0.10458488179E+03  0.39011510065E+03  0.14922506498E+04  0.12699999809E+01 0.  1.
       -4    1    3    3    0  502 -0.14365523310E+04 -0.10458488179E+03 -0.43176076656E+03  0.15036753538E+04  0.12699999809E+01 0. -1.
</event>
<event>
 5   0  0.2640081E-07  0.3027131E+04  0.7818609E-02  0.8236026E-01
       -1   -1    0    0    0  501  0.00000000000E+00  0.00000000000E+00  0.29786917567E+04  0.29786917567E+04  0.50400001928E-02 0. -1.
        1   -1    0    0  501    0  0.00000000000E+00  0.00000000000E+00 -0.76908952786E+03  0.76908952788E+03  0.50400001928E-02 0.  1.
    10030    2    1    2    0    0  0.00000000000E+00  0.00000000000E+00  0.22096022288E+04  0.37477812845E+04  0.30271310753E+04 0.  0.
        1    1    3    3  502    0  0.57552892084E+03 -0.71739655304E+03  0.25930491736E+04  0.27513261112E+04  0.50400001928E-02 0. -1.
       -1    1    3    3    0  502 -0.57552892084E+03  0.71739655304E+03 -0.38344694484E+03  0.99645517338E+03  0.50400001928E-02 0.  1.
</event>
<event>
 5   0  0.2602891E-07  0.3006037E+04  0.7818609E-02  0.8242009E-01
       -1   -1    0    0    0  501  0.00000000000E+00  0.00000000000E+00  0.17040046300E+04  0.17040046300E+04  0.50400001928E-02 0. -1.
        1   -1    0    0  501    0  0.00000000000E+00  0.00000000000E+00 -0.13257386809E+04  0.13257386809E+04  0.50400001928E-02 0.  1.
    10030    2    1    2    0    0  0.00000000000E+00  0.00000000000E+00  0.37826594906E+03  0.30297433109E+04  0.30060371590E+04 0.  0.
        5    1    3    3  502    0 -0.99881655405E+03 -0.11221357372E+04  0.23661756075E+03  0.15208001452E+04  0.46999998093E+01 0. -1.
       -5    1    3    3    0  502  0.99881655405E+03  0.11221357372E+04  0.14164838831E+03  0.15089431657E+04  0.46999998093E+01 0.  1.
</event>
<event>
 5   0  0.2640081E-07  0.3000648E+04  0.7818609E-02  0.8243546E-01
        1   -1    0    0  501    0  0.00000000000E+00  0.00000000000E+00  0.11664031381E+04  0.11664031381E+04  0.50400001928E-02 0. -1.
       -1   -1    0    0    0  501  0.00000000000E+00  0.00000000000E+00 -0.19298408876E+04  0.19298408876E+04  0.50400001928E-02 0.  1.
    10030    2    1    2    0    0  0.00000000000E+00  0.00000000000E+00 -0.76343774950E+03  0.30962440258E+04  0.30006482416E+04 0.  0.
        1    1    3    3  502    0 -0.10525423694E+04 -0.10689085742E+04 -0.35726823077E+03  0.15420932424E+04  0.50400001928E-02 0.  1.
       -1    1    3    3    0  502  0.10525423694E+04  0.10689085742E+04 -0.40616951873E+03  0.15541507834E+04  0.50400001928E-02 0. -1.
</event>
<event>
 5   0  0.2679935E-07  0.3019213E+04  0.7818609E-02  0.8238266E-01
       -1   -1    0    0    0  501  0.00000000000E+00  0.00000000000E+00  0.12991545523E+04  0.12991545523E+04  0.50400001928E-02 0.  1.
        1   -1    0    0  501    0  0.00000000000E+00  0.00000000000E+00 -0.17541503241E+04  0.17541503241E+04  0.50400001928E-02 0. -1.
    10030    2    1    2    0    0  0.00000000000E+00  0.00000000000E+00 -0.45499577180E+03  0.30533048764E+04  0.30192133935E+04 0.  0.
        2    1    3    3  502    0 -0.30112366874E+03  0.35656445208E+03 -0.16793612860E+04  0.17430054507E+04  0.25500000920E-02 0. -1.
       -2    1    3    3    0  502  0.30112366874E+03 -0.35656445208E+03  0.12243655142E+04  0.13102994256E+04  0.25500000920E-02 0.  1.
</event>
<event>
 5   0  0.7585823E-07  0.3001895E+04  0.7818609E-02  0.8243190E-01
        2   -1    0    0  501    0  0.00000000000E+00  0.00000000000E+00  0.21416868163E+04  0.21416868163E+04  0.25500000920E-02 0. -1.
       -2   -1    0    0    0  501  0.00000000000E+00  0.00000000000E+00 -0.10519012263E+04  0.10519012263E+04  0.25500000920E-02 0.  1.
    10030    2    1    2    0    0  0.00000000000E+00  0.00000000000E+00  0.10897855900E+04  0.31935880426E+04  0.30018947272E+04 0.  0.
        5    1    3    3  502    0 -0.11541760128E+04  0.11818948599E+03  0.15579230081E+04  0.19424822296E+04  0.46999998093E+01 0. -1.
       -5    1    3    3    0  502  0.11541760128E+04 -0.11818948599E+03 -0.46813741802E+03  0.12511058130E+04  0.46999998093E+01 0.  1.
</event>
<event>
 5   0  0.7208273E-07  0.3002778E+04  0.7818609E-02  0.8242938E-01
       -2   -1    0    0    0  501  0.00000000000E+00  0.00000000000E+00  0.14111194686E+04  0.14111194686E+04  0.25500000920E-02 0. -1.
        2   -1    0    0  501    0  0.00000000000E+00  0.00000000000E+00 -0.15974330011E+04  0.15974330011E+04  0.25500000920E-02 0.  1.
    10030    2    1    2    0    0  0.00000000000E+00  0.00000000000E+00 -0.18631353248E+03  0.30085524696E+04  0.30027779189E+04 0.  0.
        4    1    3    3  502    0 -0.48498553317E+03  0.27593121426E+03 -0.14896873696E+04  0.15907605333E+04  0.12699999809E+01 0.  1.
       -4    1    3    3    0  502  0.48498553317E+03 -0.27593121426E+03  0.13033738371E+04  0.14177919363E+04  0.12699999809E+01 0. -1.
</event>
<event>
 5   0  0.2621825E-07  0.3004247E+04  0.7818609E-02  0.8242519E-01
       -1   -1    0    0    0  501  0.00000000000E+00  0.00000000000E+00  0.23630567653E+04  0.23630567653E+04  0.50400001928E-02 0. -1.
        1   -1    0    0  501    0  0.00000000000E+00  0.00000000000E+00 -0.95485452567E+03  0.95485452569E+03  0.50400001928E-02 0.  1.
    10030    2    1    2    0    0  0.00000000000E+00  0.00000000000E+00  0.14082022396E+04  0.33179112910E+04  0.30042472913E+04 0.  0.
        3    1    3    3  502    0  0.84993921370E+02  0.59615784938E+03 -0.81571170208E+03  0.10139101238E+04  0.10100000352E+00 0.  1.
       -3    1    3    3    0  502 -0.84993921370E+02 -0.59615784938E+03  0.22239139417E+04  0.23040011672E+04  0.10100000352E+00 0. -1.
</event>
<event>
 5   0  0.2679935E-07  0.3001545E+04  0.7818609E-02  0.8243290E-01
       -1   -1    0    0    0  501  0.00000000000E+00  0.00000000000E+00  0.18705882323E+04  0.18705882323E+04  0.50400001928E-02 0.  1.
        1   -1    0    0  501    0  0.00000000000E+00  0.00000000000E+00 -0.12040697359E+04  0.12040697359E+04  0.50400001928E-02 0. -1.
    10030    2    1    2    0    0  0.00000000000E+00  0.00000000000E+00  0.66651849643E+03  0.30746579682E+04  0.30015453878E+04 0.  0.
        2    1    3    3  502    0  0.71894292572E+02  0.12896972696E+03 -0.11966111290E+04  0.12056865985E+04  0.25500000920E-02 0. -1.
       -2    1    3    3    0  502 -0.71894292572E+02 -0.12896972696E+03  0.18631296254E+04  0.18689713697E+04  0.25500000920E-02 0.  1.
</event>
<event>
 5   0  0.7208273E-07  0.2996537E+04  0.7818609E-02  0.8244721E-01
        2   -1    0    0  501    0  0.00000000000E+00  0.00000000000E+00  0.25799412626E+04  0.25799412626E+04  0.25500000920E-02 0. -1.
       -2   -1    0    0    0  501  0.00000000000E+00  0.00000000000E+00 -0.87010046417E+03  0.87010046417E+03  0.25500000920E-02 0.  1.
    10030    2    1    2    0    0  0.00000000000E+00  0.00000000000E+00  0.17098407985E+04  0.34500417268E+04  0.29965367277E+04 0.  0.
        4    1    3    3  502    0 -0.23809288769E+03 -0.10235071715E+04  0.20845155992E+04  0.23344082868E+04  0.12699999809E+01 0. -1.
       -4    1    3    3    0  502  0.23809288769E+03  0.10235071715E+04 -0.37467480075E+03  0.11156334400E+04  0.12699999809E+01 0.  1.
</event>
<event>
 5   0  0.2640081E-07  0.2991068E+04  0.7818609E-02  0.8246286E-01
       -1   -1    0    0    0  501  0.00000000000E+00  0.00000000000E+00  0.13859262778E+04  0.13859262779E+04  0.50400001928E-02 0. -1.
        1   -1    0    0  501    0  0.00000000000E+00  0.00000000000E+00 -0.16138096481E+04  0.16138096482E+04  0.50400001928E-02 0.  1.
    10030    2    1    2    0    0  0.00000000000E+00  0.00000000000E+00 -0.22788337030E+03  0.29997359260E+04  0.29910675010E+04 0.  0.
        1    1    3    3  502    0 -0.12918311362E+04  0.70522479210E+03  0.15225457735E+03  0.14796456158E+04  0.50400001928E-02 0. -1.
       -1    1    3    3    0  502  0.12918311362E+04 -0.70522479210E+03 -0.38013794765E+03  0.15200903102E+04  0.50400001928E-02 0.  1.
</event>
<event>
 5   0  0.7307508E-07  0.2999517E+04  0.7818609E-02  0.8243869E-01
       -2   -1    0    0    0  501  0.00000000000E+00  0.00000000000E+00  0.11065262876E+04  0.11065262876E+04  0.25500000920E-02 0. -1.
        2   -1    0    0  501    0  0.00000000000E+00  0.00000000000E+00 -0.20327361655E+04  0.20327361655E+04  0.25500000920E-02 0.  1.
    10030    2    1    2    0    0  0.00000000000E+00  0.00000000000E+00 -0.92620987790E+03  0.31392624530E+04  0.29995172964E+04 0.  0.
        1    1    3    3  502    0 -0.11231916599E+03 -0.11934648691E+04 -0.14063727624E+04  0.18479335312E+04  0.50400001928E-02 0.  1.
       -1    1    3    3    0  502  0.11231916599E+03  0.11934648691E+04  0.48016288453E+03  0.12913289219E+04  0.50400001928E-02 0. -1.
</event>
<event>
 5   0  0.2640081E-07  0.2998814E+04  0.7818609E-02  0.8244070E-01
       -1   -1    0    0    0  501  0.00000000000E+00  0.00000000000E+00  0.11047124934E+04  0.11047124934E+04  0.50400001928E-02 0.  1.
        1   -1    0    0  501    0  0.00000000000E+00  0.00000000000E+00 -0.20351192597E+04  0.20351192597E+04  0.50400001928E-02 0. -1.
    10030    2    1    2    0    0  0.00000000000E+00  0.00000000000E+00 -0.93040676632E+03  0.31398317532E+04  0.29988142136E+04 0.  0.
        1    1    3    3  502    0  0.16157536356E+03  0.10562883195E+04  0.63610012794E+03  0.12435734739E+04  0.50400001928E-02 0.  1.
       -1    1    3    3    0  502 -0.16157536356E+03 -0.10562883195E+04 -0.15665068943E+04  0.18962582793E+04  0.50400001928E-02 0. -1.
</event>
<event>
 5   0  0.2640081E-07  0.2995464E+04  0.7818609E-02  0.8245027E-01
       -1   -1    0    0    0  501  0.00000000000E+00  0.00000000000E+00  0.12719563125E+04  0.12719563125E+04  0.50400001928E-02 0.  1.
        1   -1    0    0  501    0  0.00000000000E+00  0.00000000000E+00 -0.17635836743E+04  0.17635836743E+04  0.50400001928E-02 0. -1.
    10030    2    1    2    0    0  0.00000000000E+00  0.00000000000E+00 -0.49162736175E+03  0.30355399868E+04  0.29954641625E+04 0.  0.
        1    1    3    3  502    0 -0.80294225214E+03  0.12561053085E+04 -0.39155919339E+03  0.15413745192E+04  0.50400001928E-02 0. -1.
       -1    1    3    3    0  502  0.80294225214E+03 -0.12561053085E+04 -0.10006816836E+03  0.14941654677E+04  0.50400001928E-02 0.  1.
</event>
<event>
 5   0  0.7399409E-07  0.2996566E+04  0.7818609E-02  0.8244712E-01
       -2   -1    0    0    0  501  0.00000000000E+00  0.00000000000E+00  0.17209725880E+04  0.17209725880E+04  0.25500000920E-02 0.  1.
        2   -1    0    0  501    0  0.00000000000E+00  0.00000000000E+00 -0.13044086192E+04  0.13044086192E+04  0.25500000920E-02 0. -1.
    10030    2    1    2    0    0  0.00000000000E+00  0.00000000000E+00  0.41656396879E+03  0.30253812073E+04  0.29965656858E+04 0.  0.
        3    1    3    3  502    0 -0.13984104168E+04 -0.11006382692E+03 -0.32326509332E+03  0.14395020217E+04  0.10100000352E+00 0. -1.
       -3    1    3    3    0  502  0.13984104168E+04  0.11006382692E+03  0.73982906211E+03  0.15858791856E+04  0.10100000352E+00 0.  1.
</event>
<event>
 5   0  0.2602891E-07  0.3001812E+04  0.7818609E-02  0.8243214E-01
        1   -1    0    0  501    0  0.00000000000E+00  0.00000000000E+00  0.18945045415E+04  0.18945045415E+04  0.50400001928E-02 0.  1.
       -1   -1    0    0    0  501  0.00000000000E+00  0.00000000000E+00 -0.11890805860E+04  0.11890805860E+04  0.50400001928E-02 0. -1.
    10030    2    1    2    0    0  0.00000000000E+00  0.00000000000E+00  0.70542395551E+03  0.30835851275E+04  0.30018118332E+04 0.  0.
        5    1    3    3  502    0 -0.14648606923E+04  0.31044643439E+03  0.24743781483E+03  0.15177092603E+04  0.46999998093E+01 0.  1.
       -5    1    3    3    0  502  0.14648606923E+04 -0.31044643439E+03  0.45798614068E+03  0.15658758672E+04  0.46999998093E+01 0. -1.
</event>
<event>
 5   0  0.7399409E-07  0.2995659E+04  0.7818609E-02  0.8244971E-01
       -2   -1    0    0    0  501  0.00000000000E+00  0.00000000000E+00  0.10329894683E+04  0.10329894683E+04  0.25500000920E-02 0. -1.
        2   -1    0    0  501    0  0.00000000000E+00  0.00000000000E+00 -0.21718456985E+04  0.21718456985E+04  0.25500000920E-02 0.  1.
    10030    2    1    2    0    0  0.00000000000E+00  0.00000000000E+00 -0.11388562302E+04  0.32048351668E+04  0.29956593487E+04 0.  0.
        3    1    3    3  502    0  0.10026304035E+04 -0.31995353238E+03 -0.17096118960E+04  0.20075883129E+04  0.10100000352E+00 0.  1.
       -3    1    3    3    0  502 -0.10026304035E+04  0.31995353238E+03  0.57075566586E+03  0.11972468539E+04  0.10100000352E+00 0. -1.
</event>
<event>
 5   0  0.7208273E-07  0.3046014E+04  0.7818609E-02  0.8230712E-01
       -2   -1    0    0    0  501  0.00000000000E+00  0.00000000000E+00  0.82388585061E+03  0.82388585061E+03  0.25500000920E-02 0. -1.
        2   -1    0    0  501    0  0.00000000000E+00  0.00000000000E+00 -0.28153789734E+04  0.28153789734E+04  0.25500000920E-02 0.  1.
    10030    2    1    2    0    0  0.00000000000E+00  0.00000000000E+00 -0.19914931228E+04  0.36392648240E+04  0.30460143797E+04 0.  0.
        4    1    3    3  502    0  0.60952288829E+03  0.82329581457E+03  0.35079682922E+03  0.10827715262E+04  0.12699999809E+01 0. -1.
       -4    1    3    3    0  502 -0.60952288829E+03 -0.82329581457E+03 -0.23422899520E+04  0.25564932978E+04  0.12699999809E+01 0.  1.
</event>
<event>
 5   0  0.7399409E-07  0.2998862E+04  0.7818609E-02  0.8244056E-01
       -2   -1    0    0    0  501  0.00000000000E+00  0.00000000000E+00  0.15619568382E+04  0.15619568382E+04  0.25500000920E-02 0.  1.
        2   -1    0    0  501    0  0.00000000000E+00  0.00000000000E+00 -0.14394077790E+04  0.14394077790E+04  0.25500000920E-02 0. -1.
    10030    2    1    2    0    0  0.00000000000E+00  0.00000000000E+00  0.12254905922E+03  0.30013646171E+04  0.29988616662E+04 0.  0.
        3    1    3    3  502    0 -0.14299560465E+04  0.37085212676E+03  0.31836870381E+03  0.15111797500E+04  0.10100000352E+00 0.  1.
       -3    1    3    3    0  502  0.14299560465E+04 -0.37085212676E+03 -0.19581964459E+03  0.14901848672E+04  0.10100000352E+00 0. -1.
</event>
<event>
 5   0  0.7307508E-07  0.2982538E+04  0.7818609E-02  0.8248735E-01
       -2   -1    0    0    0  501  0.00000000000E+00  0.00000000000E+00  0.11631627000E+04  0.11631627000E+04  0.25500000920E-02 0.  1.
        2   -1    0    0  501    0  0.00000000000E+00  0.00000000000E+00 -0.19119281106E+04  0.19119281106E+04  0.25500000920E-02 0. -1.
    10030    2    1    2    0    0  0.00000000000E+00  0.00000000000E+00 -0.74876541059E+03  0.30750908105E+04  0.29825381562E+04 0.  0.
        1    1    3    3  502    0 -0.11611618700E+04  0.86080869871E+03  0.38737380302E+01  0.14454423233E+04  0.50400001928E-02 0.  1.
       -1    1    3    3    0  502  0.11611618700E+04 -0.86080869871E+03 -0.75263914862E+03  0.16296484873E+04  0.50400001928E-02 0. -1.
</event>
<event>
 5   0  0.2679935E-07  0.2999062E+04  0.7818609E-02  0.8243999E-01
        1   -1    0    0  501    0  0.00000000000E+00  0.00000000000E+00  0.16815261168E+04  0.16815261168E+04  0.50400001928E-02 0.  1.
       -1   -1    0    0    0  501  0.00000000000E+00  0.00000000000E+00 -0.13372335375E+04  0.13372335375E+04  0.50400001928E-02 0. -1.
    10030    2    1    2    0    0  0.00000000000E+00  0.00000000000E+00  0.34429257932E+03  0.30187596544E+04  0.29990619318E+04 0.  0.
        2    1    3    3  502    0  0.14503100605E+04  0.18748604726E+03  0.50605209872E+03  0.15474621210E+04  0.25500000920E-02 0. -1.
       -2    1    3    3    0  502 -0.14503100605E+04 -0.18748604726E+03 -0.16175951940E+03  0.14712975333E+04  0.25500000920E-02 0.  1.
</event>
<event>
 5   0  0.2792361E-07  0.3000195E+04  0.7818609E-02  0.8243675E-01
       -1   -1    0    0    0  501  0.00000000000E+00  0.00000000000E+00  0.29546661229E+04  0.29546661229E+04  0.50400001928E-02 0.  1.
        1   -1    0    0  501    0  0.00000000000E+00  0.00000000000E+00 -0.76160626281E+03  0.76160626283E+03  0.50400001928E-02 0. -1.
    10030    2    1    2    0    0  0.00000000000E+00  0.00000000000E+00  0.21930598601E+04  0.37162723857E+04  0.30001948095E+04 0.  0.
        4    1    3    3  502    0 -0.84244062748E+03  0.10305044190E+04  0.23956141667E+03  0.13524188899E+04  0.12699999809E+01 0.  1.
       -4    1    3    3    0  502  0.84244062748E+03 -0.10305044190E+04  0.19534984434E+04  0.23638534959E+04  0.12699999809E+01 0. -1.
</event>
<event>
 5   0  0.7585823E-07  0.2999196E+04  0.7818609E-02  0.8243960E-01
        2   -1    0    0  501    0  0.00000000000E+00  0.00000000000E+00  0.14587277134E+04  0.14587277134E+04  0.25500000920E-02 0.  1.
       -2   -1    0    0    0  501  0.00000000000E+00  0.00000000000E+00 -0.15416137071E+04  0.15416137071E+04  0.25500000920E-02 0. -1.
    10030    2    1    2    0    0  0.00000000000E+00  0.00000000000E+00 -0.82885993731E+02  0.30003414204E+04  0.29991963176E+04 0.  0.
        5    1    3    3  502    0  0.18461116561E+03  0.12212410375E+04 -0.89221557890E+03  0.15236737457E+04  0.46999998093E+01 0. -1.
       -5    1    3    3    0  502 -0.18461116561E+03 -0.12212410375E+04  0.80932958517E+03  0.14766676747E+04  0.46999998093E+01 0.  1.
</event>
<event>
 5   0  0.2640081E-07  0.2998388E+04  0.7818609E-02  0.8244191E-01
       -1   -1    0    0    0  501  0.00000000000E+00  0.00000000000E+00  0.24718052313E+04  0.24718052313E+04  0.50400001928E-02 0.  1.
        1   -1    0    0  501    0  0.00000000000E+00  0.00000000000E+00 -0.90928820986E+03  0.90928820987E+03  0.50400001928E-02 0. -1.
    10030    2    1    2    0    0  0.00000000000E+00  0.00000000000E+00  0.15625170214E+04  0.33810934411E+04  0.29983884697E+04 0.  0.
        1    1    3    3  502    0  0.12015821719E+04 -0.88237241009E+03  0.60224258416E+03  0.16078174387E+04  0.50400001928E-02 0. -1.
       -1    1    3    3    0  502 -0.12015821719E+04  0.88237241009E+03  0.96027443724E+03  0.17732760024E+04  0.50400001928E-02 0.  1.
</event>
<event>
 5   0  0.2792361E-07  0.2996308E+04  0.7818609E-02  0.8244786E-01
        1   -1    0    0  501    0  0.00000000000E+00  0.00000000000E+00  0.18385485389E+04  0.18385485389E+04  0.50400001928E-02 0. -1.
       -1   -1    0    0    0  501  0.00000000000E+00  0.00000000000E+00 -0.12207815147E+04  0.12207815148E+04  0.50400001928E-02 0.  1.
    10030    2    1    2    0    0  0.00000000000E+00  0.00000000000E+00  0.61776702418E+03  0.30593300537E+04  0.29963084423E+04 0.  0.
        4    1    3    3  502    0  0.31968297644E+03 -0.12572413519E+04  0.10740532509E+04  0.16841748784E+04  0.12699999809E+01 0. -1.
       -4    1    3    3    0  502 -0.31968297644E+03  0.12572413519E+04 -0.45628622670E+03  0.13751551753E+04  0.12699999809E+01 0.  1.
</event>
<event>
 5   0  0.2602891E-07  0.2999880E+04  0.7818609E-02  0.8243765E-01
        1   -1    0    0  501    0  0.00000000000E+00  0.00000000000E+00  0.11062595466E+04  0.11062595466E+04  0.50400001928E-02 0. -1.
       -1   -1    0    0    0  501  0.00000000000E+00  0.00000000000E+00 -0.20337181197E+04  0.20337181197E+04  0.50400001928E-02 0.  1.
    10030    2    1    2    0    0  0.00000000000E+00  0.00000000000E+00 -0.92745857310E+03  0.31399776662E+04  0.29998800542E+04 0.  0.
        5    1    3    3  502    0 -0.55590028409E+02  0.12761482657E+03  0.10994766948E+04  0.11082630048E+04  0.46999998093E+01 0. -1.
       -5    1    3    3    0  502  0.55590028409E+02 -0.12761482657E+03 -0.20269352679E+04  0.20317146615E+04  0.46999998093E+01 0.  1.
</event>
<event>
 5   0  0.7208273E-07  0.3000694E+04  0.7818609E-02  0.8243533E-01
        2   -1    0    0  501    0  0.00000000000E+00  0.00000000000E+00  0.21959788901E+04  0.21959788901E+04  0.25500000920E-02 0. -1.
       -2   -1    0    0    0  501  0.00000000000E+00  0.00000000000E+00 -0.10250741109E+04  0.10250741109E+04  0.25500000920E-02 0.  1.
    10030    2    1    2    0    0  0.00000000000E+00  0.00000000000E+00  0.11709047792E+04  0.32210530010E+04  0.30006939919E+04 0.  0.
        4    1    3    3  502    0  0.17652766485E+03  0.65470049478E+02 -0.10123422995E+04  0.10297023299E+04  0.12699999809E+01 0.  1.
       -4    1    3    3    0  502 -0.17652766485E+03 -0.65470049478E+02  0.21832470788E+04  0.21913506711E+04  0.12699999809E+01 0. -1.
</event>
<event>
 5   0  0.2640081E-07  0.3008388E+04  0.7818609E-02  0.8241340E-01
        1   -1    0    0  501    0  0.00000000000E+00  0.00000000000E+00  0.17785722599E+04  0.17785722600E+04  0.50400001928E-02 0. -1.
       -1   -1    0    0    0  501  0.00000000000E+00  0.00000000000E+00 -0.12721441024E+04  0.12721441024E+04  0.50400001928E-02 0.  1.
    10030    2    1    2    0    0  0.00000000000E+00  0.00000000000E+00  0.50642815756E+03  0.30507163624E+04  0.30083884132E+04 0.  0.
        1    1    3    3  502    0  0.14327146349E+04  0.12174911360E+03  0.70113710847E+03  0.15997147610E+04  0.50400001928E-02 0. -1.
       -1    1    3    3    0  502 -0.14327146349E+04 -0.12174911360E+03 -0.19470895092E+03  0.14510016014E+04  0.50400001928E-02 0.  1.
</event>
<event>
 5   0  0.7278657E-07  0.2968892E+04  0.7818609E-02  0.8252670E-01
       -2   -1    0    0    0  501  0.00000000000E+00  0.00000000000E+00  0.13432354949E+04  0.13432354949E+04  0.25500000920E-02 0. -1.
        2   -1    0    0  501    0  0.00000000000E+00  0.00000000000E+00 -0.16405019783E+04  0.16405019783E+04  0.25500000920E-02 0.  1.
    10030    2    1    2    0    0  0.00000000000E+00  0.00000000000E+00 -0.29726648346E+03  0.29837374732E+04  0.29688923771E+04 0.  0.
        2    1    3    3  502    0  0.10992024569E+04 -0.98497116624E+03  0.10798717315E+02  0.14759847058E+04  0.25500000920E-02 0. -1.
       -2    1    3    3    0  502 -0.10992024569E+04  0.98497116624E+03 -0.30806520077E+03  0.15077527673E+04  0.25500000920E-02 0.  1.
</event>
<event>
 5   0  0.7585823E-07  0.3008833E+04  0.7818609E-02  0.8241213E-01
        2   -1    0    0  501    0  0.00000000000E+00  0.00000000000E+00  0.17284555776E+04  0.17284555776E+04  0.25500000920E-02 0.  1.
       -2   -1    0    0    0  501  0.00000000000E+00  0.00000000000E+00 -0.13094165661E+04  0.13094165661E+04  0.25500000920E-02 0. -1.
    10030    2    1    2    0    0  0.00000000000E+00  0.00000000000E+00  0.41903901150E+03  0.30378721437E+04  0.30088325757E+04 0.  0.
        5    1    3    3  502    0  0.63178568459E+03  0.64466500958E+03 -0.10056328736E+04  0.13513199815E+04  0.46999998093E+01 0. -1.
       -5    1    3    3    0  502 -0.63178568459E+03 -0.64466500958E+03  0.14246718851E+04  0.16865521623E+04  0.46999998093E+01 0.  1.
</event>
<event>
 5   0  0.2621825E-07  0.2998611E+04  0.7818609E-02  0.8244128E-01
       -1   -1    0    0    0  501  0.00000000000E+00  0.00000000000E+00  0.15851584116E+04  0.15851584116E+04  0.50400001928E-02 0.  1.
        1   -1    0    0  501    0  0.00000000000E+00  0.00000000000E+00 -0.14181027860E+04  0.14181027861E+04  0.50400001928E-02 0. -1.
    10030    2    1    2    0    0  0.00000000000E+00  0.00000000000E+00  0.16705562557E+03  0.30032611977E+04  0.29986113852E+04 0.  0.
        3    1    3    3  502    0 -0.11816202709E+04  0.75868899902E+03  0.60977772297E+03  0.15309031137E+04  0.10100000352E+00 0.  1.
       -3    1    3    3    0  502  0.11816202709E+04 -0.75868899902E+03 -0.44272209741E+03  0.14723580840E+04  0.10100000352E+00 0. -1.
</event>
<event>
 5   0  0.2602891E-07  0.2999941E+04  0.7818609E-02  0.8243748E-01
       -1   -1    0    0    0  501  0.00000000000E+00  0.00000000000E+00  0.79326577336E+03  0.79326577338E+03  0.50400001928E-02 0.  1.
        1   -1    0    0  501    0  0.00000000000E+00  0.00000000000E+00 -0.28362643082E+04  0.28362643082E+04  0.50400001928E-02 0. -1.
    10030    2    1    2    0    0  0.00000000000E+00  0.00000000000E+00 -0.20429985349E+04  0.36295300816E+04  0.29999409327E+04 0.  0.
        5    1    3    3  502    0  0.59277787841E+03 -0.10673367461E+04 -0.20757483775E+04  0.24081832902E+04  0.46999998093E+01 0. -1.
       -5    1    3    3    0  502 -0.59277787841E+03  0.10673367461E+04  0.32749842621E+02  0.12213467914E+04  0.46999998093E+01 0.  1.
</event>
<event>
 5   0  0.7278657E-07  0.2998150E+04  0.7818609E-02  0.8244259E-01
       -2   -1    0    0    0  501  0.00000000000E+00  0.00000000000E+00  0.11085406824E+04  0.11085406824E+04  0.25500000920E-02 0. -1.
        2   -1    0    0  501    0  0.00000000000E+00  0.00000000000E+00 -0.20271926647E+04  0.20271926647E+04  0.25500000920E-02 0.  1.
    10030    2    1    2    0    0  0.00000000000E+00  0.00000000000E+00 -0.91865198235E+03  0.31357333471E+04  0.29981497893E+04 0.  0.
        2    1    3    3  502    0 -0.36419362109E+03 -0.14065614096E+04 -0.84527699333E+03  0.16809358073E+04  0.25500000920E-02 0. -1.
       -2    1    3    3    0  502  0.36419362109E+03  0.14065614096E+04 -0.73374989021E+02  0.14547975398E+04  0.25500000920E-02 0.  1.
</event>
<event>
 5   0  0.2792361E-07  0.2997034E+04  0.7818609E-02  0.8244578E-01
        1   -1    0    0  501    0  0.00000000000E+00  0.00000000000E+00  0.22594447882E+04  0.22594447882E+04  0.50400001928E-02 0. -1.
       -1   -1    0    0    0  501  0.00000000000E+00  0.00000000000E+00 -0.99385148688E+03  0.99385148689E+03  0.50400001928E-02 0.  1.
    10030    2    1    2    0    0  0.00000000000E+00  0.00000000000E+00  0.12655933013E+04  0.32532962751E+04  0.29970335749E+04 0.  0.
        4    1    3    3  502    0  0.42339026103E+03 -0.10459313697E+04 -0.43757953946E+03  0.12102517133E+04  0.12699999809E+01 0.  1.
       -4    1    3    3    0  502 -0.42339026103E+03  0.10459313697E+04  0.17031728408E+04  0.20430445618E+04  0.12699999809E+01 0. -1.
</event>
<event>
 5   0  0.7399409E-07  0.3008063E+04  0.7818609E-02  0.8241432E-01
        2   -1    0    0  501    0  0.00000000000E+00  0.00000000000E+00  0.24688877477E+04  0.24688877477E+04  0.25500000920E-02 0. -1.
       -2   -1    0    0    0  501  0.00000000000E+00  0.00000000000E+00 -0.91624696991E+03  0.91624696991E+03  0.25500000920E-02 0.  1.
    10030    2    1    2    0    0  0.00000000000E+00  0.00000000000E+00  0.15526407778E+04  0.33851347176E+04  0.30080631096E+04 0.  0.
        3    1    3    3  502    0 -0.68101864563E+03  0.14996456192E+03  0.22759718547E+04  0.23804040957E+04  0.10100000352E+00 0. -1.
       -3    1    3    3    0  502  0.68101864563E+03 -0.14996456192E+03 -0.72333107689E+03  0.10047306219E+04  0.10100000352E+00 0.  1.
</event>
<event>
 5   0  0.7585823E-07  0.2986892E+04  0.7818609E-02  0.8247484E-01
        2   -1    0    0  501    0  0.00000000000E+00  0.00000000000E+00  0.17871390379E+04  0.17871390379E+04  0.25500000920E-02 0.  1.
       -2   -1    0    0    0  501  0.00000000000E+00  0.00000000000E+00 -0.12480179760E+04  0.12480179760E+04  0.25500000920E-02 0. -1.
    10030    2    1    2    0    0  0.00000000000E+00  0.00000000000E+00  0.53912106194E+03  0.30351570139E+04  0.29868924620E+04 0.  0.
        5    1    3    3  502    0  0.34383958308E+03 -0.13035795579E+04 -0.38332780044E+03  0.14016089380E+04  0.46999998093E+01 0. -1.
       -5    1    3    3    0  502 -0.34383958308E+03  0.13035795579E+04  0.92244886238E+03  0.16335480759E+04  0.46999998093E+01 0.  1.
</event>
<event>
 5   0  0.7208273E-07  0.2992339E+04  0.7818609E-02  0.8245922E-01
       -2   -1    0    0    0  501  0.00000000000E+00  0.00000000000E+00  0.12531970597E+04  0.12531970597E+04  0.25500000920E-02 0.  1.
        2   -1    0    0  501    0  0.00000000000E+00  0.00000000000E+00 -0.17862494776E+04  0.17862494776E+04  0.25500000920E-02 0. -1.
    10030    2    1    2    0    0  0.00000000000E+00  0.00000000000E+00 -0.53305241790E+03  0.30394465374E+04  0.29923386128E+04 0.  0.
        4    1    3    3  502    0 -0.10708062790E+04  0.95828628826E+03  0.15666483698E+03  0.14455048189E+04  0.12699999809E+01 0.  1.
       -4    1    3    3    0  502  0.10708062790E+04 -0.95828628826E+03 -0.68971725488E+03  0.15939417185E+04  0.12699999809E+01 0. -1.
</event>
<event>
 5   0  0.2640081E-07  0.2999193E+04  0.7818609E-02  0.8243961E-01
       -1   -1    0    0    0  501  0.00000000000E+00  0.00000000000E+00  0.11841262713E+04  0.11841262713E+04  0.50400001928E-02 0.  1.
        1   -1    0    0  501    0  0.00000000000E+00  0.00000000000E+00 -0.18991132861E+04  0.18991132861E+04  0.50400001928E-02 0. -1.
    10030    2    1    2    0    0  0.00000000000E+00  0.00000000000E+00 -0.71498701478E+03  0.30832395574E+04  0.29991931810E+04 0.  0.
        1    1    3    3  502    0  0.79180364933E+03  0.40801619791E+03 -0.15976828680E+04  0.18292131597E+04  0.50400001928E-02 0. -1.
       -1    1    3    3    0  502 -0.79180364933E+03 -0.40801619791E+03  0.88269585322E+03  0.12540263977E+04  0.50400001928E-02 0.  1.
</event>
<event>
 5   0  0.7307508E-07  0.2993446E+04  0.7818609E-02  0.8245605E-01
       -2   -1    0    0    0  501  0.00000000000E+00  0.00000000000E+00  0.25479003022E+04  0.25479003022E+04  0.25500000920E-02 0. -1.
        2   -1    0    0  501    0  0.00000000000E+00  0.00000000000E+00 -0.87922596893E+03  0.87922596893E+03  0.25500000920E-02 0.  1.
    10030    2    1    2    0    0  0.00000000000E+00  0.00000000000E+00  0.16686743333E+04  0.34271262711E+04  0.29934462494E+04 0.  0.
        1    1    3    3  502    0  0.53879887683E+03 -0.11678088728E+04  0.17108209388E+04  0.21403247599E+04  0.50400001928E-02 0. -1.
       -1    1    3    3    0  502 -0.53879887683E+03  0.11678088728E+04 -0.42146605549E+02  0.12868015113E+04  0.50400001928E-02 0.  1.
</event>
<event>
 5   0  0.2640081E-07  0.2989132E+04  0.7818609E-02  0.8246841E-01
       -1   -1    0    0    0  501  0.00000000000E+00  0.00000000000E+00  0.11975472681E+04  0.11975472681E+04  0.50400001928E-02 0. -1.
        1   -1    0    0  501    0  0.00000000000E+00  0.00000000000E+00 -0.18652519695E+04  0.18652519695E+04  0.50400001928E-02 0.  1.
    10030    2    1    2    0    0  0.00000000000E+00  0.00000000000E+00 -0.66770470144E+03  0.30627992376E+04  0.29891319144E+04 0.  0.
        1    1    3    3  502    0 -0.86455603492E+03 -0.79712262081E+03 -0.12790094054E+04  0.17374483213E+04  0.50400001928E-02 0.  1.
       -1    1    3    3    0  502  0.86455603492E+03  0.79712262081E+03  0.61130470396E+03  0.13253509163E+04  0.50400001928E-02 0. -1.
</event>
<event>
 5   0  0.7208273E-07  0.2998387E+04  0.7818609E-02  0.8244192E-01
        2   -1    0    0  501    0  0.00000000000E+00  0.00000000000E+00  0.14370823570E+04  0.14370823570E+04  0.25500000920E-02 0. -1.
       -2   -1    0    0    0  501  0.00000000000E+00  0.00000000000E+00 -0.15639894456E+04  0.15639894456E+04  0.25500000920E-02 0.  1.
    10030    2    1    2    0    0  0.00000000000E+00  0.00000000000E+00 -0.12690708861E+03  0.30010718025E+04  0.29983873257E+04 0.  0.
        4    1    3    3  502    0 -0.59023084321E+03  0.12522981113E+04  0.51235015432E+03  0.14761867434E+04  0.12699999809E+01 0. -1.
       -4    1    3    3    0  502  0.59023084321E+03 -0.12522981113E+04 -0.63925724293E+03  0.15248850591E+04  0.12699999809E+01 0.  1.
</event>
<event>
 5   0  0.2640081E-07  0.2999768E+04  0.7818609E-02  0.8243797E-01
        1   -1    0    0  501    0  0.00000000000E+00  0.00000000000E+00  0.11771728220E+04  0.11771728220E+04  0.50400001928E-02 0. -1.
       -1   -1    0    0    0  501  0.00000000000E+00  0.00000000000E+00 -0.19110632551E+04  0.19110632551E+04  0.50400001928E-02 0.  1.
    10030    2    1    2    0    0  0.00000000000E+00  0.00000000000E+00 -0.73389043304E+03  0.30882360771E+04  0.29997678077E+04 0.  0.
        1    1    3    3  502    0 -0.30025483588E+03  0.11794183537E+03  0.11410364673E+04  0.11857602889E+04  0.50400001928E-02 0. -1.
       -1    1    3    3    0  502  0.30025483588E+03 -0.11794183537E+03 -0.18749269004E+04  0.19024757882E+04  0.50400001928E-02 0.  1.
</event>
<event>
 5   0  0.7585823E-07  0.2999927E+04  0.7818609E-02  0.8243752E-01
       -2   -1    0    0    0  501  0.00000000000E+00  0.00000000000E+00  0.12597008113E+04  0.12597008113E+04  0.25500000920E-02 0. -1.
        2   -1    0    0  501    0  0.00000000000E+00  0.00000000000E+00 -0.17860510024E+04  0.17860510024E+04  0.25500000920E-02 0.  1.
    10030    2    1    2    0    0  0.00000000000E+00  0.00000000000E+00 -0.52635019102E+03  0.30457518137E+04  0.29999265970E+04 0.  0.
        5    1    3    3  502    0  0.26447810909E+03  0.12811583315E+04  0.48189630369E+03  0.13941167376E+04  0.46999998093E+01 0. -1.
       -5    1    3    3    0  502 -0.26447810909E+03 -0.12811583315E+04 -0.10082464947E+04  0.16516350761E+04  0.46999998093E+01 0.  1.
</event>
<event>
 5   0  0.7585823E-07  0.2998412E+04  0.7818609E-02  0.8244184E-01
       -2   -1    0    0    0  501  0.00000000000E+00  0.00000000000E+00  0.16699202849E+04  0.16699202849E+04  0.25500000920E-02 0.  1.
        2   -1    0    0  501    0  0.00000000000E+00  0.00000000000E+00 -0.13459439694E+04  0.13459439694E+04  0.25500000920E-02 0. -1.
    10030    2    1    2    0    0  0.00000000000E+00  0.00000000000E+00  0.32397631558E+03  0.30158642543E+04  0.29984123378E+04 0.  0.
        5    1    3    3  502    0  0.12596156254E+04  0.18661516745E+03 -0.63390773380E+03  0.14224337768E+04  0.46999998093E+01 0. -1.
       -5    1    3    3    0  502 -0.12596156254E+04 -0.18661516745E+03  0.95788404939E+03  0.15934304775E+04  0.46999998093E+01 0.  1.
</event>
<event>
 5   0  0.7278657E-07  0.3002585E+04  0.7818609E-02  0.8242993E-01
        2   -1    0    0  501    0  0.00000000000E+00  0.00000000000E+00  0.16446352303E+04  0.16446352303E+04  0.25500000920E-02 0.  1.
       -2   -1    0    0    0  501  0.00000000000E+00  0.00000000000E+00 -0.13704432516E+04  0.13704432516E+04  0.25500000920E-02 0. -1.
    10030    2    1    2    0    0  0.00000000000E+00  0.00000000000E+00  0.27419197873E+03  0.30150784820E+04  0.30025850548E+04 0.  0.
        2    1    3    3  502    0 -0.13170117267E+04 -0.31052917266E+03  0.79013339917E+03  0.15669266236E+04  0.25500000920E-02 0.  1.
       -2    1    3    3    0  502  0.13170117267E+04  0.31052917266E+03 -0.51594142044E+03  0.14481518583E+04  0.25500000920E-02 0. -1.
</event>
<event>
 5   0  0.7278657E-07  0.2999080E+04  0.7818609E-02  0.8243994E-01
        2   -1    0    0  501    0  0.00000000000E+00  0.00000000000E+00  0.25121591093E+04  0.25121591093E+04  0.25500000920E-02 0. -1.
       -2   -1    0    0    0  501  0.00000000000E+00  0.00000000000E+00 -0.89509473199E+03  0.89509473199E+03  0.25500000920E-02 0.  1.
    10030    2    1    2    0    0  0.00000000000E+00  0.00000000000E+00  0.16170643773E+04  0.34072538413E+04  0.29990801154E+04 0.  0.
        2    1    3    3  502    0 -0.77430118669E+03 -0.11620277168E+04  0.18754211814E+03  0.14089083677E+04  0.25500000920E-02 0.  1.
       -2    1    3    3    0  502  0.77430118669E+03  0.11620277168E+04  0.14295222592E+04  0.19983454736E+04  0.25500000920E-02 0. -1.
</event>
<event>
 5   0  0.7307508E-07  0.2978067E+04  0.7818609E-02  0.8250022E-01
       -2   -1    0    0    0  501  0.00000000000E+00  0.00000000000E+00  0.15448935065E+04  0.15448935065E+04  0.25500000920E-02 0.  1.
        2   -1    0    0  501    0  0.00000000000E+00  0.00000000000E+00 -0.14351931524E+04  0.14351931524E+04  0.25500000920E-02 0. -1.
    10030    2    1    2    0    0  0.00000000000E+00  0.00000000000E+00  0.10970035413E+03  0.29800866590E+04  0.29780668776E+04 0.  0.
        1    1    3    3  502    0  0.11855176453E+04 -0.78351650562E+03 -0.39027774822E+03  0.14736576680E+04  0.50400001928E-02 0. -1.
       -1    1    3    3    0  502 -0.11855176453E+04  0.78351650562E+03  0.49997810235E+03  0.15064289909E+04  0.50400001928E-02 0.  1.
</event>
<event>
 5   0  0.2602891E-07  0.2991432E+04  0.7818609E-02  0.8246182E-01
       -1   -1    0    0    0  501  0.00000000000E+00  0.00000000000E+00  0.11244162582E+04  0.11244162582E+04  0.50400001928E-02 0. -1.
        1   -1    0    0  501    0  0.00000000000E+00  0.00000000000E+00 -0.19896253181E+04  0.19896253181E+04  0.50400001928E-02 0.  1.
    10030    2    1    2    0    0  0.00000000000E+00  0.00000000000E+00 -0.86520905994E+03  0.31140415763E+04  0.29914324698E+04 0.  0.
        5    1    3    3  502    0  0.12196005179E+04  0.77524126025E+03 -0.31155265639E+02  0.14454816413E+04  0.46999998093E+01 0.  1.
       -5    1    3    3    0  502 -0.12196005179E+04 -0.77524126025E+03 -0.83405379430E+03  0.16685599350E+04  0.46999998093E+01 0. -1.
</event>
<event>
 5   0  0.2621825E-07  0.2975544E+04  0.7818609E-02  0.8250749E-01
        1   -1    0    0  501    0  0.00000000000E+00  0.00000000000E+00  0.15863762636E+04  0.15863762636E+04  0.50400001928E-02 0. -1.
       -1   -1    0    0    0  501  0.00000000000E+00  0.00000000000E+00 -0.13952967800E+04  0.13952967800E+04  0.50400001928E-02 0.  1.
    10030    2    1    2    0    0  0.00000000000E+00  0.00000000000E+00  0.19107948363E+03  0.29816730436E+04  0.29755441132E+04 0.  0.
        3    1    3    3  502    0  0.41860391742E+03 -0.11820969248E+04 -0.70666108320E+03  0.14394277600E+04  0.10100000352E+00 0.  1.
       -3    1    3    3    0  502 -0.41860391742E+03  0.11820969248E+04  0.89774056684E+03  0.15422452837E+04  0.10100000352E+00 0. -1.
</event>
<event>
 5   0  0.7399409E-07  0.2996419E+04  0.7818609E-02  0.8244754E-01
        2   -1    0    0  501    0  0.00000000000E+00  0.00000000000E+00  0.15043602578E+04  0.15043602578E+04  0.25500000920E-02 0.  1.
       -2   -1    0    0    0  501  0.00000000000E+00  0.00000000000E+00 -0.14920839367E+04  0.14920839367E+04  0.25500000920E-02 0. -1.
    10030    2    1    2    0    0  0.00000000000E+00  0.00000000000E+00  0.12276321079E+02  0.29964441945E+04  0.29964190466E+04 0.  0.
        3    1    3    3  502    0  0.25799375246E+03  0.12499997929E+04  0.79072839722E+03  0.15014365345E+04  0.10100000352E+00 0.  1.
       -3    1    3    3    0  502 -0.25799375246E+03 -0.12499997929E+04 -0.77845207614E+03  0.14950076601E+04  0.10100000352E+00 0. -1.
</event>
<event>
 5   0  0.2640081E-07  0.2998444E+04  0.7818609E-02  0.8244175E-01
        1   -1    0    0  501    0  0.00000000000E+00  0.00000000000E+00  0.10285065984E+04  0.10285065985E+04  0.50400001928E-02 0.  1.
       -1   -1    0    0    0  501  0.00000000000E+00  0.00000000000E+00 -0.21853686431E+04  0.21853686431E+04  0.50400001928E-02 0. -1.
    10030    2    1    2    0    0  0.00000000000E+00  0.00000000000E+00 -0.11568620447E+04  0.32138752416E+04  0.29984436426E+04 0.  0.
        1    1    3    3  502    0  0.11850040796E+04  0.40004173615E+03  0.30764294763E+03  0.12879876717E+04  0.50400001928E-02 0.  1.
       -1    1    3    3    0  502 -0.11850040796E+04 -0.40004173615E+03 -0.14645049923E+04  0.19258875699E+04  0.50400001928E-02 0. -1.
</event>
<event>
 5   0  0.7278657E-07  0.2998631E+04  0.7818609E-02  0.8244122E-01
       -2   -1    0    0    0  501  0.00000000000E+00  0.00000000000E+00  0.12111425895E+04  0.12111425895E+04  0.25500000920E-02 0.  1.
        2   -1    0    0  501    0  0.00000000000E+00  0.00000000000E+00 -0.18560551984E+04  0.18560551984E+04  0.25500000920E-02 0. -1.
    10030    2    1    2    0    0  0.00000000000E+00  0.00000000000E+00 -0.64491260895E+03  0.30671977879E+04  0.29986313539E+04 0.  0.
        2    1    3    3  502    0  0.13691345698E+04  0.29576134322E+03  0.22450755884E+03  0.14185936297E+04  0.25500000920E-02 0.  1.
       -2    1    3    3    0  502 -0.13691345698E+04 -0.29576134322E+03 -0.86942016779E+03  0.16486041582E+04  0.25500000920E-02 0. -1.
</event>
<event>
 5   0  0.2792361E-07  0.3003888E+04  0.7818609E-02  0.8242622E-01
       -1   -1    0    0    0  501  0.00000000000E+00  0.00000000000E+00  0.11347656177E+04  0.11347656177E+04  0.50400001928E-02 0. -1.
        1   -1    0    0  501    0  0.00000000000E+00  0.00000000000E+00 -0.19879306848E+04  0.19879306848E+04  0.50400001928E-02 0.  1.
    10030    2    1    2    0    0  0.00000000000E+00  0.00000000000E+00 -0.85316506708E+03  0.31226963024E+04  0.30038877418E+04 0.  0.
        4    1    3    3  502    0  0.34787613513E+02  0.86686889913E+03 -0.17011092156E+04  0.19095669778E+04  0.12699999809E+01 0.  1.
       -4    1    3    3    0  502 -0.34787613513E+02 -0.86686889913E+03  0.84794414855E+03  0.12131293246E+04  0.12699999809E+01 0. -1.
</event>
<event>
 5   0  0.2640081E-07  0.3002531E+04  0.7818609E-02  0.8243009E-01
        1   -1    0    0  501    0  0.00000000000E+00  0.00000000000E+00  0.17227653450E+04  0.17227653450E+04  0.50400001928E-02 0.  1.
       -1   -1    0    0    0  501  0.00000000000E+00  0.00000000000E+00 -0.13082443649E+04  0.13082443649E+04  0.50400001928E-02 0. -1.
    10030    2    1    2    0    0  0.00000000000E+00  0.00000000000E+00  0.41452098009E+03  0.30310097099E+04  0.30025309688E+04 0.  0.
        1    1    3    3  502    0 -0.26262392736E+02 -0.93260776350E+03 -0.98005474950E+03  0.13531275867E+04  0.50400001928E-02 0. -1.
       -1    1    3    3    0  502  0.26262392736E+02  0.93260776350E+03  0.13945757296E+04  0.16778821232E+04  0.50400001928E-02 0.  1.
</event>
<event>
 5   0  0.2679935E-07  0.2999511E+04  0.7818609E-02  0.8243871E-01
       -1   -1    0    0    0  501  0.00000000000E+00  0.00000000000E+00  0.22702319804E+04  0.22702319804E+04  0.50400001928E-02 0. -1.
        1   -1    0    0  501    0  0.00000000000E+00  0.00000000000E+00 -0.99076494359E+03  0.99076494360E+03  0.50400001928E-02 0.  1.
    10030    2    1    2    0    0  0.00000000000E+00  0.00000000000E+00  0.12794670368E+04  0.32609969240E+04  0.29995108001E+04 0.  0.
        2    1    3    3  502    0  0.14475574424E+04  0.37425841494E+03  0.76732906363E+03  0.16805611569E+04  0.25500000920E-02 0.  1.
       -2    1    3    3    0  502 -0.14475574424E+04 -0.37425841494E+03  0.51213797321E+03  0.15804357671E+04  0.25500000920E-02 0. -1.
</event>
<event>
 5   0  0.2602891E-07  0.2990125E+04  0.7818609E-02  0.8246556E-01
       -1   -1    0    0    0  501  0.00000000000E+00  0.00000000000E+00  0.12774245019E+04  0.12774245019E+04  0.50400001928E-02 0. -1.
        1   -1    0    0  501    0  0.00000000000E+00  0.00000000000E+00 -0.17497797492E+04  0.17497797492E+04  0.50400001928E-02 0.  1.
    10030    2    1    2    0    0  0.00000000000E+00  0.00000000000E+00 -0.47235524732E+03  0.30272042511E+04  0.29901247630E+04 0.  0.
        5    1    3    3  502    0  0.68861734261E+03 -0.95359768359E+03  0.69811353188E+03  0.13678183286E+04  0.46999998093E+01 0. -1.
       -5    1    3    3    0  502 -0.68861734261E+03  0.95359768359E+03 -0.11704687792E+04  0.16593859225E+04  0.46999998093E+01 0.  1.
</event>
<event>
 5   0  0.7208273E-07  0.2992960E+04  0.7818609E-02  0.8245744E-01
        2   -1    0    0  501    0  0.00000000000E+00  0.00000000000E+00  0.21272566518E+04  0.21272566518E+04  0.25500000920E-02 0. -1.
       -2   -1    0    0    0  501  0.00000000000E+00  0.00000000000E+00 -0.10527423256E+04  0.10527423256E+04  0.25500000920E-02 0.  1.
    10030    2    1    2    0    0  0.00000000000E+00  0.00000000000E+00  0.10745143262E+04  0.31799989774E+04  0.29929604841E+04 0.  0.
        4    1    3    3  502    0  0.39280994948E+03  0.10315982673E+04  0.16108254977E+04  0.19527557550E+04  0.12699999809E+01 0. -1.
       -4    1    3    3    0  502 -0.39280994948E+03 -0.10315982673E+04 -0.53631117154E+03  0.12272432225E+04  0.12699999809E+01 0.  1.
</event>
<event>
 5   0  0.7208273E-07  0.2999816E+04  0.7818609E-02  0.8243784E-01
        2   -1    0    0  501    0  0.00000000000E+00  0.00000000000E+00  0.25380731574E+04  0.25380731574E+04  0.25500000920E-02 0.  1.
       -2   -1    0    0    0  501  0.00000000000E+00  0.00000000000E+00 -0.88639034435E+03  0.88639034435E+03  0.25500000920E-02 0. -1.
    10030    2    1    2    0    0  0.00000000000E+00  0.00000000000E+00  0.16516828130E+04  0.34244635017E+04  0.29998156876E+04 0.  0.
        4    1    3    3  502    0  0.56899949561E+03  0.34253848884E+03  0.23610687649E+04  0.24527006274E+04  0.12699999809E+01 0.  1.
       -4    1    3    3    0  502 -0.56899949561E+03 -0.34253848884E+03 -0.70938595184E+03  0.97176287432E+03  0.12699999809E+01 0. -1.
</event>
<event>
 5   0  0.2679935E-07  0.3000777E+04  0.7818609E-02  0.8243509E-01
       -1   -1    0    0    0  501  0.00000000000E+00  0.00000000000E+00  0.12023042220E+04  0.12023042220E+04  0.50400001928E-02 0.  1.
        1   -1    0    0  501    0  0.00000000000E+00  0.00000000000E+00 -0.18723755770E+04  0.18723755770E+04  0.50400001928E-02 0. -1.
    10030    2    1    2    0    0  0.00000000000E+00  0.00000000000E+00 -0.67007135506E+03  0.30746797990E+04  0.30007766071E+04 0.  0.
        2    1    3    3  502    0  0.58886991681E+03 -0.10610826916E+04  0.56902121514E+03  0.13403169031E+04  0.25500000920E-02 0.  1.
       -2    1    3    3    0  502 -0.58886991681E+03  0.10610826916E+04 -0.12390925702E+04  0.17343628960E+04  0.25500000920E-02 0. -1.
</event>
<event>
 5   0  0.7208273E-07  0.2997485E+04  0.7818609E-02  0.8244450E-01
       -2   -1    0    0    0  501  0.00000000000E+00  0.00000000000E+00  0.97762336225E+03  0.97762336226E+03  0.25500000920E-02 0.  1.
        2   -1    0    0  501    0  0.00000000000E+00  0.00000000000E+00 -0.22976421367E+04  0.22976421367E+04  0.25500000920E-02 0. -1.
    10030    2    1    2    0    0  0.00000000000E+00  0.00000000000E+00 -0.13200187745E+04  0.32752654990E+04  0.29974846995E+04 0.  0.
        4    1    3    3  502    0  0.50988800131E+03  0.33773385216E+03 -0.21550844533E+04  0.22401876132E+04  0.12699999809E+01 0. -1.
       -4    1    3    3    0  502 -0.50988800131E+03 -0.33773385216E+03  0.83506567880E+03  0.10350778858E+04  0.12699999809E+01 0.  1.
</event>
<event>
 5   0  0.7307508E-07  0.3002541E+04  0.7818609E-02  0.8243006E-01
        2   -1    0    0  501    0  0.00000000000E+00  0.00000000000E+00  0.20050268747E+04  0.20050268747E+04  0.25500000920E-02 0. -1.
       -2   -1    0    0    0  501  0.00000000000E+00  0.00000000000E+00 -0.11240812217E+04  0.11240812217E+04  0.25500000920E-02 0.  1.
    10030    2    1    2    0    0  0.00000000000E+00  0.00000000000E+00  0.88094565308E+03  0.31291080964E+04  0.30025409631E+04 0.  0.
        1    1    3    3  502    0 -0.15395579990E+03  0.36016883704E+03 -0.10698907402E+04  0.11393376039E+04  0.50400001928E-02 0.  1.
       -1    1    3    3    0  502  0.15395579990E+03 -0.36016883704E+03  0.19508363933E+04  0.19897704925E+04  0.50400001928E-02 0. -1.
</event>
<event>
 5   0  0.7208273E-07  0.3001349E+04  0.7818609E-02  0.8243346E-01
       -2   -1    0    0    0  501  0.00000000000E+00  0.00000000000E+00  0.15147718698E+04  0.15147718698E+04  0.25500000920E-02 0. -1.
        2   -1    0    0  501    0  0.00000000000E+00  0.00000000000E+00 -0.14867082303E+04  0.14867082303E+04  0.25500000920E-02 0.  1.
    10030    2    1    2    0    0  0.00000000000E+00  0.00000000000E+00  0.28063639428E+02  0.30014801001E+04  0.30013489007E+04 0.  0.
        4    1    3    3  502    0  0.15185573117E+02 -0.53432435171E+03  0.14163374173E+04  0.15138515142E+04  0.12699999809E+01 0. -1.
       -4    1    3    3    0  502 -0.15185573117E+02  0.53432435171E+03 -0.13882737779E+04  0.14876285859E+04  0.12699999809E+01 0.  1.
</event>
<event>
 5   0  0.2602891E-07  0.3001085E+04  0.7818609E-02  0.8243421E-01
        1   -1    0    0  501    0  0.00000000000E+00  0.00000000000E+00  0.14729251970E+04  0.14729251970E+04  0.50400001928E-02 0. -1.
       -1   -1    0    0    0  501  0.00000000000E+00  0.00000000000E+00 -0.15286778684E+04  0.15286778684E+04  0.50400001928E-02 0.  1.
    10030    2    1    2    0    0  0.00000000000E+00  0.00000000000E+00 -0.55752671409E+02  0.30016030654E+04  0.30010852374E+04 0.  0.
        5    1    3    3  502    0 -0.44877393941E+03 -0.58083554788E+03  0.12811038853E+04  0.14764881433E+04  0.46999998093E+01 0. -1.
       -5    1    3    3    0  502  0.44877393941E+03  0.58083554788E+03 -0.13368565567E+04  0.15251149221E+04  0.46999998093E+01 0.  1.
</event>
<event>
 5   0  0.7585823E-07  0.2994274E+04  0.7818609E-02  0.8245368E-01
       -2   -1    0    0    0  501  0.00000000000E+00  0.00000000000E+00  0.13410056022E+04  0.13410056022E+04  0.25500000920E-02 0. -1.
        2   -1    0    0  501    0  0.00000000000E+00  0.00000000000E+00 -0.16714468844E+04  0.16714468844E+04  0.25500000920E-02 0.  1.
    10030    2    1    2    0    0  0.00000000000E+00  0.00000000000E+00 -0.33044128224E+03  0.30124524866E+04  0.29942742933E+04 0.  0.
        5    1    3    3  502    0  0.25443729363E+03 -0.10595652032E+04  0.86764771376E+03  0.13929290726E+04  0.46999998093E+01 0. -1.
       -5    1    3    3    0  502 -0.25443729363E+03  0.10595652032E+04 -0.11980889960E+04  0.16195234140E+04  0.46999998093E+01 0.  1.
</event>
<event>
 5   0  0.2602891E-07  0.2999514E+04  0.7818609E-02  0.8243870E-01
       -1   -1    0    0    0  501  0.00000000000E+00  0.00000000000E+00  0.97768690727E+03  0.97768690728E+03  0.50400001928E-02 0. -1.
        1   -1    0    0  501    0  0.00000000000E+00  0.00000000000E+00 -0.23006050273E+04  0.23006050273E+04  0.50400001928E-02 0.  1.
    10030    2    1    2    0    0  0.00000000000E+00  0.00000000000E+00 -0.13229181200E+04  0.32782919346E+04  0.29995142367E+04 0.  0.
        5    1    3    3  502    0  0.81005276272E+03 -0.75199866342E+03 -0.17693593725E+04  0.20862267727E+04  0.46999998093E+01 0.  1.
       -5    1    3    3    0  502 -0.81005276272E+03  0.75199866342E+03  0.44644125249E+03  0.11920651618E+04  0.46999998093E+01 0. -1.
</event>
<event>
 5   0  0.2621825E-07  0.2986117E+04  0.7818609E-02  0.8247706E-01
        1   -1    0    0  501    0  0.00000000000E+00  0.00000000000E+00  0.13573071366E+04  0.13573071366E+04  0.50400001928E-02 0. -1.
       -1   -1    0    0    0  501  0.00000000000E+00  0.00000000000E+00 -0.16423871731E+04  0.16423871731E+04  0.50400001928E-02 0.  1.
    10030    2    1    2    0    0  0.00000000000E+00  0.00000000000E+00 -0.28508003653E+03  0.29996943097E+04  0.29861170982E+04 0.  0.
        3    1    3    3  502    0  0.98074579094E+03  0.26483257811E+03  0.95661283960E+03  0.13953876651E+04  0.10100000352E+00 0. -1.
       -3    1    3    3    0  502 -0.98074579094E+03 -0.26483257811E+03 -0.12416928761E+04  0.16043066445E+04  0.10100000352E+00 0.  1.
</event>
<event>
 5   0  0.7399409E-07  0.3002491E+04  0.7818609E-02  0.8243020E-01
        2   -1    0    0  501    0  0.00000000000E+00  0.00000000000E+00  0.14320378313E+04  0.14320378313E+04  0.25500000920E-02 0.  1.
       -2   -1    0    0    0  501  0.00000000000E+00  0.00000000000E+00 -0.15737981186E+04  0.15737981186E+04  0.25500000920E-02 0. -1.
    10030    2    1    2    0    0  0.00000000000E+00  0.00000000000E+00 -0.14176028729E+03  0.30058359500E+04  0.30024912621E+04 0.  0.
        3    1    3    3  502    0 -0.13228021778E+04  0.40096198966E+03 -0.65733328522E+03  0.15305760931E+04  0.10100000352E+00 0. -1.
       -3    1    3    3    0  502  0.13228021778E+04 -0.40096198966E+03  0.51557299793E+03  0.14752598568E+04  0.10100000352E+00 0.  1.
</event>
<event>
 5   0  0.2640081E-07  0.2999208E+04  0.7818609E-02  0.8243957E-01
       -1   -1    0    0    0  501  0.00000000000E+00  0.00000000000E+00  0.12647031950E+04  0.12647031950E+04  0.50400001928E-02 0.  1.
        1   -1    0    0  501    0  0.00000000000E+00  0.00000000000E+00 -0.17781347231E+04  0.17781347231E+04  0.50400001928E-02 0. -1.
    10030    2    1    2    0    0  0.00000000000E+00  0.00000000000E+00 -0.51343152816E+03  0.30428379181E+04  0.29992083391E+04 0.  0.
        1    1    3    3  502    0  0.10325863950E+04  0.10862591522E+04 -0.30863695120E+03  0.15301798511E+04  0.50400001928E-02 0.  1.
       -1    1    3    3    0  502 -0.10325863950E+04 -0.10862591522E+04 -0.20479457696E+03  0.15126580670E+04  0.50400001928E-02 0. -1.
</event>
<event>
 5   0  0.2792361E-07  0.2997910E+04  0.7818609E-02  0.8244328E-01
        1   -1    0    0  501    0  0.00000000000E+00  0.00000000000E+00  0.22571155273E+04  0.22571155273E+04  0.50400001928E-02 0.  1.
       -1   -1    0    0    0  501  0.00000000000E+00  0.00000000000E+00 -0.99545919744E+03  0.99545919745E+03  0.50400001928E-02 0. -1.
    10030    2    1    2    0    0  0.00000000000E+00  0.00000000000E+00  0.12616563298E+04  0.32525747247E+04  0.29979102130E+04 0.  0.
        4    1    3    3  502    0 -0.13076587298E+04  0.46561909654E+03  0.12446555724E+04  0.18643877289E+04  0.12699999809E+01 0.  1.
       -4    1    3    3    0  502  0.13076587298E+04 -0.46561909654E+03  0.17000757383E+02  0.13881869958E+04  0.12699999809E+01 0. -1.
</event>
<event>
 5   0  0.2602891E-07  0.3011466E+04  0.7818609E-02  0.8240464E-01
        1   -1    0    0  501    0  0.00000000000E+00  0.00000000000E+00  0.18861097638E+04  0.18861097638E+04  0.50400001928E-02 0.  1.
       -1   -1    0    0    0  501  0.00000000000E+00  0.00000000000E+00 -0.12020682071E+04  0.12020682071E+04  0.50400001928E-02 0. -1.
    10030    2    1    2    0    0  0.00000000000E+00  0.00000000000E+00  0.68404155664E+03  0.30881779709E+04  0.30114664748E+04 0.  0.
        5    1    3    3  502    0  0.10329528587E+04 -0.22814463619E+03 -0.75680079951E+03  0.13006963994E+04  0.46999998093E+01 0. -1.
       -5    1    3    3    0  502 -0.10329528587E+04  0.22814463619E+03  0.14408423562E+04  0.17874815715E+04  0.46999998093E+01 0.  1.
</event>
<event>
 5   0  0.2640081E-07  0.2999239E+04  0.7818609E-02  0.8243948E-01
       -1   -1    0    0    0  501  0.00000000000E+00  0.00000000000E+00  0.13530088318E+04  0.13530088318E+04  0.50400001928E-02 0. -1.
        1   -1    0    0  501    0  0.00000000000E+00  0.00000000000E+00 -0.16621169586E+04  0.16621169586E+04  0.50400001928E-02 0.  1.
    10030    2    1    2    0    0  0.00000000000E+00  0.00000000000E+00 -0.30910812676E+03  0.30151257905E+04  0.29992391866E+04 0.  0.
        1    1    3    3  502    0 -0.33011472126E+03 -0.30753275343E+03  0.12831634565E+04  0.13601693202E+04  0.50400001928E-02 0. -1.
       -1    1    3    3    0  502  0.33011472126E+03  0.30753275343E+03 -0.15922715832E+04  0.16549564702E+04  0.50400001928E-02 0.  1.
</event>
<event>
 5   0  0.2640081E-07  0.2992359E+04  0.7818609E-02  0.8245916E-01
       -1   -1    0    0    0  501  0.00000000000E+00  0.00000000000E+00  0.80685563852E+03  0.80685563853E+03  0.50400001928E-02 0. -1.
        1   -1    0    0  501    0  0.00000000000E+00  0.00000000000E+00 -0.27744157229E+04  0.27744157229E+04  0.50400001928E-02 0.  1.
    10030    2    1    2    0    0  0.00000000000E+00  0.00000000000E+00 -0.19675600844E+04  0.35812713614E+04  0.29923589154E+04 0.  0.
        1    1    3    3  502    0  0.14223887764E+04 -0.39155472402E+03 -0.12818976091E+04  0.19544222710E+04  0.50400001928E-02 0.  1.
       -1    1    3    3    0  502 -0.14223887764E+04  0.39155472402E+03 -0.68566247522E+03  0.16268490904E+04  0.50400001928E-02 0. -1.
</event>
<event>
 5   0  0.7208273E-07  0.3000559E+04  0.7818609E-02  0.8243571E-01
       -2   -1    0    0    0  501  0.00000000000E+00  0.00000000000E+00  0.92005838942E+03  0.92005838942E+03  0.25500000920E-02 0.  1.
        2   -1    0    0  501    0  0.00000000000E+00  0.00000000000E+00 -0.24464088677E+04  0.24464088677E+04  0.25500000920E-02 0. -1.
    10030    2    1    2    0    0  0.00000000000E+00  0.00000000000E+00 -0.15263504783E+04  0.33664672572E+04  0.30005592830E+04 0.  0.
        4    1    3    3  502    0 -0.46415222933E+03  0.14207574578E+04 -0.61754525865E+03  0.16172052453E+04  0.12699999809E+01 0.  1.
       -4    1    3    3    0  502  0.46415222933E+03 -0.14207574578E+04 -0.90880521967E+03  0.17492620119E+04  0.12699999809E+01 0. -1.
</event>
<event>
 5   0  0.2792361E-07  0.2998234E+04  0.7818609E-02  0.8244235E-01
        1   -1    0    0  501    0  0.00000000000E+00  0.00000000000E+00  0.15645956865E+04  0.15645956865E+04  0.50400001928E-02 0. -1.
       -1   -1    0    0    0  501  0.00000000000E+00  0.00000000000E+00 -0.14363781563E+04  0.14363781563E+04  0.50400001928E-02 0.  1.
    10030    2    1    2    0    0  0.00000000000E+00  0.00000000000E+00  0.12821753019E+03  0.30009738428E+04  0.29982335250E+04 0.  0.
        4    1    3    3  502    0 -0.67794508507E+03  0.92333282173E+03  0.10320481716E+04  0.15418424302E+04  0.12699999809E+01 0. -1.
       -4    1    3    3    0  502  0.67794508507E+03 -0.92333282173E+03 -0.90383064142E+03  0.14591314126E+04  0.12699999809E+01 0.  1.
</event>
<event>
 5   0  0.2640081E-07  0.2997113E+04  0.7818609E-02  0.8244556E-01
       -1   -1    0    0    0  501  0.00000000000E+00  0.00000000000E+00  0.14038540337E+04  0.14038540337E+04  0.50400001928E-02 0.  1.
        1   -1    0    0  501    0  0.00000000000E+00  0.00000000000E+00 -0.15996471505E+04  0.15996471505E+04  0.50400001928E-02 0. -1.
    10030    2    1    2    0    0  0.00000000000E+00  0.00000000000E+00 -0.19579311682E+03  0.30035011842E+04  0.29971126803E+04 0.  0.
        1    1    3    3  502    0  0.56066274324E+03  0.12264510875E+03 -0.14851472960E+04  0.15921831004E+04  0.50400001928E-02 0. -1.
       -1    1    3    3    0  502 -0.56066274324E+03 -0.12264510875E+03  0.12893541791E+04  0.14113180838E+04  0.50400001928E-02 0.  1.
</event>
<event>
 5   0  0.2621825E-07  0.3001530E+04  0.7818609E-02  0.8243294E-01
        1   -1    0    0  501    0  0.00000000000E+00  0.00000000000E+00  0.12321122211E+04  0.12321122211E+04  0.50400001928E-02 0. -1.
       -1   -1    0    0    0  501  0.00000000000E+00  0.00000000000E+00 -0.18279954643E+04  0.18279954643E+04  0.50400001928E-02 0.  1.
    10030    2    1    2    0    0  0.00000000000E+00  0.00000000000E+00 -0.59588324319E+03  0.30601076855E+04  0.30015299777E+04 0.  0.
        3    1    3    3  502    0 -0.10019572712E+04 -0.19730394491E+02 -0.14368773270E+04  0.17518345027E+04  0.10100000352E+00 0.  1.
       -3    1    3    3    0  502  0.10019572712E+04  0.19730394491E+02  0.84099408376E+03  0.13082731828E+04  0.10100000352E+00 0. -1.
</event>
<event>
 5   0  0.2621825E-07  0.2995354E+04  0.7818609E-02  0.8245059E-01
        1   -1    0    0  501    0  0.00000000000E+00  0.00000000000E+00  0.15959134252E+04  0.15959134252E+04  0.50400001928E-02 0. -1.
       -1   -1    0    0    0  501  0.00000000000E+00  0.00000000000E+00 -0.14054879025E+04  0.14054879025E+04  0.50400001928E-02 0.  1.
    10030    2    1    2    0    0  0.00000000000E+00  0.00000000000E+00  0.19042552265E+03  0.30014013277E+04  0.29953544115E+04 0.  0.
        3    1    3    3  502    0 -0.69574212535E+03  0.86737613248E+03 -0.91012647381E+03  0.14369163750E+04  0.10100000352E+00 0.  1.
       -3    1    3    3    0  502  0.69574212535E+03 -0.86737613248E+03  0.11005519965E+04  0.15644849527E+04  0.10100000352E+00 0. -1.
</event>
<event>
 5   0  0.7208273E-07  0.2998191E+04  0.7818609E-02  0.8244248E-01
        2   -1    0    0  501    0  0.00000000000E+00  0.00000000000E+00  0.14035220398E+04  0.14035220398E+04  0.25500000920E-02 0.  1.
       -2   -1    0    0    0  501  0.00000000000E+00  0.00000000000E+00 -0.16011775638E+04  0.16011775638E+04  0.25500000920E-02 0. -1.
    10030    2    1    2    0    0  0.00000000000E+00  0.00000000000E+00 -0.19765552394E+03  0.30046996036E+04  0.29981914551E+04 0.  0.
        4    1    3    3  502    0 -0.88044403885E+03  0.37607858969E+03  0.10572227527E+04  0.14263023427E+04  0.12699999809E+01 0.  1.
       -4    1    3    3    0  502  0.88044403885E+03 -0.37607858969E+03 -0.12548782766E+04  0.15783972609E+04  0.12699999809E+01 0. -1.
</event>
<event>
 5   0  0.2679935E-07  0.3001511E+04  0.7818609E-02  0.8243300E-01
        1   -1    0    0  501    0  0.00000000000E+00  0.00000000000E+00  0.20524492855E+04  0.20524492855E+04  0.50400001928E-02 0. -1.
       -1   -1    0    0    0  501  0.00000000000E+00  0.00000000000E+00 -0.10973554444E+04  0.10973554444E+04  0.50400001928E-02 0.  1.
    10030    2    1    2    0    0  0.00000000000E+00  0.00000000000E+00  0.95509384111E+03  0.31498047300E+04  0.30015105516E+04 0.  0.
        2    1    3    3  502    0 -0.11651420568E+04  0.42529572938E+03  0.13641767722E+04  0.18437490978E+04  0.25500000920E-02 0. -1.
       -2    1    3    3    0  502  0.11651420568E+04 -0.42529572938E+03 -0.40908293106E+03  0.13060556322E+04  0.25500000920E-02 0.  1.
</event>
<event>
 5   0  0.2792361E-07  0.3004359E+04  0.7818609E-02  0.8242487E-01
       -1   -1    0    0    0  501  0.00000000000E+00  0.00000000000E+00  0.12404852371E+04  0.12404852371E+04  0.50400001928E-02 0.  1.
        1   -1    0    0  501    0  0.00000000000E+00  0.00000000000E+00 -0.18190810254E+04  0.18190810254E+04  0.50400001928E-02 0. -1.
    10030    2    1    2    0    0  0.00000000000E+00  0.00000000000E+00 -0.57859578831E+03  0.30595662626E+04  0.30043589381E+04 0.  0.
        4    1    3    3  502    0 -0.10879257246E+04 -0.15478587837E+02 -0.13440518155E+04  0.17292480633E+04  0.12699999809E+01 0. -1.
       -4    1    3    3    0  502  0.10879257246E+04  0.15478587837E+02  0.76545602715E+03  0.13303181993E+04  0.12699999809E+01 0.  1.
</event>
<event>
 5   0  0.7208273E-07  0.2967423E+04  0.7818609E-02  0.8253095E-01
       -2   -1    0    0    0  501  0.00000000000E+00  0.00000000000E+00  0.15344917789E+04  0.15344917789E+04  0.25500000920E-02 0. -1.
        2   -1    0    0  501    0  0.00000000000E+00  0.00000000000E+00 -0.14346116331E+04  0.14346116331E+04  0.25500000920E-02 0.  1.
    10030    2    1    2    0    0  0.00000000000E+00  0.00000000000E+00  0.99880145835E+02  0.29691034119E+04  0.29674229606E+04 0.  0.
        4    1    3    3  502    0 -0.67668050711E+02  0.86098646429E+03  0.12570732376E+04  0.15251594652E+04  0.12699999809E+01 0. -1.
       -4    1    3    3    0  502  0.67668050711E+02 -0.86098646429E+03 -0.11571930918E+04  0.14439439467E+04  0.12699999809E+01 0.  1.
</event>
<event>
 5   0  0.7585823E-07  0.3002762E+04  0.7818609E-02  0.8242943E-01
        2   -1    0    0  501    0  0.00000000000E+00  0.00000000000E+00  0.18181638226E+04  0.18181638226E+04  0.25500000920E-02 0. -1.
       -2   -1    0    0    0  501  0.00000000000E+00  0.00000000000E+00 -0.12397920500E+04  0.12397920500E+04  0.25500000920E-02 0.  1.
    10030    2    1    2    0    0  0.00000000000E+00  0.00000000000E+00  0.57837177260E+03  0.30579558726E+04  0.30027620971E+04 0.  0.
        5    1    3    3  502    0  0.13935258312E+04 -0.12599010742E+03 -0.26518692134E+03  0.14241256766E+04  0.46999998093E+01 0.  1.
       -5    1    3    3    0  502 -0.13935258312E+04  0.12599010742E+03  0.84355869393E+03  0.16338301960E+04  0.46999998093E+01 0. -1.
</event>
<event>
 5   0  0.2792361E-07  0.2994949E+04  0.7818609E-02  0.8245175E-01
       -1   -1    0    0    0  501  0.00000000000E+00  0.00000000000E+00  0.13114974474E+04  0.13114974474E+04  0.50400001928E-02 0.  1.
        1   -1    0    0  501    0  0.00000000000E+00  0.00000000000E+00 -0.17098241397E+04  0.17098241397E+04  0.50400001928E-02 0. -1.
    10030    2    1    2    0    0  0.00000000000E+00  0.00000000000E+00 -0.39832669231E+03  0.30213215871E+04  0.29949490778E+04 0.  0.
        4    1    3    3  502    0  0.18374236552E+03  0.11650654294E+04 -0.11299415243E+04  0.16333732497E+04  0.12699999809E+01 0. -1.
       -4    1    3    3    0  502 -0.18374236552E+03 -0.11650654294E+04  0.73161483201E+03  0.13879483373E+04  0.12699999809E+01 0.  1.
</event>
<event>
 5   0  0.7208273E-07  0.3006966E+04  0.7818609E-02  0.8241745E-01
       -2   -1    0    0    0  501  0.00000000000E+00  0.00000000000E+00  0.14622701648E+04  0.14622701648E+04  0.25500000920E-02 0. -1.
        2   -1    0    0  501    0  0.00000000000E+00  0.00000000000E+00 -0.15458570063E+04  0.15458570063E+04  0.25500000920E-02 0.  1.
    10030    2    1    2    0    0  0.00000000000E+00  0.00000000000E+00 -0.83586841459E+02  0.30081271711E+04  0.30069656329E+04 0.  0.
        4    1    3    3  502    0 -0.10024428549E+04  0.51898047553E+03 -0.10352664332E+04  0.15316692240E+04  0.12699999809E+01 0.  1.
       -4    1    3    3    0  502  0.10024428549E+04 -0.51898047553E+03  0.95167959173E+03  0.14764579471E+04  0.12699999809E+01 0. -1.
</event>
<event>
 5   0  0.7399409E-07  0.3009082E+04  0.7818609E-02  0.8241142E-01
        2   -1    0    0  501    0  0.00000000000E+00  0.00000000000E+00  0.18516555802E+04  0.18516555802E+04  0.25500000920E-02 0.  1.
       -2   -1    0    0    0  501  0.00000000000E+00  0.00000000000E+00 -0.12224972505E+04  0.12224972505E+04  0.25500000920E-02 0. -1.
    10030    2    1    2    0    0  0.00000000000E+00  0.00000000000E+00  0.62915832975E+03  0.30741528307E+04  0.30090821562E+04 0.  0.
        3    1    3    3  502    0 -0.46658737373E+03  0.77807318273E+03  0.15407596512E+04  0.17880273957E+04  0.10100000352E+00 0.  1.
       -3    1    3    3    0  502  0.46658737373E+03 -0.77807318273E+03 -0.91160132144E+03  0.12861254350E+04  0.10100000352E+00 0. -1.
</event>
<event>
 5   0  0.2602891E-07  0.2997322E+04  0.7818609E-02  0.8244496E-01
        1   -1    0    0  501    0  0.00000000000E+00  0.00000000000E+00  0.19749709055E+04  0.19749709055E+04  0.50400001928E-02 0.  1.
       -1   -1    0    0    0  501  0.00000000000E+00  0.00000000000E+00 -0.11372243697E+04  0.11372243698E+04  0.50400001928E-02 0. -1.
    10030    2    1    2    0    0  0.00000000000E+00  0.00000000000E+00  0.83774653577E+03  0.31121952753E+04  0.29973221671E+04 0.  0.
        5    1    3    3  502    0 -0.87706208961E+03  0.79086128667E+03 -0.53912651773E+03  0.12982214664E+04  0.46999998093E+01 0. -1.
       -5    1    3    3    0  502  0.87706208961E+03 -0.79086128667E+03  0.13768730535E+04  0.18139738089E+04  0.46999998093E+01 0.  1.
</event>
<event>
 5   0  0.7278657E-07  0.3000260E+04  0.7818609E-02  0.8243657E-01
       -2   -1    0    0    0  501  0.00000000000E+00  0.00000000000E+00  0.13172957324E+04  0.13172957324E+04  0.25500000920E-02 0. -1.
        2   -1    0    0  501    0  0.00000000000E+00  0.00000000000E+00 -0.17083406835E+04  0.17083406835E+04  0.25500000920E-02 0.  1.
    10030    2    1    2    0    0  0.00000000000E+00  0.00000000000E+00 -0.39104495115E+03  0.30256364159E+04  0.30002599166E+04 0.  0.
        2    1    3    3  502    0 -0.79230032043E+03 -0.12486123164E+04 -0.44988067372E+03  0.15456924451E+04  0.25500000920E-02 0.  1.
       -2    1    3    3    0  502  0.79230032043E+03  0.12486123164E+04  0.58835722567E+02  0.14799439708E+04  0.25500000920E-02 0. -1.
</event>
<event>
 5   0  0.2414250E-07  0.2997824E+04  0.7818609E-02  0.8244352E-01
       -3   -1    0    0    0  501  0.00000000000E+00  0.00000000000E+00  0.13830785513E+04  0.13830785550E+04  0.10100000352E+00 0. -1.
        3   -1    0    0  501    0  0.00000000000E+00  0.00000000000E+00 -0.16244469976E+04  0.16244470008E+04  0.10100000352E+00 0.  1.
    10030    2    1    2    0    0  0.00000000000E+00  0.00000000000E+00 -0.24136844635E+03  0.30075255558E+04  0.29978244181E+04 0.  0.
        4    1    3    3  502    0  0.68246231079E+03  0.91711063455E+03 -0.10933004860E+04  0.15818199288E+04  0.12699999809E+01 0.  1.
       -4    1    3    3    0  502 -0.68246231079E+03 -0.91711063455E+03  0.85193203962E+03  0.14257056269E+04  0.12699999809E+01 0. -1.
</event>
<event>
 5   0  0.7278657E-07  0.3001508E+04  0.7818609E-02  0.8243300E-01
        2   -1    0    0  501    0  0.00000000000E+00  0.00000000000E+00  0.12784034729E+04  0.12784034729E+04  0.25500000920E-02 0.  1.
       -2   -1    0    0    0  501  0.00000000000E+00  0.00000000000E+00 -0.17617773214E+04  0.17617773214E+04  0.25500000920E-02 0. -1.
    10030    2    1    2    0    0  0.00000000000E+00  0.00000000000E+00 -0.48337384845E+03  0.30401807943E+04  0.30015077852E+04 0.  0.
        2    1    3    3  502    0  0.13012373374E+03  0.78186110428E+02 -0.17539805073E+04  0.17605376661E+04  0.25500000920E-02 0. -1.
       -2    1    3    3    0  502 -0.13012373374E+03 -0.78186110428E+02  0.12706066588E+04  0.12796431282E+04  0.25500000920E-02 0.  1.
</event>
<event>
 5   0  0.2621825E-07  0.3008340E+04  0.7818609E-02  0.8241353E-01
       -1   -1    0    0    0  501  0.00000000000E+00  0.00000000000E+00  0.17563836475E+04  0.17563836476E+04  0.50400001928E-02 0.  1.
        1   -1    0    0  501    0  0.00000000000E+00  0.00000000000E+00 -0.12881739544E+04  0.12881739544E+04  0.50400001928E-02 0. -1.
    10030    2    1    2    0    0  0.00000000000E+00  0.00000000000E+00  0.46820969320E+03  0.30445576019E+04  0.30083401860E+04 0.  0.
        3    1    3    3  502    0  0.15939274073E+03 -0.51559912966E+02 -0.12787032916E+04  0.12896304077E+04  0.10100000352E+00 0. -1.
       -3    1    3    3    0  502 -0.15939274073E+03  0.51559912966E+02  0.17469129848E+04  0.17549271942E+04  0.10100000352E+00 0.  1.
</event>
<event>
 5   0  0.7399409E-07  0.3002985E+04  0.7818609E-02  0.8242879E-01
        2   -1    0    0  501    0  0.00000000000E+00  0.00000000000E+00  0.25363401229E+04  0.25363401229E+04  0.25500000920E-02 0. -1.
       -2   -1    0    0    0  501  0.00000000000E+00  0.00000000000E+00 -0.88887113535E+03  0.88887113536E+03  0.25500000920E-02 0.  1.
    10030    2    1    2    0    0  0.00000000000E+00  0.00000000000E+00  0.16474689875E+04  0.34252112582E+04  0.30029848649E+04 0.  0.
        3    1    3    3  502    0 -0.38360517079E+03 -0.84812032123E+02 -0.82920772145E+03  0.91756823363E+03  0.10100000352E+00 0.  1.
       -3    1    3    3    0  502  0.38360517079E+03  0.84812032123E+02  0.24766767090E+04  0.25076430246E+04  0.10100000352E+00 0. -1.
</event>
<event>
 5   0  0.2792361E-07  0.2989462E+04  0.7818609E-02  0.8246747E-01
        1   -1    0    0  501    0  0.00000000000E+00  0.00000000000E+00  0.95920031232E+03  0.95920031233E+03  0.50400001928E-02 0. -1.
       -1   -1    0    0    0  501  0.00000000000E+00  0.00000000000E+00 -0.23292531834E+04  0.23292531834E+04  0.50400001928E-02 0.  1.
    10030    2    1    2    0    0  0.00000000000E+00  0.00000000000E+00 -0.13700528710E+04  0.32884534957E+04  0.29894617448E+04 0.  0.
        4    1    3    3  502    0 -0.85295685706E+03  0.12231364185E+04 -0.57166256687E+03  0.15969964939E+04  0.12699999809E+01 0.  1.
       -4    1    3    3    0  502  0.85295685706E+03 -0.12231364185E+04 -0.79839030417E+03  0.16914570018E+04  0.12699999809E+01 0. -1.
</event>
<event>
 5   0  0.2640081E-07  0.2992325E+04  0.7818609E-02  0.8245926E-01
        1   -1    0    0  501    0  0.00000000000E+00  0.00000000000E+00  0.25501699843E+04  0.25501699843E+04  0.50400001928E-02 0. -1.
       -1   -1    0    0    0  501  0.00000000000E+00  0.00000000000E+00 -0.87778534354E+03  0.87778534355E+03  0.50400001928E-02 0.  1.
    10030    2    1    2    0    0  0.00000000000E+00  0.00000000000E+00  0.16723846408E+04  0.34279553279E+04  0.29923247389E+04 0.  0.
        1    1    3    3  502    0 -0.11384115489E+04 -0.73080513951E+03  0.15683306293E+04  0.20711634338E+04  0.50400001928E-02 0. -1.
       -1    1    3    3    0  502  0.11384115489E+04  0.73080513951E+03  0.10405401148E+03  0.13567918941E+04  0.50400001928E-02 0.  1.
</event>
<event>
 5   0  0.7278657E-07  0.2999050E+04  0.7818609E-02  0.8244002E-01
        2   -1    0    0  501    0  0.00000000000E+00  0.00000000000E+00  0.13435179736E+04  0.13435179736E+04  0.25500000920E-02 0.  1.
       -2   -1    0    0    0  501  0.00000000000E+00  0.00000000000E+00 -0.16736472268E+04  0.16736472268E+04  0.25500000920E-02 0. -1.
    10030    2    1    2    0    0  0.00000000000E+00  0.00000000000E+00 -0.33012925320E+03  0.30171652005E+04  0.29990499367E+04 0.  0.
        2    1    3    3  502    0  0.49892979667E+03 -0.67360084097E+03 -0.14159195654E+04  0.16454474317E+04  0.25500000920E-02 0. -1.
       -2    1    3    3    0  502 -0.49892979667E+03  0.67360084097E+03  0.10857903122E+04  0.13717177687E+04  0.25500000920E-02 0.  1.
</event>
<event>
 5   0  0.2621825E-07  0.2999950E+04  0.7818609E-02  0.8243745E-01
       -1   -1    0    0    0  501  0.00000000000E+00  0.00000000000E+00  0.17645373638E+04  0.17645373638E+04  0.50400001928E-02 0.  1.
        1   -1    0    0  501    0  0.00000000000E+00  0.00000000000E+00 -0.12750791221E+04  0.12750791221E+04  0.50400001928E-02 0. -1.
    10030    2    1    2    0    0  0.00000000000E+00  0.00000000000E+00  0.48945824164E+03  0.30396164859E+04  0.29999498348E+04 0.  0.
        3    1    3    3  502    0  0.57768137350E+03 -0.41501350350E+03 -0.10933279830E+04  0.13043458383E+04  0.10100000352E+00 0. -1.
       -3    1    3    3    0  502 -0.57768137350E+03  0.41501350350E+03  0.15827862246E+04  0.17352706476E+04  0.10100000352E+00 0.  1.
</event>
<event>
 5   0  0.7208273E-07  0.2994315E+04  0.7818609E-02  0.8245356E-01
       -2   -1    0    0    0  501  0.00000000000E+00  0.00000000000E+00  0.76286927437E+03  0.76286927438E+03  0.25500000920E-02 0. -1.
        2   -1    0    0  501    0  0.00000000000E+00  0.00000000000E+00 -0.29382227548E+04  0.29382227548E+04  0.25500000920E-02 0.  1.
    10030    2    1    2    0    0  0.00000000000E+00  0.00000000000E+00 -0.21753534804E+04  0.37010920292E+04  0.29943145198E+04 0.  0.
        4    1    3    3  502    0 -0.59727890403E+03 -0.11650923488E+04 -0.19852289016E+04  0.23780911831E+04  0.12699999809E+01 0.  1.
       -4    1    3    3    0  502  0.59727890403E+03  0.11650923488E+04 -0.19012457880E+03  0.13230008461E+04  0.12699999809E+01 0. -1.
</event>
<event>
 5   0  0.7399409E-07  0.2985271E+04  0.7818609E-02  0.8247949E-01
        2   -1    0    0  501    0  0.00000000000E+00  0.00000000000E+00  0.13043299518E+04  0.13043299518E+04  0.25500000920E-02 0. -1.
       -2   -1    0    0    0  501  0.00000000000E+00  0.00000000000E+00 -0.17081262417E+04  0.17081262417E+04  0.25500000920E-02 0.  1.
    10030    2    1    2    0    0  0.00000000000E+00  0.00000000000E+00 -0.40379628986E+03  0.30124561935E+04  0.29852706534E+04 0.  0.
        3    1    3    3  502    0  0.26433537724E+02  0.10795140561E+04 -0.12417729684E+04  0.16456152176E+04  0.10100000352E+00 0.  1.
       -3    1    3    3    0  502 -0.26433537724E+02 -0.10795140561E+04  0.83797667858E+03  0.13668409758E+04  0.10100000352E+00 0. -1.
</event>
<event>
 5   0  0.7585823E-07  0.2999365E+04  0.7818609E-02  0.8243912E-01
       -2   -1    0    0    0  501  0.00000000000E+00  0.00000000000E+00  0.10373802017E+04  0.10373802017E+04  0.25500000920E-02 0.  1.
        2   -1    0    0  501    0  0.00000000000E+00  0.00000000000E+00 -0.21680077206E+04  0.21680077206E+04  0.25500000920E-02 0. -1.
    10030    2    1    2    0    0  0.00000000000E+00  0.00000000000E+00 -0.11306275189E+04  0.32053879222E+04  0.29993654572E+04 0.  0.
        5    1    3    3  502    0 -0.53888993997E+03 -0.11066378104E+04 -0.14808853609E+04  0.19256409720E+04  0.46999998093E+01 0. -1.
       -5    1    3    3    0  502  0.53888993997E+03  0.11066378104E+04  0.35025784199E+03  0.12797469503E+04  0.46999998093E+01 0.  1.
</event>
<event>
 5   0  0.2792361E-07  0.2998301E+04  0.7818609E-02  0.8244216E-01
       -1   -1    0    0    0  501  0.00000000000E+00  0.00000000000E+00  0.96549879806E+03  0.96549879807E+03  0.50400001928E-02 0. -1.
        1   -1    0    0  501    0  0.00000000000E+00  0.00000000000E+00 -0.23277625552E+04  0.23277625552E+04  0.50400001928E-02 0.  1.
    10030    2    1    2    0    0  0.00000000000E+00  0.00000000000E+00 -0.13622637572E+04  0.32932613533E+04  0.29983008183E+04 0.  0.
        4    1    3    3  502    0 -0.11085936178E+04 -0.43071359789E+03 -0.16835804682E+04  0.20612954225E+04  0.12699999809E+01 0.  1.
       -4    1    3    3    0  502  0.11085936178E+04  0.43071359789E+03  0.32131671108E+03  0.12319659308E+04  0.12699999809E+01 0. -1.
</event>
<event>
 5   0  0.2621825E-07  0.2993654E+04  0.7818609E-02  0.8245545E-01
        1   -1    0    0  501    0  0.00000000000E+00  0.00000000000E+00  0.25053260216E+04  0.25053260216E+04  0.50400001928E-02 0.  1.
       -1   -1    0    0    0  501  0.00000000000E+00  0.00000000000E+00 -0.89429101288E+03  0.89429101290E+03  0.50400001928E-02 0. -1.
    10030    2    1    2    0    0  0.00000000000E+00  0.00000000000E+00  0.16110350087E+04  0.33996170345E+04  0.29936536510E+04 0.  0.
        3    1    3    3  502    0  0.10500712738E+04 -0.43062834444E+03  0.19137685655E+04  0.22249945132E+04  0.10100000352E+00 0.  1.
       -3    1    3    3    0  502 -0.10500712738E+04  0.43062834444E+03 -0.30273355677E+03  0.11746225214E+04  0.10100000352E+00 0. -1.
</event>
<event>
 5   0  0.2602891E-07  0.3007370E+04  0.7818609E-02  0.8241630E-01
        1   -1    0    0  501    0  0.00000000000E+00  0.00000000000E+00  0.22892343421E+04  0.22892343421E+04  0.50400001928E-02 0.  1.
       -1   -1    0    0    0  501  0.00000000000E+00  0.00000000000E+00 -0.98769633364E+03  0.98769633366E+03  0.50400001928E-02 0. -1.
    10030    2    1    2    0    0  0.00000000000E+00  0.00000000000E+00  0.13015380085E+04  0.32769306758E+04  0.30073698586E+04 0.  0.
        5    1    3    3  502    0  0.60670294149E+03  0.10436194625E+04 -0.32615053946E+03  0.12504504413E+04  0.46999998093E+01 0. -1.
       -5    1    3    3    0  502 -0.60670294149E+03 -0.10436194625E+04  0.16276885479E+04  0.20264802345E+04  0.46999998093E+01 0.  1.
</event>
<event>
 5   0  0.7208273E-07  0.2996122E+04  0.7818609E-02  0.8244839E-01
        2   -1    0    0  501    0  0.00000000000E+00  0.00000000000E+00  0.17172338059E+04  0.17172338059E+04  0.25500000920E-02 0. -1.
       -2   -1    0    0    0  501  0.00000000000E+00  0.00000000000E+00 -0.13068612626E+04  0.13068612626E+04  0.25500000920E-02 0.  1.
    10030    2    1    2    0    0  0.00000000000E+00  0.00000000000E+00  0.41037254326E+03  0.30240950685E+04  0.29961217196E+04 0.  0.
        4    1    3    3  502    0  0.96025716733E+03  0.11442929815E+04  0.31886316144E+03  0.15274735950E+04  0.12699999809E+01 0. -1.
       -4    1    3    3    0  502 -0.96025716733E+03 -0.11442929815E+04  0.91509381818E+02  0.14966214734E+04  0.12699999809E+01 0.  1.
</event>
<event>
 5   0  0.7307508E-07  0.3020172E+04  0.7818609E-02  0.8237994E-01
        2   -1    0    0  501    0  0.00000000000E+00  0.00000000000E+00  0.19994787611E+04  0.19994787611E+04  0.25500000920E-02 0. -1.
       -2   -1    0    0    0  501  0.00000000000E+00  0.00000000000E+00 -0.11404771559E+04  0.11404771559E+04  0.25500000920E-02 0.  1.
    10030    2    1    2    0    0  0.00000000000E+00  0.00000000000E+00  0.85900160522E+03  0.31399559170E+04  0.30201720817E+04 0.  0.
        1    1    3    3  502    0  0.37796733017E+03 -0.21601065572E+03 -0.10738220400E+04  0.11587120780E+04  0.50400001928E-02 0.  1.
       -1    1    3    3    0  502 -0.37796733017E+03  0.21601065572E+03  0.19328236452E+04  0.19812438390E+04  0.50400001928E-02 0. -1.
</event>
<event>
 5   0  0.7585823E-07  0.2999593E+04  0.7818609E-02  0.8243847E-01
        2   -1    0    0  501    0  0.00000000000E+00  0.00000000000E+00  0.22695275998E+04  0.22695275998E+04  0.25500000920E-02 0. -1.
       -2   -1    0    0    0  501  0.00000000000E+00  0.00000000000E+00 -0.99112679919E+03  0.99112679919E+03  0.25500000920E-02 0.  1.
    10030    2    1    2    0    0  0.00000000000E+00  0.00000000000E+00  0.12784008006E+04  0.32606543990E+04  0.29995930562E+04 0.  0.
        5    1    3    3  502    0 -0.28986157376E+02 -0.58325245655E+03 -0.86245662394E+03  0.10415743582E+04  0.46999998093E+01 0.  1.
       -5    1    3    3    0  502  0.28986157376E+02  0.58325245655E+03  0.21408574245E+04  0.22190800408E+04  0.46999998093E+01 0. -1.
</event>
<event>
 5   0  0.7208273E-07  0.3001539E+04  0.7818609E-02  0.8243292E-01
       -2   -1    0    0    0  501  0.00000000000E+00  0.00000000000E+00  0.12616138513E+04  0.12616138513E+04  0.25500000920E-02 0. -1.
        2   -1    0    0  501    0  0.00000000000E+00  0.00000000000E+00 -0.17852602488E+04  0.17852602488E+04  0.25500000920E-02 0.  1.
    10030    2    1    2    0    0  0.00000000000E+00  0.00000000000E+00 -0.52364639748E+03  0.30468741001E+04  0.30015389773E+04 0.  0.
        4    1    3    3  502    0 -0.13106136090E+04  0.44798604853E+03  0.32475224457E+03  0.14226261508E+04  0.12699999809E+01 0. -1.
       -4    1    3    3    0  502  0.13106136090E+04 -0.44798604853E+03 -0.84839864205E+03  0.16242479492E+04  0.12699999809E+01 0.  1.
</event>
<event>
 5   0  0.7278657E-07  0.2967697E+04  0.7818609E-02  0.8253016E-01
       -2   -1    0    0    0  501  0.00000000000E+00  0.00000000000E+00  0.92072204059E+03  0.92072204059E+03  0.25500000920E-02 0. -1.
        2   -1    0    0  501    0  0.00000000000E+00  0.00000000000E+00 -0.23913901716E+04  0.23913901716E+04  0.25500000920E-02 0.  1.
    10030    2    1    2    0    0  0.00000000000E+00  0.00000000000E+00 -0.14706681310E+04  0.33121122122E+04  0.29676965065E+04 0.  0.
        2    1    3    3  502    0  0.31998269933E+03  0.14522497326E+03  0.87361551746E+03  0.94163862128E+03  0.25500000920E-02 0. -1.
       -2    1    3    3    0  502 -0.31998269933E+03 -0.14522497326E+03 -0.23442836484E+04  0.23704735909E+04  0.25500000920E-02 0.  1.
</event>
<event>
 5   0  0.7585823E-07  0.3006130E+04  0.7818609E-02  0.8241983E-01
       -2   -1    0    0    0  501  0.00000000000E+00  0.00000000000E+00  0.86920703683E+03  0.86920703683E+03  0.25500000920E-02 0.  1.
        2   -1    0    0  501    0  0.00000000000E+00  0.00000000000E+00 -0.25991557346E+04  0.25991557346E+04  0.25500000920E-02 0. -1.
    10030    2    1    2    0    0  0.00000000000E+00  0.00000000000E+00 -0.17299486978E+04  0.34683627715E+04  0.30061300400E+04 0.  0.
        5    1    3    3  502    0  0.94823582133E+03 -0.11582615617E+04 -0.70820959072E+03  0.16559903177E+04  0.46999998093E+01 0.  1.
       -5    1    3    3    0  502 -0.94823582133E+03  0.11582615617E+04 -0.10217391071E+04  0.18123724537E+04  0.46999998093E+01 0. -1.
</event>
<event>
 5   0  0.7585823E-07  0.3000397E+04  0.7818609E-02  0.8243617E-01
        2   -1    0    0  501    0  0.00000000000E+00  0.00000000000E+00  0.21936801514E+04  0.21936801514E+04  0.25500000920E-02 0. -1.
       -2   -1    0    0    0  501  0.00000000000E+00  0.00000000000E+00 -0.10259453745E+04  0.10259453745E+04  0.25500000920E-02 0.  1.
    10030    2    1    2    0    0  0.00000000000E+00  0.00000000000E+00  0.11677347768E+04  0.32196255259E+04  0.30003973100E+04 0.  0.
        5    1    3    3  502    0 -0.10449948783E+04 -0.32735430582E+03  0.16841654004E+04  0.20088828545E+04  0.46999998093E+01 0. -1.
       -5    1    3    3    0  502  0.10449948783E+04  0.32735430582E+03 -0.51643062357E+03  0.12107426713E+04  0.46999998093E+01 0.  1.
</event>
<event>
 5   0  0.2679935E-07  0.3001862E+04  0.7818609E-02  0.8243199E-01
        1   -1    0    0  501    0  0.00000000000E+00  0.00000000000E+00  0.17010792345E+04  0.17010792345E+04  0.50400001928E-02 0. -1.
       -1   -1    0    0    0  501  0.00000000000E+00  0.00000000000E+00 -0.13243319103E+04  0.13243319103E+04  0.50400001928E-02 0.  1.
    10030    2    1    2    0    0  0.00000000000E+00  0.00000000000E+00  0.37674732421E+03  0.30254111449E+04  0.30018617638E+04 0.  0.
        2    1    3    3  502    0  0.89081789688E+03 -0.72160921088E+03 -0.78799721320E+03  0.13911204070E+04  0.25500000920E-02 0.  1.
       -2    1    3    3    0  502 -0.89081789688E+03  0.72160921088E+03  0.11647445374E+04  0.16342907379E+04  0.25500000920E-02 0. -1.
</event>
<event>
 5   0  0.2679935E-07  0.2997523E+04  0.7818609E-02  0.8244439E-01
        1   -1    0    0  501    0  0.00000000000E+00  0.00000000000E+00  0.19512050581E+04  0.19512050581E+04  0.50400001928E-02 0. -1.
       -1   -1    0    0    0  501  0.00000000000E+00  0.00000000000E+00 -0.11512298048E+04  0.11512298048E+04  0.50400001928E-02 0.  1.
    10030    2    1    2    0    0  0.00000000000E+00  0.00000000000E+00  0.79997525326E+03  0.31024348629E+04  0.29975225892E+04 0.  0.
        2    1    3    3  502    0 -0.45130323370E+03 -0.13957986351E+04  0.71791448807E+03  0.16331961458E+04  0.25500000920E-02 0. -1.
       -2    1    3    3    0  502  0.45130323370E+03  0.13957986351E+04  0.82060765191E+02  0.14692387171E+04  0.25500000920E-02 0.  1.
</event>
<event>
 5   0  0.2679935E-07  0.3002549E+04  0.7818609E-02  0.8243003E-01
       -1   -1    0    0    0  501  0.00000000000E+00  0.00000000000E+00  0.13702810725E+04  0.13702810725E+04  0.50400001928E-02 0.  1.
        1   -1    0    0  501    0  0.00000000000E+00  0.00000000000E+00 -0.16447907723E+04  0.16447907723E+04  0.50400001928E-02 0. -1.
    10030    2    1    2    0    0  0.00000000000E+00  0.00000000000E+00 -0.27450969980E+03  0.30150718447E+04  0.30025493591E+04 0.  0.
        2    1    3    3  502    0 -0.10856359803E+04 -0.64753187176E+02  0.90196578411E+03  0.14129192237E+04  0.25500000920E-02 0.  1.
       -2    1    3    3    0  502  0.10856359803E+04  0.64753187176E+02 -0.11764754839E+04  0.16021526211E+04  0.25500000920E-02 0. -1.
</event>
<event>
 5   0  0.2602891E-07  0.2997649E+04  0.7818609E-02  0.8244403E-01
        1   -1    0    0  501    0  0.00000000000E+00  0.00000000000E+00  0.16944903138E+04  0.16944903138E+04  0.50400001928E-02 0. -1.
       -1   -1    0    0    0  501  0.00000000000E+00  0.00000000000E+00 -0.13257523762E+04  0.13257523762E+04  0.50400001928E-02 0.  1.
    10030    2    1    2    0    0  0.00000000000E+00  0.00000000000E+00  0.36873793757E+03  0.30202426900E+04  0.29976487853E+04 0.  0.
        5    1    3    3  502    0 -0.14525552620E+04 -0.45954068489E+02  0.55377105711E+03  0.15552212188E+04  0.46999998093E+01 0. -1.
       -5    1    3    3    0  502  0.14525552620E+04  0.45954068489E+02 -0.18503311954E+03  0.14650214712E+04  0.46999998093E+01 0.  1.
</event>
<event>
 5   0  0.7399409E-07  0.3068483E+04  0.7818609E-02  0.8224441E-01
       -2   -1    0    0    0  501  0.00000000000E+00  0.00000000000E+00  0.12188943697E+04  0.12188943697E+04  0.25500000920E-02 0. -1.
        2   -1    0    0  501    0  0.00000000000E+00  0.00000000000E+00 -0.19311741461E+04  0.19311741461E+04  0.25500000920E-02 0.  1.
    10030    2    1    2    0    0  0.00000000000E+00  0.00000000000E+00 -0.71227977631E+03  0.31500685158E+04  0.30684832042E+04 0.  0.
        3    1    3    3  502    0 -0.73358714677E+03 -0.41405615864E+02  0.10265309781E+04  0.12623907423E+04  0.10100000352E+00 0. -1.
       -3    1    3    3    0  502  0.73358714677E+03  0.41405615864E+02 -0.17388107544E+04  0.18876777736E+04  0.10100000352E+00 0.  1.
</event>
<event>
 5   0  0.2621825E-07  0.2997970E+04  0.7818609E-02  0.8244311E-01
        1   -1    0    0  501    0  0.00000000000E+00  0.00000000000E+00  0.27563476421E+04  0.27563476421E+04  0.50400001928E-02 0. -1.
       -1   -1    0    0    0  501  0.00000000000E+00  0.00000000000E+00 -0.81519304379E+03  0.81519304380E+03  0.50400001928E-02 0.  1.
    10030    2    1    2    0    0  0.00000000000E+00  0.00000000000E+00  0.19411545983E+04  0.35715406859E+04  0.29979695957E+04 0.  0.
        3    1    3    3  502    0  0.83057575706E+03 -0.56267365950E+03  0.22974411299E+04  0.25069290957E+04  0.10100000352E+00 0. -1.
       -3    1    3    3    0  502 -0.83057575706E+03  0.56267365950E+03 -0.35628653154E+03  0.10646115902E+04  0.10100000352E+00 0.  1.
</event>
<event>
 5   0  0.2679935E-07  0.2953819E+04  0.7818609E-02  0.8257042E-01
        1   -1    0    0  501    0  0.00000000000E+00  0.00000000000E+00  0.22685405488E+04  0.22685405488E+04  0.50400001928E-02 0.  1.
       -1   -1    0    0    0  501  0.00000000000E+00  0.00000000000E+00 -0.96152665411E+03  0.96152665413E+03  0.50400001928E-02 0. -1.
    10030    2    1    2    0    0  0.00000000000E+00  0.00000000000E+00  0.13070138947E+04  0.32300672030E+04  0.29538193605E+04 0.  0.
        2    1    3    3  502    0  0.14541503003E+04  0.83259598148E+02  0.38614814262E+03  0.15068495760E+04  0.25500000920E-02 0.  1.
       -2    1    3    3    0  502 -0.14541503003E+04 -0.83259598148E+02  0.92086575211E+03  0.17232176270E+04  0.25500000920E-02 0. -1.
</event>
<event>
 5   0  0.2602891E-07  0.3001460E+04  0.7818609E-02  0.8243314E-01
        1   -1    0    0  501    0  0.00000000000E+00  0.00000000000E+00  0.87927857824E+03  0.87927857825E+03  0.50400001928E-02 0. -1.
       -1   -1    0    0    0  501  0.00000000000E+00  0.00000000000E+00 -0.25614074960E+04  0.25614074960E+04  0.50400001928E-02 0.  1.
    10030    2    1    2    0    0  0.00000000000E+00  0.00000000000E+00 -0.16821289177E+04  0.34406860742E+04  0.30014601389E+04 0.  0.
        5    1    3    3  502    0 -0.16820885618E+03 -0.33076585049E+03 -0.25079779732E+04  0.25352861518E+04  0.46999998093E+01 0.  1.
       -5    1    3    3    0  502  0.16820885618E+03  0.33076585049E+03  0.82584905549E+03  0.90539992246E+03  0.46999998093E+01 0. -1.
</event>
<event>
 5   0  0.7278657E-07  0.3011070E+04  0.7818609E-02  0.8240577E-01
       -2   -1    0    0    0  501  0.00000000000E+00  0.00000000000E+00  0.11343586163E+04  0.11343586163E+04  0.25500000920E-02 0.  1.
        2   -1    0    0  501    0  0.00000000000E+00  0.00000000000E+00 -0.19981647626E+04  0.19981647626E+04  0.25500000920E-02 0. -1.
    10030    2    1    2    0    0  0.00000000000E+00  0.00000000000E+00 -0.86380614624E+03  0.31325233789E+04  0.30110698532E+04 0.  0.
        2    1    3    3  502    0  0.25681357190E+03 -0.87574237542E+03  0.81379083616E+03  0.12227564941E+04  0.25500000920E-02 0.  1.
       -2    1    3    3    0  502 -0.25681357190E+03  0.87574237542E+03 -0.16775969824E+04  0.19097668848E+04  0.25500000920E-02 0. -1.
</event>
<event>
 5   0  0.7208273E-07  0.3002009E+04  0.7818609E-02  0.8243157E-01
        2   -1    0    0  501    0  0.00000000000E+00  0.00000000000E+00  0.18508590212E+04  0.18508590212E+04  0.25500000920E-02 0. -1.
       -2   -1    0    0    0  501  0.00000000000E+00  0.00000000000E+00 -0.12172806759E+04  0.12172806759E+04  0.25500000920E-02 0.  1.
    10030    2    1    2    0    0  0.00000000000E+00  0.00000000000E+00  0.63357834526E+03  0.30681396972E+04  0.30020092741E+04 0.  0.
        4    1    3    3  502    0 -0.56974389681E+03  0.13230298511E+03 -0.10960157769E+04  0.12423221739E+04  0.12699999809E+01 0.  1.
       -4    1    3    3    0  502  0.56974389681E+03 -0.13230298511E+03  0.17295941221E+04  0.18258175232E+04  0.12699999809E+01 0. -1.
</event>
<event>
 5   0  0.2621825E-07  0.2998988E+04  0.7818609E-02  0.8244020E-01
       -1   -1    0    0    0  501  0.00000000000E+00  0.00000000000E+00  0.19709206039E+04  0.19709206039E+04  0.50400001928E-02 0.  1.
        1   -1    0    0  501    0  0.00000000000E+00  0.00000000000E+00 -0.11408281519E+04  0.11408281519E+04  0.50400001928E-02 0. -1.
    10030    2    1    2    0    0  0.00000000000E+00  0.00000000000E+00  0.83009245199E+03  0.31117487558E+04  0.29989876359E+04 0.  0.
        3    1    3    3  502    0 -0.12494704168E+03 -0.12732999887E+04 -0.39639197228E+03  0.13394145103E+04  0.10100000352E+00 0. -1.
       -3    1    3    3    0  502  0.12494704168E+03  0.12732999887E+04  0.12264844243E+04  0.17723342455E+04  0.10100000352E+00 0.  1.
</event>
<event>
 5   0  0.7278657E-07  0.2997445E+04  0.7818609E-02  0.8244461E-01
       -2   -1    0    0    0  501  0.00000000000E+00  0.00000000000E+00  0.12170908677E+04  0.12170908677E+04  0.25500000920E-02 0.  1.
        2   -1    0    0  501    0  0.00000000000E+00  0.00000000000E+00 -0.18455234486E+04  0.18455234486E+04  0.25500000920E-02 0. -1.
    10030    2    1    2    0    0  0.00000000000E+00  0.00000000000E+00 -0.62843258092E+03  0.30626143164E+04  0.29974454027E+04 0.  0.
        2    1    3    3  502    0  0.63819623665E+03  0.62562083632E+03 -0.15434837715E+04  0.17835464727E+04  0.25500000920E-02 0. -1.
       -2    1    3    3    0  502 -0.63819623665E+03 -0.62562083632E+03  0.91505119060E+03  0.12790678437E+04  0.25500000920E-02 0.  1.
</event>
<event>
 5   0  0.2602891E-07  0.3001341E+04  0.7818609E-02  0.8243348E-01
       -1   -1    0    0    0  501  0.00000000000E+00  0.00000000000E+00  0.17342676158E+04  0.17342676158E+04  0.50400001928E-02 0.  1.
        1   -1    0    0  501    0  0.00000000000E+00  0.00000000000E+00 -0.12985379989E+04  0.12985379989E+04  0.50400001928E-02 0. -1.
    10030    2    1    2    0    0  0.00000000000E+00  0.00000000000E+00  0.43572961688E+03  0.30328056148E+04  0.30013412998E+04 0.  0.
        5    1    3    3  502    0 -0.14909856271E+04 -0.67009542839E+02  0.37590742049E+03  0.15391091247E+04  0.46999998093E+01 0.  1.
       -5    1    3    3    0  502  0.14909856271E+04  0.67009542839E+02  0.59822196388E+02  0.14936964900E+04  0.46999998093E+01 0. -1.
</event>
<event>
 5   0  0.2792361E-07  0.2999719E+04  0.7818609E-02  0.8243811E-01
       -1   -1    0    0    0  501  0.00000000000E+00  0.00000000000E+00  0.13208754419E+04  0.13208754419E+04  0.50400001928E-02 0.  1.
        1   -1    0    0  501    0  0.00000000000E+00  0.00000000000E+00 -0.17030967047E+04  0.17030967047E+04  0.50400001928E-02 0. -1.
    10030    2    1    2    0    0  0.00000000000E+00  0.00000000000E+00 -0.38222126283E+03  0.30239721466E+04  0.29997190618E+04 0.  0.
        4    1    3    3  502    0 -0.79285500714E+03  0.12530295261E+04 -0.41848901534E+03  0.15407260381E+04  0.12699999809E+01 0. -1.
       -4    1    3    3    0  502  0.79285500714E+03 -0.12530295261E+04  0.36267752513E+02  0.14832461085E+04  0.12699999809E+01 0.  1.
</event>
<event>
 5   0  0.2679935E-07  0.3001380E+04  0.7818609E-02  0.8243337E-01
       -1   -1    0    0    0  501  0.00000000000E+00  0.00000000000E+00  0.37054160815E+04  0.37054160815E+04  0.50400001928E-02 0. -1.
        1   -1    0    0  501    0  0.00000000000E+00  0.00000000000E+00 -0.60777788605E+03  0.60777788607E+03  0.50400001928E-02 0.  1.
    10030    2    1    2    0    0  0.00000000000E+00  0.00000000000E+00  0.30976381955E+04  0.43131939676E+04  0.30013796514E+04 0.  0.
        2    1    3    3  502    0  0.23952646928E+03 -0.52282560448E+02 -0.57880411582E+03  0.62858619147E+03  0.25500000920E-02 0.  1.
       -2    1    3    3    0  502 -0.23952646928E+03  0.52282560448E+02  0.36764423113E+04  0.36846077761E+04  0.25500000920E-02 0. -1.
</event>
<event>
 5   0  0.2602891E-07  0.2993779E+04  0.7818609E-02  0.8245510E-01
       -1   -1    0    0    0  501  0.00000000000E+00  0.00000000000E+00  0.13516958292E+04  0.13516958292E+04  0.50400001928E-02 0.  1.
        1   -1    0    0  501    0  0.00000000000E+00  0.00000000000E+00 -0.16576794280E+04  0.16576794280E+04  0.50400001928E-02 0. -1.
    10030    2    1    2    0    0  0.00000000000E+00  0.00000000000E+00 -0.30598359883E+03  0.30093752573E+04  0.29937791295E+04 0.  0.
        5    1    3    3  502    0  0.91406902479E+03  0.11128129144E+04 -0.56350823186E+03  0.15464276194E+04  0.46999998093E+01 0. -1.
       -5    1    3    3    0  502 -0.91406902479E+03 -0.11128129144E+04  0.25752463302E+03  0.14629476379E+04  0.46999998093E+01 0.  1.
</event>
<event>
 5   0  0.2640081E-07  0.2998849E+04  0.7818609E-02  0.8244060E-01
        1   -1    0    0  501    0  0.00000000000E+00  0.00000000000E+00  0.16485143654E+04  0.16485143654E+04  0.50400001928E-02 0.  1.
       -1   -1    0    0    0  501  0.00000000000E+00  0.00000000000E+00 -0.13638177781E+04  0.13638177781E+04  0.50400001928E-02 0. -1.
    10030    2    1    2    0    0  0.00000000000E+00  0.00000000000E+00  0.28469658732E+03  0.30123321435E+04  0.29988485784E+04 0.  0.
        1    1    3    3  502    0  0.13457409666E+04  0.64311827069E+03 -0.12139635983E+02  0.14915653623E+04  0.50400001928E-02 0.  1.
       -1    1    3    3    0  502 -0.13457409666E+04 -0.64311827069E+03  0.29683622330E+03  0.15207667812E+04  0.50400001928E-02 0. -1.
</event>
<event>
 5   0  0.7399409E-07  0.3002482E+04  0.7818609E-02  0.8243022E-01
        2   -1    0    0  501    0  0.00000000000E+00  0.00000000000E+00  0.23053815171E+04  0.23053815171E+04  0.25500000920E-02 0.  1.
       -2   -1    0    0    0  501  0.00000000000E+00  0.00000000000E+00 -0.97759316982E+03  0.97759316982E+03  0.25500000920E-02 0. -1.
    10030    2    1    2    0    0  0.00000000000E+00  0.00000000000E+00  0.13277883473E+04  0.32829746869E+04  0.30024824562E+04 0.  0.
        3    1    3    3  502    0 -0.75238007483E+03  0.72696250761E+03  0.18411247930E+04  0.21176144073E+04  0.10100000352E+00 0.  1.
       -3    1    3    3    0  502  0.75238007483E+03 -0.72696250761E+03 -0.51333644575E+03  0.11653602796E+04  0.10100000352E+00 0. -1.
</event>
<event>
 5   0  0.7399409E-07  0.2984452E+04  0.7818609E-02  0.8248185E-01
       -2   -1    0    0    0  501  0.00000000000E+00  0.00000000000E+00  0.75703028418E+03  0.75703028419E+03  0.25500000920E-02 0. -1.
        2   -1    0    0  501    0  0.00000000000E+00  0.00000000000E+00 -0.29414127888E+04  0.29414127888E+04  0.25500000920E-02 0.  1.
    10030    2    1    2    0    0  0.00000000000E+00  0.00000000000E+00 -0.21843825047E+04  0.36984430730E+04  0.29844520834E+04 0.  0.
        3    1    3    3  502    0 -0.17240694485E+02  0.13175417729E+04 -0.19601216404E+04  0.23618404730E+04  0.10100000352E+00 0. -1.
       -3    1    3    3    0  502  0.17240694485E+02 -0.13175417729E+04 -0.22426086429E+03  0.13366026000E+04  0.10100000352E+00 0.  1.
</event>
<event>
 5   0  0.2602891E-07  0.2989522E+04  0.7818609E-02  0.8246729E-01
       -1   -1    0    0    0  501  0.00000000000E+00  0.00000000000E+00  0.93053324804E+03  0.93053324806E+03  0.50400001928E-02 0.  1.
        1   -1    0    0  501    0  0.00000000000E+00  0.00000000000E+00 -0.24011081204E+04  0.24011081204E+04  0.50400001928E-02 0. -1.
    10030    2    1    2    0    0  0.00000000000E+00  0.00000000000E+00 -0.14705748724E+04  0.33316413685E+04  0.29895223286E+04 0.  0.
        5    1    3    3  502    0  0.91839786766E+03  0.58228301970E+02  0.57740845059E+03  0.10864013012E+04  0.46999998093E+01 0.  1.
       -5    1    3    3    0  502 -0.91839786766E+03 -0.58228301970E+02 -0.20479833230E+04  0.22452400673E+04  0.46999998093E+01 0. -1.
</event>
<event>
 5   0  0.2621825E-07  0.3005514E+04  0.7818609E-02  0.8242158E-01
        1   -1    0    0  501    0  0.00000000000E+00  0.00000000000E+00  0.18767991276E+04  0.18767991276E+04  0.50400001928E-02 0.  1.
       -1   -1    0    0    0  501  0.00000000000E+00  0.00000000000E+00 -0.12032607212E+04  0.12032607213E+04  0.50400001928E-02 0. -1.
    10030    2    1    2    0    0  0.00000000000E+00  0.00000000000E+00  0.67353840632E+03  0.30800598488E+04  0.30055140471E+04 0.  0.
        3    1    3    3  502    0 -0.12544836907E+04 -0.13188252188E+03 -0.50028619095E+03  0.13569851188E+04  0.10100000352E+00 0. -1.
       -3    1    3    3    0  502  0.12544836907E+04  0.13188252188E+03  0.11738245973E+04  0.17230747300E+04  0.10100000352E+00 0.  1.
</event>
<event>
 5   0  0.2621825E-07  0.3000477E+04  0.7818609E-02  0.8243595E-01
       -1   -1    0    0    0  501  0.00000000000E+00  0.00000000000E+00  0.13564721256E+04  0.13564721257E+04  0.50400001928E-02 0. -1.
        1   -1    0    0  501    0  0.00000000000E+00  0.00000000000E+00 -0.16592419242E+04  0.16592419242E+04  0.50400001928E-02 0.  1.
    10030    2    1    2    0    0  0.00000000000E+00  0.00000000000E+00 -0.30276979854E+03  0.30157140498E+04  0.30004769087E+04 0.  0.
        3    1    3    3  502    0  0.10782618914E+04  0.71560652216E+03 -0.91416844023E+03  0.15844384962E+04  0.10100000352E+00 0.  1.
       -3    1    3    3    0  502 -0.10782618914E+04 -0.71560652216E+03  0.61139864169E+03  0.14312755536E+04  0.10100000352E+00 0. -1.
</event>
<event>
 5   0  0.7278657E-07  0.3005850E+04  0.7818609E-02  0.8242062E-01
        2   -1    0    0  501    0  0.00000000000E+00  0.00000000000E+00  0.21049738437E+04  0.21049738437E+04  0.25500000920E-02 0.  1.
       -2   -1    0    0    0  501  0.00000000000E+00  0.00000000000E+00 -0.10730695671E+04  0.10730695671E+04  0.25500000920E-02 0. -1.
    10030    2    1    2    0    0  0.00000000000E+00  0.00000000000E+00  0.10319042767E+04  0.31780434108E+04  0.30058498773E+04 0.  0.
        2    1    3    3  502    0  0.21760161499E+02 -0.46155418074E+03  0.20280109036E+04  0.20799841325E+04  0.25500000920E-02 0.  1.
       -2    1    3    3    0  502 -0.21760161499E+02  0.46155418074E+03 -0.99610662696E+03  0.10980592783E+04  0.25500000920E-02 0. -1.
</event>
<event>
 5   0  0.7278657E-07  0.3001823E+04  0.7818609E-02  0.8243210E-01
        2   -1    0    0  501    0  0.00000000000E+00  0.00000000000E+00  0.21958247259E+04  0.21958247259E+04  0.25500000920E-02 0.  1.
       -2   -1    0    0    0  501  0.00000000000E+00  0.00000000000E+00 -0.10259178429E+04  0.10259178429E+04  0.25500000920E-02 0. -1.
    10030    2    1    2    0    0  0.00000000000E+00  0.00000000000E+00  0.11699068830E+04  0.32217425688E+04  0.30018232901E+04 0.  0.
        2    1    3    3  502    0 -0.93062642954E+03 -0.63019717637E+03  0.16525775725E+04  0.19985561452E+04  0.25500000920E-02 0.  1.
       -2    1    3    3    0  502  0.93062642954E+03  0.63019717637E+03 -0.48267068946E+03  0.12231864236E+04  0.25500000920E-02 0. -1.
</event>
<event>
 5   0  0.2792361E-07  0.2999008E+04  0.7818609E-02  0.8244014E-01
        1   -1    0    0  501    0  0.00000000000E+00  0.00000000000E+00  0.16957173623E+04  0.16957173623E+04  0.50400001928E-02 0.  1.
       -1   -1    0    0    0  501  0.00000000000E+00  0.00000000000E+00 -0.13259946294E+04  0.13259946294E+04  0.50400001928E-02 0. -1.
    10030    2    1    2    0    0  0.00000000000E+00  0.00000000000E+00  0.36972273287E+03  0.30217119917E+04  0.29990079129E+04 0.  0.
        4    1    3    3  502    0  0.12489203037E+03  0.28546462920E+03  0.16627384074E+04  0.16916822096E+04  0.12699999809E+01 0.  1.
       -4    1    3    3    0  502 -0.12489203037E+03 -0.28546462920E+03 -0.12930156746E+04  0.13300297821E+04  0.12699999809E+01 0. -1.
</event>
<event>
 5   0  0.7307508E-07  0.2997704E+04  0.7818609E-02  0.8244387E-01
       -2   -1    0    0    0  501  0.00000000000E+00  0.00000000000E+00  0.10906288439E+04  0.10906288439E+04  0.25500000920E-02 0.  1.
        2   -1    0    0  501    0  0.00000000000E+00  0.00000000000E+00 -0.20598734812E+04  0.20598734812E+04  0.25500000920E-02 0. -1.
    10030    2    1    2    0    0  0.00000000000E+00  0.00000000000E+00 -0.96924463736E+03  0.31505023251E+04  0.29977040770E+04 0.  0.
        1    1    3    3  502    0 -0.73234942344E+03  0.11829596478E+04 -0.10705597887E+04  0.17555134484E+04  0.50400001928E-02 0. -1.
       -1    1    3    3    0  502  0.73234942344E+03 -0.11829596478E+04  0.10131515134E+03  0.13949888767E+04  0.50400001928E-02 0.  1.
</event>
<event>
 5   0  0.7585823E-07  0.3019991E+04  0.7818609E-02  0.8238045E-01
        2   -1    0    0  501    0  0.00000000000E+00  0.00000000000E+00  0.25835760687E+04  0.25835760687E+04  0.25500000920E-02 0. -1.
       -2   -1    0    0    0  501  0.00000000000E+00  0.00000000000E+00 -0.88253141228E+03  0.88253141228E+03  0.25500000920E-02 0.  1.
    10030    2    1    2    0    0  0.00000000000E+00  0.00000000000E+00  0.17010446564E+04  0.34661074810E+04  0.30199914150E+04 0.  0.
        5    1    3    3  502    0  0.12732744246E+04 -0.78933857542E+03  0.10676261193E+04  0.18396007088E+04  0.46999998093E+01 0. -1.
       -5    1    3    3    0  502 -0.12732744246E+04  0.78933857542E+03  0.63341853708E+03  0.16265067722E+04  0.46999998093E+01 0.  1.
</event>
<event>
 5   0  0.7585823E-07  0.3048139E+04  0.7818609E-02  0.8230116E-01
        2   -1    0    0  501    0  0.00000000000E+00  0.00000000000E+00  0.14826929551E+04  0.14826929551E+04  0.25500000920E-02 0.  1.
       -2   -1    0    0    0  501  0.00000000000E+00  0.00000000000E+00 -0.15666011123E+04  0.15666011123E+04  0.25500000920E-02 0. -1.
    10030    2    1    2    0    0  0.00000000000E+00  0.00000000000E+00 -0.83908157184E+02  0.30492940675E+04  0.30481393884E+04 0.  0.
        5    1    3    3  502    0  0.30324452650E+03  0.11029485688E+04 -0.10494669436E+04  0.15523710072E+04  0.46999998093E+01 0. -1.
       -5    1    3    3    0  502 -0.30324452650E+03 -0.11029485688E+04  0.96555878646E+03  0.14969230603E+04  0.46999998093E+01 0.  1.
</event>
<event>
 5   0  0.7278657E-07  0.2969754E+04  0.7818609E-02  0.8252421E-01
       -2   -1    0    0    0  501  0.00000000000E+00  0.00000000000E+00  0.12865439927E+04  0.12865439927E+04  0.25500000920E-02 0. -1.
        2   -1    0    0  501    0  0.00000000000E+00  0.00000000000E+00 -0.17137844793E+04  0.17137844793E+04  0.25500000920E-02 0.  1.
    10030    2    1    2    0    0  0.00000000000E+00  0.00000000000E+00 -0.42724048661E+03  0.30003284720E+04  0.29697536104E+04 0.  0.
        2    1    3    3  502    0  0.50480429928E+03 -0.13573441122E+04 -0.54509678083E+03  0.15473658003E+04  0.25500000920E-02 0.  1.
       -2    1    3    3    0  502 -0.50480429928E+03  0.13573441122E+04  0.11785629422E+03  0.14529626717E+04  0.25500000920E-02 0. -1.
</event>
<event>
 5   0  0.2602891E-07  0.3014042E+04  0.7818609E-02  0.8239732E-01
       -1   -1    0    0    0  501  0.00000000000E+00  0.00000000000E+00  0.10319937690E+04  0.10319937690E+04  0.50400001928E-02 0.  1.
        1   -1    0    0  501    0  0.00000000000E+00  0.00000000000E+00 -0.22007039298E+04  0.22007039298E+04  0.50400001928E-02 0. -1.
    10030    2    1    2    0    0  0.00000000000E+00  0.00000000000E+00 -0.11687101608E+04  0.32326976989E+04  0.30140422977E+04 0.  0.
        5    1    3    3  502    0 -0.72755231042E+03 -0.96237483032E+03  0.38426281724E+03  0.12661665298E+04  0.46999998093E+01 0.  1.
       -5    1    3    3    0  502  0.72755231042E+03  0.96237483032E+03 -0.15529729781E+04  0.19665311691E+04  0.46999998093E+01 0. -1.
</event>
<event>
 5   0  0.7399409E-07  0.3001767E+04  0.7818609E-02  0.8243226E-01
       -2   -1    0    0    0  501  0.00000000000E+00  0.00000000000E+00  0.13599291712E+04  0.13599291712E+04  0.25500000920E-02 0.  1.
        2   -1    0    0  501    0  0.00000000000E+00  0.00000000000E+00 -0.16564478859E+04  0.16564478859E+04  0.25500000920E-02 0. -1.
    10030    2    1    2    0    0  0.00000000000E+00  0.00000000000E+00 -0.29651871472E+03  0.30163770570E+04  0.30017673464E+04 0.  0.
        3    1    3    3  502    0 -0.10502994299E+04  0.89349884983E+02 -0.12218879547E+04  0.16137293697E+04  0.10100000352E+00 0. -1.
       -3    1    3    3    0  502  0.10502994299E+04 -0.89349884983E+02  0.92536923997E+03  0.14026476874E+04  0.10100000352E+00 0.  1.
</event>
<event>
 5   0  0.2621825E-07  0.3002709E+04  0.7818609E-02  0.8242958E-01
       -1   -1    0    0    0  501  0.00000000000E+00  0.00000000000E+00  0.25226789921E+04  0.25226789921E+04  0.50400001928E-02 0. -1.
        1   -1    0    0  501    0  0.00000000000E+00  0.00000000000E+00 -0.89352069564E+03  0.89352069566E+03  0.50400001928E-02 0.  1.
    10030    2    1    2    0    0  0.00000000000E+00  0.00000000000E+00  0.16291582964E+04  0.34161996877E+04  0.30027093685E+04 0.  0.
        3    1    3    3  502    0  0.97509213585E+03 -0.36910427262E+03  0.20436295753E+04  0.22942241583E+04  0.10100000352E+00 0. -1.
       -3    1    3    3    0  502 -0.97509213585E+03  0.36910427262E+03 -0.41447127883E+03  0.11219755294E+04  0.10100000352E+00 0.  1.
</event>
<event>
 5   0  0.7208273E-07  0.2991165E+04  0.7818609E-02  0.8246258E-01
        2   -1    0    0  501    0  0.00000000000E+00  0.00000000000E+00  0.12572731883E+04  0.12572731883E+04  0.25500000920E-02 0.  1.
       -2   -1    0    0    0  501  0.00000000000E+00  0.00000000000E+00 -0.17790623280E+04  0.17790623280E+04  0.25500000920E-02 0. -1.
    10030    2    1    2    0    0  0.00000000000E+00  0.00000000000E+00 -0.52178913976E+03  0.30363355163E+04  0.29911652347E+04 0.  0.
        4    1    3    3  502    0  0.65718892025E+03 -0.12859133944E+04 -0.65573530819E+03  0.15860204734E+04  0.12699999809E+01 0. -1.
       -4    1    3    3    0  502 -0.65718892025E+03  0.12859133944E+04  0.13394616843E+03  0.14503150429E+04  0.12699999809E+01 0.  1.
</event>
<event>
 5   0  0.2679935E-07  0.2999778E+04  0.7818609E-02  0.8243794E-01
       -1   -1    0    0    0  501  0.00000000000E+00  0.00000000000E+00  0.13455294419E+04  0.13455294419E+04  0.50400001928E-02 0.  1.
        1   -1    0    0  501    0  0.00000000000E+00  0.00000000000E+00 -0.16719572014E+04  0.16719572014E+04  0.50400001928E-02 0. -1.
    10030    2    1    2    0    0  0.00000000000E+00  0.00000000000E+00 -0.32642775947E+03  0.30174866434E+04  0.29997784186E+04 0.  0.
        2    1    3    3  502    0 -0.18292140275E+03  0.14875190283E+04 -0.22267748693E+03  0.15151760170E+04  0.25500000920E-02 0. -1.
       -2    1    3    3    0  502  0.18292140275E+03 -0.14875190283E+04 -0.10375027255E+03  0.15023106264E+04  0.25500000920E-02 0.  1.
</event>
<event>
 5   0  0.2640081E-07  0.2994511E+04  0.7818609E-02  0.8245300E-01
        1   -1    0    0  501    0  0.00000000000E+00  0.00000000000E+00  0.17014147746E+04  0.17014147746E+04  0.50400001928E-02 0.  1.
       -1   -1    0    0    0  501  0.00000000000E+00  0.00000000000E+00 -0.13175943781E+04  0.13175943781E+04  0.50400001928E-02 0. -1.
    10030    2    1    2    0    0  0.00000000000E+00  0.00000000000E+00  0.38382039645E+03  0.30190091527E+04  0.29945113403E+04 0.  0.
        1    1    3    3  502    0  0.10493543932E+04 -0.12687212728E+03  0.12610257323E+04  0.16454261080E+04  0.50400001928E-02 0.  1.
       -1    1    3    3    0  502 -0.10493543932E+04  0.12687212728E+03 -0.87720533589E+03  0.13735830447E+04  0.50400001928E-02 0. -1.
</event>
<event>
 5   0  0.7585823E-07  0.2993164E+04  0.7818609E-02  0.8245686E-01
       -2   -1    0    0    0  501  0.00000000000E+00  0.00000000000E+00  0.71648332240E+03  0.71648332240E+03  0.25500000920E-02 0. -1.
        2   -1    0    0  501    0  0.00000000000E+00  0.00000000000E+00 -0.31260439252E+04  0.31260439252E+04  0.25500000920E-02 0.  1.
    10030    2    1    2    0    0  0.00000000000E+00  0.00000000000E+00 -0.24095606028E+04  0.38425272477E+04  0.29931644375E+04 0.  0.
        5    1    3    3  502    0 -0.14475637496E+04 -0.32815493984E+03 -0.95914832561E+03  0.17672334521E+04  0.46999998093E+01 0. -1.
       -5    1    3    3    0  502  0.14475637496E+04  0.32815493984E+03 -0.14504122772E+04  0.20752937955E+04  0.46999998093E+01 0.  1.
</event>
<event>
 5   0  0.2602891E-07  0.2998346E+04  0.7818609E-02  0.8244203E-01
        1   -1    0    0  501    0  0.00000000000E+00  0.00000000000E+00  0.15288283234E+04  0.15288283234E+04  0.50400001928E-02 0.  1.
       -1   -1    0    0    0  501  0.00000000000E+00  0.00000000000E+00 -0.14700931416E+04  0.14700931416E+04  0.50400001928E-02 0. -1.
    10030    2    1    2    0    0  0.00000000000E+00  0.00000000000E+00  0.58735181780E+02  0.29989214651E+04  0.29983462328E+04 0.  0.
        5    1    3    3  502    0  0.37363440092E+02  0.52506935719E+03  0.14333477198E+04  0.15269582942E+04  0.46999998093E+01 0.  1.
       -5    1    3    3    0  502 -0.37363440092E+02 -0.52506935719E+03 -0.13746125380E+04  0.14719631708E+04  0.46999998093E+01 0. -1.
</event>
<event>
 5   0  0.7399409E-07  0.3000581E+04  0.7818609E-02  0.8243565E-01
       -2   -1    0    0    0  501  0.00000000000E+00  0.00000000000E+00  0.25711913736E+04  0.25711913736E+04  0.25500000920E-02 0.  1.
        2   -1    0    0  501    0  0.00000000000E+00  0.00000000000E+00 -0.87541994071E+03  0.87541994071E+03  0.25500000920E-02 0. -1.
    10030    2    1    2    0    0  0.00000000000E+00  0.00000000000E+00  0.16957714329E+04  0.34466113143E+04  0.30005814102E+04 0.  0.
        3    1    3    3  502    0 -0.20771671534E+03 -0.12036928950E+04  0.18484953597E+04  0.22156168271E+04  0.10100000352E+00 0.  1.
       -3    1    3    3    0  502  0.20771671534E+03  0.12036928950E+04 -0.15272392689E+03  0.12309944872E+04  0.10100000352E+00 0. -1.
</event>
<event>
 5   0  0.7307508E-07  0.3002654E+04  0.7818609E-02  0.8242973E-01
        2   -1    0    0  501    0  0.00000000000E+00  0.00000000000E+00  0.17792350271E+04  0.17792350271E+04  0.25500000920E-02 0.  1.
       -2   -1    0    0    0  501  0.00000000000E+00  0.00000000000E+00 -0.12668270956E+04  0.12668270956E+04  0.25500000920E-02 0. -1.
    10030    2    1    2    0    0  0.00000000000E+00  0.00000000000E+00  0.51240793149E+03  0.30460621226E+04  0.30026542536E+04 0.  0.
        1    1    3    3  502    0  0.11075811326E+04 -0.28895449737E+03  0.12417172452E+04  0.16888138985E+04  0.50400001928E-02 0. -1.
       -1    1    3    3    0  502 -0.11075811326E+04  0.28895449737E+03 -0.72930931369E+03  0.13572482241E+04  0.50400001928E-02 0.  1.
</event>
<event>
 5   0  0.2679935E-07  0.3006740E+04  0.7818609E-02  0.8241809E-01
       -1   -1    0    0    0  501  0.00000000000E+00  0.00000000000E+00  0.12756239864E+04  0.12756239864E+04  0.50400001928E-02 0. -1.
        1   -1    0    0  501    0  0.00000000000E+00  0.00000000000E+00 -0.17717776512E+04  0.17717776512E+04  0.50400001928E-02 0.  1.
    10030    2    1    2    0    0  0.00000000000E+00  0.00000000000E+00 -0.49615366484E+03  0.30474016376E+04  0.30067404747E+04 0.  0.
        2    1    3    3  502    0  0.13610780647E+04  0.48961762126E+03  0.16717489377E+03  0.14560928399E+04  0.25500000920E-02 0. -1.
       -2    1    3    3    0  502 -0.13610780647E+04 -0.48961762126E+03 -0.66332855861E+03  0.15913087978E+04  0.25500000920E-02 0.  1.
</event>
<event>
 5   0  0.2679935E-07  0.2949737E+04  0.7818609E-02  0.8258231E-01
        1   -1    0    0  501    0  0.00000000000E+00  0.00000000000E+00  0.15711973410E+04  0.15711973410E+04  0.50400001928E-02 0. -1.
       -1   -1    0    0    0  501  0.00000000000E+00  0.00000000000E+00 -0.13844456798E+04  0.13844456798E+04  0.50400001928E-02 0.  1.
    10030    2    1    2    0    0  0.00000000000E+00  0.00000000000E+00  0.18675166124E+03  0.29556430208E+04  0.29497371889E+04 0.  0.
        2    1    3    3  502    0  0.11256938207E+04  0.25758169482E+03 -0.82590447245E+03  0.14197369844E+04  0.25500000920E-02 0.  1.
       -2    1    3    3    0  502 -0.11256938207E+04 -0.25758169482E+03  0.10126561337E+04  0.15359060363E+04  0.25500000920E-02 0. -1.
</event>
<event>
 5   0  0.7399409E-07  0.2996097E+04  0.7818609E-02  0.8244846E-01
        2   -1    0    0  501    0  0.00000000000E+00  0.00000000000E+00  0.65626719385E+03  0.65626719385E+03  0.25500000920E-02 0.  1.
       -2   -1    0    0    0  501  0.00000000000E+00  0.00000000000E+00 -0.34195674591E+04  0.34195674591E+04  0.25500000920E-02 0. -1.
    10030    2    1    2    0    0  0.00000000000E+00  0.00000000000E+00 -0.27633002653E+04  0.40758346530E+04  0.29960974220E+04 0.  0.
        3    1    3    3  502    0  0.24194303645E+03  0.12345321597E+04 -0.27517936959E+03  0.12877615392E+04  0.10100000352E+00 0.  1.
       -3    1    3    3    0  502 -0.24194303645E+03 -0.12345321597E+04 -0.24881208957E+04  0.27880731138E+04  0.10100000352E+00 0. -1.
</event>
<event>
 5   0  0.7399409E-07  0.2999050E+04  0.7818609E-02  0.8244002E-01
       -2   -1    0    0    0  501  0.00000000000E+00  0.00000000000E+00  0.14493845222E+04  0.14493845222E+04  0.25500000920E-02 0. -1.
        2   -1    0    0  501    0  0.00000000000E+00  0.00000000000E+00 -0.15514002575E+04  0.15514002575E+04  0.25500000920E-02 0.  1.
    10030    2    1    2    0    0  0.00000000000E+00  0.00000000000E+00 -0.10201573534E+03  0.30007847797E+04  0.29990501970E+04 0.  0.
        3    1    3    3  502    0  0.10218826621E+02 -0.66804086444E+02 -0.15498757132E+04  0.15513484286E+04  0.10100000352E+00 0.  1.
       -3    1    3    3    0  502 -0.10218826621E+02  0.66804086444E+02  0.14478599778E+04  0.14494363511E+04  0.10100000352E+00 0. -1.
</event>
<event>
 5   0  0.2792361E-07  0.3000787E+04  0.7818609E-02  0.8243506E-01
        1   -1    0    0  501    0  0.00000000000E+00  0.00000000000E+00  0.18794417384E+04  0.18794417384E+04  0.50400001928E-02 0. -1.
       -1   -1    0    0    0  501  0.00000000000E+00  0.00000000000E+00 -0.11977918950E+04  0.11977918950E+04  0.50400001928E-02 0.  1.
    10030    2    1    2    0    0  0.00000000000E+00  0.00000000000E+00  0.68164984333E+03  0.30772336334E+04  0.30007866178E+04 0.  0.
        4    1    3    3  502    0 -0.93578675287E+03  0.24073716048E+03 -0.83625284853E+03  0.12778777981E+04  0.12699999809E+01 0.  1.
       -4    1    3    3    0  502  0.93578675287E+03 -0.24073716048E+03  0.15179026919E+04  0.17993558353E+04  0.12699999809E+01 0. -1.
</event>
<event>
 5   0  0.2792361E-07  0.3002317E+04  0.7818609E-02  0.8243070E-01
       -1   -1    0    0    0  501  0.00000000000E+00  0.00000000000E+00  0.93646354028E+03  0.93646354030E+03  0.50400001928E-02 0.  1.
        1   -1    0    0  501    0  0.00000000000E+00  0.00000000000E+00 -0.24063687848E+04  0.24063687848E+04  0.50400001928E-02 0. -1.
    10030    2    1    2    0    0  0.00000000000E+00  0.00000000000E+00 -0.14699052445E+04  0.33428323251E+04  0.30023168597E+04 0.  0.
        4    1    3    3  502    0 -0.57242930756E+03  0.13834659177E+04 -0.61389304365E+03  0.16181840252E+04  0.12699999809E+01 0.  1.
       -4    1    3    3    0  502  0.57242930756E+03 -0.13834659177E+04 -0.85601220087E+03  0.17246482999E+04  0.12699999809E+01 0. -1.
</event>
<event>
 5   0  0.2640081E-07  0.3001560E+04  0.7818609E-02  0.8243286E-01
       -1   -1    0    0    0  501  0.00000000000E+00  0.00000000000E+00  0.83770279523E+03  0.83770279524E+03  0.50400001928E-02 0.  1.
        1   -1    0    0  501    0  0.00000000000E+00  0.00000000000E+00 -0.26887112231E+04  0.26887112231E+04  0.50400001928E-02 0. -1.
    10030    2    1    2    0    0  0.00000000000E+00  0.00000000000E+00 -0.18510084279E+04  0.35264140184E+04  0.30015601991E+04 0.  0.
        1    1    3    3  502    0  0.33691475746E+03  0.11621206169E+04 -0.19686220919E+04  0.23107377226E+04  0.50400001928E-02 0. -1.
       -1    1    3    3    0  502 -0.33691475746E+03 -0.11621206169E+04  0.11761366396E+03  0.12156762958E+04  0.50400001928E-02 0.  1.
</event>
<event>
 5   0  0.2640081E-07  0.2999299E+04  0.7818609E-02  0.8243931E-01
        1   -1    0    0  501    0  0.00000000000E+00  0.00000000000E+00  0.19055063383E+04  0.19055063383E+04  0.50400001928E-02 0. -1.
       -1   -1    0    0    0  501  0.00000000000E+00  0.00000000000E+00 -0.11802364704E+04  0.11802364704E+04  0.50400001928E-02 0.  1.
    10030    2    1    2    0    0  0.00000000000E+00  0.00000000000E+00  0.72526986793E+03  0.30857428087E+04  0.29992986347E+04 0.  0.
        1    1    3    3  502    0 -0.55730024359E+03 -0.10003202000E+04  0.13589060376E+04  0.17770339566E+04  0.50400001928E-02 0. -1.
       -1    1    3    3    0  502  0.55730024359E+03  0.10003202000E+04 -0.63363616964E+03  0.13087088521E+04  0.50400001928E-02 0.  1.
</event>
<event>
 5   0  0.2679935E-07  0.2996450E+04  0.7818609E-02  0.8244745E-01
        1   -1    0    0  501    0  0.00000000000E+00  0.00000000000E+00  0.33298073231E+04  0.33298073231E+04  0.50400001928E-02 0. -1.
       -1   -1    0    0    0  501  0.00000000000E+00  0.00000000000E+00 -0.67411657813E+03  0.67411657815E+03  0.50400001928E-02 0.  1.
    10030    2    1    2    0    0  0.00000000000E+00  0.00000000000E+00  0.26556907449E+04  0.40039239012E+04  0.29964501120E+04 0.  0.
        2    1    3    3  502    0  0.48795803923E+03 -0.56844283691E+03 -0.40587326411E+03  0.85203486631E+03  0.25500000920E-02 0.  1.
       -2    1    3    3    0  502 -0.48795803923E+03  0.56844283691E+03  0.30615640090E+04  0.31518890349E+04  0.25500000920E-02 0. -1.
</event>
<event>
 5   0  0.2602891E-07  0.3008328E+04  0.7818609E-02  0.8241357E-01
        1   -1    0    0  501    0  0.00000000000E+00  0.00000000000E+00  0.14826746107E+04  0.14826746107E+04  0.50400001928E-02 0. -1.
       -1   -1    0    0    0  501  0.00000000000E+00  0.00000000000E+00 -0.15259643950E+04  0.15259643950E+04  0.50400001928E-02 0.  1.
    10030    2    1    2    0    0  0.00000000000E+00  0.00000000000E+00 -0.43289784330E+02  0.30086390057E+04  0.30083275522E+04 0.  0.
        5    1    3    3  502    0  0.43272206135E+03 -0.12895972277E+04  0.62043184274E+03  0.14950809856E+04  0.46999998093E+01 0. -1.
       -5    1    3    3    0  502 -0.43272206135E+03  0.12895972277E+04 -0.66372162707E+03  0.15135580201E+04  0.46999998093E+01 0.  1.
</event>
<event>
 5   0  0.2679935E-07  0.2999058E+04  0.7818609E-02  0.8244000E-01
        1   -1    0    0  501    0  0.00000000000E+00  0.00000000000E+00  0.21039836818E+04  0.21039836818E+04  0.50400001928E-02 0. -1.
       -1   -1    0    0    0  501  0.00000000000E+00  0.00000000000E+00 -0.10687285172E+04  0.10687285172E+04  0.50400001928E-02 0.  1.
    10030    2    1    2    0    0  0.00000000000E+00  0.00000000000E+00  0.10352551646E+04  0.31727121991E+04  0.29990580925E+04 0.  0.
        2    1    3    3  502    0 -0.24868160276E+03  0.13304484051E+04 -0.16523366025E+03  0.13635386539E+04  0.25500000920E-02 0.  1.
       -2    1    3    3    0  502  0.24868160276E+03 -0.13304484051E+04  0.12004888248E+04  0.18091735452E+04  0.25500000920E-02 0. -1.
</event>
<event>
 5   0  0.7307508E-07  0.2970477E+04  0.7818609E-02  0.8252212E-01
        2   -1    0    0  501    0  0.00000000000E+00  0.00000000000E+00  0.10507263809E+04  0.10507263809E+04  0.25500000920E-02 0.  1.
       -2   -1    0    0    0  501  0.00000000000E+00  0.00000000000E+00 -0.20994362874E+04  0.20994362874E+04  0.25500000920E-02 0. -1.
    10030    2    1    2    0    0  0.00000000000E+00  0.00000000000E+00 -0.10487099064E+04  0.31501626683E+04  0.29704767915E+04 0.  0.
        1    1    3    3  502    0 -0.14527661708E+04  0.19410801971E+03 -0.77915008570E+03  0.16599043124E+04  0.50400001928E-02 0. -1.
       -1    1    3    3    0  502  0.14527661708E+04 -0.19410801971E+03 -0.26955982074E+03  0.14902583559E+04  0.50400001928E-02 0.  1.
</event>
<event>
 5   0  0.7307508E-07  0.2994561E+04  0.7818609E-02  0.8245286E-01
       -2   -1    0    0    0  501  0.00000000000E+00  0.00000000000E+00  0.18038448722E+04  0.18038448722E+04  0.25500000920E-02 0. -1.
        2   -1    0    0  501    0  0.00000000000E+00  0.00000000000E+00 -0.12428165076E+04  0.12428165076E+04  0.25500000920E-02 0.  1.
    10030    2    1    2    0    0  0.00000000000E+00  0.00000000000E+00  0.56102836468E+03  0.30466613798E+04  0.29945605249E+04 0.  0.
        1    1    3    3  502    0 -0.14631788791E+04  0.21842926238E+03  0.51527634349E+03  0.15665610378E+04  0.50400001928E-02 0. -1.
       -1    1    3    3    0  502  0.14631788791E+04 -0.21842926238E+03  0.45752021184E+02  0.14801003420E+04  0.50400001928E-02 0.  1.
</event>
<event>
 5   0  0.7278657E-07  0.3001952E+04  0.7818609E-02  0.8243174E-01
       -2   -1    0    0    0  501  0.00000000000E+00  0.00000000000E+00  0.17862990556E+04  0.17862990556E+04  0.25500000920E-02 0.  1.
        2   -1    0    0  501    0  0.00000000000E+00  0.00000000000E+00 -0.12612268764E+04  0.12612268764E+04  0.25500000920E-02 0. -1.
    10030    2    1    2    0    0  0.00000000000E+00  0.00000000000E+00  0.52507217920E+03  0.30475259319E+04  0.30019516173E+04 0.  0.
        2    1    3    3  502    0  0.58351541441E+02 -0.14983831542E+04  0.19541578200E+03  0.15121985012E+04  0.25500000920E-02 0. -1.
       -2    1    3    3    0  502 -0.58351541441E+02  0.14983831542E+04  0.32965639721E+03  0.15353274307E+04  0.25500000920E-02 0.  1.
</event>
<event>
 5   0  0.2792361E-07  0.2998966E+04  0.7818609E-02  0.8244026E-01
        1   -1    0    0  501    0  0.00000000000E+00  0.00000000000E+00  0.16850647771E+04  0.16850647771E+04  0.50400001928E-02 0.  1.
       -1   -1    0    0    0  501  0.00000000000E+00  0.00000000000E+00 -0.13343399289E+04  0.13343399289E+04  0.50400001928E-02 0. -1.
    10030    2    1    2    0    0  0.00000000000E+00  0.00000000000E+00  0.35072484814E+03  0.30194047060E+04  0.29989659651E+04 0.  0.
        4    1    3    3  502    0 -0.72751133034E+02 -0.11333929552E+04 -0.81037876518E+03  0.13952016608E+04  0.12699999809E+01 0. -1.
       -4    1    3    3    0  502  0.72751133034E+02  0.11333929552E+04  0.11611036133E+04  0.16242030452E+04  0.12699999809E+01 0.  1.
</event>
<event>
 5   0  0.2792361E-07  0.2997540E+04  0.7818609E-02  0.8244434E-01
       -1   -1    0    0    0  501  0.00000000000E+00  0.00000000000E+00  0.14684897772E+04  0.14684897772E+04  0.50400001928E-02 0. -1.
        1   -1    0    0  501    0  0.00000000000E+00  0.00000000000E+00 -0.15296742030E+04  0.15296742030E+04  0.50400001928E-02 0.  1.
    10030    2    1    2    0    0  0.00000000000E+00  0.00000000000E+00 -0.61184425754E+02  0.29981639802E+04  0.29975396108E+04 0.  0.
        4    1    3    3  502    0 -0.12116656781E+04  0.42286395966E+01  0.85172401429E+03  0.14810763000E+04  0.12699999809E+01 0. -1.
       -4    1    3    3    0  502  0.12116656781E+04 -0.42286395966E+01 -0.91290844005E+03  0.15170876803E+04  0.12699999809E+01 0.  1.
</event>
<event>
 5   0  0.2640081E-07  0.2984694E+04  0.7818609E-02  0.8248115E-01
       -1   -1    0    0    0  501  0.00000000000E+00  0.00000000000E+00  0.15139571556E+04  0.15139571556E+04  0.50400001928E-02 0. -1.
        1   -1    0    0  501    0  0.00000000000E+00  0.00000000000E+00 -0.14710453333E+04  0.14710453333E+04  0.50400001928E-02 0.  1.
    10030    2    1    2    0    0  0.00000000000E+00  0.00000000000E+00  0.42911822312E+02  0.29850024890E+04  0.29846940270E+04 0.  0.
        1    1    3    3  502    0 -0.13942255920E+04  0.44994356121E+03 -0.26280118697E+03  0.14884148190E+04  0.50400001928E-02 0. -1.
       -1    1    3    3    0  502  0.13942255920E+04 -0.44994356121E+03  0.30571300928E+03  0.14965876699E+04  0.50400001928E-02 0.  1.
</event>
<event>
 5   0  0.2679935E-07  0.2996674E+04  0.7818609E-02  0.8244681E-01
        1   -1    0    0  501    0  0.00000000000E+00  0.00000000000E+00  0.16022756967E+04  0.16022756967E+04  0.50400001928E-02 0. -1.
       -1   -1    0    0    0  501  0.00000000000E+00  0.00000000000E+00 -0.14011404452E+04  0.14011404452E+04  0.50400001928E-02 0.  1.
    10030    2    1    2    0    0  0.00000000000E+00  0.00000000000E+00  0.20113525152E+03  0.30034161419E+04  0.29966736779E+04 0.  0.
        2    1    3    3  502    0  0.41095960253E+03  0.41478733756E+03 -0.12824200359E+04  0.14090910115E+04  0.25500000920E-02 0.  1.
       -2    1    3    3    0  502 -0.41095960253E+03 -0.41478733756E+03  0.14835552874E+04  0.15943251303E+04  0.25500000920E-02 0. -1.
</event>
<event>
 5   0  0.2679935E-07  0.2982566E+04  0.7818609E-02  0.8248727E-01
        1   -1    0    0  501    0  0.00000000000E+00  0.00000000000E+00  0.12554188692E+04  0.12554188693E+04  0.50400001928E-02 0. -1.
       -1   -1    0    0    0  501  0.00000000000E+00  0.00000000000E+00 -0.17714610379E+04  0.17714610379E+04  0.50400001928E-02 0.  1.
    10030    2    1    2    0    0  0.00000000000E+00  0.00000000000E+00 -0.51604216868E+03  0.30268799072E+04  0.29825664205E+04 0.  0.
        2    1    3    3  502    0  0.30669709565E+03  0.14781226542E+03  0.12154506728E+04  0.12622329073E+04  0.25500000920E-02 0. -1.
       -2    1    3    3    0  502 -0.30669709565E+03 -0.14781226542E+03 -0.17314928414E+04  0.17646469999E+04  0.25500000920E-02 0.  1.
</event>
<event>
 5   0  0.7399409E-07  0.2962469E+04  0.7818609E-02  0.8254530E-01
        2   -1    0    0  501    0  0.00000000000E+00  0.00000000000E+00  0.13728244210E+04  0.13728244210E+04  0.25500000920E-02 0. -1.
       -2   -1    0    0    0  501  0.00000000000E+00  0.00000000000E+00 -0.15982053788E+04  0.15982053788E+04  0.25500000920E-02 0.  1.
    10030    2    1    2    0    0  0.00000000000E+00  0.00000000000E+00 -0.22538095780E+03  0.29710297999E+04  0.29624688177E+04 0.  0.
        3    1    3    3  502    0 -0.22606428118E+03  0.13590871116E+04 -0.65816715099E+03  0.15268945101E+04  0.10100000352E+00 0.  1.
       -3    1    3    3    0  502  0.22606428118E+03 -0.13590871116E+04  0.43278619319E+03  0.14441352898E+04  0.10100000352E+00 0. -1.
</event>
<event>
 5   0  0.7307508E-07  0.3002356E+04  0.7818609E-02  0.8243058E-01
       -2   -1    0    0    0  501  0.00000000000E+00  0.00000000000E+00  0.10827032921E+04  0.10827032921E+04  0.25500000920E-02 0. -1.
        2   -1    0    0  501    0  0.00000000000E+00  0.00000000000E+00 -0.20813972840E+04  0.20813972840E+04  0.25500000920E-02 0.  1.
    10030    2    1    2    0    0  0.00000000000E+00  0.00000000000E+00 -0.99869399185E+03  0.31641005761E+04  0.30023562025E+04 0.  0.
        1    1    3    3  502    0 -0.56717237233E+03 -0.10772386050E+04 -0.14249615687E+04  0.18742046272E+04  0.50400001928E-02 0.  1.
       -1    1    3    3    0  502  0.56717237233E+03  0.10772386050E+04  0.42626757688E+03  0.12898959490E+04  0.50400001928E-02 0. -1.
</event>
<event>
 5   0  0.7399409E-07  0.3000039E+04  0.7818609E-02  0.8243720E-01
       -2   -1    0    0    0  501  0.00000000000E+00  0.00000000000E+00  0.14423734460E+04  0.14423734460E+04  0.25500000920E-02 0. -1.
        2   -1    0    0  501    0  0.00000000000E+00  0.00000000000E+00 -0.15599694704E+04  0.15599694704E+04  0.25500000920E-02 0.  1.
    10030    2    1    2    0    0  0.00000000000E+00  0.00000000000E+00 -0.11759602440E+03  0.30023429165E+04  0.30000390269E+04 0.  0.
        3    1    3    3  502    0  0.50117858301E+03  0.11466371357E+04  0.76894165539E+03  0.14687504801E+04  0.10100000352E+00 0. -1.
       -3    1    3    3    0  502 -0.50117858301E+03 -0.11466371357E+04 -0.88653767979E+03  0.15335924364E+04  0.10100000352E+00 0.  1.
</event>
<event>
 5   0  0.2640081E-07  0.3036224E+04  0.7818609E-02  0.8233462E-01
        1   -1    0    0  501    0  0.00000000000E+00  0.00000000000E+00  0.27043122246E+04  0.27043122246E+04  0.50400001928E-02 0. -1.
       -1   -1    0    0    0  501  0.00000000000E+00  0.00000000000E+00 -0.85221835386E+03  0.85221835387E+03  0.50400001928E-02 0.  1.
    10030    2    1    2    0    0  0.00000000000E+00  0.00000000000E+00  0.18520938707E+04  0.35565305785E+04  0.30362243082E+04 0.  0.
        1    1    3    3  502    0 -0.91622362576E+03 -0.34210165780E+03 -0.43403244390E+03  0.10699922612E+04  0.50400001928E-02 0.  1.
       -1    1    3    3    0  502  0.91622362576E+03  0.34210165780E+03  0.22861263146E+04  0.24865383173E+04  0.50400001928E-02 0. -1.
</event>
<event>
 5   0  0.7278657E-07  0.2970139E+04  0.7818609E-02  0.8252310E-01
       -2   -1    0    0    0  501  0.00000000000E+00  0.00000000000E+00  0.16091077872E+04  0.16091077872E+04  0.25500000920E-02 0. -1.
        2   -1    0    0  501    0  0.00000000000E+00  0.00000000000E+00 -0.13705926332E+04  0.13705926332E+04  0.25500000920E-02 0.  1.
    10030    2    1    2    0    0  0.00000000000E+00  0.00000000000E+00  0.23851515407E+03  0.29797004204E+04  0.29701389053E+04 0.  0.
        2    1    3    3  502    0  0.12803692477E+04 -0.65737468516E+03 -0.24790474648E+03  0.14604600817E+04  0.25500000920E-02 0.  1.
       -2    1    3    3    0  502 -0.12803692477E+04  0.65737468516E+03  0.48641990055E+03  0.15192403387E+04  0.25500000920E-02 0. -1.
</event>
<event>
 5   0  0.7278657E-07  0.2997415E+04  0.7818609E-02  0.8244470E-01
       -2   -1    0    0    0  501  0.00000000000E+00  0.00000000000E+00  0.12359604682E+04  0.12359604682E+04  0.25500000920E-02 0. -1.
        2   -1    0    0  501    0  0.00000000000E+00  0.00000000000E+00 -0.18173103563E+04  0.18173103563E+04  0.25500000920E-02 0.  1.
    10030    2    1    2    0    0  0.00000000000E+00  0.00000000000E+00 -0.58134988809E+03  0.30532708245E+04  0.29974147252E+04 0.  0.
        2    1    3    3  502    0  0.29164371013E+03  0.73980860968E+02 -0.17862287022E+04  0.18113923368E+04  0.25500000920E-02 0.  1.
       -2    1    3    3    0  502 -0.29164371013E+03 -0.73980860968E+02  0.12048788141E+04  0.12418784876E+04  0.25500000920E-02 0. -1.
</event>
<event>
 5   0  0.2640081E-07  0.3002818E+04  0.7818609E-02  0.8242927E-01
       -1   -1    0    0    0  501  0.00000000000E+00  0.00000000000E+00  0.20852566897E+04  0.20852566897E+04  0.50400001928E-02 0.  1.
        1   -1    0    0  501    0  0.00000000000E+00  0.00000000000E+00 -0.10810320162E+04  0.10810320162E+04  0.50400001928E-02 0. -1.
    10030    2    1    2    0    0  0.00000000000E+00  0.00000000000E+00  0.10042246735E+04  0.31662887060E+04  0.30028181721E+04 0.  0.
        1    1    3    3  502    0 -0.13565642420E+04  0.70670646035E+02 -0.17220811491E+03  0.13692759100E+04  0.50400001928E-02 0. -1.
       -1    1    3    3    0  502  0.13565642420E+04 -0.70670646035E+02  0.11764327884E+04  0.17970127959E+04  0.50400001928E-02 0.  1.
</event>
<event>
 5   0  0.2792361E-07  0.3001230E+04  0.7818609E-02  0.8243380E-01
       -1   -1    0    0    0  501  0.00000000000E+00  0.00000000000E+00  0.10669132788E+04  0.10669132788E+04  0.50400001928E-02 0. -1.
        1   -1    0    0  501    0  0.00000000000E+00  0.00000000000E+00 -0.21106168268E+04  0.21106168268E+04  0.50400001928E-02 0.  1.
    10030    2    1    2    0    0  0.00000000000E+00  0.00000000000E+00 -0.10437035480E+04  0.31775301057E+04  0.30012298273E+04 0.  0.
        4    1    3    3  502    0  0.10665981735E+04 -0.10549841261E+04 -0.55883716207E+03  0.16009134132E+04  0.12699999809E+01 0. -1.
       -4    1    3    3    0  502 -0.10665981735E+04  0.10549841261E+04 -0.48486638593E+03  0.15766166925E+04  0.12699999809E+01 0.  1.
</event>
<event>
 5   0  0.2602891E-07  0.3000618E+04  0.7818609E-02  0.8243555E-01
        1   -1    0    0  501    0  0.00000000000E+00  0.00000000000E+00  0.12724495408E+04  0.12724495408E+04  0.50400001928E-02 0. -1.
       -1   -1    0    0    0  501  0.00000000000E+00  0.00000000000E+00 -0.17689711214E+04  0.17689711214E+04  0.50400001928E-02 0.  1.
    10030    2    1    2    0    0  0.00000000000E+00  0.00000000000E+00 -0.49652158057E+03  0.30414206622E+04  0.30006175971E+04 0.  0.
        5    1    3    3  502    0  0.35759832533E+03  0.14541002219E+04 -0.15415222893E+03  0.15053468096E+04  0.46999998093E+01 0.  1.
       -5    1    3    3    0  502 -0.35759832533E+03 -0.14541002219E+04 -0.34236935164E+03  0.15360738525E+04  0.46999998093E+01 0. -1.
</event>
<event>
 5   0  0.7208273E-07  0.2997769E+04  0.7818609E-02  0.8244368E-01
       -2   -1    0    0    0  501  0.00000000000E+00  0.00000000000E+00  0.95123359999E+03  0.95123360000E+03  0.25500000920E-02 0. -1.
        2   -1    0    0  501    0  0.00000000000E+00  0.00000000000E+00 -0.23618324937E+04  0.23618324937E+04  0.25500000920E-02 0.  1.
    10030    2    1    2    0    0  0.00000000000E+00  0.00000000000E+00 -0.14105988937E+04  0.33130660937E+04  0.29977687873E+04 0.  0.
        4    1    3    3  502    0 -0.49413315856E+02  0.14657964739E+04 -0.10471046090E+04  0.18020628884E+04  0.12699999809E+01 0.  1.
       -4    1    3    3    0  502  0.49413315856E+02 -0.14657964739E+04 -0.36349428471E+03  0.15110032053E+04  0.12699999809E+01 0. -1.
</event>
<event>
 5   0  0.2602891E-07  0.3029699E+04  0.7818609E-02  0.8235301E-01
        1   -1    0    0  501    0  0.00000000000E+00  0.00000000000E+00  0.21203310592E+04  0.21203310592E+04  0.50400001928E-02 0.  1.
       -1   -1    0    0    0  501  0.00000000000E+00  0.00000000000E+00 -0.10822693679E+04  0.10822693679E+04  0.50400001928E-02 0. -1.
    10030    2    1    2    0    0  0.00000000000E+00  0.00000000000E+00  0.10380616913E+04  0.32026004271E+04  0.30296992294E+04 0.  0.
        5    1    3    3  502    0 -0.57326104740E+03  0.13925221492E+04  0.34533318279E+03  0.15449994374E+04  0.46999998093E+01 0. -1.
       -5    1    3    3    0  502  0.57326104740E+03 -0.13925221492E+04  0.69272850852E+03  0.16576009897E+04  0.46999998093E+01 0.  1.
</event>
<event>
 5   0  0.7307508E-07  0.2999589E+04  0.7818609E-02  0.8243848E-01
       -2   -1    0    0    0  501  0.00000000000E+00  0.00000000000E+00  0.12835185077E+04  0.12835185077E+04  0.25500000920E-02 0.  1.
        2   -1    0    0  501    0  0.00000000000E+00  0.00000000000E+00 -0.17525141025E+04  0.17525141025E+04  0.25500000920E-02 0. -1.
    10030    2    1    2    0    0  0.00000000000E+00  0.00000000000E+00 -0.46899559472E+03  0.30360326102E+04  0.29995894956E+04 0.  0.
        1    1    3    3  502    0  0.13342950860E+04  0.42293439547E+03 -0.77971421099E+03  0.16022394110E+04  0.50400001928E-02 0. -1.
       -1    1    3    3    0  502 -0.13342950860E+04 -0.42293439547E+03  0.31071861627E+03  0.14337931992E+04  0.50400001928E-02 0.  1.
</event>
<event>
 5   0  0.2602891E-07  0.3021330E+04  0.7818609E-02  0.8237666E-01
        1   -1    0    0  501    0  0.00000000000E+00  0.00000000000E+00  0.20175044687E+04  0.20175044687E+04  0.50400001928E-02 0. -1.
       -1   -1    0    0    0  501  0.00000000000E+00  0.00000000000E+00 -0.11311539658E+04  0.11311539658E+04  0.50400001928E-02 0.  1.
    10030    2    1    2    0    0  0.00000000000E+00  0.00000000000E+00  0.88635050287E+03  0.31486584345E+04  0.30213296284E+04 0.  0.
        5    1    3    3  502    0 -0.16568266890E+03 -0.60876127079E+02 -0.11203625381E+04  0.11341917635E+04  0.46999998093E+01 0.  1.
       -5    1    3    3    0  502  0.16568266890E+03  0.60876127079E+02  0.20067130410E+04  0.20144666710E+04  0.46999998093E+01 0. -1.
</event>
<event>
 5   0  0.2621825E-07  0.2965582E+04  0.7818609E-02  0.8253628E-01
       -1   -1    0    0    0  501  0.00000000000E+00  0.00000000000E+00  0.93467319063E+03  0.93467319065E+03  0.50400001928E-02 0.  1.
        1   -1    0    0  501    0  0.00000000000E+00  0.00000000000E+00 -0.23523396320E+04  0.23523396321E+04  0.50400001928E-02 0. -1.
    10030    2    1    2    0    0  0.00000000000E+00  0.00000000000E+00 -0.14176664414E+04  0.32870128227E+04  0.29655817570E+04 0.  0.
        3    1    3    3  502    0  0.10505736369E+04 -0.99298932357E+03 -0.10746614717E+04  0.18012856665E+04  0.10100000352E+00 0. -1.
       -3    1    3    3    0  502 -0.10505736369E+04  0.99298932357E+03 -0.34300496967E+03  0.14857271562E+04  0.10100000352E+00 0.  1.
</event>
<event>
 5   0  0.2621825E-07  0.3000685E+04  0.7818609E-02  0.8243535E-01
       -1   -1    0    0    0  501  0.00000000000E+00  0.00000000000E+00  0.10042491946E+04  0.10042491946E+04  0.50400001928E-02 0.  1.
        1   -1    0    0  501    0  0.00000000000E+00  0.00000000000E+00 -0.22415024614E+04  0.22415024614E+04  0.50400001928E-02 0. -1.
    10030    2    1    2    0    0  0.00000000000E+00  0.00000000000E+00 -0.12372532668E+04  0.32457516561E+04  0.30006846163E+04 0.  0.
        3    1    3    3  502    0  0.52262586358E+03 -0.11710832543E+04  0.22372534336E+03  0.13017783303E+04  0.10100000352E+00 0. -1.
       -3    1    3    3    0  502 -0.52262586358E+03  0.11710832543E+04 -0.14609786101E+04  0.19439733258E+04  0.10100000352E+00 0.  1.
</event>
<event>
 5   0  0.2602891E-07  0.2996811E+04  0.7818609E-02  0.8244642E-01
        1   -1    0    0  501    0  0.00000000000E+00  0.00000000000E+00  0.22949961173E+04  0.22949961173E+04  0.50400001928E-02 0.  1.
       -1   -1    0    0    0  501  0.00000000000E+00  0.00000000000E+00 -0.97831041376E+03  0.97831041377E+03  0.50400001928E-02 0. -1.
    10030    2    1    2    0    0  0.00000000000E+00  0.00000000000E+00  0.13166857036E+04  0.32733065311E+04  0.29968107055E+04 0.  0.
        5    1    3    3  502    0  0.14204852530E+04 -0.18681270334E+03  0.17909038476E+03  0.14438742313E+04  0.46999998093E+01 0. -1.
       -5    1    3    3    0  502 -0.14204852530E+04  0.18681270334E+03  0.11375953188E+04  0.18294322998E+04  0.46999998093E+01 0.  1.
</event>
<event>
 5   0  0.7208273E-07  0.2999720E+04  0.7818609E-02  0.8243811E-01
        2   -1    0    0  501    0  0.00000000000E+00  0.00000000000E+00  0.11388528730E+04  0.11388528730E+04  0.25500000920E-02 0.  1.
       -2   -1    0    0    0  501  0.00000000000E+00  0.00000000000E+00 -0.19753032827E+04  0.19753032827E+04  0.25500000920E-02 0. -1.
    10030    2    1    2    0    0  0.00000000000E+00  0.00000000000E+00 -0.83645040971E+03  0.31141561556E+04  0.29997198659E+04 0.  0.
        4    1    3    3  502    0  0.12450102427E+04  0.18066151618E+03  0.42956130566E+03  0.13293658699E+04  0.12699999809E+01 0.  1.
       -4    1    3    3    0  502 -0.12450102427E+04 -0.18066151618E+03 -0.12660117154E+04  0.17847902857E+04  0.12699999809E+01 0. -1.
</event>
<event>
 5   0  0.7399409E-07  0.2999394E+04  0.7818609E-02  0.8243904E-01
        2   -1    0    0  501    0  0.00000000000E+00  0.00000000000E+00  0.17829302506E+04  0.17829302506E+04  0.25500000920E-02 0.  1.
       -2   -1    0    0    0  501  0.00000000000E+00  0.00000000000E+00 -0.12614578620E+04  0.12614578620E+04  0.25500000920E-02 0. -1.
    10030    2    1    2    0    0  0.00000000000E+00  0.00000000000E+00  0.52147238864E+03  0.30443881126E+04  0.29993941935E+04 0.  0.
        3    1    3    3  502    0 -0.10844392383E+02  0.14871119179E+04  0.45721667514E+03  0.15558491429E+04  0.10100000352E+00 0.  1.
       -3    1    3    3    0  502  0.10844392383E+02 -0.14871119179E+04  0.64255713496E+02  0.14885389697E+04  0.10100000352E+00 0. -1.
</event>
<event>
 5   0  0.7278657E-07  0.2996986E+04  0.7818609E-02  0.8244592E-01
        2   -1    0    0  501    0  0.00000000000E+00  0.00000000000E+00  0.99827443364E+03  0.99827443364E+03  0.25500000920E-02 0. -1.
       -2   -1    0    0    0  501  0.00000000000E+00  0.00000000000E+00 -0.22493628980E+04  0.22493628980E+04  0.25500000920E-02 0.  1.
    10030    2    1    2    0    0  0.00000000000E+00  0.00000000000E+00 -0.12510884643E+04  0.32476373316E+04  0.29969861348E+04 0.  0.
        2    1    3    3  502    0 -0.94480578042E+03 -0.11039334478E+04 -0.22864035820E+03  0.14709192477E+04  0.25500000920E-02 0. -1.
       -2    1    3    3    0  502  0.94480578042E+03  0.11039334478E+04 -0.10224481061E+04  0.17767180839E+04  0.25500000920E-02 0.  1.
</event>
<event>
 5   0  0.7307508E-07  0.3002516E+04  0.7818609E-02  0.8243013E-01
       -2   -1    0    0    0  501  0.00000000000E+00  0.00000000000E+00  0.14960953516E+04  0.14960953516E+04  0.25500000920E-02 0.  1.
        2   -1    0    0  501    0  0.00000000000E+00  0.00000000000E+00 -0.15064387256E+04  0.15064387256E+04  0.25500000920E-02 0. -1.
    10030    2    1    2    0    0  0.00000000000E+00  0.00000000000E+00 -0.10343374011E+02  0.30025340773E+04  0.30025162614E+04 0.  0.
        1    1    3    3  502    0  0.57679000517E+03 -0.58988992632E+03 -0.12594195925E+04  0.15055877740E+04  0.50400001928E-02 0. -1.
       -1    1    3    3    0  502 -0.57679000517E+03  0.58988992632E+03  0.12490762185E+04  0.14969463033E+04  0.50400001928E-02 0.  1.
</event>
<event>
 5   0  0.7585823E-07  0.3004058E+04  0.7818609E-02  0.8242573E-01
        2   -1    0    0  501    0  0.00000000000E+00  0.00000000000E+00  0.15030672336E+04  0.15030672336E+04  0.25500000920E-02 0. -1.
       -2   -1    0    0    0  501  0.00000000000E+00  0.00000000000E+00 -0.15009917871E+04  0.15009917871E+04  0.25500000920E-02 0.  1.
    10030    2    1    2    0    0  0.00000000000E+00  0.00000000000E+00  0.20754464536E+01  0.30040590207E+04  0.30040583037E+04 0.  0.
        5    1    3    3  502    0 -0.40260894998E+03  0.36246671435E+03  0.14019639648E+04  0.15029973833E+04  0.46999998093E+01 0. -1.
       -5    1    3    3    0  502  0.40260894998E+03 -0.36246671435E+03 -0.13998885183E+04  0.15010616374E+04  0.46999998093E+01 0.  1.
</event>
<event>
 5   0  0.7399409E-07  0.3007043E+04  0.7818609E-02  0.8241723E-01
       -2   -1    0    0    0  501  0.00000000000E+00  0.00000000000E+00  0.10776839700E+04  0.10776839700E+04  0.25500000920E-02 0.  1.
        2   -1    0    0  501    0  0.00000000000E+00  0.00000000000E+00 -0.20976250096E+04  0.20976250096E+04  0.25500000920E-02 0. -1.
    10030    2    1    2    0    0  0.00000000000E+00  0.00000000000E+00 -0.10199410396E+04  0.31753089796E+04  0.30070429648E+04 0.  0.
        3    1    3    3  502    0 -0.25207359408E+03 -0.42343372618E+03  0.98998686028E+03  0.11058531598E+04  0.10100000352E+00 0.  1.
       -3    1    3    3    0  502  0.25207359408E+03  0.42343372618E+03 -0.20099278999E+04  0.20694558198E+04  0.10100000352E+00 0. -1.
</event>
<event>
 5   0  0.2621825E-07  0.2996843E+04  0.7818609E-02  0.8244633E-01
        1   -1    0    0  501    0  0.00000000000E+00  0.00000000000E+00  0.12255068772E+04  0.12255068772E+04  0.50400001928E-02 0. -1.
       -1   -1    0    0    0  501  0.00000000000E+00  0.00000000000E+00 -0.18321123236E+04  0.18321123236E+04  0.50400001928E-02 0.  1.
    10030    2    1    2    0    0  0.00000000000E+00  0.00000000000E+00 -0.60660544640E+03  0.30576192009E+04  0.29968425067E+04 0.  0.
        3    1    3    3  502    0 -0.10692516685E+04  0.10387211668E+04 -0.14848398120E+03  0.14980948888E+04  0.10100000352E+00 0. -1.
       -3    1    3    3    0  502  0.10692516685E+04 -0.10387211668E+04 -0.45812146520E+03  0.15595243121E+04  0.10100000352E+00 0.  1.
</event>
<event>
 5   0  0.2621825E-07  0.2999347E+04  0.7818609E-02  0.8243917E-01
       -1   -1    0    0    0  501  0.00000000000E+00  0.00000000000E+00  0.17831509317E+04  0.17831509317E+04  0.50400001928E-02 0. -1.
        1   -1    0    0  501    0  0.00000000000E+00  0.00000000000E+00 -0.12612622098E+04  0.12612622099E+04  0.50400001928E-02 0.  1.
    10030    2    1    2    0    0  0.00000000000E+00  0.00000000000E+00  0.52188872188E+03  0.30444131416E+04  0.29993471854E+04 0.  0.
        3    1    3    3  502    0 -0.41270309242E+03 -0.22233212818E+03 -0.11849823460E+04  0.12743384905E+04  0.10100000352E+00 0.  1.
       -3    1    3    3    0  502  0.41270309242E+03  0.22233212818E+03  0.17068710679E+04  0.17700746511E+04  0.10100000352E+00 0. -1.
</event>
<event>
 5   0  0.2602891E-07  0.3001595E+04  0.7818609E-02  0.8243275E-01
        1   -1    0    0  501    0  0.00000000000E+00  0.00000000000E+00  0.19857040770E+04  0.19857040770E+04  0.50400001928E-02 0. -1.
       -1   -1    0    0    0  501  0.00000000000E+00  0.00000000000E+00 -0.11343048857E+04  0.11343048857E+04  0.50400001928E-02 0.  1.
    10030    2    1    2    0    0  0.00000000000E+00  0.00000000000E+00  0.85139919132E+03  0.31200089627E+04  0.30015954665E+04 0.  0.
        5    1    3    3  502    0 -0.10983174496E+04 -0.97898885512E+03  0.73343890851E+03  0.16439814844E+04  0.46999998093E+01 0. -1.
       -5    1    3    3    0  502  0.10983174496E+04  0.97898885512E+03  0.11796028281E+03  0.14760274783E+04  0.46999998093E+01 0.  1.
</event>
<event>
 5   0  0.2621825E-07  0.3002162E+04  0.7818609E-02  0.8243114E-01
       -1   -1    0    0    0  501  0.00000000000E+00  0.00000000000E+00  0.11999298461E+04  0.11999298461E+04  0.50400001928E-02 0.  1.
        1   -1    0    0  501    0  0.00000000000E+00  0.00000000000E+00 -0.18778134290E+04  0.18778134290E+04  0.50400001928E-02 0. -1.
    10030    2    1    2    0    0  0.00000000000E+00  0.00000000000E+00 -0.67788358289E+03  0.30777432750E+04  0.30021621400E+04 0.  0.
        3    1    3    3  502    0 -0.30197921085E+03 -0.14571569366E+04 -0.54073891605E+03  0.15833181510E+04  0.10100000352E+00 0.  1.
       -3    1    3    3    0  502  0.30197921085E+03  0.14571569366E+04 -0.13714466684E+03  0.14944251241E+04  0.10100000352E+00 0. -1.
</event>
<event>
 5   0  0.7278657E-07  0.3002514E+04  0.7818609E-02  0.8243013E-01
       -2   -1    0    0    0  501  0.00000000000E+00  0.00000000000E+00  0.12525746314E+04  0.12525746314E+04  0.25500000920E-02 0.  1.
        2   -1    0    0  501    0  0.00000000000E+00  0.00000000000E+00 -0.17993119438E+04  0.17993119438E+04  0.25500000920E-02 0. -1.
    10030    2    1    2    0    0  0.00000000000E+00  0.00000000000E+00 -0.54673731238E+03  0.30518865752E+04  0.30025139432E+04 0.  0.
        2    1    3    3  502    0  0.31593366953E+03  0.68474939467E+03 -0.15928194230E+04  0.17623193613E+04  0.25500000920E-02 0. -1.
       -2    1    3    3    0  502 -0.31593366953E+03 -0.68474939467E+03  0.10460821106E+04  0.12895672139E+04  0.25500000920E-02 0.  1.
</event>
<event>
 5   0  0.7399409E-07  0.3006448E+04  0.7818609E-02  0.8241892E-01
        2   -1    0    0  501    0  0.00000000000E+00  0.00000000000E+00  0.22658608355E+04  0.22658608355E+04  0.25500000920E-02 0.  1.
       -2   -1    0    0    0  501  0.00000000000E+00  0.00000000000E+00 -0.99727317483E+03  0.99727317483E+03  0.25500000920E-02 0. -1.
    10030    2    1    2    0    0  0.00000000000E+00  0.00000000000E+00  0.12685876606E+04  0.32631340103E+04  0.30064478902E+04 0.  0.
        3    1    3    3  502    0  0.14603204181E+04 -0.31031010868E+03  0.44364335432E+03  0.15574490435E+04  0.10100000352E+00 0.  1.
       -3    1    3    3    0  502 -0.14603204181E+04  0.31031010868E+03  0.82494430631E+03  0.17056849668E+04  0.10100000352E+00 0. -1.
</event>
<event>
 5   0  0.2621825E-07  0.3002240E+04  0.7818609E-02  0.8243091E-01
       -1   -1    0    0    0  501  0.00000000000E+00  0.00000000000E+00  0.16385501143E+04  0.16385501143E+04  0.50400001928E-02 0. -1.
        1   -1    0    0  501    0  0.00000000000E+00  0.00000000000E+00 -0.13752169224E+04  0.13752169224E+04  0.50400001928E-02 0.  1.
    10030    2    1    2    0    0  0.00000000000E+00  0.00000000000E+00  0.26333319191E+03  0.30137670367E+04  0.30022403937E+04 0.  0.
        3    1    3    3  502    0  0.71696503976E+03  0.72936202469E+02 -0.11902046983E+04  0.13913826907E+04  0.10100000352E+00 0.  1.
       -3    1    3    3    0  502 -0.71696503976E+03 -0.72936202469E+02  0.14535378902E+04  0.16223843460E+04  0.10100000352E+00 0. -1.
</event>
<event>
 5   0  0.2679935E-07  0.2987588E+04  0.7818609E-02  0.8247284E-01
        1   -1    0    0  501    0  0.00000000000E+00  0.00000000000E+00  0.27027408299E+04  0.27027408299E+04  0.50400001928E-02 0.  1.
       -1   -1    0    0    0  501  0.00000000000E+00  0.00000000000E+00 -0.82561369791E+03  0.82561369793E+03  0.50400001928E-02 0. -1.
    10030    2    1    2    0    0  0.00000000000E+00  0.00000000000E+00  0.18771271320E+04  0.35283545279E+04  0.29875875560E+04 0.  0.
        2    1    3    3  502    0 -0.83141370126E+03 -0.27029621425E+03  0.23690477844E+04  0.25252121081E+04  0.25500000920E-02 0.  1.
       -2    1    3    3    0  502  0.83141370126E+03  0.27029621425E+03 -0.49192065239E+03  0.10031424198E+04  0.25500000920E-02 0. -1.
</event>
<event>
 5   0  0.7278657E-07  0.2997310E+04  0.7818609E-02  0.8244499E-01
        2   -1    0    0  501    0  0.00000000000E+00  0.00000000000E+00  0.19423307427E+04  0.19423307427E+04  0.25500000920E-02 0.  1.
       -2   -1    0    0    0  501  0.00000000000E+00  0.00000000000E+00 -0.11563255315E+04  0.11563255315E+04  0.25500000920E-02 0. -1.
    10030    2    1    2    0    0  0.00000000000E+00  0.00000000000E+00  0.78600521117E+03  0.30986562742E+04  0.29973098795E+04 0.  0.
        2    1    3    3  502    0 -0.12320110464E+04 -0.82729595661E+03  0.17689670464E+03  0.14945107100E+04  0.25500000920E-02 0. -1.
       -2    1    3    3    0  502  0.12320110464E+04  0.82729595661E+03  0.60910850653E+03  0.16041455642E+04  0.25500000920E-02 0.  1.
</event>
<event>
 5   0  0.2792361E-07  0.3001288E+04  0.7818609E-02  0.8243363E-01
       -1   -1    0    0    0  501  0.00000000000E+00  0.00000000000E+00  0.13516403997E+04  0.13516403997E+04  0.50400001928E-02 0.  1.
        1   -1    0    0  501    0  0.00000000000E+00  0.00000000000E+00 -0.16660732635E+04  0.16660732635E+04  0.50400001928E-02 0. -1.
    10030    2    1    2    0    0  0.00000000000E+00  0.00000000000E+00 -0.31443286376E+03  0.30177136632E+04  0.30012876782E+04 0.  0.
        4    1    3    3  502    0  0.10951027428E+04 -0.39471958061E+03  0.79500244775E+03  0.14096396949E+04  0.12699999809E+01 0.  1.
       -4    1    3    3    0  502 -0.10951027428E+04  0.39471958061E+03 -0.11094353115E+04  0.16080739684E+04  0.12699999809E+01 0. -1.
</event>
<event>
 5   0  0.7307508E-07  0.3000412E+04  0.7818609E-02  0.8243613E-01
        2   -1    0    0  501    0  0.00000000000E+00  0.00000000000E+00  0.19774111173E+04  0.19774111173E+04  0.25500000920E-02 0.  1.
       -2   -1    0    0    0  501  0.00000000000E+00  0.00000000000E+00 -0.11381642074E+04  0.11381642074E+04  0.25500000920E-02 0. -1.
    10030    2    1    2    0    0  0.00000000000E+00  0.00000000000E+00  0.83924690993E+03  0.31155753246E+04  0.30004123429E+04 0.  0.
        1    1    3    3  502    0  0.96717200476E+03 -0.11369471018E+04  0.26369949906E+03  0.15157862069E+04  0.50400001928E-02 0.  1.
       -1    1    3    3    0  502 -0.96717200476E+03  0.11369471018E+04  0.57554741086E+03  0.15997891178E+04  0.50400001928E-02 0. -1.
</event>
<event>
 5   0  0.2792361E-07  0.3002541E+04  0.7818609E-02  0.8243006E-01
        1   -1    0    0  501    0  0.00000000000E+00  0.00000000000E+00  0.15468743029E+04  0.15468743029E+04  0.50400001928E-02 0.  1.
       -1   -1    0    0    0  501  0.00000000000E+00  0.00000000000E+00 -0.14570107568E+04  0.14570107568E+04  0.50400001928E-02 0. -1.
    10030    2    1    2    0    0  0.00000000000E+00  0.00000000000E+00  0.89863546092E+02  0.30038850597E+04  0.30025405901E+04 0.  0.
        4    1    3    3  502    0 -0.19134851862E+03  0.47695503254E+03 -0.13662708420E+04  0.14597253116E+04  0.12699999809E+01 0. -1.
       -4    1    3    3    0  502  0.19134851862E+03 -0.47695503254E+03  0.14561343881E+04  0.15441597481E+04  0.12699999809E+01 0.  1.
</event>
<event>
 5   0  0.2621825E-07  0.2996339E+04  0.7818609E-02  0.8244777E-01
        1   -1    0    0  501    0  0.00000000000E+00  0.00000000000E+00  0.13679752444E+04  0.13679752444E+04  0.50400001928E-02 0.  1.
       -1   -1    0    0    0  501  0.00000000000E+00  0.00000000000E+00 -0.16407544507E+04  0.16407544507E+04  0.50400001928E-02 0. -1.
    10030    2    1    2    0    0  0.00000000000E+00  0.00000000000E+00 -0.27277920627E+03  0.30087296951E+04  0.29963387463E+04 0.  0.
        3    1    3    3  502    0 -0.12147686769E+04 -0.42799709552E+03 -0.90484319013E+03  0.15740348348E+04  0.10100000352E+00 0.  1.
       -3    1    3    3    0  502  0.12147686769E+04  0.42799709552E+03  0.63206398386E+03  0.14346948603E+04  0.10100000352E+00 0. -1.
</event>
<event>
 5   0  0.2679935E-07  0.3005313E+04  0.7818609E-02  0.8242215E-01
       -1   -1    0    0    0  501  0.00000000000E+00  0.00000000000E+00  0.14416998993E+04  0.14416998993E+04  0.50400001928E-02 0.  1.
        1   -1    0    0  501    0  0.00000000000E+00  0.00000000000E+00 -0.15661900925E+04  0.15661900925E+04  0.50400001928E-02 0. -1.
    10030    2    1    2    0    0  0.00000000000E+00  0.00000000000E+00 -0.12449019320E+03  0.30078899917E+04  0.30053126949E+04 0.  0.
        2    1    3    3  502    0 -0.25811531772E+03 -0.89902532099E+03 -0.12393089520E+04  0.15526611747E+04  0.25500000920E-02 0. -1.
       -2    1    3    3    0  502  0.25811531772E+03  0.89902532099E+03  0.11148187588E+04  0.14552288170E+04  0.25500000920E-02 0.  1.
</event>
<event>
 5   0  0.7307508E-07  0.2996353E+04  0.7818609E-02  0.8244773E-01
       -2   -1    0    0    0  501  0.00000000000E+00  0.00000000000E+00  0.10163556126E+04  0.10163556126E+04  0.25500000920E-02 0.  1.
        2   -1    0    0  501    0  0.00000000000E+00  0.00000000000E+00 -0.22084127140E+04  0.22084127140E+04  0.25500000920E-02 0. -1.
    10030    2    1    2    0    0  0.00000000000E+00  0.00000000000E+00 -0.11920571014E+04  0.32247683265E+04  0.29963528876E+04 0.  0.
        1    1    3    3  502    0  0.83937745837E+03 -0.72038027316E+03 -0.16835176097E+04  0.20143817408E+04  0.50400001928E-02 0. -1.
       -1    1    3    3    0  502 -0.83937745837E+03  0.72038027316E+03  0.49146050832E+03  0.12103865857E+04  0.50400001928E-02 0.  1.
</event>
<event>
 5   0  0.7585823E-07  0.2998005E+04  0.7818609E-02  0.8244301E-01
       -2   -1    0    0    0  501  0.00000000000E+00  0.00000000000E+00  0.13700922846E+04  0.13700922846E+04  0.25500000920E-02 0. -1.
        2   -1    0    0  501    0  0.00000000000E+00  0.00000000000E+00 -0.16400419092E+04  0.16400419092E+04  0.25500000920E-02 0.  1.
    10030    2    1    2    0    0  0.00000000000E+00  0.00000000000E+00 -0.26994962453E+03  0.30101341938E+04  0.29980051809E+04 0.  0.
        5    1    3    3  502    0 -0.79506869769E+03  0.35497934258E+03 -0.13600924710E+04  0.16149359701E+04  0.46999998093E+01 0.  1.
       -5    1    3    3    0  502  0.79506869769E+03 -0.35497934258E+03  0.10901428465E+04  0.13951982237E+04  0.46999998093E+01 0. -1.
</event>
<event>
 5   0  0.2602891E-07  0.3004889E+04  0.7818609E-02  0.8242336E-01
        1   -1    0    0  501    0  0.00000000000E+00  0.00000000000E+00  0.14206990226E+04  0.14206990227E+04  0.50400001928E-02 0. -1.
       -1   -1    0    0    0  501  0.00000000000E+00  0.00000000000E+00 -0.15888935569E+04  0.15888935569E+04  0.50400001928E-02 0.  1.
    10030    2    1    2    0    0  0.00000000000E+00  0.00000000000E+00 -0.16819453423E+03  0.30095925795E+04  0.30048890318E+04 0.  0.
        5    1    3    3  502    0  0.13596599102E+04  0.10875582371E+03  0.54682092974E+03  0.14695367025E+04  0.46999998093E+01 0. -1.
       -5    1    3    3    0  502 -0.13596599102E+04 -0.10875582371E+03 -0.71501546397E+03  0.15400558770E+04  0.46999998093E+01 0.  1.
</event>
<event>
 5   0  0.7208273E-07  0.3001680E+04  0.7818609E-02  0.8243251E-01
       -2   -1    0    0    0  501  0.00000000000E+00  0.00000000000E+00  0.12870868366E+04  0.12870868366E+04  0.25500000920E-02 0.  1.
        2   -1    0    0  501    0  0.00000000000E+00  0.00000000000E+00 -0.17500918102E+04  0.17500918102E+04  0.25500000920E-02 0. -1.
    10030    2    1    2    0    0  0.00000000000E+00  0.00000000000E+00 -0.46300497363E+03  0.30371786468E+04  0.30016796176E+04 0.  0.
        4    1    3    3  502    0  0.50805493751E+03  0.14112270812E+04 -0.28539423134E+03  0.15268048907E+04  0.12699999809E+01 0.  1.
       -4    1    3    3    0  502 -0.50805493751E+03 -0.14112270812E+04 -0.17761074229E+03  0.15103737560E+04  0.12699999809E+01 0. -1.
</event>
<event>
 5   0  0.2640081E-07  0.2988088E+04  0.7818609E-02  0.8247141E-01
        1   -1    0    0  501    0  0.00000000000E+00  0.00000000000E+00  0.19597186414E+04  0.19597186414E+04  0.50400001928E-02 0.  1.
       -1   -1    0    0    0  501  0.00000000000E+00  0.00000000000E+00 -0.11390242034E+04  0.11390242034E+04  0.50400001928E-02 0. -1.
    10030    2    1    2    0    0  0.00000000000E+00  0.00000000000E+00  0.82069443798E+03  0.30987428448E+04  0.29880876589E+04 0.  0.
        1    1    3    3  502    0  0.14531582271E+04  0.20632123663E+03  0.69984393790E+03  0.16260439180E+04  0.50400001928E-02 0.  1.
       -1    1    3    3    0  502 -0.14531582271E+04 -0.20632123663E+03  0.12085050008E+03  0.14726989268E+04  0.50400001928E-02 0. -1.
</event>
<event>
 5   0  0.2602891E-07  0.3004753E+04  0.7818609E-02  0.8242375E-01
        1   -1    0    0  501    0  0.00000000000E+00  0.00000000000E+00  0.14857699017E+04  0.14857699017E+04  0.50400001928E-02 0.  1.
       -1   -1    0    0    0  501  0.00000000000E+00  0.00000000000E+00 -0.15191689251E+04  0.15191689251E+04  0.50400001928E-02 0. -1.
    10030    2    1    2    0    0  0.00000000000E+00  0.00000000000E+00 -0.33399023381E+02  0.30049388268E+04  0.30047532108E+04 0.  0.
        5    1    3    3  502    0  0.13357148723E+04 -0.40890762025E+03  0.53630274101E+03  0.14963229538E+04  0.46999998093E+01 0.  1.
       -5    1    3    3    0  502 -0.13357148723E+04  0.40890762025E+03 -0.56970176439E+03  0.15086158730E+04  0.46999998093E+01 0. -1.
</event>
<event>
 5   0  0.2679935E-07  0.3044608E+04  0.7818609E-02  0.8231106E-01
       -1   -1    0    0    0  501  0.00000000000E+00  0.00000000000E+00  0.32654684555E+04  0.32654684555E+04  0.50400001928E-02 0.  1.
        1   -1    0    0  501    0  0.00000000000E+00  0.00000000000E+00 -0.70967141382E+03  0.70967141384E+03  0.50400001928E-02 0. -1.
    10030    2    1    2    0    0  0.00000000000E+00  0.00000000000E+00  0.25557970417E+04  0.39751398694E+04  0.30446080967E+04 0.  0.
        2    1    3    3  502    0  0.21464200926E+03  0.74950314114E+02  0.32431775468E+04  0.32511366231E+04  0.25500000920E-02 0.  1.
       -2    1    3    3    0  502 -0.21464200926E+03 -0.74950314114E+02 -0.68738050515E+03  0.72400324625E+03  0.25500000920E-02 0. -1.
</event>
<event>
 5   0  0.2679935E-07  0.2996700E+04  0.7818609E-02  0.8244674E-01
        1   -1    0    0  501    0  0.00000000000E+00  0.00000000000E+00  0.12404449143E+04  0.12404449143E+04  0.50400001928E-02 0. -1.
       -1   -1    0    0    0  501  0.00000000000E+00  0.00000000000E+00 -0.18098776004E+04  0.18098776004E+04  0.50400001928E-02 0.  1.
    10030    2    1    2    0    0  0.00000000000E+00  0.00000000000E+00 -0.56943268613E+03  0.30503225147E+04  0.29967004955E+04 0.  0.
        2    1    3    3  502    0 -0.92904180216E+03  0.96144472655E+03  0.40381845207E+03  0.13966259251E+04  0.25500000920E-02 0. -1.
       -2    1    3    3    0  502  0.92904180216E+03 -0.96144472655E+03 -0.97325113820E+03  0.16536965896E+04  0.25500000920E-02 0.  1.
</event>
<event>
 5   0  0.2602891E-07  0.2996354E+04  0.7818609E-02  0.8244773E-01
        1   -1    0    0  501    0  0.00000000000E+00  0.00000000000E+00  0.14098752752E+04  0.14098752752E+04  0.50400001928E-02 0. -1.
       -1   -1    0    0    0  501  0.00000000000E+00  0.00000000000E+00 -0.15920093035E+04  0.15920093035E+04  0.50400001928E-02 0.  1.
    10030    2    1    2    0    0  0.00000000000E+00  0.00000000000E+00 -0.18213402829E+03  0.30018845788E+04  0.29963541546E+04 0.  0.
        5    1    3    3  502    0  0.42945567287E+03  0.81031957420E+03  0.10957977845E+04  0.14289313705E+04  0.46999998093E+01 0. -1.
       -5    1    3    3    0  502 -0.42945567287E+03 -0.81031957420E+03 -0.12779318127E+04  0.15729532082E+04  0.46999998093E+01 0.  1.
</event>
<event>
 5   0  0.2602891E-07  0.2998234E+04  0.7818609E-02  0.8244235E-01
        1   -1    0    0  501    0  0.00000000000E+00  0.00000000000E+00  0.24568503602E+04  0.24568503603E+04  0.50400001928E-02 0. -1.
       -1   -1    0    0    0  501  0.00000000000E+00  0.00000000000E+00 -0.91472883722E+03  0.91472883724E+03  0.50400001928E-02 0.  1.
    10030    2    1    2    0    0  0.00000000000E+00  0.00000000000E+00  0.15421215230E+04  0.33715791975E+04  0.29982340624E+04 0.  0.
        5    1    3    3  502    0  0.93453205317E+03 -0.10719219341E+04  0.23769716368E+03  0.14418352273E+04  0.46999998093E+01 0.  1.
       -5    1    3    3    0  502 -0.93453205317E+03  0.10719219341E+04  0.13044243593E+04  0.19297439702E+04  0.46999998093E+01 0. -1.
</event>
<event>
 5   0  0.2679935E-07  0.2995441E+04  0.7818609E-02  0.8245034E-01
       -1   -1    0    0    0  501  0.00000000000E+00  0.00000000000E+00  0.12585869521E+04  0.12585869521E+04  0.50400001928E-02 0. -1.
        1   -1    0    0  501    0  0.00000000000E+00  0.00000000000E+00 -0.17822902318E+04  0.17822902318E+04  0.50400001928E-02 0.  1.
    10030    2    1    2    0    0  0.00000000000E+00  0.00000000000E+00 -0.52370327973E+03  0.30408771840E+04  0.29954413569E+04 0.  0.
        2    1    3    3  502    0  0.30909745175E+03 -0.13977678012E+04  0.18513513517E+03  0.14434580282E+04  0.25500000920E-02 0. -1.
       -2    1    3    3    0  502 -0.30909745175E+03  0.13977678012E+04 -0.70883841490E+03  0.15974191558E+04  0.25500000920E-02 0.  1.
</event>
<event>
 5   0  0.2679935E-07  0.2995000E+04  0.7818609E-02  0.8245160E-01
       -1   -1    0    0    0  501  0.00000000000E+00  0.00000000000E+00  0.15050181455E+04  0.15050181455E+04  0.50400001928E-02 0. -1.
        1   -1    0    0  501    0  0.00000000000E+00  0.00000000000E+00 -0.14900198080E+04  0.14900198081E+04  0.50400001928E-02 0.  1.
    10030    2    1    2    0    0  0.00000000000E+00  0.00000000000E+00  0.14998337473E+02  0.29950379536E+04  0.29950003996E+04 0.  0.
        2    1    3    3  502    0  0.99186225965E+03  0.45982768632E+03  0.10308763566E+04  0.15026437721E+04  0.25500000920E-02 0. -1.
       -2    1    3    3    0  502 -0.99186225965E+03 -0.45982768632E+03 -0.10158780191E+04  0.14923941815E+04  0.25500000920E-02 0.  1.
</event>
<event>
 5   0  0.2679935E-07  0.2993326E+04  0.7818609E-02  0.8245639E-01
        1   -1    0    0  501    0  0.00000000000E+00  0.00000000000E+00  0.16399076997E+04  0.16399076997E+04  0.50400001928E-02 0.  1.
       -1   -1    0    0    0  501  0.00000000000E+00  0.00000000000E+00 -0.13659303445E+04  0.13659303445E+04  0.50400001928E-02 0. -1.
    10030    2    1    2    0    0  0.00000000000E+00  0.00000000000E+00  0.27397735527E+03  0.30058380442E+04  0.29933257017E+04 0.  0.
        2    1    3    3  502    0  0.10160351500E+04 -0.10986284488E+04  0.11065321034E+03  0.15005185862E+04  0.25500000920E-02 0. -1.
       -2    1    3    3    0  502 -0.10160351500E+04  0.10986284488E+04  0.16332414493E+03  0.15053194580E+04  0.25500000920E-02 0.  1.
</event>
<event>
 5   0  0.7307508E-07  0.3010916E+04  0.7818609E-02  0.8240621E-01
        2   -1    0    0  501    0  0.00000000000E+00  0.00000000000E+00  0.14730595354E+04  0.14730595354E+04  0.25500000920E-02 0.  1.
       -2   -1    0    0    0  501  0.00000000000E+00  0.00000000000E+00 -0.15385693119E+04  0.15385693119E+04  0.25500000920E-02 0. -1.
    10030    2    1    2    0    0  0.00000000000E+00  0.00000000000E+00 -0.65509776562E+02  0.30116288473E+04  0.30109162697E+04 0.  0.
        1    1    3    3  502    0 -0.49111400692E+03 -0.17723461022E+03  0.13795988055E+04  0.14750925188E+04  0.50400001928E-02 0.  1.
       -1    1    3    3    0  502  0.49111400692E+03  0.17723461022E+03 -0.14451085820E+04  0.15365363285E+04  0.50400001928E-02 0. -1.
</event>
<event>
 5   0  0.2602891E-07  0.2997772E+04  0.7818609E-02  0.8244367E-01
        1   -1    0    0  501    0  0.00000000000E+00  0.00000000000E+00  0.15015396687E+04  0.15015396687E+04  0.50400001928E-02 0.  1.
       -1   -1    0    0    0  501  0.00000000000E+00  0.00000000000E+00 -0.14962368727E+04  0.14962368727E+04  0.50400001928E-02 0. -1.
    10030    2    1    2    0    0  0.00000000000E+00  0.00000000000E+00  0.53027959231E+01  0.29977765414E+04  0.29977718513E+04 0.  0.
        5    1    3    3  502    0 -0.31800961250E+03 -0.13916763622E+04 -0.45423411333E+03  0.14980800815E+04  0.46999998093E+01 0.  1.
       -5    1    3    3    0  502  0.31800961250E+03  0.13916763622E+04  0.45953690926E+03  0.14996964599E+04  0.46999998093E+01 0. -1.
</event>
<event>
 5   0  0.2679935E-07  0.3006725E+04  0.7818609E-02  0.8241813E-01
       -1   -1    0    0    0  501  0.00000000000E+00  0.00000000000E+00  0.12067988769E+04  0.12067988769E+04  0.50400001928E-02 0. -1.
        1   -1    0    0  501    0  0.00000000000E+00  0.00000000000E+00 -0.18728049218E+04  0.18728049218E+04  0.50400001928E-02 0.  1.
    10030    2    1    2    0    0  0.00000000000E+00  0.00000000000E+00 -0.66600604488E+03  0.30796037987E+04  0.30067250465E+04 0.  0.
        2    1    3    3  502    0  0.24762055280E+03  0.13852969385E+04  0.20871688006E+03  0.14226476310E+04  0.25500000920E-02 0. -1.
       -2    1    3    3    0  502 -0.24762055280E+03 -0.13852969385E+04 -0.87472292493E+03  0.16569561676E+04  0.25500000920E-02 0.  1.
</event>
<event>
 5   0  0.2640081E-07  0.2995667E+04  0.7818609E-02  0.8244969E-01
       -1   -1    0    0    0  501  0.00000000000E+00  0.00000000000E+00  0.17955312993E+04  0.17955312993E+04  0.50400001928E-02 0. -1.
        1   -1    0    0  501    0  0.00000000000E+00  0.00000000000E+00 -0.12494941075E+04  0.12494941075E+04  0.50400001928E-02 0.  1.
    10030    2    1    2    0    0  0.00000000000E+00  0.00000000000E+00  0.54603719179E+03  0.30450254068E+04  0.29956673903E+04 0.  0.
        1    1    3    3  502    0 -0.94756731607E+03  0.25885348698E+03  0.14224089216E+04  0.17286225980E+04  0.50400001928E-02 0. -1.
       -1    1    3    3    0  502  0.94756731607E+03 -0.25885348698E+03 -0.87637172978E+03  0.13164028088E+04  0.50400001928E-02 0.  1.
</event>
<event>
 5   0  0.7585823E-07  0.2997638E+04  0.7818609E-02  0.8244406E-01
        2   -1    0    0  501    0  0.00000000000E+00  0.00000000000E+00  0.11284549780E+04  0.11284549780E+04  0.25500000920E-02 0. -1.
       -2   -1    0    0    0  501  0.00000000000E+00  0.00000000000E+00 -0.19907375768E+04  0.19907375768E+04  0.25500000920E-02 0.  1.
    10030    2    1    2    0    0  0.00000000000E+00  0.00000000000E+00 -0.86228259882E+03  0.31191925548E+04  0.29976375554E+04 0.  0.
        5    1    3    3  502    0  0.12811843400E+04 -0.76791698798E+03 -0.55987475702E+03  0.15951838913E+04  0.46999998093E+01 0. -1.
       -5    1    3    3    0  502 -0.12811843400E+04  0.76791698798E+03 -0.30240784180E+03  0.15240086635E+04  0.46999998093E+01 0.  1.
</event>
<event>
 5   0  0.7585823E-07  0.3010144E+04  0.7818609E-02  0.8240840E-01
        2   -1    0    0  501    0  0.00000000000E+00  0.00000000000E+00  0.16143188608E+04  0.16143188608E+04  0.25500000920E-02 0.  1.
       -2   -1    0    0    0  501  0.00000000000E+00  0.00000000000E+00 -0.14032181926E+04  0.14032181926E+04  0.25500000920E-02 0. -1.
    10030    2    1    2    0    0  0.00000000000E+00  0.00000000000E+00  0.21110066814E+03  0.30175370534E+04  0.30101439129E+04 0.  0.
        5    1    3    3  502    0  0.70023649655E+03  0.68696009633E+03  0.12498328362E+04  0.15888201703E+04  0.46999998093E+01 0.  1.
       -5    1    3    3    0  502 -0.70023649655E+03 -0.68696009633E+03 -0.10387321681E+04  0.14287168831E+04  0.46999998093E+01 0. -1.
</event>
<event>
 5   0  0.7208273E-07  0.2995916E+04  0.7818609E-02  0.8244898E-01
        2   -1    0    0  501    0  0.00000000000E+00  0.00000000000E+00  0.15569840488E+04  0.15569840488E+04  0.25500000920E-02 0. -1.
       -2   -1    0    0    0  501  0.00000000000E+00  0.00000000000E+00 -0.14411698042E+04  0.14411698042E+04  0.25500000920E-02 0.  1.
    10030    2    1    2    0    0  0.00000000000E+00  0.00000000000E+00  0.11581424465E+03  0.29981538530E+04  0.29959161516E+04 0.  0.
        4    1    3    3  502    0  0.76121830944E+03 -0.87159637435E+03  0.10097974894E+04  0.15358470421E+04  0.12699999809E+01 0. -1.
       -4    1    3    3    0  502 -0.76121830944E+03  0.87159637435E+03 -0.89398324472E+03  0.14623068109E+04  0.12699999809E+01 0.  1.
</event>
<event>
 5   0  0.2602891E-07  0.3001615E+04  0.7818609E-02  0.8243270E-01
        1   -1    0    0  501    0  0.00000000000E+00  0.00000000000E+00  0.80440581801E+03  0.80440581802E+03  0.50400001928E-02 0.  1.
       -1   -1    0    0    0  501  0.00000000000E+00  0.00000000000E+00 -0.28001081576E+04  0.28001081576E+04  0.50400001928E-02 0. -1.
    10030    2    1    2    0    0  0.00000000000E+00  0.00000000000E+00 -0.19957023396E+04  0.36045139756E+04  0.30016150940E+04 0.  0.
        5    1    3    3  502    0 -0.81462478516E+03 -0.18574220760E+03 -0.24949738498E+04  0.26311651999E+04  0.46999998093E+01 0. -1.
       -5    1    3    3    0  502  0.81462478516E+03  0.18574220760E+03  0.49927151018E+03  0.97334877570E+03  0.46999998093E+01 0.  1.
</event>
<event>
 5   0  0.7278657E-07  0.2972757E+04  0.7818609E-02  0.8251553E-01
        2   -1    0    0  501    0  0.00000000000E+00  0.00000000000E+00  0.15842841244E+04  0.15842841244E+04  0.25500000920E-02 0.  1.
       -2   -1    0    0    0  501  0.00000000000E+00  0.00000000000E+00 -0.13945231308E+04  0.13945231308E+04  0.25500000920E-02 0. -1.
    10030    2    1    2    0    0  0.00000000000E+00  0.00000000000E+00  0.18976099358E+03  0.29788072552E+04  0.29727568735E+04 0.  0.
        2    1    3    3  502    0 -0.11457449325E+04  0.88287354206E+03 -0.24804946552E+03  0.14675577259E+04  0.25500000920E-02 0.  1.
       -2    1    3    3    0  502  0.11457449325E+04 -0.88287354206E+03  0.43781045910E+03  0.15112495292E+04  0.25500000920E-02 0. -1.
</event>
<event>
 5   0  0.2679935E-07  0.2998826E+04  0.7818609E-02  0.8244066E-01
        1   -1    0    0  501    0  0.00000000000E+00  0.00000000000E+00  0.21063474894E+04  0.21063474894E+04  0.50400001928E-02 0. -1.
       -1   -1    0    0    0  501  0.00000000000E+00  0.00000000000E+00 -0.10673638465E+04  0.10673638465E+04  0.50400001928E-02 0.  1.
    10030    2    1    2    0    0  0.00000000000E+00  0.00000000000E+00  0.10389836429E+04  0.31737113360E+04  0.29988258759E+04 0.  0.
        2    1    3    3  502    0 -0.30566996422E+02  0.14266529927E+04  0.32244643164E+02  0.14273446745E+04  0.25500000920E-02 0.  1.
       -2    1    3    3    0  502  0.30566996422E+02 -0.14266529927E+04  0.10067389997E+04  0.17463666615E+04  0.25500000920E-02 0. -1.
</event>
<event>
 5   0  0.7278657E-07  0.3001512E+04  0.7818609E-02  0.8243299E-01
       -2   -1    0    0    0  501  0.00000000000E+00  0.00000000000E+00  0.14279020073E+04  0.14279020073E+04  0.25500000920E-02 0.  1.
        2   -1    0    0  501    0  0.00000000000E+00  0.00000000000E+00 -0.15773273058E+04  0.15773273058E+04  0.25500000920E-02 0. -1.
    10030    2    1    2    0    0  0.00000000000E+00  0.00000000000E+00 -0.14942529849E+03  0.30052293132E+04  0.30015121697E+04 0.  0.
        2    1    3    3  502    0 -0.75292301397E+03 -0.65760760918E+03 -0.11954415310E+04  0.15583392720E+04  0.25500000920E-02 0. -1.
       -2    1    3    3    0  502  0.75292301397E+03  0.65760760918E+03  0.10460162325E+04  0.14468900412E+04  0.25500000920E-02 0.  1.
</event>
<event>
 5   0  0.2602891E-07  0.3003338E+04  0.7818609E-02  0.8242778E-01
        1   -1    0    0  501    0  0.00000000000E+00  0.00000000000E+00  0.17577324971E+04  0.17577324971E+04  0.50400001928E-02 0.  1.
       -1   -1    0    0    0  501  0.00000000000E+00  0.00000000000E+00 -0.12829087612E+04  0.12829087612E+04  0.50400001928E-02 0. -1.
    10030    2    1    2    0    0  0.00000000000E+00  0.00000000000E+00  0.47482373594E+03  0.30406412583E+04  0.30033384228E+04 0.  0.
        5    1    3    3  502    0  0.10168835347E+04 -0.75577204394E+03  0.10534911011E+04  0.16477588099E+04  0.46999998093E+01 0.  1.
       -5    1    3    3    0  502 -0.10168835347E+04  0.75577204394E+03 -0.57866736519E+03  0.13928824484E+04  0.46999998093E+01 0. -1.
</event>
<event>
 5   0  0.7208273E-07  0.3002643E+04  0.7818609E-02  0.8242977E-01
       -2   -1    0    0    0  501  0.00000000000E+00  0.00000000000E+00  0.28129728370E+04  0.28129728370E+04  0.25500000920E-02 0. -1.
        2   -1    0    0  501    0  0.00000000000E+00  0.00000000000E+00 -0.80127559044E+03  0.80127559045E+03  0.25500000920E-02 0.  1.
    10030    2    1    2    0    0  0.00000000000E+00  0.00000000000E+00  0.20116972465E+04  0.36142484274E+04  0.30026431495E+04 0.  0.
        4    1    3    3  502    0 -0.96538441485E+03  0.60287683420E+02  0.23879242649E+04  0.25763900289E+04  0.12699999809E+01 0. -1.
       -4    1    3    3    0  502  0.96538441485E+03 -0.60287683420E+02 -0.37622701835E+03  0.10378583985E+04  0.12699999809E+01 0.  1.
</event>
<event>
 5   0  0.2640081E-07  0.2999107E+04  0.7818609E-02  0.8243986E-01
        1   -1    0    0  501    0  0.00000000000E+00  0.00000000000E+00  0.19580214292E+04  0.19580214292E+04  0.50400001928E-02 0.  1.
       -1   -1    0    0    0  501  0.00000000000E+00  0.00000000000E+00 -0.11484354690E+04  0.11484354690E+04  0.50400001928E-02 0. -1.
    10030    2    1    2    0    0  0.00000000000E+00  0.00000000000E+00  0.80958596015E+03  0.31064568982E+04  0.29991073728E+04 0.  0.
        1    1    3    3  502    0  0.35922533769E+03  0.12558344976E+04 -0.35811549656E+03  0.13544038680E+04  0.50400001928E-02 0. -1.
       -1    1    3    3    0  502 -0.35922533769E+03 -0.12558344976E+04  0.11677014567E+04  0.17520530302E+04  0.50400001928E-02 0.  1.
</event>
<event>
 5   0  0.2602891E-07  0.2986064E+04  0.7818609E-02  0.8247722E-01
       -1   -1    0    0    0  501  0.00000000000E+00  0.00000000000E+00  0.32816263220E+04  0.32816263220E+04  0.50400001928E-02 0. -1.
        1   -1    0    0  501    0  0.00000000000E+00  0.00000000000E+00 -0.67928030638E+03  0.67928030640E+03  0.50400001928E-02 0.  1.
    10030    2    1    2    0    0  0.00000000000E+00  0.00000000000E+00  0.26023460156E+04  0.39609066284E+04  0.29860637190E+04 0.  0.
        5    1    3    3  502    0  0.10370082029E+04 -0.23402464737E+02 -0.12327190353E+03  0.10445820889E+04  0.46999998093E+01 0.  1.
       -5    1    3    3    0  502 -0.10370082029E+04  0.23402464737E+02  0.27256179192E+04  0.29163245395E+04  0.46999998093E+01 0. -1.
</event>
<event>
 5   0  0.2640081E-07  0.3005974E+04  0.7818609E-02  0.8242027E-01
        1   -1    0    0  501    0  0.00000000000E+00  0.00000000000E+00  0.13587224470E+04  0.13587224470E+04  0.50400001928E-02 0.  1.
       -1   -1    0    0    0  501  0.00000000000E+00  0.00000000000E+00 -0.16625693577E+04  0.16625693577E+04  0.50400001928E-02 0. -1.
    10030    2    1    2    0    0  0.00000000000E+00  0.00000000000E+00 -0.30384691066E+03  0.30212918047E+04  0.30059742554E+04 0.  0.
        1    1    3    3  502    0 -0.11945418429E+04  0.91169651705E+03 -0.18121906133E+03  0.15135921187E+04  0.50400001928E-02 0.  1.
       -1    1    3    3    0  502  0.11945418429E+04 -0.91169651705E+03 -0.12262784933E+03  0.15076996860E+04  0.50400001928E-02 0. -1.
</event>
<event>
 5   0  0.7278657E-07  0.3002868E+04  0.7818609E-02  0.8242912E-01
        2   -1    0    0  501    0  0.00000000000E+00  0.00000000000E+00  0.17526612221E+04  0.17526612221E+04  0.25500000920E-02 0.  1.
       -2   -1    0    0    0  501  0.00000000000E+00  0.00000000000E+00 -0.12862179608E+04  0.12862179608E+04  0.25500000920E-02 0. -1.
    10030    2    1    2    0    0  0.00000000000E+00  0.00000000000E+00  0.46644326126E+03  0.30388791830E+04  0.30028681910E+04 0.  0.
        2    1    3    3  502    0 -0.72039652948E+03  0.10066396560E+04 -0.62667986975E+03  0.13874516986E+04  0.25500000920E-02 0. -1.
       -2    1    3    3    0  502  0.72039652948E+03 -0.10066396560E+04  0.10931231310E+04  0.16514274844E+04  0.25500000920E-02 0.  1.
</event>
<event>
 5   0  0.7399409E-07  0.3008782E+04  0.7818609E-02  0.8241228E-01
       -2   -1    0    0    0  501  0.00000000000E+00  0.00000000000E+00  0.16638609765E+04  0.16638609765E+04  0.25500000920E-02 0. -1.
        2   -1    0    0  501    0  0.00000000000E+00  0.00000000000E+00 -0.13602050779E+04  0.13602050780E+04  0.25500000920E-02 0.  1.
    10030    2    1    2    0    0  0.00000000000E+00  0.00000000000E+00  0.30365589852E+03  0.30240660544E+04  0.30087819125E+04 0.  0.
        3    1    3    3  502    0  0.12859397530E+04  0.58162342443E+03  0.67530502933E+03  0.15645969925E+04  0.10100000352E+00 0. -1.
       -3    1    3    3    0  502 -0.12859397530E+04 -0.58162342443E+03 -0.37164913081E+03  0.14594690619E+04  0.10100000352E+00 0.  1.
</event>
<event>
 5   0  0.2602891E-07  0.3003701E+04  0.7818609E-02  0.8242675E-01
       -1   -1    0    0    0  501  0.00000000000E+00  0.00000000000E+00  0.26174235625E+04  0.26174235625E+04  0.50400001928E-02 0. -1.
        1   -1    0    0  501    0  0.00000000000E+00  0.00000000000E+00 -0.86174632074E+03  0.86174632076E+03  0.50400001928E-02 0.  1.
    10030    2    1    2    0    0  0.00000000000E+00  0.00000000000E+00  0.17556772418E+04  0.34791698833E+04  0.30037011335E+04 0.  0.
        5    1    3    3  502    0  0.59234101400E+03  0.90529568370E+03 -0.32873763822E+03  0.11307160017E+04  0.46999998093E+01 0.  1.
       -5    1    3    3    0  502 -0.59234101400E+03 -0.90529568370E+03  0.20844148800E+04  0.23484538816E+04  0.46999998093E+01 0. -1.
</event>
<event>
 5   0  0.7585823E-07  0.2999344E+04  0.7818609E-02  0.8243918E-01
       -2   -1    0    0    0  501  0.00000000000E+00  0.00000000000E+00  0.94239118490E+03  0.94239118491E+03  0.25500000920E-02 0. -1.
        2   -1    0    0  501    0  0.00000000000E+00  0.00000000000E+00 -0.23865001225E+04  0.23865001225E+04  0.25500000920E-02 0.  1.
    10030    2    1    2    0    0  0.00000000000E+00  0.00000000000E+00 -0.14441089376E+04  0.33288913074E+04  0.29993443805E+04 0.  0.
        5    1    3    3  502    0  0.82299687021E+03 -0.48477483780E+03  0.56111619715E+03  0.11077923851E+04  0.46999998093E+01 0. -1.
       -5    1    3    3    0  502 -0.82299687021E+03  0.48477483780E+03 -0.20052251347E+04  0.22210989223E+04  0.46999998093E+01 0.  1.
</event>
<event>
 5   0  0.7585823E-07  0.3009029E+04  0.7818609E-02  0.8241157E-01
        2   -1    0    0  501    0  0.00000000000E+00  0.00000000000E+00  0.17483756321E+04  0.17483756321E+04  0.25500000920E-02 0.  1.
       -2   -1    0    0    0  501  0.00000000000E+00  0.00000000000E+00 -0.12946665754E+04  0.12946665754E+04  0.25500000920E-02 0. -1.
    10030    2    1    2    0    0  0.00000000000E+00  0.00000000000E+00  0.45370905665E+03  0.30430422075E+04  0.30090287417E+04 0.  0.
        5    1    3    3  502    0 -0.47077488607E+03  0.12857762621E+04  0.85735343300E+03  0.16155267217E+04  0.46999998093E+01 0.  1.
       -5    1    3    3    0  502  0.47077488607E+03 -0.12857762621E+04 -0.40364437635E+03  0.14275154858E+04  0.46999998093E+01 0. -1.
</event>
<event>
 5   0  0.7585823E-07  0.3000596E+04  0.7818609E-02  0.8243561E-01
        2   -1    0    0  501    0  0.00000000000E+00  0.00000000000E+00  0.17630018132E+04  0.17630018132E+04  0.25500000920E-02 0. -1.
       -2   -1    0    0    0  501  0.00000000000E+00  0.00000000000E+00 -0.12767394219E+04  0.12767394219E+04  0.25500000920E-02 0.  1.
    10030    2    1    2    0    0  0.00000000000E+00  0.00000000000E+00  0.48626239132E+03  0.30397412351E+04  0.30005958847E+04 0.  0.
        5    1    3    3  502    0 -0.13155234419E+03 -0.69360587114E+03  0.15842128827E+04  0.17344012429E+04  0.46999998093E+01 0. -1.
       -5    1    3    3    0  502  0.13155234419E+03  0.69360587114E+03 -0.10979504914E+04  0.13053399922E+04  0.46999998093E+01 0.  1.
</event>
<event>
 5   0  0.2640081E-07  0.2999938E+04  0.7818609E-02  0.8243749E-01
       -1   -1    0    0    0  501  0.00000000000E+00  0.00000000000E+00  0.27951535488E+04  0.27951535488E+04  0.50400001928E-02 0. -1.
        1   -1    0    0  501    0  0.00000000000E+00  0.00000000000E+00 -0.80493121488E+03  0.80493121490E+03  0.50400001928E-02 0.  1.
    10030    2    1    2    0    0  0.00000000000E+00  0.00000000000E+00  0.19902223339E+04  0.36000847637E+04  0.29999375606E+04 0.  0.
        1    1    3    3  502    0  0.91743285455E+03 -0.21018340443E+02  0.24189739612E+04  0.25871914962E+04  0.50400001928E-02 0. -1.
       -1    1    3    3    0  502 -0.91743285455E+03  0.21018340443E+02 -0.42875162731E+03  0.10128932674E+04  0.50400001928E-02 0.  1.
</event>
<event>
 5   0  0.7208273E-07  0.2999588E+04  0.7818609E-02  0.8243849E-01
       -2   -1    0    0    0  501  0.00000000000E+00  0.00000000000E+00  0.94459300613E+03  0.94459300614E+03  0.25500000920E-02 0. -1.
        2   -1    0    0  501    0  0.00000000000E+00  0.00000000000E+00 -0.23813234503E+04  0.23813234503E+04  0.25500000920E-02 0.  1.
    10030    2    1    2    0    0  0.00000000000E+00  0.00000000000E+00 -0.14367304442E+04  0.33259164565E+04  0.29995876227E+04 0.  0.
        4    1    3    3  502    0 -0.62070988090E+03 -0.83624672236E+03 -0.19150332780E+04  0.21798952740E+04  0.12699999809E+01 0.  1.
       -4    1    3    3    0  502  0.62070988090E+03  0.83624672236E+03  0.47830283381E+03  0.11460211825E+04  0.12699999809E+01 0. -1.
</event>
<event>
 5   0  0.2640081E-07  0.3003646E+04  0.7818609E-02  0.8242691E-01
       -1   -1    0    0    0  501  0.00000000000E+00  0.00000000000E+00  0.99843524029E+03  0.99843524030E+03  0.50400001928E-02 0. -1.
        1   -1    0    0  501    0  0.00000000000E+00  0.00000000000E+00 -0.22590066872E+04  0.22590066872E+04  0.50400001928E-02 0.  1.
    10030    2    1    2    0    0  0.00000000000E+00  0.00000000000E+00 -0.12605714469E+04  0.32574419275E+04  0.30036457078E+04 0.  0.
        1    1    3    3  502    0 -0.20394064095E+03  0.12734697485E+04  0.20425136214E+03  0.13057701192E+04  0.50400001928E-02 0. -1.
       -1    1    3    3    0  502  0.20394064095E+03 -0.12734697485E+04 -0.14648228090E+04  0.19516718082E+04  0.50400001928E-02 0.  1.
</event>
<event>
 5   0  0.2621825E-07  0.2988099E+04  0.7818609E-02  0.8247137E-01
       -1   -1    0    0    0  501  0.00000000000E+00  0.00000000000E+00  0.17122486887E+04  0.17122486887E+04  0.50400001928E-02 0. -1.
        1   -1    0    0  501    0  0.00000000000E+00  0.00000000000E+00 -0.13036564640E+04  0.13036564640E+04  0.50400001928E-02 0.  1.
    10030    2    1    2    0    0  0.00000000000E+00  0.00000000000E+00  0.40859222470E+03  0.30159051526E+04  0.29880991087E+04 0.  0.
        3    1    3    3  502    0  0.27531369588E+03  0.26540244820E+03 -0.12534249104E+04  0.13104617915E+04  0.10100000352E+00 0.  1.
       -3    1    3    3    0  502 -0.27531369588E+03 -0.26540244820E+03  0.16620171351E+04  0.17054433612E+04  0.10100000352E+00 0. -1.
</event>
<event>
 5   0  0.2679935E-07  0.2998714E+04  0.7818609E-02  0.8244098E-01
        1   -1    0    0  501    0  0.00000000000E+00  0.00000000000E+00  0.22867833940E+04  0.22867833940E+04  0.50400001928E-02 0.  1.
       -1   -1    0    0    0  501  0.00000000000E+00  0.00000000000E+00 -0.98307146262E+03  0.98307146263E+03  0.50400001928E-02 0. -1.
    10030    2    1    2    0    0  0.00000000000E+00  0.00000000000E+00  0.13037119314E+04  0.32698548566E+04  0.29987140550E+04 0.  0.
        2    1    3    3  502    0 -0.30727503061E+03  0.65346851634E+03 -0.78096975712E+03  0.10636506982E+04  0.25500000920E-02 0. -1.
       -2    1    3    3    0  502  0.30727503061E+03 -0.65346851634E+03  0.20846816885E+04  0.22062041584E+04  0.25500000920E-02 0.  1.
</event>
<event>
 5   0  0.7208273E-07  0.2944584E+04  0.7818609E-02  0.8259735E-01
       -2   -1    0    0    0  501  0.00000000000E+00  0.00000000000E+00  0.21941329839E+04  0.21941329839E+04  0.25500000920E-02 0. -1.
        2   -1    0    0  501    0  0.00000000000E+00  0.00000000000E+00 -0.98792702752E+03  0.98792702752E+03  0.25500000920E-02 0.  1.
    10030    2    1    2    0    0  0.00000000000E+00  0.00000000000E+00  0.12062059564E+04  0.31820600115E+04  0.29445836900E+04 0.  0.
        4    1    3    3  502    0 -0.12220463123E+04  0.80985417061E+03  0.74961236519E+03  0.16465665118E+04  0.12699999809E+01 0.  1.
       -4    1    3    3    0  502  0.12220463123E+04 -0.80985417061E+03  0.45659359124E+03  0.15354934996E+04  0.12699999809E+01 0. -1.
</event>
<event>
 5   0  0.2792361E-07  0.2999220E+04  0.7818609E-02  0.8243954E-01
        1   -1    0    0  501    0  0.00000000000E+00  0.00000000000E+00  0.20227801612E+04  0.20227801613E+04  0.50400001928E-02 0.  1.
       -1   -1    0    0    0  501  0.00000000000E+00  0.00000000000E+00 -0.11117522725E+04  0.11117522725E+04  0.50400001928E-02 0. -1.
    10030    2    1    2    0    0  0.00000000000E+00  0.00000000000E+00  0.91102788875E+03  0.31345324338E+04  0.29992201927E+04 0.  0.
        4    1    3    3  502    0  0.46200007207E+03  0.11543172679E+04  0.13317526539E+04  0.18219382991E+04  0.12699999809E+01 0.  1.
       -4    1    3    3    0  502 -0.46200007207E+03 -0.11543172679E+04 -0.42072476514E+03  0.13125941347E+04  0.12699999809E+01 0. -1.
</event>
<event>
 5   0  0.2621825E-07  0.2998533E+04  0.7818609E-02  0.8244150E-01
       -1   -1    0    0    0  501  0.00000000000E+00  0.00000000000E+00  0.80236779417E+03  0.80236779419E+03  0.50400001928E-02 0. -1.
        1   -1    0    0  501    0  0.00000000000E+00  0.00000000000E+00 -0.28014585726E+04  0.28014585726E+04  0.50400001928E-02 0.  1.
    10030    2    1    2    0    0  0.00000000000E+00  0.00000000000E+00 -0.19990907784E+04  0.36038263667E+04  0.29985330649E+04 0.  0.
        3    1    3    3  502    0  0.61497962564E+03  0.10480923902E+04  0.55840004457E+02  0.12164767629E+04  0.10100000352E+00 0. -1.
       -3    1    3    3    0  502 -0.61497962564E+03 -0.10480923902E+04 -0.20549307828E+04  0.23873496038E+04  0.10100000352E+00 0.  1.
</event>
<event>
 5   0  0.7307508E-07  0.2992789E+04  0.7818609E-02  0.8245793E-01
        2   -1    0    0  501    0  0.00000000000E+00  0.00000000000E+00  0.16565088261E+04  0.16565088261E+04  0.25500000920E-02 0.  1.
       -2   -1    0    0    0  501  0.00000000000E+00  0.00000000000E+00 -0.13517567770E+04  0.13517567770E+04  0.25500000920E-02 0. -1.
    10030    2    1    2    0    0  0.00000000000E+00  0.00000000000E+00  0.30475204916E+03  0.30082656031E+04  0.29927893557E+04 0.  0.
        1    1    3    3  502    0  0.12568996633E+04 -0.73834579078E+03 -0.18737445298E+03  0.14697144130E+04  0.50400001928E-02 0. -1.
       -1    1    3    3    0  502 -0.12568996633E+04  0.73834579078E+03  0.49212650214E+03  0.15385511901E+04  0.50400001928E-02 0.  1.
</event>
<event>
 5   0  0.7585823E-07  0.3003134E+04  0.7818609E-02  0.8242836E-01
        2   -1    0    0  501    0  0.00000000000E+00  0.00000000000E+00  0.14563365422E+04  0.14563365422E+04  0.25500000920E-02 0.  1.
       -2   -1    0    0    0  501  0.00000000000E+00  0.00000000000E+00 -0.15482023556E+04  0.15482023556E+04  0.25500000920E-02 0. -1.
    10030    2    1    2    0    0  0.00000000000E+00  0.00000000000E+00 -0.91865813424E+02  0.30045388978E+04  0.30031341397E+04 0.  0.
        5    1    3    3  502    0  0.11167906186E+03 -0.95705382193E+03  0.11062382548E+04  0.14670410346E+04  0.46999998093E+01 0.  1.
       -5    1    3    3    0  502 -0.11167906186E+03  0.95705382193E+03 -0.11981040682E+04  0.15374978632E+04  0.46999998093E+01 0. -1.
</event>
<event>
 5   0  0.2792361E-07  0.2999831E+04  0.7818609E-02  0.8243779E-01
       -1   -1    0    0    0  501  0.00000000000E+00  0.00000000000E+00  0.14146859280E+04  0.14146859280E+04  0.50400001928E-02 0. -1.
        1   -1    0    0  501    0  0.00000000000E+00  0.00000000000E+00 -0.15902797419E+04  0.15902797419E+04  0.50400001928E-02 0.  1.
    10030    2    1    2    0    0  0.00000000000E+00  0.00000000000E+00 -0.17559381393E+03  0.30049656699E+04  0.29998309102E+04 0.  0.
        4    1    3    3  502    0 -0.13226885044E+04 -0.55929994657E+03  0.34586842226E+03  0.14771417970E+04  0.12699999809E+01 0. -1.
       -4    1    3    3    0  502  0.13226885044E+04  0.55929994657E+03 -0.52146223619E+03  0.15278238729E+04  0.12699999809E+01 0.  1.
</event>
<event>
 5   0  0.7208273E-07  0.3005643E+04  0.7818609E-02  0.8242121E-01
        2   -1    0    0  501    0  0.00000000000E+00  0.00000000000E+00  0.25971176736E+04  0.25971176736E+04  0.25500000920E-02 0.  1.
       -2   -1    0    0    0  501  0.00000000000E+00  0.00000000000E+00 -0.86960747903E+03  0.86960747903E+03  0.25500000920E-02 0. -1.
    10030    2    1    2    0    0  0.00000000000E+00  0.00000000000E+00  0.17275101945E+04  0.34667251526E+04  0.30056433274E+04 0.  0.
        4    1    3    3  502    0 -0.57651246574E+03 -0.12219590577E+04  0.10485224689E+03  0.13551922995E+04  0.12699999809E+01 0. -1.
       -4    1    3    3    0  502  0.57651246574E+03  0.12219590577E+04  0.16226579477E+04  0.21115328531E+04  0.12699999809E+01 0.  1.
</event>
<event>
 5   0  0.7278657E-07  0.2987148E+04  0.7818609E-02  0.8247410E-01
       -2   -1    0    0    0  501  0.00000000000E+00  0.00000000000E+00  0.81127276426E+03  0.81127276427E+03  0.25500000920E-02 0.  1.
        2   -1    0    0  501    0  0.00000000000E+00  0.00000000000E+00 -0.27497075211E+04  0.27497075211E+04  0.25500000920E-02 0. -1.
    10030    2    1    2    0    0  0.00000000000E+00  0.00000000000E+00 -0.19384347568E+04  0.35609802854E+04  0.29871476840E+04 0.  0.
        2    1    3    3  502    0  0.65470549719E+03  0.11593306985E+04 -0.16238822954E+03  0.13412892655E+04  0.25500000920E-02 0.  1.
       -2    1    3    3    0  502 -0.65470549719E+03 -0.11593306985E+04 -0.17760465273E+04  0.22196910199E+04  0.25500000920E-02 0. -1.
</event>
<event>
 5   0  0.2640081E-07  0.3007625E+04  0.7818609E-02  0.8241557E-01
       -1   -1    0    0    0  501  0.00000000000E+00  0.00000000000E+00  0.13492136011E+04  0.13492136011E+04  0.50400001928E-02 0. -1.
        1   -1    0    0  501    0  0.00000000000E+00  0.00000000000E+00 -0.16761262430E+04  0.16761262430E+04  0.50400001928E-02 0.  1.
    10030    2    1    2    0    0  0.00000000000E+00  0.00000000000E+00 -0.32691264191E+03  0.30253398441E+04  0.30076251922E+04 0.  0.
        1    1    3    3  502    0  0.11639187548E+04  0.91552192959E+03  0.99935242654E+02  0.14842083156E+04  0.50400001928E-02 0. -1.
       -1    1    3    3    0  502 -0.11639187548E+04 -0.91552192959E+03 -0.42684788457E+03  0.15411315284E+04  0.50400001928E-02 0.  1.
</event>
<event>
 5   0  0.7278657E-07  0.3004869E+04  0.7818609E-02  0.8242342E-01
        2   -1    0    0  501    0  0.00000000000E+00  0.00000000000E+00  0.81924719486E+03  0.81924719486E+03  0.25500000920E-02 0. -1.
       -2   -1    0    0    0  501  0.00000000000E+00  0.00000000000E+00 -0.27553454647E+04  0.27553454647E+04  0.25500000920E-02 0.  1.
    10030    2    1    2    0    0  0.00000000000E+00  0.00000000000E+00 -0.19360982699E+04  0.35745926596E+04  0.30048687445E+04 0.  0.
        2    1    3    3  502    0 -0.14859684439E+04  0.18851801332E+03 -0.11071244732E+04  0.18626233803E+04  0.25500000920E-02 0. -1.
       -2    1    3    3    0  502  0.14859684439E+04 -0.18851801332E+03 -0.82897379668E+03  0.17119692793E+04  0.25500000920E-02 0.  1.
</event>
<event>
 5   0  0.2679935E-07  0.3003089E+04  0.7818609E-02  0.8242849E-01
       -1   -1    0    0    0  501  0.00000000000E+00  0.00000000000E+00  0.12695070707E+04  0.12695070707E+04  0.50400001928E-02 0. -1.
        1   -1    0    0  501    0  0.00000000000E+00  0.00000000000E+00 -0.17759929462E+04  0.17759929463E+04  0.50400001928E-02 0.  1.
    10030    2    1    2    0    0  0.00000000000E+00  0.00000000000E+00 -0.50648587555E+03  0.30455000170E+04  0.30030888117E+04 0.  0.
        2    1    3    3  502    0 -0.13231432851E+04 -0.43849336631E+03 -0.81938406447E+03  0.16169028512E+04  0.25500000920E-02 0. -1.
       -2    1    3    3    0  502  0.13231432851E+04  0.43849336631E+03  0.31289818892E+03  0.14285971657E+04  0.25500000920E-02 0.  1.
</event>
<event>
 5   0  0.2640081E-07  0.3018554E+04  0.7818609E-02  0.8238452E-01
        1   -1    0    0  501    0  0.00000000000E+00  0.00000000000E+00  0.13620003270E+04  0.13620003270E+04  0.50400001928E-02 0.  1.
       -1   -1    0    0    0  501  0.00000000000E+00  0.00000000000E+00 -0.16724794157E+04  0.16724794157E+04  0.50400001928E-02 0. -1.
    10030    2    1    2    0    0  0.00000000000E+00  0.00000000000E+00 -0.31047908872E+03  0.30344797427E+04  0.30185542971E+04 0.  0.
        1    1    3    3  502    0 -0.46675063830E+03 -0.47747962507E+03 -0.15159221171E+04  0.16564609310E+04  0.50400001928E-02 0. -1.
       -1    1    3    3    0  502  0.46675063830E+03  0.47747962507E+03  0.12054430284E+04  0.13780188117E+04  0.50400001928E-02 0.  1.
</event>
<event>
 5   0  0.7307508E-07  0.3005114E+04  0.7818609E-02  0.8242272E-01
       -2   -1    0    0    0  501  0.00000000000E+00  0.00000000000E+00  0.94822236327E+03  0.94822236328E+03  0.25500000920E-02 0.  1.
        2   -1    0    0  501    0  0.00000000000E+00  0.00000000000E+00 -0.23809586723E+04  0.23809586723E+04  0.25500000920E-02 0. -1.
    10030    2    1    2    0    0  0.00000000000E+00  0.00000000000E+00 -0.14327363091E+04  0.33291810356E+04  0.30051144798E+04 0.  0.
        1    1    3    3  502    0  0.10160545454E+04 -0.85791057859E+03  0.58565246301E+02  0.13310925168E+04  0.50400001928E-02 0.  1.
       -1    1    3    3    0  502 -0.10160545454E+04  0.85791057859E+03 -0.14913015554E+04  0.19980885188E+04  0.50400001928E-02 0. -1.
</event>
<event>
 5   0  0.7278657E-07  0.2992165E+04  0.7818609E-02  0.8245972E-01
        2   -1    0    0  501    0  0.00000000000E+00  0.00000000000E+00  0.23674490202E+04  0.23674490202E+04  0.25500000920E-02 0. -1.
       -2   -1    0    0    0  501  0.00000000000E+00  0.00000000000E+00 -0.94543257850E+03  0.94543257850E+03  0.25500000920E-02 0.  1.
    10030    2    1    2    0    0  0.00000000000E+00  0.00000000000E+00  0.14220164417E+04  0.33128815987E+04  0.29921653909E+04 0.  0.
        2    1    3    3  502    0 -0.34472719752E+03 -0.39025225070E+03 -0.84186794735E+03  0.98988650898E+03  0.25500000920E-02 0.  1.
       -2    1    3    3    0  502  0.34472719752E+03  0.39025225070E+03  0.22638843891E+04  0.23229950897E+04  0.25500000920E-02 0. -1.
</event>
<event>
 5   0  0.2640081E-07  0.3000269E+04  0.7818609E-02  0.8243654E-01
       -1   -1    0    0    0  501  0.00000000000E+00  0.00000000000E+00  0.12243523589E+04  0.12243523589E+04  0.50400001928E-02 0. -1.
        1   -1    0    0  501    0  0.00000000000E+00  0.00000000000E+00 -0.18380362937E+04  0.18380362937E+04  0.50400001928E-02 0.  1.
    10030    2    1    2    0    0  0.00000000000E+00  0.00000000000E+00 -0.61368393474E+03  0.30623886526E+04  0.30002693692E+04 0.  0.
        1    1    3    3  502    0  0.10595913939E+04  0.99803138644E+03 -0.67712497368E+03  0.16053967735E+04  0.50400001928E-02 0.  1.
       -1    1    3    3    0  502 -0.10595913939E+04 -0.99803138644E+03  0.63441038942E+02  0.14569918791E+04  0.50400001928E-02 0. -1.
</event>
<event>
 5   0  0.2679935E-07  0.3000038E+04  0.7818609E-02  0.8243720E-01
        1   -1    0    0  501    0  0.00000000000E+00  0.00000000000E+00  0.15777324604E+04  0.15777324605E+04  0.50400001928E-02 0.  1.
       -1   -1    0    0    0  501  0.00000000000E+00  0.00000000000E+00 -0.14261334026E+04  0.14261334026E+04  0.50400001928E-02 0. -1.
    10030    2    1    2    0    0  0.00000000000E+00  0.00000000000E+00  0.15159905785E+03  0.30038658631E+04  0.30000379746E+04 0.  0.
        2    1    3    3  502    0 -0.10107519662E+04 -0.67676210636E+03  0.95466117169E+03  0.15462873079E+04  0.25500000920E-02 0.  1.
       -2    1    3    3    0  502  0.10107519662E+04  0.67676210636E+03 -0.80306211383E+03  0.14575785552E+04  0.25500000920E-02 0. -1.
</event>
<event>
 5   0  0.7307508E-07  0.3012752E+04  0.7818609E-02  0.8240099E-01
        2   -1    0    0  501    0  0.00000000000E+00  0.00000000000E+00  0.21864358891E+04  0.21864358891E+04  0.25500000920E-02 0. -1.
       -2   -1    0    0    0  501  0.00000000000E+00  0.00000000000E+00 -0.10378387991E+04  0.10378387991E+04  0.25500000920E-02 0.  1.
    10030    2    1    2    0    0  0.00000000000E+00  0.00000000000E+00  0.11485970900E+04  0.32242746882E+04  0.30127515646E+04 0.  0.
        1    1    3    3  502    0 -0.23397483438E+03  0.99064104549E+03 -0.61409361456E+03  0.11887913491E+04  0.50400001928E-02 0.  1.
       -1    1    3    3    0  502  0.23397483438E+03 -0.99064104549E+03  0.17626907045E+04  0.20354833392E+04  0.50400001928E-02 0. -1.
</event>
<event>
 5   0  0.2679935E-07  0.3001553E+04  0.7818609E-02  0.8243288E-01
       -1   -1    0    0    0  501  0.00000000000E+00  0.00000000000E+00  0.10556076789E+04  0.10556076789E+04  0.50400001928E-02 0.  1.
        1   -1    0    0  501    0  0.00000000000E+00  0.00000000000E+00 -0.21336804105E+04  0.21336804105E+04  0.50400001928E-02 0. -1.
    10030    2    1    2    0    0  0.00000000000E+00  0.00000000000E+00 -0.10780727316E+04  0.31892880895E+04  0.30015525487E+04 0.  0.
        2    1    3    3  502    0 -0.73839527559E+03  0.40266721499E+03 -0.18597435926E+04  0.20410817474E+04  0.25500000920E-02 0. -1.
       -2    1    3    3    0  502  0.73839527559E+03 -0.40266721499E+03  0.78167086103E+03  0.11482063421E+04  0.25500000920E-02 0.  1.
</event>
<event>
 5   0  0.2621825E-07  0.3004874E+04  0.7818609E-02  0.8242340E-01
       -1   -1    0    0    0  501  0.00000000000E+00  0.00000000000E+00  0.15815809214E+04  0.15815809214E+04  0.50400001928E-02 0. -1.
        1   -1    0    0  501    0  0.00000000000E+00  0.00000000000E+00 -0.14272538680E+04  0.14272538680E+04  0.50400001928E-02 0.  1.
    10030    2    1    2    0    0  0.00000000000E+00  0.00000000000E+00  0.15432705341E+03  0.30088347894E+04  0.30048743652E+04 0.  0.
        3    1    3    3  502    0  0.11664443733E+03  0.59695483653E+03  0.14527851411E+04  0.15749748182E+04  0.10100000352E+00 0. -1.
       -3    1    3    3    0  502 -0.11664443733E+03 -0.59695483653E+03 -0.12984580876E+04  0.14338599713E+04  0.10100000352E+00 0.  1.
</event>
<event>
 5   0  0.7208273E-07  0.3000403E+04  0.7818609E-02  0.8243616E-01
        2   -1    0    0  501    0  0.00000000000E+00  0.00000000000E+00  0.15670838690E+04  0.15670838690E+04  0.25500000920E-02 0.  1.
       -2   -1    0    0    0  501  0.00000000000E+00  0.00000000000E+00 -0.14361739154E+04  0.14361739154E+04  0.25500000920E-02 0. -1.
    10030    2    1    2    0    0  0.00000000000E+00  0.00000000000E+00  0.13090995362E+03  0.30032577844E+04  0.30004032902E+04 0.  0.
        4    1    3    3  502    0  0.52863016802E+03  0.12609023715E+04 -0.55261017948E+03  0.14746878546E+04  0.12699999809E+01 0. -1.
       -4    1    3    3    0  502 -0.52863016802E+03 -0.12609023715E+04  0.68352013310E+03  0.15285699298E+04  0.12699999809E+01 0.  1.
</event>
<event>
 5   0  0.7208273E-07  0.3004915E+04  0.7818609E-02  0.8242329E-01
       -2   -1    0    0    0  501  0.00000000000E+00  0.00000000000E+00  0.86316809147E+03  0.86316809147E+03  0.25500000920E-02 0.  1.
        2   -1    0    0  501    0  0.00000000000E+00  0.00000000000E+00 -0.26152247054E+04  0.26152247054E+04  0.25500000920E-02 0. -1.
    10030    2    1    2    0    0  0.00000000000E+00  0.00000000000E+00 -0.17520566139E+04  0.34783927968E+04  0.30049149856E+04 0.  0.
        4    1    3    3  502    0  0.10170153398E+04 -0.97030285487E+03 -0.26178715500E+03  0.14298048674E+04  0.12699999809E+01 0.  1.
       -4    1    3    3    0  502 -0.10170153398E+04  0.97030285487E+03 -0.14902694589E+04  0.20485879294E+04  0.12699999809E+01 0. -1.
</event>
<event>
 5   0  0.7208273E-07  0.2998428E+04  0.7818609E-02  0.8244180E-01
        2   -1    0    0  501    0  0.00000000000E+00  0.00000000000E+00  0.14478696856E+04  0.14478696856E+04  0.25500000920E-02 0. -1.
       -2   -1    0    0    0  501  0.00000000000E+00  0.00000000000E+00 -0.15523792636E+04  0.15523792636E+04  0.25500000920E-02 0.  1.
    10030    2    1    2    0    0  0.00000000000E+00  0.00000000000E+00 -0.10450957798E+03  0.30002489493E+04  0.29984281725E+04 0.  0.
        4    1    3    3  502    0  0.80962206985E+03  0.69829771445E+03 -0.11038609506E+04  0.15367557402E+04  0.12699999809E+01 0.  1.
       -4    1    3    3    0  502 -0.80962206985E+03 -0.69829771445E+03  0.99935137263E+03  0.14634932090E+04  0.12699999809E+01 0. -1.
</event>
<event>
 5   0  0.7399409E-07  0.2971518E+04  0.7818609E-02  0.8251911E-01
        2   -1    0    0  501    0  0.00000000000E+00  0.00000000000E+00  0.99210922078E+03  0.99210922079E+03  0.25500000920E-02 0.  1.
       -2   -1    0    0    0  501  0.00000000000E+00  0.00000000000E+00 -0.22250371059E+04  0.22250371059E+04  0.25500000920E-02 0. -1.
    10030    2    1    2    0    0  0.00000000000E+00  0.00000000000E+00 -0.12329278851E+04  0.32171463267E+04  0.29715180157E+04 0.  0.
        3    1    3    3  502    0 -0.13361874481E+03  0.11114346784E+04 -0.16741182410E+04  0.20139048906E+04  0.10100000352E+00 0. -1.
       -3    1    3    3    0  502  0.13361874481E+03 -0.11114346784E+04  0.44119035590E+03  0.12032414361E+04  0.10100000352E+00 0.  1.
</event>
<event>
 5   0  0.2640081E-07  0.3001236E+04  0.7818609E-02  0.8243378E-01
        1   -1    0    0  501    0  0.00000000000E+00  0.00000000000E+00  0.19915052689E+04  0.19915052690E+04  0.50400001928E-02 0. -1.
       -1   -1    0    0    0  501  0.00000000000E+00  0.00000000000E+00 -0.11307297550E+04  0.11307297550E+04  0.50400001928E-02 0.  1.
    10030    2    1    2    0    0  0.00000000000E+00  0.00000000000E+00  0.86077551398E+03  0.31222350239E+04  0.30012359220E+04 0.  0.
        1    1    3    3  502    0  0.73039986421E+03  0.99397120707E+03 -0.45869732477E+03  0.13160037834E+04  0.50400001928E-02 0.  1.
       -1    1    3    3    0  502 -0.73039986421E+03 -0.99397120707E+03  0.13194728387E+04  0.18062312405E+04  0.50400001928E-02 0. -1.
</event>
<event>
 5   0  0.7278657E-07  0.2993515E+04  0.7818609E-02  0.8245585E-01
       -2   -1    0    0    0  501  0.00000000000E+00  0.00000000000E+00  0.16616933451E+04  0.16616933451E+04  0.25500000920E-02 0. -1.
        2   -1    0    0  501    0  0.00000000000E+00  0.00000000000E+00 -0.13481931663E+04  0.13481931663E+04  0.25500000920E-02 0.  1.
    10030    2    1    2    0    0  0.00000000000E+00  0.00000000000E+00  0.31350017880E+03  0.30098865114E+04  0.29935153999E+04 0.  0.
        2    1    3    3  502    0 -0.12183292329E+04  0.77024587852E+03 -0.24879026506E+03  0.14627034659E+04  0.25500000920E-02 0.  1.
       -2    1    3    3    0  502  0.12183292329E+04 -0.77024587852E+03  0.56229044385E+03  0.15471830455E+04  0.25500000920E-02 0. -1.
</event>
<event>
 5   0  0.7307508E-07  0.2996513E+04  0.7818609E-02  0.8244727E-01
        2   -1    0    0  501    0  0.00000000000E+00  0.00000000000E+00  0.18873365458E+04  0.18873365458E+04  0.25500000920E-02 0.  1.
       -2   -1    0    0    0  501  0.00000000000E+00  0.00000000000E+00 -0.11893861943E+04  0.11893861943E+04  0.25500000920E-02 0. -1.
    10030    2    1    2    0    0  0.00000000000E+00  0.00000000000E+00  0.69795035151E+03  0.30767227401E+04  0.29965126608E+04 0.  0.
        1    1    3    3  502    0  0.19756864105E+03  0.43888208200E+03  0.18057995653E+04  0.18688399931E+04  0.50400001928E-02 0.  1.
       -1    1    3    3    0  502 -0.19756864105E+03 -0.43888208200E+03 -0.11078492138E+04  0.12078827470E+04  0.50400001928E-02 0. -1.
</event>
<event>
 5   0  0.2679935E-07  0.3001387E+04  0.7818609E-02  0.8243335E-01
        1   -1    0    0  501    0  0.00000000000E+00  0.00000000000E+00  0.15618435125E+04  0.15618435125E+04  0.50400001928E-02 0.  1.
       -1   -1    0    0    0  501  0.00000000000E+00  0.00000000000E+00 -0.14419379276E+04  0.14419379276E+04  0.50400001928E-02 0. -1.
    10030    2    1    2    0    0  0.00000000000E+00  0.00000000000E+00  0.11990558484E+03  0.30037814401E+04  0.30013872777E+04 0.  0.
        2    1    3    3  502    0 -0.80788149719E+03  0.57444240668E+03  0.11875390713E+04  0.15469019484E+04  0.25500000920E-02 0.  1.
       -2    1    3    3    0  502  0.80788149719E+03 -0.57444240668E+03 -0.10676334864E+04  0.14568794917E+04  0.25500000920E-02 0. -1.
</event>
<event>
 5   0  0.2679935E-07  0.3002352E+04  0.7818609E-02  0.8243060E-01
       -1   -1    0    0    0  501  0.00000000000E+00  0.00000000000E+00  0.22672012574E+04  0.22672012575E+04  0.50400001928E-02 0.  1.
        1   -1    0    0  501    0  0.00000000000E+00  0.00000000000E+00 -0.99396985299E+03  0.99396985301E+03  0.50400001928E-02 0. -1.
    10030    2    1    2    0    0  0.00000000000E+00  0.00000000000E+00  0.12732314045E+04  0.32611711105E+04  0.30023522116E+04 0.  0.
        2    1    3    3  502    0  0.26641880712E+03 -0.14446701885E+03 -0.96039435035E+03  0.10070784520E+04  0.25500000920E-02 0. -1.
       -2    1    3    3    0  502 -0.26641880712E+03  0.14446701885E+03  0.22336257548E+04  0.22540926584E+04  0.25500000920E-02 0.  1.
</event>
<event>
 5   0  0.7208273E-07  0.2999509E+04  0.7818609E-02  0.8243871E-01
       -2   -1    0    0    0  501  0.00000000000E+00  0.00000000000E+00  0.91398691742E+03  0.91398691743E+03  0.25500000920E-02 0.  1.
        2   -1    0    0  501    0  0.00000000000E+00  0.00000000000E+00 -0.24609357760E+04  0.24609357760E+04  0.25500000920E-02 0. -1.
    10030    2    1    2    0    0  0.00000000000E+00  0.00000000000E+00 -0.15469488586E+04  0.33749226934E+04  0.29995086957E+04 0.  0.
        4    1    3    3  502    0  0.64209017422E+03  0.82607161820E+02  0.74867737664E+03  0.98975914353E+03  0.12699999809E+01 0.  1.
       -4    1    3    3    0  502 -0.64209017422E+03 -0.82607161820E+02 -0.22956262352E+04  0.23851635499E+04  0.12699999809E+01 0. -1.
</event>
<event>
 5   0  0.7208273E-07  0.3005447E+04  0.7818609E-02  0.8242177E-01
        2   -1    0    0  501    0  0.00000000000E+00  0.00000000000E+00  0.25218050658E+04  0.25218050658E+04  0.25500000920E-02 0. -1.
       -2   -1    0    0    0  501  0.00000000000E+00  0.00000000000E+00 -0.89546087850E+03  0.89546087850E+03  0.25500000920E-02 0.  1.
    10030    2    1    2    0    0  0.00000000000E+00  0.00000000000E+00  0.16263441873E+04  0.34172659443E+04  0.30054469083E+04 0.  0.
        4    1    3    3  502    0  0.12300671097E+04 -0.57901333026E+03  0.15410937561E+04  0.20550652323E+04  0.12699999809E+01 0.  1.
       -4    1    3    3    0  502 -0.12300671097E+04  0.57901333026E+03  0.85250431230E+02  0.13622007120E+04  0.12699999809E+01 0. -1.
</event>
<event>
 5   0  0.7208273E-07  0.3002563E+04  0.7818609E-02  0.8243000E-01
       -2   -1    0    0    0  501  0.00000000000E+00  0.00000000000E+00  0.14265483414E+04  0.14265483415E+04  0.25500000920E-02 0. -1.
        2   -1    0    0  501    0  0.00000000000E+00  0.00000000000E+00 -0.15799292575E+04  0.15799292575E+04  0.25500000920E-02 0.  1.
    10030    2    1    2    0    0  0.00000000000E+00  0.00000000000E+00 -0.15338091602E+03  0.30064775989E+04  0.30025625468E+04 0.  0.
        4    1    3    3  502    0 -0.10737002323E+04  0.53335969190E+03  0.82811331302E+03  0.14570785915E+04  0.12699999809E+01 0. -1.
       -4    1    3    3    0  502  0.10737002323E+04 -0.53335969190E+03 -0.98149422904E+03  0.15493990074E+04  0.12699999809E+01 0.  1.
</event>
<event>
 5   0  0.2621825E-07  0.2952657E+04  0.7818609E-02  0.8257381E-01
        1   -1    0    0  501    0  0.00000000000E+00  0.00000000000E+00  0.10401316624E+04  0.10401316624E+04  0.50400001928E-02 0.  1.
       -1   -1    0    0    0  501  0.00000000000E+00  0.00000000000E+00 -0.20954518742E+04  0.20954518742E+04  0.50400001928E-02 0. -1.
    10030    2    1    2    0    0  0.00000000000E+00  0.00000000000E+00 -0.10553202118E+04  0.31355835367E+04  0.29526570011E+04 0.  0.
        3    1    3    3  502    0 -0.11238061899E+04 -0.28662612055E+03  0.44241594211E+03  0.12413004316E+04  0.10100000352E+00 0.  1.
       -3    1    3    3    0  502  0.11238061899E+04  0.28662612055E+03 -0.14977361539E+04  0.18942831051E+04  0.10100000352E+00 0. -1.
</event>
<event>
 5   0  0.2602891E-07  0.3001114E+04  0.7818609E-02  0.8243413E-01
        1   -1    0    0  501    0  0.00000000000E+00  0.00000000000E+00  0.16956081386E+04  0.16956081386E+04  0.50400001928E-02 0. -1.
       -1   -1    0    0    0  501  0.00000000000E+00  0.00000000000E+00 -0.13279431221E+04  0.13279431222E+04  0.50400001928E-02 0.  1.
    10030    2    1    2    0    0  0.00000000000E+00  0.00000000000E+00  0.36766501645E+03  0.30235512608E+04  0.30011139036E+04 0.  0.
        5    1    3    3  502    0  0.63722234784E+02 -0.27734503086E+03  0.16681663450E+04  0.16922712058E+04  0.46999998093E+01 0. -1.
       -5    1    3    3    0  502 -0.63722234784E+02  0.27734503086E+03 -0.13005013285E+04  0.13312800550E+04  0.46999998093E+01 0.  1.
</event>
<event>
 5   0  0.7278657E-07  0.2954418E+04  0.7818609E-02  0.8256868E-01
       -2   -1    0    0    0  501  0.00000000000E+00  0.00000000000E+00  0.22898991544E+04  0.22898991544E+04  0.25500000920E-02 0.  1.
        2   -1    0    0  501    0  0.00000000000E+00  0.00000000000E+00 -0.95294401883E+03  0.95294401884E+03  0.25500000920E-02 0. -1.
    10030    2    1    2    0    0  0.00000000000E+00  0.00000000000E+00  0.13369551355E+04  0.32428431732E+04  0.29544175080E+04 0.  0.
        2    1    3    3  502    0  0.10576272237E+04 -0.43870798566E+03 -0.35596943519E+03  0.11990639182E+04  0.25500000920E-02 0. -1.
       -2    1    3    3    0  502 -0.10576272237E+04  0.43870798566E+03  0.16929245707E+04  0.20437792550E+04  0.25500000920E-02 0.  1.
</event>
<event>
 5   0  0.2679935E-07  0.3001767E+04  0.7818609E-02  0.8243226E-01
       -1   -1    0    0    0  501  0.00000000000E+00  0.00000000000E+00  0.14861577742E+04  0.14861577742E+04  0.50400001928E-02 0. -1.
        1   -1    0    0  501    0  0.00000000000E+00  0.00000000000E+00 -0.15157551751E+04  0.15157551751E+04  0.50400001928E-02 0.  1.
    10030    2    1    2    0    0  0.00000000000E+00  0.00000000000E+00 -0.29597400893E+02  0.30019129494E+04  0.30017670378E+04 0.  0.
        2    1    3    3  502    0 -0.57356211468E+02  0.81700743076E+03  0.12429827782E+04  0.14885553614E+04  0.25500000920E-02 0. -1.
       -2    1    3    3    0  502  0.57356211468E+02 -0.81700743076E+03 -0.12725801791E+04  0.15133575880E+04  0.25500000920E-02 0.  1.
</event>
<event>
 5   0  0.2679935E-07  0.3004629E+04  0.7818609E-02  0.8242410E-01
        1   -1    0    0  501    0  0.00000000000E+00  0.00000000000E+00  0.28288457579E+04  0.28288457579E+04  0.50400001928E-02 0. -1.
       -1   -1    0    0    0  501  0.00000000000E+00  0.00000000000E+00 -0.79783407885E+03  0.79783407886E+03  0.50400001928E-02 0.  1.
    10030    2    1    2    0    0  0.00000000000E+00  0.00000000000E+00  0.20310116791E+04  0.36266798368E+04  0.30046294610E+04 0.  0.
        2    1    3    3  502    0  0.85860280535E+03  0.27399249488E+03  0.24662938543E+04  0.26258095971E+04  0.25500000920E-02 0. -1.
       -2    1    3    3    0  502 -0.85860280535E+03 -0.27399249488E+03 -0.43528217520E+03  0.10008702397E+04  0.25500000920E-02 0.  1.
</event>
<event>
 5   0  0.2640081E-07  0.3005294E+04  0.7818609E-02  0.8242221E-01
        1   -1    0    0  501    0  0.00000000000E+00  0.00000000000E+00  0.16301283000E+04  0.16301283000E+04  0.50400001928E-02 0. -1.
       -1   -1    0    0    0  501  0.00000000000E+00  0.00000000000E+00 -0.13851354024E+04  0.13851354024E+04  0.50400001928E-02 0.  1.
    10030    2    1    2    0    0  0.00000000000E+00  0.00000000000E+00  0.24499289760E+03  0.30152637025E+04  0.30052942744E+04 0.  0.
        1    1    3    3  502    0 -0.13051864372E+03  0.13962919569E+04  0.66399235123E+03  0.15516288821E+04  0.50400001928E-02 0. -1.
       -1    1    3    3    0  502  0.13051864372E+03 -0.13962919569E+04 -0.41899945363E+03  0.14636348204E+04  0.50400001928E-02 0.  1.
</event>
<event>
 5   0  0.7278657E-07  0.2997218E+04  0.7818609E-02  0.8244526E-01
       -2   -1    0    0    0  501  0.00000000000E+00  0.00000000000E+00  0.10874469863E+04  0.10874469863E+04  0.25500000920E-02 0.  1.
        2   -1    0    0  501    0  0.00000000000E+00  0.00000000000E+00 -0.20652301936E+04  0.20652301936E+04  0.25500000920E-02 0. -1.
    10030    2    1    2    0    0  0.00000000000E+00  0.00000000000E+00 -0.97778320729E+03  0.31526771799E+04  0.29972176098E+04 0.  0.
        2    1    3    3  502    0 -0.10575614834E+04  0.25033909105E+03 -0.15742656259E+04  0.19129605884E+04  0.25500000920E-02 0. -1.
       -2    1    3    3    0  502  0.10575614834E+04 -0.25033909105E+03  0.59648241860E+03  0.12397165916E+04  0.25500000920E-02 0.  1.
</event>
<event>
 5   0  0.7208273E-07  0.3002721E+04  0.7818609E-02  0.8242954E-01
       -2   -1    0    0    0  501  0.00000000000E+00  0.00000000000E+00  0.74019892558E+03  0.74019892558E+03  0.25500000920E-02 0. -1.
        2   -1    0    0  501    0  0.00000000000E+00  0.00000000000E+00 -0.30452404563E+04  0.30452404563E+04  0.25500000920E-02 0.  1.
    10030    2    1    2    0    0  0.00000000000E+00  0.00000000000E+00 -0.23050415307E+04  0.37854393819E+04  0.30027212417E+04 0.  0.
        4    1    3    3  502    0  0.10177648628E+04 -0.81743404737E+03 -0.20874909682E+04  0.24620446570E+04  0.12699999809E+01 0.  1.
       -4    1    3    3    0  502 -0.10177648628E+04  0.81743404737E+03 -0.21755056257E+03  0.13233947249E+04  0.12699999809E+01 0. -1.
</event>
<event>
 5   0  0.2621825E-07  0.2987245E+04  0.7818609E-02  0.8247382E-01
        1   -1    0    0  501    0  0.00000000000E+00  0.00000000000E+00  0.19640815988E+04  0.19640815988E+04  0.50400001928E-02 0. -1.
       -1   -1    0    0    0  501  0.00000000000E+00  0.00000000000E+00 -0.11358532450E+04  0.11358532450E+04  0.50400001928E-02 0.  1.
    10030    2    1    2    0    0  0.00000000000E+00  0.00000000000E+00  0.82822835380E+03  0.30999348439E+04  0.29872451908E+04 0.  0.
        3    1    3    3  502    0 -0.11067323518E+04 -0.96425607599E+03  0.12754051658E+03  0.14734018027E+04  0.10100000352E+00 0. -1.
       -3    1    3    3    0  502  0.11067323518E+04  0.96425607599E+03  0.70068783722E+03  0.16265330412E+04  0.10100000352E+00 0.  1.
</event>
<event>
 5   0  0.7307508E-07  0.3021080E+04  0.7818609E-02  0.8237737E-01
        2   -1    0    0  501    0  0.00000000000E+00  0.00000000000E+00  0.20043391466E+04  0.20043391466E+04  0.25500000920E-02 0.  1.
       -2   -1    0    0    0  501  0.00000000000E+00  0.00000000000E+00 -0.11383956551E+04  0.11383956551E+04  0.25500000920E-02 0. -1.
    10030    2    1    2    0    0  0.00000000000E+00  0.00000000000E+00  0.86594349151E+03  0.31427348017E+04  0.30210799234E+04 0.  0.
        1    1    3    3  502    0 -0.12293103737E+04  0.64419910194E+03 -0.18730627676E+03  0.14004571108E+04  0.50400001928E-02 0. -1.
       -1    1    3    3    0  502  0.12293103737E+04 -0.64419910194E+03  0.10532497683E+04  0.17422776909E+04  0.50400001928E-02 0.  1.
</event>
<event>
 5   0  0.2679935E-07  0.2999797E+04  0.7818609E-02  0.8243789E-01
        1   -1    0    0  501    0  0.00000000000E+00  0.00000000000E+00  0.17845441568E+04  0.17845441568E+04  0.50400001928E-02 0.  1.
       -1   -1    0    0    0  501  0.00000000000E+00  0.00000000000E+00 -0.12606557355E+04  0.12606557355E+04  0.50400001928E-02 0. -1.
    10030    2    1    2    0    0  0.00000000000E+00  0.00000000000E+00  0.52388842129E+03  0.30451998922E+04  0.29997972108E+04 0.  0.
        2    1    3    3  502    0 -0.14532987134E+04 -0.20921887090E+03 -0.49035543874E+02  0.14690997824E+04  0.25500000920E-02 0. -1.
       -2    1    3    3    0  502  0.14532987134E+04  0.20921887090E+03  0.57292396517E+03  0.15761001098E+04  0.25500000920E-02 0.  1.
</event>
<event>
 5   0  0.2640081E-07  0.3018069E+04  0.7818609E-02  0.8238590E-01
        1   -1    0    0  501    0  0.00000000000E+00  0.00000000000E+00  0.15782159210E+04  0.15782159210E+04  0.50400001928E-02 0. -1.
       -1   -1    0    0    0  501  0.00000000000E+00  0.00000000000E+00 -0.14428852819E+04  0.14428852819E+04  0.50400001928E-02 0.  1.
    10030    2    1    2    0    0  0.00000000000E+00  0.00000000000E+00  0.13533063906E+03  0.30211012029E+04  0.30180686037E+04 0.  0.
        1    1    3    3  502    0  0.86809698811E+03  0.92976136961E+03  0.88035297365E+03  0.15469550554E+04  0.50400001928E-02 0. -1.
       -1    1    3    3    0  502 -0.86809698811E+03 -0.92976136961E+03 -0.74502233459E+03  0.14741461475E+04  0.50400001928E-02 0.  1.
</event>
<event>
 5   0  0.2621825E-07  0.3000341E+04  0.7818609E-02  0.8243634E-01
       -1   -1    0    0    0  501  0.00000000000E+00  0.00000000000E+00  0.10485173207E+04  0.10485173207E+04  0.50400001928E-02 0.  1.
        1   -1    0    0  501    0  0.00000000000E+00  0.00000000000E+00 -0.21463749323E+04  0.21463749323E+04  0.50400001928E-02 0. -1.
    10030    2    1    2    0    0  0.00000000000E+00  0.00000000000E+00 -0.10978576116E+04  0.31948922530E+04  0.30003408428E+04 0.  0.
        3    1    3    3  502    0 -0.94261649880E+03  0.35126392055E+03  0.63616027978E+03  0.11902151560E+04  0.10100000352E+00 0.  1.
       -3    1    3    3    0  502  0.94261649880E+03 -0.35126392055E+03 -0.17340178914E+04  0.20046770970E+04  0.10100000352E+00 0. -1.
</event>
<event>
 5   0  0.2640081E-07  0.3001025E+04  0.7818609E-02  0.8243438E-01
        1   -1    0    0  501    0  0.00000000000E+00  0.00000000000E+00  0.15005071954E+04  0.15005071954E+04  0.50400001928E-02 0.  1.
       -1   -1    0    0    0  501  0.00000000000E+00  0.00000000000E+00 -0.15005176938E+04  0.15005176938E+04  0.50400001928E-02 0. -1.
    10030    2    1    2    0    0  0.00000000000E+00  0.00000000000E+00 -0.10498371046E-01  0.30010248892E+04  0.30010248892E+04 0.  0.
        1    1    3    3  502    0  0.12955718724E+04  0.44215814926E+03  0.61442724580E+03  0.15005102952E+04  0.50400001928E-02 0.  1.
       -1    1    3    3    0  502 -0.12955718724E+04 -0.44215814926E+03 -0.61443774417E+03  0.15005145940E+04  0.50400001928E-02 0. -1.
</event>
<event>
 5   0  0.2640081E-07  0.2999066E+04  0.7818609E-02  0.8243998E-01
       -1   -1    0    0    0  501  0.00000000000E+00  0.00000000000E+00  0.11004031639E+04  0.11004031640E+04  0.50400001928E-02 0. -1.
        1   -1    0    0  501    0  0.00000000000E+00  0.00000000000E+00 -0.20434319291E+04  0.20434319291E+04  0.50400001928E-02 0.  1.
    10030    2    1    2    0    0  0.00000000000E+00  0.00000000000E+00 -0.94302876519E+03  0.31438350931E+04  0.29990658280E+04 0.  0.
        1    1    3    3  502    0 -0.41305067522E+03  0.81107500967E+03  0.77770918549E+03  0.11971988594E+04  0.50400001928E-02 0. -1.
       -1    1    3    3    0  502  0.41305067522E+03 -0.81107500967E+03 -0.17207379507E+04  0.19466362338E+04  0.50400001928E-02 0.  1.
</event>
<event>
 5   0  0.2679935E-07  0.3003096E+04  0.7818609E-02  0.8242847E-01
        1   -1    0    0  501    0  0.00000000000E+00  0.00000000000E+00  0.17591645567E+04  0.17591645567E+04  0.50400001928E-02 0. -1.
       -1   -1    0    0    0  501  0.00000000000E+00  0.00000000000E+00 -0.12816576863E+04  0.12816576863E+04  0.50400001928E-02 0.  1.
    10030    2    1    2    0    0  0.00000000000E+00  0.00000000000E+00  0.47750687035E+03  0.30408222430E+04  0.30030962526E+04 0.  0.
        2    1    3    3  502    0  0.14693027813E+04 -0.18494838774E+03 -0.12537956387E+02  0.14809502927E+04  0.25500000920E-02 0. -1.
       -2    1    3    3    0  502 -0.14693027813E+04  0.18494838774E+03  0.49004482673E+03  0.15598719503E+04  0.25500000920E-02 0.  1.
</event>
<event>
 5   0  0.2640081E-07  0.2951035E+04  0.7818609E-02  0.8257853E-01
       -1   -1    0    0    0  501  0.00000000000E+00  0.00000000000E+00  0.12194454934E+04  0.12194454934E+04  0.50400001928E-02 0. -1.
        1   -1    0    0  501    0  0.00000000000E+00  0.00000000000E+00 -0.17853619418E+04  0.17853619418E+04  0.50400001928E-02 0.  1.
    10030    2    1    2    0    0  0.00000000000E+00  0.00000000000E+00 -0.56591644839E+03  0.30048074353E+04  0.29510347840E+04 0.  0.
        1    1    3    3  502    0  0.13793585864E+03  0.79153777863E+03  0.97716795438E+03  0.12650753208E+04  0.50400001928E-02 0. -1.
       -1    1    3    3    0  502 -0.13793585864E+03 -0.79153777863E+03 -0.15430844028E+04  0.17397321145E+04  0.50400001928E-02 0.  1.
</event>
<event>
 5   0  0.7278657E-07  0.3042768E+04  0.7818609E-02  0.8231622E-01
        2   -1    0    0  501    0  0.00000000000E+00  0.00000000000E+00  0.28407087073E+04  0.28407087073E+04  0.25500000920E-02 0.  1.
       -2   -1    0    0    0  501  0.00000000000E+00  0.00000000000E+00 -0.81480014471E+03  0.81480014471E+03  0.25500000920E-02 0. -1.
    10030    2    1    2    0    0  0.00000000000E+00  0.00000000000E+00  0.20259085626E+04  0.36555088520E+04  0.30427683880E+04 0.  0.
        2    1    3    3  502    0 -0.88817392853E+03  0.62143666602E+03  0.22954327944E+04  0.25385129842E+04  0.25500000920E-02 0.  1.
       -2    1    3    3    0  502  0.88817392853E+03 -0.62143666602E+03 -0.26952423183E+03  0.11169958678E+04  0.25500000920E-02 0. -1.
</event>
<event>
 5   0  0.2679935E-07  0.3004904E+04  0.7818609E-02  0.8242332E-01
        1   -1    0    0  501    0  0.00000000000E+00  0.00000000000E+00  0.11545397188E+04  0.11545397188E+04  0.50400001928E-02 0. -1.
       -1   -1    0    0    0  501  0.00000000000E+00  0.00000000000E+00 -0.19552045812E+04  0.19552045812E+04  0.50400001928E-02 0.  1.
    10030    2    1    2    0    0  0.00000000000E+00  0.00000000000E+00 -0.80066486240E+03  0.31097443000E+04  0.30049035574E+04 0.  0.
        2    1    3    3  502    0 -0.21339115015E+03 -0.14619548989E+04 -0.68282787228E+03  0.16276061601E+04  0.25500000920E-02 0.  1.
       -2    1    3    3    0  502  0.21339115015E+03  0.14619548989E+04 -0.11783699011E+03  0.14821381399E+04  0.25500000920E-02 0. -1.
</event>
<event>
 5   0  0.2602891E-07  0.2999461E+04  0.7818609E-02  0.8243885E-01
       -1   -1    0    0    0  501  0.00000000000E+00  0.00000000000E+00  0.13143219315E+04  0.13143219315E+04  0.50400001928E-02 0. -1.
        1   -1    0    0  501    0  0.00000000000E+00  0.00000000000E+00 -0.17112946197E+04  0.17112946197E+04  0.50400001928E-02 0.  1.
    10030    2    1    2    0    0  0.00000000000E+00  0.00000000000E+00 -0.39697268821E+03  0.30256165512E+04  0.29994613183E+04 0.  0.
        5    1    3    3  502    0  0.13708056265E+04 -0.21338135982E+03 -0.77312950249E+03  0.15882036985E+04  0.46999998093E+01 0.  1.
       -5    1    3    3    0  502 -0.13708056265E+04  0.21338135982E+03  0.37615681428E+03  0.14374128527E+04  0.46999998093E+01 0. -1.
</event>
<event>
 5   0  0.7307508E-07  0.2974566E+04  0.7818609E-02  0.8251031E-01
        2   -1    0    0  501    0  0.00000000000E+00  0.00000000000E+00  0.15957923701E+04  0.15957923701E+04  0.25500000920E-02 0. -1.
       -2   -1    0    0    0  501  0.00000000000E+00  0.00000000000E+00 -0.13861521864E+04  0.13861521864E+04  0.25500000920E-02 0.  1.
    10030    2    1    2    0    0  0.00000000000E+00  0.00000000000E+00  0.20964018368E+03  0.29819445564E+04  0.29745662425E+04 0.  0.
        1    1    3    3  502    0  0.87031847810E+03 -0.17991454043E+03 -0.10906930688E+04  0.14069239018E+04  0.50400001928E-02 0.  1.
       -1    1    3    3    0  502 -0.87031847810E+03  0.17991454043E+03  0.13003332524E+04  0.15750206547E+04  0.50400001928E-02 0. -1.
</event>
<event>
 5   0  0.7307508E-07  0.2998040E+04  0.7818609E-02  0.8244291E-01
        2   -1    0    0  501    0  0.00000000000E+00  0.00000000000E+00  0.22134260601E+04  0.22134260601E+04  0.25500000920E-02 0.  1.
       -2   -1    0    0    0  501  0.00000000000E+00  0.00000000000E+00 -0.10151955350E+04  0.10151955350E+04  0.25500000920E-02 0. -1.
    10030    2    1    2    0    0  0.00000000000E+00  0.00000000000E+00  0.11982305250E+04  0.32286215951E+04  0.29980395283E+04 0.  0.
        1    1    3    3  502    0 -0.10454227614E+04 -0.10140192172E+04  0.21697643513E+03  0.14724885386E+04  0.50400001928E-02 0. -1.
       -1    1    3    3    0  502  0.10454227614E+04  0.10140192172E+04  0.98125408988E+03  0.17561330565E+04  0.50400001928E-02 0.  1.
</event>
<event>
 5   0  0.7278657E-07  0.3001842E+04  0.7818609E-02  0.8243205E-01
       -2   -1    0    0    0  501  0.00000000000E+00  0.00000000000E+00  0.93144348851E+03  0.93144348851E+03  0.25500000920E-02 0. -1.
        2   -1    0    0  501    0  0.00000000000E+00  0.00000000000E+00 -0.24185727331E+04  0.24185727331E+04  0.25500000920E-02 0.  1.
    10030    2    1    2    0    0  0.00000000000E+00  0.00000000000E+00 -0.14871292446E+04  0.33500162216E+04  0.30018419837E+04 0.  0.
        2    1    3    3  502    0  0.10472634861E+03  0.41224822006E+03 -0.23499065240E+04  0.23880906336E+04  0.25500000920E-02 0.  1.
       -2    1    3    3    0  502 -0.10472634861E+03 -0.41224822006E+03  0.86277727936E+03  0.96192558799E+03  0.25500000920E-02 0. -1.
</event>
<event>
 5   0  0.7585823E-07  0.2950452E+04  0.7818609E-02  0.8258023E-01
        2   -1    0    0  501    0  0.00000000000E+00  0.00000000000E+00  0.16085973507E+04  0.16085973507E+04  0.25500000920E-02 0. -1.
       -2   -1    0    0    0  501  0.00000000000E+00  0.00000000000E+00 -0.13529123213E+04  0.13529123213E+04  0.25500000920E-02 0.  1.
    10030    2    1    2    0    0  0.00000000000E+00  0.00000000000E+00  0.25568502941E+03  0.29615096719E+04  0.29504516100E+04 0.  0.
        5    1    3    3  502    0 -0.79240891946E+03 -0.15011311987E+03 -0.11120292556E+04  0.13737092122E+04  0.46999998093E+01 0.  1.
       -5    1    3    3    0  502  0.79240891946E+03  0.15011311987E+03  0.13677142850E+04  0.15878004597E+04  0.46999998093E+01 0. -1.
</event>
<event>
 5   0  0.2792361E-07  0.3003460E+04  0.7818609E-02  0.8242743E-01
       -1   -1    0    0    0  501  0.00000000000E+00  0.00000000000E+00  0.12171665434E+04  0.12171665434E+04  0.50400001928E-02 0. -1.
        1   -1    0    0  501    0  0.00000000000E+00  0.00000000000E+00 -0.18528224038E+04  0.18528224038E+04  0.50400001928E-02 0.  1.
    10030    2    1    2    0    0  0.00000000000E+00  0.00000000000E+00 -0.63565586037E+03  0.30699889472E+04  0.30034602983E+04 0.  0.
        4    1    3    3  502    0 -0.54886206953E+03  0.39122111650E+03 -0.16895252940E+04  0.18190109580E+04  0.12699999809E+01 0.  1.
       -4    1    3    3    0  502  0.54886206953E+03 -0.39122111650E+03  0.10538694337E+04  0.12509779892E+04  0.12699999809E+01 0. -1.
</event>
<event>
 5   0  0.7307508E-07  0.2998508E+04  0.7818609E-02  0.8244157E-01
       -2   -1    0    0    0  501  0.00000000000E+00  0.00000000000E+00  0.13970025962E+04  0.13970025962E+04  0.25500000920E-02 0. -1.
        2   -1    0    0  501    0  0.00000000000E+00  0.00000000000E+00 -0.16089892298E+04  0.16089892298E+04  0.25500000920E-02 0.  1.
    10030    2    1    2    0    0  0.00000000000E+00  0.00000000000E+00 -0.21198663363E+03  0.30059918260E+04  0.29985077164E+04 0.  0.
        1    1    3    3  502    0 -0.10850756731E+04  0.43858656664E+03 -0.10453564845E+04  0.15692410817E+04  0.50400001928E-02 0.  1.
       -1    1    3    3    0  502  0.10850756731E+04 -0.43858656664E+03  0.83336985086E+03  0.14367507443E+04  0.50400001928E-02 0. -1.
</event>
<event>
 5   0  0.2640081E-07  0.3003859E+04  0.7818609E-02  0.8242630E-01
       -1   -1    0    0    0  501  0.00000000000E+00  0.00000000000E+00  0.15180404895E+04  0.15180404895E+04  0.50400001928E-02 0. -1.
        1   -1    0    0  501    0  0.00000000000E+00  0.00000000000E+00 -0.14859898419E+04  0.14859898420E+04  0.50400001928E-02 0.  1.
    10030    2    1    2    0    0  0.00000000000E+00  0.00000000000E+00  0.32050647550E+02  0.30040303315E+04  0.30038593490E+04 0.  0.
        1    1    3    3  502    0 -0.83543833703E+03 -0.52948573314E+03  0.11463464398E+04  0.15140748055E+04  0.50400001928E-02 0.  1.
       -1    1    3    3    0  502  0.83543833703E+03  0.52948573314E+03 -0.11142957923E+04  0.14899555259E+04  0.50400001928E-02 0. -1.
</event>
<event>
 5   0  0.2679935E-07  0.3002368E+04  0.7818609E-02  0.8243055E-01
        1   -1    0    0  501    0  0.00000000000E+00  0.00000000000E+00  0.23804641187E+04  0.23804641187E+04  0.50400001928E-02 0. -1.
       -1   -1    0    0    0  501  0.00000000000E+00  0.00000000000E+00 -0.94668681973E+03  0.94668681974E+03  0.50400001928E-02 0.  1.
    10030    2    1    2    0    0  0.00000000000E+00  0.00000000000E+00  0.14337772990E+04  0.33271509384E+04  0.30023684025E+04 0.  0.
        2    1    3    3  502    0 -0.27238203222E+03 -0.12584434944E+04 -0.13840601585E+03  0.12950012453E+04  0.25500000920E-02 0.  1.
       -2    1    3    3    0  502  0.27238203222E+03  0.12584434944E+04  0.15721833148E+04  0.20321496932E+04  0.25500000920E-02 0. -1.
</event>
<event>
 5   0  0.2621825E-07  0.2991132E+04  0.7818609E-02  0.8246268E-01
       -1   -1    0    0    0  501  0.00000000000E+00  0.00000000000E+00  0.94750158630E+03  0.94750158631E+03  0.50400001928E-02 0. -1.
        1   -1    0    0  501    0  0.00000000000E+00  0.00000000000E+00 -0.23606472821E+04  0.23606472821E+04  0.50400001928E-02 0.  1.
    10030    2    1    2    0    0  0.00000000000E+00  0.00000000000E+00 -0.14131456958E+04  0.33081488684E+04  0.29911315882E+04 0.  0.
        3    1    3    3  502    0 -0.45434396273E+03 -0.12579915684E+04  0.33484357647E+02  0.13379433602E+04  0.10100000352E+00 0. -1.
       -3    1    3    3    0  502  0.45434396273E+03  0.12579915684E+04 -0.14466300534E+04  0.19702055082E+04  0.10100000352E+00 0.  1.
</event>
<event>
 5   0  0.2602891E-07  0.2992286E+04  0.7818609E-02  0.8245937E-01
       -1   -1    0    0    0  501  0.00000000000E+00  0.00000000000E+00  0.13999950477E+04  0.13999950477E+04  0.50400001928E-02 0. -1.
        1   -1    0    0  501    0  0.00000000000E+00  0.00000000000E+00 -0.15988940367E+04  0.15988940367E+04  0.50400001928E-02 0.  1.
    10030    2    1    2    0    0  0.00000000000E+00  0.00000000000E+00 -0.19889898901E+03  0.29988890843E+04  0.29922859042E+04 0.  0.
        5    1    3    3  502    0  0.22717667838E+03 -0.90562954305E+03 -0.12710662586E+04  0.15771511139E+04  0.46999998093E+01 0.  1.
       -5    1    3    3    0  502 -0.22717667838E+03  0.90562954305E+03  0.10721672696E+04  0.14217379704E+04  0.46999998093E+01 0. -1.
</event>
<event>
 5   0  0.2679935E-07  0.2994995E+04  0.7818609E-02  0.8245161E-01
        1   -1    0    0  501    0  0.00000000000E+00  0.00000000000E+00  0.28475945517E+04  0.28475945517E+04  0.50400001928E-02 0. -1.
       -1   -1    0    0    0  501  0.00000000000E+00  0.00000000000E+00 -0.78750648380E+03  0.78750648382E+03  0.50400001928E-02 0.  1.
    10030    2    1    2    0    0  0.00000000000E+00  0.00000000000E+00  0.20600880679E+04  0.36351010356E+04  0.29949952740E+04 0.  0.
        2    1    3    3  502    0  0.28170644921E+03 -0.62137990191E+03 -0.58791469587E+03  0.90061934004E+03  0.25500000920E-02 0.  1.
       -2    1    3    3    0  502 -0.28170644921E+03  0.62137990191E+03  0.26480027638E+04  0.27344816955E+04  0.25500000920E-02 0. -1.
</event>
<event>
 5   0  0.7307508E-07  0.2999451E+04  0.7818609E-02  0.8243888E-01
        2   -1    0    0  501    0  0.00000000000E+00  0.00000000000E+00  0.25741562699E+04  0.25741562699E+04  0.25500000920E-02 0. -1.
       -2   -1    0    0    0  501  0.00000000000E+00  0.00000000000E+00 -0.87375321014E+03  0.87375321015E+03  0.25500000920E-02 0.  1.
    10030    2    1    2    0    0  0.00000000000E+00  0.00000000000E+00  0.17004030598E+04  0.34479094801E+04  0.29994514860E+04 0.  0.
        1    1    3    3  502    0  0.11080019179E+04 -0.11269605379E+03  0.20047665967E+04  0.22933507708E+04  0.50400001928E-02 0. -1.
       -1    1    3    3    0  502 -0.11080019179E+04  0.11269605379E+03 -0.30436353690E+03  0.11545587093E+04  0.50400001928E-02 0.  1.
</event>
<event>
 5   0  0.7399409E-07  0.3005055E+04  0.7818609E-02  0.8242289E-01
       -2   -1    0    0    0  501  0.00000000000E+00  0.00000000000E+00  0.14011795928E+04  0.14011795928E+04  0.25500000920E-02 0. -1.
        2   -1    0    0  501    0  0.00000000000E+00  0.00000000000E+00 -0.16112056062E+04  0.16112056062E+04  0.25500000920E-02 0.  1.
    10030    2    1    2    0    0  0.00000000000E+00  0.00000000000E+00 -0.21002601332E+03  0.30123851990E+04  0.30050546852E+04 0.  0.
        3    1    3    3  502    0 -0.13465449374E+04  0.66468671329E+03 -0.53930779891E+02  0.15026311040E+04  0.10100000352E+00 0. -1.
       -3    1    3    3    0  502  0.13465449374E+04 -0.66468671329E+03 -0.15609523343E+03  0.15097540950E+04  0.10100000352E+00 0.  1.
</event>
<event>
 5   0  0.2640081E-07  0.2999582E+04  0.7818609E-02  0.8243850E-01
       -1   -1    0    0    0  501  0.00000000000E+00  0.00000000000E+00  0.13415695570E+04  0.13415695570E+04  0.50400001928E-02 0. -1.
        1   -1    0    0  501    0  0.00000000000E+00  0.00000000000E+00 -0.16766726204E+04  0.16766726204E+04  0.50400001928E-02 0.  1.
    10030    2    1    2    0    0  0.00000000000E+00  0.00000000000E+00 -0.33510306338E+03  0.30182421774E+04  0.29995819339E+04 0.  0.
        1    1    3    3  502    0  0.86632265319E+03  0.79788503130E+03  0.76679247343E+03  0.14053847018E+04  0.50400001928E-02 0. -1.
       -1    1    3    3    0  502 -0.86632265319E+03 -0.79788503130E+03 -0.11018955368E+04  0.16128574756E+04  0.50400001928E-02 0.  1.
</event>
<event>
 5   0  0.2679935E-07  0.2965888E+04  0.7818609E-02  0.8253539E-01
        1   -1    0    0  501    0  0.00000000000E+00  0.00000000000E+00  0.15881534890E+04  0.15881534890E+04  0.50400001928E-02 0.  1.
       -1   -1    0    0    0  501  0.00000000000E+00  0.00000000000E+00 -0.13847040275E+04  0.13847040275E+04  0.50400001928E-02 0. -1.
    10030    2    1    2    0    0  0.00000000000E+00  0.00000000000E+00  0.20344946148E+03  0.29728575165E+04  0.29658877473E+04 0.  0.
        2    1    3    3  502    0  0.20068054897E+03 -0.61011409793E+03  0.14415073597E+04  0.15781176646E+04  0.25500000920E-02 0.  1.
       -2    1    3    3    0  502 -0.20068054897E+03  0.61011409793E+03 -0.12380578982E+04  0.13947398519E+04  0.25500000920E-02 0. -1.
</event>
<event>
 5   0  0.2640081E-07  0.3007218E+04  0.7818609E-02  0.8241673E-01
       -1   -1    0    0    0  501  0.00000000000E+00  0.00000000000E+00  0.12500122260E+04  0.12500122260E+04  0.50400001928E-02 0. -1.
        1   -1    0    0  501    0  0.00000000000E+00  0.00000000000E+00 -0.18086540737E+04  0.18086540737E+04  0.50400001928E-02 0.  1.
    10030    2    1    2    0    0  0.00000000000E+00  0.00000000000E+00 -0.55864184776E+03  0.30586662997E+04  0.30072177871E+04 0.  0.
        1    1    3    3  502    0  0.65597586484E+03  0.13262827275E+04 -0.73333422819E+01  0.14796567124E+04  0.50400001928E-02 0. -1.
       -1    1    3    3    0  502 -0.65597586484E+03 -0.13262827275E+04 -0.55130850548E+03  0.15790095873E+04  0.50400001928E-02 0.  1.
</event>
<event>
 5   0  0.2792361E-07  0.3001949E+04  0.7818609E-02  0.8243175E-01
        1   -1    0    0  501    0  0.00000000000E+00  0.00000000000E+00  0.15636713105E+04  0.15636713105E+04  0.50400001928E-02 0.  1.
       -1   -1    0    0    0  501  0.00000000000E+00  0.00000000000E+00 -0.14407913438E+04  0.14407913439E+04  0.50400001928E-02 0. -1.
    10030    2    1    2    0    0  0.00000000000E+00  0.00000000000E+00  0.12287996661E+03  0.30044626543E+04  0.30019487596E+04 0.  0.
        4    1    3    3  502    0  0.17773667250E+02  0.14042337448E+04 -0.46884724515E+03  0.14805430306E+04  0.12699999809E+01 0. -1.
       -4    1    3    3    0  502 -0.17773667250E+02 -0.14042337448E+04  0.59172721176E+03  0.15239196237E+04  0.12699999809E+01 0.  1.
</event>
<event>
 5   0  0.2621825E-07  0.2999006E+04  0.7818609E-02  0.8244015E-01
       -1   -1    0    0    0  501  0.00000000000E+00  0.00000000000E+00  0.15557456819E+04  0.15557456819E+04  0.50400001928E-02 0. -1.
        1   -1    0    0  501    0  0.00000000000E+00  0.00000000000E+00 -0.14452938294E+04  0.14452938294E+04  0.50400001928E-02 0.  1.
    10030    2    1    2    0    0  0.00000000000E+00  0.00000000000E+00  0.11045185251E+03  0.30010395113E+04  0.29990062582E+04 0.  0.
        3    1    3    3  502    0 -0.14655504246E+04 -0.27687583743E+02  0.37151770076E+03  0.15121607261E+04  0.10100000352E+00 0. -1.
       -3    1    3    3    0  502  0.14655504246E+04  0.27687583743E+02 -0.26106584826E+03  0.14888787851E+04  0.10100000352E+00 0.  1.
</event>
<event>
 5   0  0.7307508E-07  0.3012035E+04  0.7818609E-02  0.8240302E-01
        2   -1    0    0  501    0  0.00000000000E+00  0.00000000000E+00  0.94646146168E+03  0.94646146168E+03  0.25500000920E-02 0. -1.
       -2   -1    0    0    0  501  0.00000000000E+00  0.00000000000E+00 -0.23963885090E+04  0.23963885090E+04  0.25500000920E-02 0.  1.
    10030    2    1    2    0    0  0.00000000000E+00  0.00000000000E+00 -0.14499270473E+04  0.33428499707E+04  0.30120354387E+04 0.  0.
        1    1    3    3  502    0  0.11909378090E+04 -0.90157653655E+02 -0.17431256140E+04  0.21130423975E+04  0.50400001928E-02 0.  1.
       -1    1    3    3    0  502 -0.11909378090E+04  0.90157653655E+02  0.29319856666E+03  0.12298075732E+04  0.50400001928E-02 0. -1.
</event>
<event>
 5   0  0.2602891E-07  0.3011467E+04  0.7818609E-02  0.8240464E-01
       -1   -1    0    0    0  501  0.00000000000E+00  0.00000000000E+00  0.15135170388E+04  0.15135170388E+04  0.50400001928E-02 0. -1.
        1   -1    0    0  501    0  0.00000000000E+00  0.00000000000E+00 -0.14979899300E+04  0.14979899300E+04  0.50400001928E-02 0.  1.
    10030    2    1    2    0    0  0.00000000000E+00  0.00000000000E+00  0.15527108795E+02  0.30115069688E+04  0.30114669402E+04 0.  0.
        5    1    3    3  502    0 -0.65076970075E+03 -0.34685264767E+03  0.13205655371E+04  0.15125221950E+04  0.46999998093E+01 0. -1.
       -5    1    3    3    0  502  0.65076970075E+03  0.34685264767E+03 -0.13050384283E+04  0.14989847738E+04  0.46999998093E+01 0.  1.
</event>
<event>
 5   0  0.7278657E-07  0.2975262E+04  0.7818609E-02  0.8250830E-01
        2   -1    0    0  501    0  0.00000000000E+00  0.00000000000E+00  0.16239520074E+04  0.16239520074E+04  0.25500000920E-02 0. -1.
       -2   -1    0    0    0  501  0.00000000000E+00  0.00000000000E+00 -0.13627537574E+04  0.13627537574E+04  0.25500000920E-02 0.  1.
    10030    2    1    2    0    0  0.00000000000E+00  0.00000000000E+00  0.26119824996E+03  0.29867057649E+04  0.29752624758E+04 0.  0.
        2    1    3    3  502    0  0.66038184534E+03 -0.94140897838E+03  0.10779935977E+04  0.15762059646E+04  0.25500000920E-02 0. -1.
       -2    1    3    3    0  502 -0.66038184534E+03  0.94140897838E+03 -0.81679534777E+03  0.14104998002E+04  0.25500000920E-02 0.  1.
</event>
<event>
 5   0  0.2792361E-07  0.3025424E+04  0.7818609E-02  0.8236508E-01
       -1   -1    0    0    0  501  0.00000000000E+00  0.00000000000E+00  0.12482763850E+04  0.12482763850E+04  0.50400001928E-02 0.  1.
        1   -1    0    0  501    0  0.00000000000E+00  0.00000000000E+00 -0.18331656368E+04  0.18331656368E+04  0.50400001928E-02 0. -1.
    10030    2    1    2    0    0  0.00000000000E+00  0.00000000000E+00 -0.58488925175E+03  0.30814420218E+04  0.30254238541E+04 0.  0.
        4    1    3    3  502    0  0.69156898841E+03  0.11810636294E+04 -0.94866986288E+03  0.16652792811E+04  0.12699999809E+01 0. -1.
       -4    1    3    3    0  502 -0.69156898841E+03 -0.11810636294E+04  0.36378061113E+03  0.14161627407E+04  0.12699999809E+01 0.  1.
</event>
<event>
 5   0  0.7399409E-07  0.3002397E+04  0.7818609E-02  0.8243047E-01
       -2   -1    0    0    0  501  0.00000000000E+00  0.00000000000E+00  0.12892324341E+04  0.12892324341E+04  0.25500000920E-02 0.  1.
        2   -1    0    0  501    0  0.00000000000E+00  0.00000000000E+00 -0.17480148319E+04  0.17480148319E+04  0.25500000920E-02 0. -1.
    10030    2    1    2    0    0  0.00000000000E+00  0.00000000000E+00 -0.45878239778E+03  0.30372472660E+04  0.30023973199E+04 0.  0.
        3    1    3    3  502    0  0.50503753225E+03 -0.11869216680E+03  0.11956640491E+04  0.13033661296E+04  0.10100000352E+00 0.  1.
       -3    1    3    3    0  502 -0.50503753225E+03  0.11869216680E+03 -0.16544464468E+04  0.17338811364E+04  0.10100000352E+00 0. -1.
</event>
<event>
 5   0  0.2640081E-07  0.2997346E+04  0.7818609E-02  0.8244489E-01
       -1   -1    0    0    0  501  0.00000000000E+00  0.00000000000E+00  0.11669416224E+04  0.11669416224E+04  0.50400001928E-02 0.  1.
        1   -1    0    0  501    0  0.00000000000E+00  0.00000000000E+00 -0.19247065140E+04  0.19247065140E+04  0.50400001928E-02 0. -1.
    10030    2    1    2    0    0  0.00000000000E+00  0.00000000000E+00 -0.75776489160E+03  0.30916481364E+04  0.29973455871E+04 0.  0.
        1    1    3    3  502    0  0.79567183751E+03 -0.84556581376E+03 -0.13562954016E+04  0.17853885949E+04  0.50400001928E-02 0. -1.
       -1    1    3    3    0  502 -0.79567183751E+03  0.84556581376E+03  0.59853050996E+03  0.13062595415E+04  0.50400001928E-02 0.  1.
</event>
<event>
 5   0  0.7399409E-07  0.2995768E+04  0.7818609E-02  0.8244940E-01
        2   -1    0    0  501    0  0.00000000000E+00  0.00000000000E+00  0.19209503589E+04  0.19209503589E+04  0.25500000920E-02 0. -1.
       -2   -1    0    0    0  501  0.00000000000E+00  0.00000000000E+00 -0.11679928538E+04  0.11679928538E+04  0.25500000920E-02 0.  1.
    10030    2    1    2    0    0  0.00000000000E+00  0.00000000000E+00  0.75295750517E+03  0.30889432127E+04  0.29957678760E+04 0.  0.
        3    1    3    3  502    0 -0.81332149318E+03  0.12700761950E+03  0.16668131898E+04  0.18590021535E+04  0.10100000352E+00 0. -1.
       -3    1    3    3    0  502  0.81332149318E+03 -0.12700761950E+03 -0.91385568462E+03  0.12299410592E+04  0.10100000352E+00 0.  1.
</event>
<event>
 5   0  0.2621825E-07  0.2987327E+04  0.7818609E-02  0.8247359E-01
        1   -1    0    0  501    0  0.00000000000E+00  0.00000000000E+00  0.19250709415E+04  0.19250709416E+04  0.50400001928E-02 0.  1.
       -1   -1    0    0    0  501  0.00000000000E+00  0.00000000000E+00 -0.11589340211E+04  0.11589340211E+04  0.50400001928E-02 0. -1.
    10030    2    1    2    0    0  0.00000000000E+00  0.00000000000E+00  0.76613692042E+03  0.30840049627E+04  0.29873267028E+04 0.  0.
        3    1    3    3  502    0 -0.13224282504E+04 -0.93499898271E+02  0.10934297110E+04  0.17184723599E+04  0.10100000352E+00 0.  1.
       -3    1    3    3    0  502  0.13224282504E+04  0.93499898271E+02 -0.32729279061E+03  0.13655326028E+04  0.10100000352E+00 0. -1.
</event>
<event>
 5   0  0.2602891E-07  0.3003760E+04  0.7818609E-02  0.8242658E-01
        1   -1    0    0  501    0  0.00000000000E+00  0.00000000000E+00  0.24101265206E+04  0.24101265206E+04  0.50400001928E-02 0.  1.
       -1   -1    0    0    0  501  0.00000000000E+00  0.00000000000E+00 -0.93590229603E+03  0.93590229604E+03  0.50400001928E-02 0. -1.
    10030    2    1    2    0    0  0.00000000000E+00  0.00000000000E+00  0.14742242246E+04  0.33460288166E+04  0.30037596071E+04 0.  0.
        5    1    3    3  502    0  0.55170378018E+03  0.13124291693E+04  0.12699159358E+04  0.19077620290E+04  0.46999998093E+01 0.  1.
       -5    1    3    3    0  502 -0.55170378018E+03 -0.13124291693E+04  0.20430828878E+03  0.14382667876E+04  0.46999998093E+01 0. -1.
</event>
<event>
 5   0  0.2621825E-07  0.3001752E+04  0.7818609E-02  0.8243231E-01
       -1   -1    0    0    0  501  0.00000000000E+00  0.00000000000E+00  0.23106547956E+04  0.23106547956E+04  0.50400001928E-02 0. -1.
        1   -1    0    0  501    0  0.00000000000E+00  0.00000000000E+00 -0.97488739119E+03  0.97488739121E+03  0.50400001928E-02 0.  1.
    10030    2    1    2    0    0  0.00000000000E+00  0.00000000000E+00  0.13357674044E+04  0.32855421868E+04  0.30017516391E+04 0.  0.
        3    1    3    3  502    0  0.88766959601E+03 -0.67540925011E+03 -0.43129622559E+03  0.11958893808E+04  0.10100000352E+00 0.  1.
       -3    1    3    3    0  502 -0.88766959601E+03  0.67540925011E+03  0.17670636300E+04  0.20896528060E+04  0.10100000352E+00 0. -1.
</event>
<event>
 5   0  0.7585823E-07  0.2998870E+04  0.7818609E-02  0.8244054E-01
       -2   -1    0    0    0  501  0.00000000000E+00  0.00000000000E+00  0.83632145291E+03  0.83632145291E+03  0.25500000920E-02 0. -1.
        2   -1    0    0  501    0  0.00000000000E+00  0.00000000000E+00 -0.26883274500E+04  0.26883274500E+04  0.25500000920E-02 0.  1.
    10030    2    1    2    0    0  0.00000000000E+00  0.00000000000E+00 -0.18520059970E+04  0.35246489029E+04  0.29988703999E+04 0.  0.
        5    1    3    3  502    0 -0.77245302558E+03  0.10877538976E+04 -0.12162030370E+03  0.13396663043E+04  0.46999998093E+01 0.  1.
       -5    1    3    3    0  502  0.77245302558E+03 -0.10877538976E+04 -0.17303856933E+04  0.21849825986E+04  0.46999998093E+01 0. -1.
</event>
<event>
 5   0  0.7307508E-07  0.3002346E+04  0.7818609E-02  0.8243061E-01
        2   -1    0    0  501    0  0.00000000000E+00  0.00000000000E+00  0.14154039477E+04  0.14154039477E+04  0.25500000920E-02 0.  1.
       -2   -1    0    0    0  501  0.00000000000E+00  0.00000000000E+00 -0.15921392288E+04  0.15921392288E+04  0.25500000920E-02 0. -1.
    10030    2    1    2    0    0  0.00000000000E+00  0.00000000000E+00 -0.17673528108E+03  0.30075431765E+04  0.30023458494E+04 0.  0.
        1    1    3    3  502    0  0.13020266964E+03 -0.28162204314E+03 -0.15596703656E+04  0.15902312284E+04  0.50400001928E-02 0. -1.
       -1    1    3    3    0  502 -0.13020266964E+03  0.28162204314E+03  0.13829350845E+04  0.14173119482E+04  0.50400001928E-02 0.  1.
</event>
<event>
 5   0  0.7307508E-07  0.2990975E+04  0.7818609E-02  0.8246313E-01
       -2   -1    0    0    0  501  0.00000000000E+00  0.00000000000E+00  0.84732794205E+03  0.84732794205E+03  0.25500000920E-02 0. -1.
        2   -1    0    0  501    0  0.00000000000E+00  0.00000000000E+00 -0.26394536384E+04  0.26394536384E+04  0.25500000920E-02 0.  1.
    10030    2    1    2    0    0  0.00000000000E+00  0.00000000000E+00 -0.17921256964E+04  0.34867815805E+04  0.29909749712E+04 0.  0.
        1    1    3    3  502    0 -0.15698848282E+03 -0.14262876402E+04 -0.40485952175E+03  0.14909235556E+04  0.50400001928E-02 0. -1.
       -1    1    3    3    0  502  0.15698848282E+03  0.14262876402E+04 -0.13872661746E+04  0.19958580249E+04  0.50400001928E-02 0.  1.
</event>
<event>
 5   0  0.2679935E-07  0.3000968E+04  0.7818609E-02  0.8243454E-01
       -1   -1    0    0    0  501  0.00000000000E+00  0.00000000000E+00  0.22193073973E+04  0.22193073973E+04  0.50400001928E-02 0.  1.
        1   -1    0    0  501    0  0.00000000000E+00  0.00000000000E+00 -0.10144843435E+04  0.10144843435E+04  0.50400001928E-02 0. -1.
    10030    2    1    2    0    0  0.00000000000E+00  0.00000000000E+00  0.12048230537E+04  0.32337917408E+04  0.30009682491E+04 0.  0.
        2    1    3    3  502    0 -0.39307814722E+03  0.14480669080E+04  0.60959248776E+03  0.16195713016E+04  0.25500000920E-02 0.  1.
       -2    1    3    3    0  502  0.39307814722E+03 -0.14480669080E+04  0.59523056598E+03  0.16142204392E+04  0.25500000920E-02 0. -1.
</event>
<event>
 5   0  0.2414250E-07  0.2993285E+04  0.7818609E-02  0.8245651E-01
       -4   -1    0    0    0  501  0.00000000000E+00  0.00000000000E+00  0.17872236906E+04  0.17872241418E+04  0.12699999809E+01 0. -1.
        4   -1    0    0  501    0  0.00000000000E+00  0.00000000000E+00 -0.12533057878E+04  0.12533064312E+04  0.12699999809E+01 0.  1.
    10030    2    1    2    0    0  0.00000000000E+00  0.00000000000E+00  0.53391790283E+03  0.30405305730E+04  0.29932854589E+04 0.  0.
        5    1    3    3  502    0  0.11265888623E+04 -0.95680463501E+03  0.50570009453E+03  0.15621882889E+04  0.46999998093E+01 0.  1.
       -5    1    3    3    0  502 -0.11265888623E+04  0.95680463501E+03  0.28217808294E+02  0.14783422841E+04  0.46999998093E+01 0. -1.
</event>
<event>
 5   0  0.7278657E-07  0.2997821E+04  0.7818609E-02  0.8244353E-01
        2   -1    0    0  501    0  0.00000000000E+00  0.00000000000E+00  0.21630518962E+04  0.21630518962E+04  0.25500000920E-02 0.  1.
       -2   -1    0    0    0  501  0.00000000000E+00  0.00000000000E+00 -0.10386863093E+04  0.10386863093E+04  0.25500000920E-02 0. -1.
    10030    2    1    2    0    0  0.00000000000E+00  0.00000000000E+00  0.11243655869E+04  0.32017382055E+04  0.29978208025E+04 0.  0.
        2    1    3    3  502    0  0.49642317361E+03  0.27949053592E+03  0.20429177934E+04  0.21208639838E+04  0.25500000920E-02 0.  1.
       -2    1    3    3    0  502 -0.49642317361E+03 -0.27949053592E+03 -0.91855220657E+03  0.10808742217E+04  0.25500000920E-02 0. -1.
</event>
<event>
 5   0  0.2602891E-07  0.3003534E+04  0.7818609E-02  0.8242723E-01
        1   -1    0    0  501    0  0.00000000000E+00  0.00000000000E+00  0.11432831721E+04  0.11432831721E+04  0.50400001928E-02 0. -1.
       -1   -1    0    0    0  501  0.00000000000E+00  0.00000000000E+00 -0.19726553460E+04  0.19726553460E+04  0.50400001928E-02 0.  1.
    10030    2    1    2    0    0  0.00000000000E+00  0.00000000000E+00 -0.82937217391E+03  0.31159385181E+04  0.30035336931E+04 0.  0.
        5    1    3    3  502    0 -0.13256166274E+04 -0.12763415880E+03 -0.11347299647E+04  0.17496239893E+04  0.46999998093E+01 0.  1.
       -5    1    3    3    0  502  0.13256166274E+04  0.12763415880E+03  0.30535779074E+03  0.13663145288E+04  0.46999998093E+01 0. -1.
</event>
<event>
 5   0  0.2792361E-07  0.3009246E+04  0.7818609E-02  0.8241096E-01
        1   -1    0    0  501    0  0.00000000000E+00  0.00000000000E+00  0.15046208495E+04  0.15046208495E+04  0.50400001928E-02 0.  1.
       -1   -1    0    0    0  501  0.00000000000E+00  0.00000000000E+00 -0.15046251330E+04  0.15046251330E+04  0.50400001928E-02 0. -1.
    10030    2    1    2    0    0  0.00000000000E+00  0.00000000000E+00 -0.42834750373E-02  0.30092459825E+04  0.30092459825E+04 0.  0.
        4    1    3    3  502    0  0.10349576235E+04 -0.97624995060E+03 -0.48958102644E+03  0.15046236881E+04  0.12699999809E+01 0. -1.
       -4    1    3    3    0  502 -0.10349576235E+04  0.97624995060E+03  0.48957674297E+03  0.15046222944E+04  0.12699999809E+01 0.  1.
</event>
<event>
 5   0  0.2621825E-07  0.2998685E+04  0.7818609E-02  0.8244107E-01
       -1   -1    0    0    0  501  0.00000000000E+00  0.00000000000E+00  0.87671872916E+03  0.87671872917E+03  0.50400001928E-02 0. -1.
        1   -1    0    0  501    0  0.00000000000E+00  0.00000000000E+00 -0.25641375264E+04  0.25641375264E+04  0.50400001928E-02 0.  1.
    10030    2    1    2    0    0  0.00000000000E+00  0.00000000000E+00 -0.16874187972E+04  0.34408562555E+04  0.29986846407E+04 0.  0.
        3    1    3    3  502    0  0.13317285072E+04  0.30316791923E+02 -0.54040558268E+02  0.13331692754E+04  0.10100000352E+00 0. -1.
       -3    1    3    3    0  502 -0.13317285072E+04 -0.30316791923E+02 -0.16333782389E+04  0.21076869802E+04  0.10100000352E+00 0.  1.
</event>
<event>
 5   0  0.2602891E-07  0.2997146E+04  0.7818609E-02  0.8244546E-01
       -1   -1    0    0    0  501  0.00000000000E+00  0.00000000000E+00  0.10702530288E+04  0.10702530288E+04  0.50400001928E-02 0.  1.
        1   -1    0    0  501    0  0.00000000000E+00  0.00000000000E+00 -0.20983087012E+04  0.20983087012E+04  0.50400001928E-02 0. -1.
    10030    2    1    2    0    0  0.00000000000E+00  0.00000000000E+00 -0.10280556724E+04  0.31685617300E+04  0.29971461378E+04 0.  0.
        5    1    3    3  502    0 -0.67273428920E+03 -0.22075889399E+03  0.88226480994E+03  0.11312467450E+04  0.46999998093E+01 0.  1.
       -5    1    3    3    0  502  0.67273428920E+03  0.22075889399E+03 -0.19103204823E+04  0.20373149850E+04  0.46999998093E+01 0. -1.
</event>
<event>
 5   0  0.7278657E-07  0.3047084E+04  0.7818609E-02  0.8230412E-01
       -2   -1    0    0    0  501  0.00000000000E+00  0.00000000000E+00  0.15372726213E+04  0.15372726213E+04  0.25500000920E-02 0. -1.
        2   -1    0    0  501    0  0.00000000000E+00  0.00000000000E+00 -0.15099337937E+04  0.15099337937E+04  0.25500000920E-02 0.  1.
    10030    2    1    2    0    0  0.00000000000E+00  0.00000000000E+00  0.27338827535E+02  0.30472064150E+04  0.30470837737E+04 0.  0.
        2    1    3    3  502    0  0.12736465229E+04 -0.46796995681E+03 -0.67918495439E+03  0.15173870792E+04  0.25500000920E-02 0.  1.
       -2    1    3    3    0  502 -0.12736465229E+04  0.46796995681E+03  0.70652378192E+03  0.15298193358E+04  0.25500000920E-02 0. -1.
</event>
<event>
 5   0  0.7278657E-07  0.2968100E+04  0.7818609E-02  0.8252899E-01
        2   -1    0    0  501    0  0.00000000000E+00  0.00000000000E+00  0.15640163114E+04  0.15640163114E+04  0.25500000920E-02 0. -1.
       -2   -1    0    0    0  501  0.00000000000E+00  0.00000000000E+00 -0.14081718805E+04  0.14081718805E+04  0.25500000920E-02 0.  1.
    10030    2    1    2    0    0  0.00000000000E+00  0.00000000000E+00  0.15584443092E+03  0.29721881920E+04  0.29680995876E+04 0.  0.
        2    1    3    3  502    0 -0.14935547063E+03 -0.75035563106E+02  0.15545607116E+04  0.15635205142E+04  0.25500000920E-02 0. -1.
       -2    1    3    3    0  502  0.14935547063E+03  0.75035563106E+02 -0.13987162807E+04  0.14086676777E+04  0.25500000920E-02 0.  1.
</event>
<event>
 5   0  0.2792361E-07  0.3000238E+04  0.7818609E-02  0.8243663E-01
       -1   -1    0    0    0  501  0.00000000000E+00  0.00000000000E+00  0.15186663706E+04  0.15186663706E+04  0.50400001928E-02 0.  1.
        1   -1    0    0  501    0  0.00000000000E+00  0.00000000000E+00 -0.14817986404E+04  0.14817986404E+04  0.50400001928E-02 0. -1.
    10030    2    1    2    0    0  0.00000000000E+00  0.00000000000E+00  0.36867730179E+02  0.30004650111E+04  0.30002384994E+04 0.  0.
        4    1    3    3  502    0 -0.18797239428E+03 -0.60899189196E+03 -0.13396640233E+04  0.14835450966E+04  0.12699999809E+01 0. -1.
       -4    1    3    3    0  502  0.18797239428E+03  0.60899189196E+03  0.13765317535E+04  0.15169199144E+04  0.12699999809E+01 0.  1.
</event>
<event>
 5   0  0.2640081E-07  0.3001735E+04  0.7818609E-02  0.8243236E-01
       -1   -1    0    0    0  501  0.00000000000E+00  0.00000000000E+00  0.14100353840E+04  0.14100353840E+04  0.50400001928E-02 0. -1.
        1   -1    0    0  501    0  0.00000000000E+00  0.00000000000E+00 -0.15975508767E+04  0.15975508767E+04  0.50400001928E-02 0.  1.
    10030    2    1    2    0    0  0.00000000000E+00  0.00000000000E+00 -0.18751549272E+03  0.30075862607E+04  0.30017350076E+04 0.  0.
        1    1    3    3  502    0 -0.14636380213E+04 -0.20895513766E+03 -0.35253383557E+03  0.15199271733E+04  0.50400001928E-02 0.  1.
       -1    1    3    3    0  502  0.14636380213E+04  0.20895513766E+03  0.16501834285E+03  0.14876590874E+04  0.50400001928E-02 0. -1.
</event>
<event>
 5   0  0.2640081E-07  0.3001578E+04  0.7818609E-02  0.8243281E-01
        1   -1    0    0  501    0  0.00000000000E+00  0.00000000000E+00  0.12298185870E+04  0.12298185871E+04  0.50400001928E-02 0.  1.
       -1   -1    0    0    0  501  0.00000000000E+00  0.00000000000E+00 -0.18314629063E+04  0.18314629063E+04  0.50400001928E-02 0. -1.
    10030    2    1    2    0    0  0.00000000000E+00  0.00000000000E+00 -0.60164431923E+03  0.30612814933E+04  0.30015776676E+04 0.  0.
        1    1    3    3  502    0  0.75964489620E+03 -0.34510863623E+03  0.97147141158E+03  0.12805924577E+04  0.50400001928E-02 0.  1.
       -1    1    3    3    0  502 -0.75964489620E+03  0.34510863623E+03 -0.15731157308E+04  0.17806890356E+04  0.50400001928E-02 0. -1.
</event>
<event>
 5   0  0.2602891E-07  0.3002309E+04  0.7818609E-02  0.8243072E-01
       -1   -1    0    0    0  501  0.00000000000E+00  0.00000000000E+00  0.14284038949E+04  0.14284038949E+04  0.50400001928E-02 0. -1.
        1   -1    0    0  501    0  0.00000000000E+00  0.00000000000E+00 -0.15776099311E+04  0.15776099311E+04  0.50400001928E-02 0.  1.
    10030    2    1    2    0    0  0.00000000000E+00  0.00000000000E+00 -0.14920603622E+03  0.30060138260E+04  0.30023085586E+04 0.  0.
        5    1    3    3  502    0 -0.98014870036E+03 -0.12809712897E+03 -0.12057502421E+04  0.15591523613E+04  0.46999998093E+01 0.  1.
       -5    1    3    3    0  502  0.98014870036E+03  0.12809712897E+03  0.10565442059E+04  0.14468614648E+04  0.46999998093E+01 0. -1.
</event>
<event>
 5   0  0.7208273E-07  0.2999306E+04  0.7818609E-02  0.8243929E-01
       -2   -1    0    0    0  501  0.00000000000E+00  0.00000000000E+00  0.12380818543E+04  0.12380818543E+04  0.25500000920E-02 0. -1.
        2   -1    0    0  501    0  0.00000000000E+00  0.00000000000E+00 -0.18164861289E+04  0.18164861289E+04  0.25500000920E-02 0.  1.
    10030    2    1    2    0    0  0.00000000000E+00  0.00000000000E+00 -0.57840427458E+03  0.30545679832E+04  0.29993055962E+04 0.  0.
        4    1    3    3  502    0  0.59296404315E+03  0.11101468578E+04  0.54125121986E+03  0.13700317143E+04  0.12699999809E+01 0. -1.
       -4    1    3    3    0  502 -0.59296404315E+03 -0.11101468578E+04 -0.11196554944E+04  0.16845362689E+04  0.12699999809E+01 0.  1.
</event>
<event>
 5   0  0.7399409E-07  0.2996024E+04  0.7818609E-02  0.8244867E-01
       -2   -1    0    0    0  501  0.00000000000E+00  0.00000000000E+00  0.10034802671E+04  0.10034802671E+04  0.25500000920E-02 0. -1.
        2   -1    0    0  501    0  0.00000000000E+00  0.00000000000E+00 -0.22362574373E+04  0.22362574373E+04  0.25500000920E-02 0.  1.
    10030    2    1    2    0    0  0.00000000000E+00  0.00000000000E+00 -0.12327771702E+04  0.32397377044E+04  0.29960241724E+04 0.  0.
        3    1    3    3  502    0  0.57430625864E+03  0.24379811171E+02 -0.21122528165E+04  0.21890714984E+04  0.10100000352E+00 0.  1.
       -3    1    3    3    0  502 -0.57430625864E+03 -0.24379811171E+02  0.87947564625E+03  0.10506662060E+04  0.10100000352E+00 0. -1.
</event>
<event>
 5   0  0.7307508E-07  0.2999944E+04  0.7818609E-02  0.8243747E-01
       -2   -1    0    0    0  501  0.00000000000E+00  0.00000000000E+00  0.86315663502E+03  0.86315663503E+03  0.25500000920E-02 0.  1.
        2   -1    0    0  501    0  0.00000000000E+00  0.00000000000E+00 -0.26066142698E+04  0.26066142698E+04  0.25500000920E-02 0. -1.
    10030    2    1    2    0    0  0.00000000000E+00  0.00000000000E+00 -0.17434576348E+04  0.34697709048E+04  0.29999442674E+04 0.  0.
        1    1    3    3  502    0 -0.12832313627E+04  0.66157187762E+03 -0.40111952341E+03  0.14984181498E+04  0.50400001928E-02 0. -1.
       -1    1    3    3    0  502  0.12832313627E+04 -0.66157187762E+03 -0.13423381114E+04  0.19713527550E+04  0.50400001928E-02 0.  1.
</event>
<event>
 5   0  0.7399409E-07  0.2998655E+04  0.7818609E-02  0.8244115E-01
        2   -1    0    0  501    0  0.00000000000E+00  0.00000000000E+00  0.22326389316E+04  0.22326389316E+04  0.25500000920E-02 0. -1.
       -2   -1    0    0    0  501  0.00000000000E+00  0.00000000000E+00 -0.10068726535E+04  0.10068726535E+04  0.25500000920E-02 0.  1.
    10030    2    1    2    0    0  0.00000000000E+00  0.00000000000E+00  0.12257662781E+04  0.32395115851E+04  0.29986550888E+04 0.  0.
        3    1    3    3  502    0 -0.14400488498E+04  0.26781145955E+03  0.95878752301E+03  0.17506390810E+04  0.10100000352E+00 0. -1.
       -3    1    3    3    0  502  0.14400488498E+04 -0.26781145955E+03  0.26697875507E+03  0.14888725041E+04  0.10100000352E+00 0.  1.
</event>
<event>
 5   0  0.7585823E-07  0.2996614E+04  0.7818609E-02  0.8244698E-01
       -2   -1    0    0    0  501  0.00000000000E+00  0.00000000000E+00  0.15896008262E+04  0.15896008262E+04  0.25500000920E-02 0.  1.
        2   -1    0    0  501    0  0.00000000000E+00  0.00000000000E+00 -0.14122561862E+04  0.14122561862E+04  0.25500000920E-02 0. -1.
    10030    2    1    2    0    0  0.00000000000E+00  0.00000000000E+00  0.17734464002E+03  0.30018570125E+04  0.29966138226E+04 0.  0.
        5    1    3    3  502    0 -0.93156931442E+03 -0.11720889548E+04  0.31234355589E+02  0.14975351683E+04  0.46999998093E+01 0.  1.
       -5    1    3    3    0  502  0.93156931442E+03  0.11720889548E+04  0.14611028443E+03  0.15043218441E+04  0.46999998093E+01 0. -1.
</event>
<event>
 5   0  0.2414250E-07  0.3002609E+04  0.7818609E-02  0.8242986E-01
       -4   -1    0    0    0  501  0.00000000000E+00  0.00000000000E+00  0.17155946198E+04  0.17155950898E+04  0.12699999809E+01 0.  1.
        4   -1    0    0  501    0  0.00000000000E+00  0.00000000000E+00 -0.13137798504E+04  0.13137804642E+04  0.12699999809E+01 0. -1.
    10030    2    1    2    0    0  0.00000000000E+00  0.00000000000E+00  0.40181476942E+03  0.30293755540E+04  0.30026090552E+04 0.  0.
        3    1    3    3  502    0 -0.92207580867E+03 -0.14989307496E+03  0.13866387627E+04  0.16719625591E+04  0.10100000352E+00 0.  1.
       -3    1    3    3    0  502  0.92207580867E+03  0.14989307496E+03 -0.98482399324E+03  0.13574129949E+04  0.10100000352E+00 0. -1.
</event>
<event>
 5   0  0.2621825E-07  0.3003172E+04  0.7818609E-02  0.8242826E-01
        1   -1    0    0  501    0  0.00000000000E+00  0.00000000000E+00  0.16774101930E+04  0.16774101930E+04  0.50400001928E-02 0.  1.
       -1   -1    0    0    0  501  0.00000000000E+00  0.00000000000E+00 -0.13441918457E+04  0.13441918457E+04  0.50400001928E-02 0. -1.
    10030    2    1    2    0    0  0.00000000000E+00  0.00000000000E+00  0.33321834729E+03  0.30216020388E+04  0.30031723916E+04 0.  0.
        3    1    3    3  502    0  0.11863651108E+04  0.31771944821E+03 -0.70260984835E+03  0.14149446749E+04  0.10100000352E+00 0. -1.
       -3    1    3    3    0  502 -0.11863651108E+04 -0.31771944821E+03  0.10358281956E+04  0.16066573639E+04  0.10100000352E+00 0.  1.
</event>
<event>
 5   0  0.7307508E-07  0.2989139E+04  0.7818609E-02  0.8246839E-01
       -2   -1    0    0    0  501  0.00000000000E+00  0.00000000000E+00  0.15336862308E+04  0.15336862308E+04  0.25500000920E-02 0. -1.
        2   -1    0    0  501    0  0.00000000000E+00  0.00000000000E+00 -0.14564506183E+04  0.14564506183E+04  0.25500000920E-02 0.  1.
    10030    2    1    2    0    0  0.00000000000E+00  0.00000000000E+00  0.77235612565E+02  0.29901368491E+04  0.29891391798E+04 0.  0.
        1    1    3    3  502    0  0.29301939056E+03  0.10094550081E+04 -0.10242237472E+04  0.14676150929E+04  0.50400001928E-02 0.  1.
       -1    1    3    3    0  502 -0.29301939056E+03 -0.10094550081E+04  0.11014593598E+04  0.15225217561E+04  0.50400001928E-02 0. -1.
</event>
<event>
 5   0  0.2621825E-07  0.2997953E+04  0.7818609E-02  0.8244316E-01
       -1   -1    0    0    0  501  0.00000000000E+00  0.00000000000E+00  0.10722573994E+04  0.10722573994E+04  0.50400001928E-02 0.  1.
        1   -1    0    0  501    0  0.00000000000E+00  0.00000000000E+00 -0.20955144580E+04  0.20955144580E+04  0.50400001928E-02 0. -1.
    10030    2    1    2    0    0  0.00000000000E+00  0.00000000000E+00 -0.10232570586E+04  0.31677718574E+04  0.29979532239E+04 0.  0.
        3    1    3    3  502    0  0.86784867402E+02 -0.12772318605E+04  0.31233635169E+03  0.13177279103E+04  0.10100000352E+00 0.  1.
       -3    1    3    3    0  502 -0.86784867402E+02  0.12772318605E+04 -0.13355934102E+04  0.18500439471E+04  0.10100000352E+00 0. -1.
</event>
<event>
 5   0  0.2679935E-07  0.2995811E+04  0.7818609E-02  0.8244928E-01
        1   -1    0    0  501    0  0.00000000000E+00  0.00000000000E+00  0.23632876243E+04  0.23632876243E+04  0.50400001928E-02 0. -1.
       -1   -1    0    0    0  501  0.00000000000E+00  0.00000000000E+00 -0.94940662531E+03  0.94940662533E+03  0.50400001928E-02 0.  1.
    10030    2    1    2    0    0  0.00000000000E+00  0.00000000000E+00  0.14138809990E+04  0.33126942496E+04  0.29958110275E+04 0.  0.
        2    1    3    3  502    0 -0.26094694834E+03 -0.98640451088E+03 -0.50570437132E+03  0.11387818404E+04  0.25500000920E-02 0.  1.
       -2    1    3    3    0  502  0.26094694834E+03  0.98640451088E+03  0.19195853703E+04  0.21739124092E+04  0.25500000920E-02 0. -1.
</event>
<event>
 5   0  0.2792361E-07  0.2959257E+04  0.7818609E-02  0.8255462E-01
        1   -1    0    0  501    0  0.00000000000E+00  0.00000000000E+00  0.16069733719E+04  0.16069733720E+04  0.50400001928E-02 0. -1.
       -1   -1    0    0    0  501  0.00000000000E+00  0.00000000000E+00 -0.13623750786E+04  0.13623750786E+04  0.50400001928E-02 0.  1.
    10030    2    1    2    0    0  0.00000000000E+00  0.00000000000E+00  0.24459829338E+03  0.29693484505E+04  0.29592569837E+04 0.  0.
        4    1    3    3  502    0  0.49493288337E+03 -0.98035637249E+02  0.15179879345E+04  0.15996432500E+04  0.12699999809E+01 0. -1.
       -4    1    3    3    0  502 -0.49493288337E+03  0.98035637249E+02 -0.12733896411E+04  0.13697052005E+04  0.12699999809E+01 0.  1.
</event>
<event>
 5   0  0.7208273E-07  0.3006859E+04  0.7818609E-02  0.8241775E-01
       -2   -1    0    0    0  501  0.00000000000E+00  0.00000000000E+00  0.20559314272E+04  0.20559314272E+04  0.25500000920E-02 0. -1.
        2   -1    0    0  501    0  0.00000000000E+00  0.00000000000E+00 -0.10994044894E+04  0.10994044894E+04  0.25500000920E-02 0.  1.
    10030    2    1    2    0    0  0.00000000000E+00  0.00000000000E+00  0.95652693779E+03  0.31553359166E+04  0.30068589863E+04 0.  0.
        4    1    3    3  502    0 -0.29353781651E+03  0.14721986424E+04  0.56457666866E+03  0.16038334452E+04  0.12699999809E+01 0. -1.
       -4    1    3    3    0  502  0.29353781651E+03 -0.14721986424E+04  0.39195026912E+03  0.15515024714E+04  0.12699999809E+01 0.  1.
</event>
<event>
 5   0  0.2602891E-07  0.2999461E+04  0.7818609E-02  0.8243885E-01
        1   -1    0    0  501    0  0.00000000000E+00  0.00000000000E+00  0.17821563225E+04  0.17821563225E+04  0.50400001928E-02 0.  1.
       -1   -1    0    0    0  501  0.00000000000E+00  0.00000000000E+00 -0.12620621774E+04  0.12620621774E+04  0.50400001928E-02 0. -1.
    10030    2    1    2    0    0  0.00000000000E+00  0.00000000000E+00  0.52009414507E+03  0.30442185000E+04  0.29994613443E+04 0.  0.
        5    1    3    3  502    0 -0.20581493666E+03  0.85878402195E+02  0.17652259959E+04  0.17792638351E+04  0.46999998093E+01 0.  1.
       -5    1    3    3    0  502  0.20581493666E+03 -0.85878402195E+02 -0.12451318509E+04  0.12649546649E+04  0.46999998093E+01 0. -1.
</event>
<event>
 5   0  0.2602891E-07  0.3009009E+04  0.7818609E-02  0.8241163E-01
        1   -1    0    0  501    0  0.00000000000E+00  0.00000000000E+00  0.15511164987E+04  0.15511164988E+04  0.50400001928E-02 0. -1.
       -1   -1    0    0    0  501  0.00000000000E+00  0.00000000000E+00 -0.14592936483E+04  0.14592936483E+04  0.50400001928E-02 0.  1.
    10030    2    1    2    0    0  0.00000000000E+00  0.00000000000E+00  0.91822850414E+02  0.30104101471E+04  0.30090094413E+04 0.  0.
        5    1    3    3  502    0  0.12267681532E+04  0.76455101569E+03 -0.37143262143E+03  0.14924753397E+04  0.46999998093E+01 0.  1.
       -5    1    3    3    0  502 -0.12267681532E+04 -0.76455101569E+03  0.46325547184E+03  0.15179348074E+04  0.46999998093E+01 0. -1.
</event>
<event>
 5   0  0.2602891E-07  0.3004910E+04  0.7818609E-02  0.8242330E-01
       -1   -1    0    0    0  501  0.00000000000E+00  0.00000000000E+00  0.12833157345E+04  0.12833157345E+04  0.50400001928E-02 0.  1.
        1   -1    0    0  501    0  0.00000000000E+00  0.00000000000E+00 -0.17590146008E+04  0.17590146008E+04  0.50400001928E-02 0. -1.
    10030    2    1    2    0    0  0.00000000000E+00  0.00000000000E+00 -0.47569886633E+03  0.30423303353E+04  0.30049100582E+04 0.  0.
        5    1    3    3  502    0 -0.11585554613E+04  0.52760516400E+03 -0.10457406890E+04  0.16474870697E+04  0.46999998093E+01 0. -1.
       -5    1    3    3    0  502  0.11585554613E+04 -0.52760516400E+03  0.57004182271E+03  0.13948432656E+04  0.46999998093E+01 0.  1.
</event>
<event>
 5   0  0.7585823E-07  0.2999537E+04  0.7818609E-02  0.8243863E-01
       -2   -1    0    0    0  501  0.00000000000E+00  0.00000000000E+00  0.25501491422E+04  0.25501491422E+04  0.25500000920E-02 0. -1.
        2   -1    0    0  501    0  0.00000000000E+00  0.00000000000E+00 -0.88202883575E+03  0.88202883575E+03  0.25500000920E-02 0.  1.
    10030    2    1    2    0    0  0.00000000000E+00  0.00000000000E+00  0.16681203065E+04  0.34321779780E+04  0.29995366835E+04 0.  0.
        5    1    3    3  502    0 -0.40039253665E+03 -0.43226993312E+03 -0.74403653935E+03  0.94909638097E+03  0.46999998093E+01 0.  1.
       -5    1    3    3    0  502  0.40039253665E+03  0.43226993312E+03  0.24121568459E+04  0.24830815970E+04  0.46999998093E+01 0. -1.
</event>
<event>
 5   0  0.7307508E-07  0.2999165E+04  0.7818609E-02  0.8243969E-01
       -2   -1    0    0    0  501  0.00000000000E+00  0.00000000000E+00  0.91955170672E+03  0.91955170672E+03  0.25500000920E-02 0.  1.
        2   -1    0    0  501    0  0.00000000000E+00  0.00000000000E+00 -0.24454828753E+04  0.24454828753E+04  0.25500000920E-02 0. -1.
    10030    2    1    2    0    0  0.00000000000E+00  0.00000000000E+00 -0.15259311685E+04  0.33650345820E+04  0.29991651850E+04 0.  0.
        1    1    3    3  502    0  0.10333303608E+04  0.54054861959E+03 -0.18207255826E+04  0.21621762398E+04  0.50400001928E-02 0. -1.
       -1    1    3    3    0  502 -0.10333303608E+04 -0.54054861959E+03  0.29479441408E+03  0.12028583422E+04  0.50400001928E-02 0.  1.
</event>
<event>
 5   0  0.2679935E-07  0.2980811E+04  0.7818609E-02  0.8249232E-01
        1   -1    0    0  501    0  0.00000000000E+00  0.00000000000E+00  0.94769323497E+03  0.94769323498E+03  0.50400001928E-02 0. -1.
       -1   -1    0    0    0  501  0.00000000000E+00  0.00000000000E+00 -0.23439109752E+04  0.23439109752E+04  0.50400001928E-02 0.  1.
    10030    2    1    2    0    0  0.00000000000E+00  0.00000000000E+00 -0.13962177403E+04  0.32916042102E+04  0.29808110135E+04 0.  0.
        2    1    3    3  502    0 -0.12699909357E+04 -0.72929102059E+03 -0.10036655119E+04  0.17754117351E+04  0.25500000920E-02 0. -1.
       -2    1    3    3    0  502  0.12699909357E+04  0.72929102059E+03 -0.39255222836E+03  0.15161924751E+04  0.25500000920E-02 0.  1.
</event>
<event>
 5   0  0.2414250E-07  0.3009016E+04  0.7818609E-02  0.8241161E-01
       -4   -1    0    0    0  501  0.00000000000E+00  0.00000000000E+00  0.96115799596E+03  0.96115883500E+03  0.12699999809E+01 0.  1.
        4   -1    0    0  501    0  0.00000000000E+00  0.00000000000E+00 -0.23550153061E+04  0.23550156485E+04  0.12699999809E+01 0. -1.
    10030    2    1    2    0    0  0.00000000000E+00  0.00000000000E+00 -0.13938573101E+04  0.33161744835E+04  0.30090156205E+04 0.  0.
        4    1    3    3  502    0 -0.88768337321E+03 -0.11343343843E+04 -0.11758527407E+04  0.18593890252E+04  0.12699999809E+01 0.  1.
       -4    1    3    3    0  502  0.88768337321E+03  0.11343343843E+04 -0.21800456946E+03  0.14567854583E+04  0.12699999809E+01 0. -1.
</event>
<event>
 5   0  0.7307508E-07  0.2996768E+04  0.7818609E-02  0.8244654E-01
       -2   -1    0    0    0  501  0.00000000000E+00  0.00000000000E+00  0.17607690409E+04  0.17607690409E+04  0.25500000920E-02 0. -1.
        2   -1    0    0  501    0  0.00000000000E+00  0.00000000000E+00 -0.12750992060E+04  0.12750992060E+04  0.25500000920E-02 0.  1.
    10030    2    1    2    0    0  0.00000000000E+00  0.00000000000E+00  0.48566983491E+03  0.30358682470E+04  0.29967683969E+04 0.  0.
        1    1    3    3  502    0  0.61127725601E+03  0.67199641564E+03  0.14499844972E+04  0.17110505862E+04  0.50400001928E-02 0. -1.
       -1    1    3    3    0  502 -0.61127725601E+03 -0.67199641564E+03 -0.96431466231E+03  0.13248176608E+04  0.50400001928E-02 0.  1.
</event>
<event>
 5   0  0.7307508E-07  0.2997205E+04  0.7818609E-02  0.8244529E-01
       -2   -1    0    0    0  501  0.00000000000E+00  0.00000000000E+00  0.17060815125E+04  0.17060815125E+04  0.25500000920E-02 0.  1.
        2   -1    0    0  501    0  0.00000000000E+00  0.00000000000E+00 -0.13163555958E+04  0.13163555959E+04  0.25500000920E-02 0. -1.
    10030    2    1    2    0    0  0.00000000000E+00  0.00000000000E+00  0.38972591669E+03  0.30224371084E+04  0.29972053290E+04 0.  0.
        1    1    3    3  502    0  0.38876718419E+03  0.97889631252E+03 -0.88014705560E+03  0.13726021833E+04  0.50400001928E-02 0. -1.
       -1    1    3    3    0  502 -0.38876718419E+03 -0.97889631252E+03  0.12698729723E+04  0.16498349251E+04  0.50400001928E-02 0.  1.
</event>
<event>
 5   0  0.7399409E-07  0.3001773E+04  0.7818609E-02  0.8243225E-01
       -2   -1    0    0    0  501  0.00000000000E+00  0.00000000000E+00  0.20744120434E+04  0.20744120434E+04  0.25500000920E-02 0. -1.
        2   -1    0    0  501    0  0.00000000000E+00  0.00000000000E+00 -0.10859272878E+04  0.10859272878E+04  0.25500000920E-02 0.  1.
    10030    2    1    2    0    0  0.00000000000E+00  0.00000000000E+00  0.98848475560E+03  0.31603393312E+04  0.30017732386E+04 0.  0.
        3    1    3    3  502    0 -0.24243414642E+03  0.17321689332E+03  0.20429614423E+04  0.20645749859E+04  0.10100000352E+00 0. -1.
       -3    1    3    3    0  502  0.24243414642E+03 -0.17321689332E+03 -0.10544766867E+04  0.10957643453E+04  0.10100000352E+00 0.  1.
</event>
<event>
 5   0  0.2792361E-07  0.3002535E+04  0.7818609E-02  0.8243007E-01
        1   -1    0    0  501    0  0.00000000000E+00  0.00000000000E+00  0.20530428849E+04  0.20530428849E+04  0.50400001928E-02 0.  1.
       -1   -1    0    0    0  501  0.00000000000E+00  0.00000000000E+00 -0.10977874683E+04  0.10977874683E+04  0.50400001928E-02 0. -1.
    10030    2    1    2    0    0  0.00000000000E+00  0.00000000000E+00  0.95525541662E+03  0.31508303532E+04  0.30025354292E+04 0.  0.
        4    1    3    3  502    0 -0.11273141429E+04 -0.34412975854E+03  0.14533575646E+04  0.18712328265E+04  0.12699999809E+01 0.  1.
       -4    1    3    3    0  502  0.11273141429E+04  0.34412975854E+03 -0.49810214800E+03  0.12795975267E+04  0.12699999809E+01 0. -1.
</event>
<event>
 5   0  0.2792361E-07  0.3003053E+04  0.7818609E-02  0.8242860E-01
        1   -1    0    0  501    0  0.00000000000E+00  0.00000000000E+00  0.12345737833E+04  0.12345737833E+04  0.50400001928E-02 0.  1.
       -1   -1    0    0    0  501  0.00000000000E+00  0.00000000000E+00 -0.18262020202E+04  0.18262020202E+04  0.50400001928E-02 0. -1.
    10030    2    1    2    0    0  0.00000000000E+00  0.00000000000E+00 -0.59162823695E+03  0.30607758036E+04  0.30030525385E+04 0.  0.
        4    1    3    3  502    0 -0.40159282465E+03  0.15568809435E+03  0.11702587127E+04  0.12470054720E+04  0.12699999809E+01 0.  1.
       -4    1    3    3    0  502  0.40159282465E+03 -0.15568809435E+03 -0.17618869497E+04  0.18137703316E+04  0.12699999809E+01 0. -1.
</event>
<event>
 5   0  0.2640081E-07  0.3000903E+04  0.7818609E-02  0.8243473E-01
       -1   -1    0    0    0  501  0.00000000000E+00  0.00000000000E+00  0.10860285342E+04  0.10860285342E+04  0.50400001928E-02 0. -1.
        1   -1    0    0  501    0  0.00000000000E+00  0.00000000000E+00 -0.20730160693E+04  0.20730160693E+04  0.50400001928E-02 0.  1.
    10030    2    1    2    0    0  0.00000000000E+00  0.00000000000E+00 -0.98698753511E+03  0.31590446035E+04  0.30009029329E+04 0.  0.
        1    1    3    3  502    0  0.11090544257E+03 -0.13147627966E+04 -0.12456046100E+04  0.18145060135E+04  0.50400001928E-02 0.  1.
       -1    1    3    3    0  502 -0.11090544257E+03  0.13147627966E+04  0.25861707493E+03  0.13445385900E+04  0.50400001928E-02 0. -1.
</event>
<event>
 5   0  0.7585823E-07  0.3004590E+04  0.7818609E-02  0.8242421E-01
        2   -1    0    0  501    0  0.00000000000E+00  0.00000000000E+00  0.21583762574E+04  0.21583762574E+04  0.25500000920E-02 0.  1.
       -2   -1    0    0    0  501  0.00000000000E+00  0.00000000000E+00 -0.10456426244E+04  0.10456426244E+04  0.25500000920E-02 0. -1.
    10030    2    1    2    0    0  0.00000000000E+00  0.00000000000E+00  0.11127336330E+04  0.32040188818E+04  0.30045899648E+04 0.  0.
        5    1    3    3  502    0 -0.96030916157E+02  0.11194115348E+04 -0.50710558195E+03  0.12326728205E+04  0.46999998093E+01 0. -1.
       -5    1    3    3    0  502  0.96030916157E+02 -0.11194115348E+04  0.16198392150E+04  0.19713460613E+04  0.46999998093E+01 0.  1.
</event>
<event>
 5   0  0.2621825E-07  0.2993869E+04  0.7818609E-02  0.8245484E-01
       -1   -1    0    0    0  501  0.00000000000E+00  0.00000000000E+00  0.16983962488E+04  0.16983962488E+04  0.50400001928E-02 0. -1.
        1   -1    0    0  501    0  0.00000000000E+00  0.00000000000E+00 -0.13193696468E+04  0.13193696468E+04  0.50400001928E-02 0.  1.
    10030    2    1    2    0    0  0.00000000000E+00  0.00000000000E+00  0.37902660204E+03  0.30177658956E+04  0.29938687071E+04 0.  0.
        3    1    3    3  502    0  0.15354072274E+03 -0.11968963943E+04  0.10824037517E+04  0.16210285698E+04  0.10100000352E+00 0. -1.
       -3    1    3    3    0  502 -0.15354072274E+03  0.11968963943E+04 -0.70337714969E+03  0.13967373258E+04  0.10100000352E+00 0.  1.
</event>
<event>
 5   0  0.7585823E-07  0.3003292E+04  0.7818609E-02  0.8242791E-01
        2   -1    0    0  501    0  0.00000000000E+00  0.00000000000E+00  0.81457604979E+03  0.81457604979E+03  0.25500000920E-02 0. -1.
       -2   -1    0    0    0  501  0.00000000000E+00  0.00000000000E+00 -0.27682386386E+04  0.27682386386E+04  0.25500000920E-02 0.  1.
    10030    2    1    2    0    0  0.00000000000E+00  0.00000000000E+00 -0.19536625889E+04  0.35828146884E+04  0.30032921237E+04 0.  0.
        5    1    3    3  502    0  0.77405854037E+03  0.12795575335E+04 -0.81463797296E+03  0.17029654202E+04  0.46999998093E+01 0. -1.
       -5    1    3    3    0  502 -0.77405854037E+03 -0.12795575335E+04 -0.11390246159E+04  0.18798492682E+04  0.46999998093E+01 0.  1.
</event>
<event>
 5   0  0.7307508E-07  0.2967482E+04  0.7818609E-02  0.8253078E-01
       -2   -1    0    0    0  501  0.00000000000E+00  0.00000000000E+00  0.96098944253E+03  0.96098944254E+03  0.25500000920E-02 0. -1.
        2   -1    0    0  501    0  0.00000000000E+00  0.00000000000E+00 -0.22908543720E+04  0.22908543720E+04  0.25500000920E-02 0.  1.
    10030    2    1    2    0    0  0.00000000000E+00  0.00000000000E+00 -0.13298649295E+04  0.32518438146E+04  0.29674816703E+04 0.  0.
        1    1    3    3  502    0 -0.94315995285E+03  0.83309781780E+03  0.19644831417E+03  0.12736540389E+04  0.50400001928E-02 0. -1.
       -1    1    3    3    0  502  0.94315995285E+03 -0.83309781780E+03 -0.15263132437E+04  0.19781897756E+04  0.50400001928E-02 0.  1.
</event>
<event>
 5   0  0.7208273E-07  0.2996355E+04  0.7818609E-02  0.8244772E-01
        2   -1    0    0  501    0  0.00000000000E+00  0.00000000000E+00  0.14932882527E+04  0.14932882527E+04  0.25500000920E-02 0.  1.
       -2   -1    0    0    0  501  0.00000000000E+00  0.00000000000E+00 -0.15030830907E+04  0.15030830907E+04  0.25500000920E-02 0. -1.
    10030    2    1    2    0    0  0.00000000000E+00  0.00000000000E+00 -0.97948380687E+01  0.29963713434E+04  0.29963553342E+04 0.  0.
        4    1    3    3  502    0  0.56044200819E+02 -0.46015173035E+03 -0.14295643381E+04  0.15028427653E+04  0.12699999809E+01 0. -1.
       -4    1    3    3    0  502 -0.56044200819E+02  0.46015173035E+03  0.14197695001E+04  0.14935285781E+04  0.12699999809E+01 0.  1.
</event>
<event>
 5   0  0.7585823E-07  0.2999461E+04  0.7818609E-02  0.8243885E-01
        2   -1    0    0  501    0  0.00000000000E+00  0.00000000000E+00  0.17609241760E+04  0.17609241760E+04  0.25500000920E-02 0. -1.
       -2   -1    0    0    0  501  0.00000000000E+00  0.00000000000E+00 -0.12772793800E+04  0.12772793800E+04  0.25500000920E-02 0.  1.
    10030    2    1    2    0    0  0.00000000000E+00  0.00000000000E+00  0.48364479594E+03  0.30382035560E+04  0.29994613782E+04 0.  0.
        5    1    3    3  502    0 -0.13388072743E+04  0.54042548467E+03  0.65290353478E+03  0.15845408603E+04  0.46999998093E+01 0. -1.
       -5    1    3    3    0  502  0.13388072743E+04 -0.54042548467E+03 -0.16925873884E+03  0.14536626957E+04  0.46999998093E+01 0.  1.
</event>
<event>
 5   0  0.2792361E-07  0.3003610E+04  0.7818609E-02  0.8242701E-01
        1   -1    0    0  501    0  0.00000000000E+00  0.00000000000E+00  0.15491236348E+04  0.15491236349E+04  0.50400001928E-02 0.  1.
       -1   -1    0    0    0  501  0.00000000000E+00  0.00000000000E+00 -0.14559322164E+04  0.14559322164E+04  0.50400001928E-02 0. -1.
    10030    2    1    2    0    0  0.00000000000E+00  0.00000000000E+00  0.93191418473E+02  0.30050558512E+04  0.30036104988E+04 0.  0.
        4    1    3    3  502    0 -0.37495559768E+03 -0.14309685900E+04 -0.21267101462E+03  0.14944876645E+04  0.12699999809E+01 0.  1.
       -4    1    3    3    0  502  0.37495559768E+03  0.14309685900E+04  0.30586243309E+03  0.15105681867E+04  0.12699999809E+01 0. -1.
</event>
<event>
 5   0  0.7307508E-07  0.3000961E+04  0.7818609E-02  0.8243456E-01
       -2   -1    0    0    0  501  0.00000000000E+00  0.00000000000E+00  0.15604709830E+04  0.15604709830E+04  0.25500000920E-02 0. -1.
        2   -1    0    0  501    0  0.00000000000E+00  0.00000000000E+00 -0.14427963970E+04  0.14427963970E+04  0.25500000920E-02 0.  1.
    10030    2    1    2    0    0  0.00000000000E+00  0.00000000000E+00  0.11767458596E+03  0.30032673800E+04  0.30009611206E+04 0.  0.
        1    1    3    3  502    0 -0.12063383199E+04  0.16092585836E+03 -0.81950036607E+03  0.14672184990E+04  0.50400001928E-02 0. -1.
       -1    1    3    3    0  502  0.12063383199E+04 -0.16092585836E+03  0.93717495203E+03  0.15360488809E+04  0.50400001928E-02 0.  1.
</event>
<event>
 5   0  0.2640081E-07  0.2992083E+04  0.7818609E-02  0.8245995E-01
       -1   -1    0    0    0  501  0.00000000000E+00  0.00000000000E+00  0.97897501629E+03  0.97897501630E+03  0.50400001928E-02 0. -1.
        1   -1    0    0  501    0  0.00000000000E+00  0.00000000000E+00 -0.22862083757E+04  0.22862083757E+04  0.50400001928E-02 0.  1.
    10030    2    1    2    0    0  0.00000000000E+00  0.00000000000E+00 -0.13072333594E+04  0.32651833920E+04  0.29920834760E+04 0.  0.
        1    1    3    3  502    0  0.22917946175E+03  0.59229906993E+03 -0.21317995863E+04  0.22243900040E+04  0.50400001928E-02 0.  1.
       -1    1    3    3    0  502 -0.22917946175E+03 -0.59229906993E+03  0.82456622688E+03  0.10407933880E+04  0.50400001928E-02 0. -1.
</event>
<event>
 5   0  0.2679935E-07  0.3022360E+04  0.7818609E-02  0.8237375E-01
        1   -1    0    0  501    0  0.00000000000E+00  0.00000000000E+00  0.13923952637E+04  0.13923952637E+04  0.50400001928E-02 0. -1.
       -1   -1    0    0    0  501  0.00000000000E+00  0.00000000000E+00 -0.16400982715E+04  0.16400982715E+04  0.50400001928E-02 0.  1.
    10030    2    1    2    0    0  0.00000000000E+00  0.00000000000E+00 -0.24770300778E+03  0.30324935352E+04  0.30223600482E+04 0.  0.
        2    1    3    3  502    0 -0.10788928718E+04 -0.57357846722E+03 -0.10160251407E+04  0.15891221392E+04  0.25500000920E-02 0.  1.
       -2    1    3    3    0  502  0.10788928718E+04  0.57357846722E+03  0.76832213287E+03  0.14433713960E+04  0.25500000920E-02 0. -1.
</event>
<event>
 5   0  0.2679935E-07  0.3000198E+04  0.7818609E-02  0.8243674E-01
       -1   -1    0    0    0  501  0.00000000000E+00  0.00000000000E+00  0.29191732970E+04  0.29191732970E+04  0.50400001928E-02 0. -1.
        1   -1    0    0  501    0  0.00000000000E+00  0.00000000000E+00 -0.77086802645E+03  0.77086802647E+03  0.50400001928E-02 0.  1.
    10030    2    1    2    0    0  0.00000000000E+00  0.00000000000E+00  0.21483052705E+04  0.36900413234E+04  0.30001982324E+04 0.  0.
        2    1    3    3  502    0  0.96036915708E+03  0.71300452858E+03 -0.39335755312E+02  0.11967588217E+04  0.25500000920E-02 0.  1.
       -2    1    3    3    0  502 -0.96036915708E+03 -0.71300452858E+03  0.21876410258E+04  0.24932825018E+04  0.25500000920E-02 0. -1.
</event>
<event>
 5   0  0.2640081E-07  0.3006500E+04  0.7818609E-02  0.8241877E-01
       -1   -1    0    0    0  501  0.00000000000E+00  0.00000000000E+00  0.13600429732E+04  0.13600429733E+04  0.50400001928E-02 0.  1.
        1   -1    0    0  501    0  0.00000000000E+00  0.00000000000E+00 -0.16615359788E+04  0.16615359788E+04  0.50400001928E-02 0. -1.
    10030    2    1    2    0    0  0.00000000000E+00  0.00000000000E+00 -0.30149300557E+03  0.30215789521E+04  0.30064998472E+04 0.  0.
        1    1    3    3  502    0  0.38720062963E+03 -0.47043747346E+03 -0.15318749875E+04  0.16485984112E+04  0.50400001928E-02 0. -1.
       -1    1    3    3    0  502 -0.38720062963E+03  0.47043747346E+03  0.12303819820E+04  0.13729805409E+04  0.50400001928E-02 0.  1.
</event>
<event>
 5   0  0.2792361E-07  0.2992646E+04  0.7818609E-02  0.8245834E-01
       -1   -1    0    0    0  501  0.00000000000E+00  0.00000000000E+00  0.12104392244E+04  0.12104392244E+04  0.50400001928E-02 0. -1.
        1   -1    0    0  501    0  0.00000000000E+00  0.00000000000E+00 -0.18497274328E+04  0.18497274328E+04  0.50400001928E-02 0.  1.
    10030    2    1    2    0    0  0.00000000000E+00  0.00000000000E+00 -0.63928820847E+03  0.30601666572E+04  0.29926460794E+04 0.  0.
        4    1    3    3  502    0 -0.22028658510E+03  0.12927587844E+04  0.41718950935E+03  0.13761541171E+04  0.12699999809E+01 0. -1.
       -4    1    3    3    0  502  0.22028658510E+03 -0.12927587844E+04 -0.10564777178E+04  0.16840125402E+04  0.12699999809E+01 0.  1.
</event>
<event>
 5   0  0.7208273E-07  0.3001504E+04  0.7818609E-02  0.8243302E-01
        2   -1    0    0  501    0  0.00000000000E+00  0.00000000000E+00  0.16041642828E+04  0.16041642828E+04  0.25500000920E-02 0.  1.
       -2   -1    0    0    0  501  0.00000000000E+00  0.00000000000E+00 -0.14040061656E+04  0.14040061656E+04  0.25500000920E-02 0. -1.
    10030    2    1    2    0    0  0.00000000000E+00  0.00000000000E+00  0.20015811715E+03  0.30081704484E+04  0.30015039855E+04 0.  0.
        4    1    3    3  502    0 -0.43657212160E+02  0.89915264327E+02  0.16008240755E+04  0.16039420315E+04  0.12699999809E+01 0.  1.
       -4    1    3    3    0  502  0.43657212160E+02 -0.89915264327E+02 -0.14006659583E+04  0.14042284169E+04  0.12699999809E+01 0. -1.
</event>
<event>
 5   0  0.7278657E-07  0.2990968E+04  0.7818609E-02  0.8246315E-01
       -2   -1    0    0    0  501  0.00000000000E+00  0.00000000000E+00  0.18957038300E+04  0.18957038301E+04  0.25500000920E-02 0.  1.
        2   -1    0    0  501    0  0.00000000000E+00  0.00000000000E+00 -0.11797582876E+04  0.11797582876E+04  0.25500000920E-02 0. -1.
    10030    2    1    2    0    0  0.00000000000E+00  0.00000000000E+00  0.71594554242E+03  0.30754621177E+04  0.29909679399E+04 0.  0.
        2    1    3    3  502    0  0.38205360822E+03  0.71242793913E+03 -0.93572473414E+03  0.12365675502E+04  0.25500000920E-02 0. -1.
       -2    1    3    3    0  502 -0.38205360822E+03 -0.71242793913E+03  0.16516702766E+04  0.18388945675E+04  0.25500000920E-02 0.  1.
</event>
<event>
 5   0  0.2602891E-07  0.3021540E+04  0.7818609E-02  0.8237607E-01
       -1   -1    0    0    0  501  0.00000000000E+00  0.00000000000E+00  0.81290365580E+03  0.81290365581E+03  0.50400001928E-02 0. -1.
        1   -1    0    0  501    0  0.00000000000E+00  0.00000000000E+00 -0.28077450774E+04  0.28077450774E+04  0.50400001928E-02 0.  1.
    10030    2    1    2    0    0  0.00000000000E+00  0.00000000000E+00 -0.19948414216E+04  0.36206487332E+04  0.30215401623E+04 0.  0.
        5    1    3    3  502    0 -0.12455044588E+04  0.39366367145E+03 -0.87870985538E+02  0.13091966404E+04  0.46999998093E+01 0.  1.
       -5    1    3    3    0  502  0.12455044588E+04 -0.39366367145E+03 -0.19069704361E+04  0.23114520928E+04  0.46999998093E+01 0. -1.
</event>
<event>
 5   0  0.7278657E-07  0.2996971E+04  0.7818609E-02  0.8244596E-01
        2   -1    0    0  501    0  0.00000000000E+00  0.00000000000E+00  0.15634919248E+04  0.15634919248E+04  0.25500000920E-02 0.  1.
       -2   -1    0    0    0  501  0.00000000000E+00  0.00000000000E+00 -0.14361815122E+04  0.14361815122E+04  0.25500000920E-02 0. -1.
    10030    2    1    2    0    0  0.00000000000E+00  0.00000000000E+00  0.12731041257E+03  0.29996734369E+04  0.29969706017E+04 0.  0.
        2    1    3    3  502    0  0.75332076438E+02  0.87001679162E+03  0.12824783700E+04  0.15515653093E+04  0.25500000920E-02 0.  1.
       -2    1    3    3    0  502 -0.75332076438E+02 -0.87001679162E+03 -0.11551679574E+04  0.14481081276E+04  0.25500000920E-02 0. -1.
</event>
<event>
 5   0  0.2602891E-07  0.3000757E+04  0.7818609E-02  0.8243515E-01
        1   -1    0    0  501    0  0.00000000000E+00  0.00000000000E+00  0.20312555156E+04  0.20312555156E+04  0.50400001928E-02 0.  1.
       -1   -1    0    0    0  501  0.00000000000E+00  0.00000000000E+00 -0.11082481089E+04  0.11082481089E+04  0.50400001928E-02 0. -1.
    10030    2    1    2    0    0  0.00000000000E+00  0.00000000000E+00  0.92300740674E+03  0.31395036245E+04  0.30007566272E+04 0.  0.
        5    1    3    3  502    0  0.86556709491E+03 -0.10736075389E+04 -0.15681588076E+03  0.13879671660E+04  0.46999998093E+01 0.  1.
       -5    1    3    3    0  502 -0.86556709491E+03  0.10736075389E+04  0.10798232875E+04  0.17515364585E+04  0.46999998093E+01 0. -1.
</event>
<event>
 5   0  0.7307508E-07  0.3005659E+04  0.7818609E-02  0.8242117E-01
       -2   -1    0    0    0  501  0.00000000000E+00  0.00000000000E+00  0.97801219708E+03  0.97801219709E+03  0.25500000920E-02 0.  1.
        2   -1    0    0  501    0  0.00000000000E+00  0.00000000000E+00 -0.23092721310E+04  0.23092721310E+04  0.25500000920E-02 0. -1.
    10030    2    1    2    0    0  0.00000000000E+00  0.00000000000E+00 -0.13312599339E+04  0.32872843281E+04  0.30056588699E+04 0.  0.
        1    1    3    3  502    0 -0.10045799107E+04  0.25038963834E+02 -0.18877803494E+04  0.21385795272E+04  0.50400001928E-02 0. -1.
       -1    1    3    3    0  502  0.10045799107E+04 -0.25038963834E+02  0.55652041544E+03  0.11487048009E+04  0.50400001928E-02 0.  1.
</event>
<event>
 5   0  0.7208273E-07  0.2999064E+04  0.7818609E-02  0.8243998E-01
        2   -1    0    0  501    0  0.00000000000E+00  0.00000000000E+00  0.19533685186E+04  0.19533685186E+04  0.25500000920E-02 0. -1.
       -2   -1    0    0    0  501  0.00000000000E+00  0.00000000000E+00 -0.11511381104E+04  0.11511381104E+04  0.25500000920E-02 0.  1.
    10030    2    1    2    0    0  0.00000000000E+00  0.00000000000E+00  0.80223040821E+03  0.31045066290E+04  0.29990644844E+04 0.  0.
        4    1    3    3  502    0  0.14570951765E+04  0.23988016438E+03  0.67090552272E+03  0.16219693832E+04  0.12699999809E+01 0. -1.
       -4    1    3    3    0  502 -0.14570951765E+04 -0.23988016438E+03  0.13132488550E+03  0.14825372458E+04  0.12699999809E+01 0.  1.
</event>
<event>
 5   0  0.2602891E-07  0.3001284E+04  0.7818609E-02  0.8243364E-01
       -1   -1    0    0    0  501  0.00000000000E+00  0.00000000000E+00  0.16149985144E+04  0.16149985144E+04  0.50400001928E-02 0.  1.
        1   -1    0    0  501    0  0.00000000000E+00  0.00000000000E+00 -0.13943827818E+04  0.13943827818E+04  0.50400001928E-02 0. -1.
    10030    2    1    2    0    0  0.00000000000E+00  0.00000000000E+00  0.22061573258E+03  0.30093812962E+04  0.30012838060E+04 0.  0.
        5    1    3    3  502    0  0.13090999520E+04  0.43776484607E+03 -0.47994263519E+03  0.14614197781E+04  0.46999998093E+01 0. -1.
       -5    1    3    3    0  502 -0.13090999520E+04 -0.43776484607E+03  0.70055836777E+03  0.15479615181E+04  0.46999998093E+01 0.  1.
</event>
<event>
 5   0  0.7208273E-07  0.3001347E+04  0.7818609E-02  0.8243346E-01
       -2   -1    0    0    0  501  0.00000000000E+00  0.00000000000E+00  0.22324314944E+04  0.22324314944E+04  0.25500000920E-02 0.  1.
        2   -1    0    0  501    0  0.00000000000E+00  0.00000000000E+00 -0.10087749827E+04  0.10087749827E+04  0.25500000920E-02 0. -1.
    10030    2    1    2    0    0  0.00000000000E+00  0.00000000000E+00  0.12236565117E+04  0.32412064770E+04  0.30013470589E+04 0.  0.
        4    1    3    3  502    0 -0.14318888205E+04 -0.39385663035E+03  0.84492731273E+03  0.17086054009E+04  0.12699999809E+01 0. -1.
       -4    1    3    3    0  502  0.14318888205E+04  0.39385663035E+03  0.37872919898E+03  0.15326010761E+04  0.12699999809E+01 0.  1.
</event>
<event>
 5   0  0.7585823E-07  0.2983695E+04  0.7818609E-02  0.8248402E-01
       -2   -1    0    0    0  501  0.00000000000E+00  0.00000000000E+00  0.87209516650E+03  0.87209516651E+03  0.25500000920E-02 0. -1.
        2   -1    0    0  501    0  0.00000000000E+00  0.00000000000E+00 -0.25520256669E+04  0.25520256669E+04  0.25500000920E-02 0.  1.
    10030    2    1    2    0    0  0.00000000000E+00  0.00000000000E+00 -0.16799305004E+04  0.34241208334E+04  0.29836951915E+04 0.  0.
        5    1    3    3  502    0  0.19586390203E+03  0.12751198996E+04 -0.16997499730E+04  0.21338850689E+04  0.46999998093E+01 0.  1.
       -5    1    3    3    0  502 -0.19586390203E+03 -0.12751198996E+04  0.19819472611E+02  0.12902357645E+04  0.46999998093E+01 0. -1.
</event>
<event>
 5   0  0.7307508E-07  0.3011845E+04  0.7818609E-02  0.8240357E-01
       -2   -1    0    0    0  501  0.00000000000E+00  0.00000000000E+00  0.13817805462E+04  0.13817805462E+04  0.25500000920E-02 0. -1.
        2   -1    0    0  501    0  0.00000000000E+00  0.00000000000E+00 -0.16412174911E+04  0.16412174911E+04  0.25500000920E-02 0.  1.
    10030    2    1    2    0    0  0.00000000000E+00  0.00000000000E+00 -0.25943694497E+03  0.30229980373E+04  0.30118448839E+04 0.  0.
        1    1    3    3  502    0  0.36806930986E+03 -0.25262027469E+03  0.13138391242E+04  0.13876113521E+04  0.50400001928E-02 0. -1.
       -1    1    3    3    0  502 -0.36806930986E+03  0.25262027469E+03 -0.15732760692E+04  0.16353866852E+04  0.50400001928E-02 0.  1.
</event>
<event>
 5   0  0.2792361E-07  0.2993723E+04  0.7818609E-02  0.8245525E-01
       -1   -1    0    0    0  501  0.00000000000E+00  0.00000000000E+00  0.12996727709E+04  0.12996727709E+04  0.50400001928E-02 0.  1.
        1   -1    0    0  501    0  0.00000000000E+00  0.00000000000E+00 -0.17239684854E+04  0.17239684854E+04  0.50400001928E-02 0. -1.
    10030    2    1    2    0    0  0.00000000000E+00  0.00000000000E+00 -0.42429571450E+03  0.30236412563E+04  0.29937233662E+04 0.  0.
        4    1    3    3  502    0 -0.76057337276E+03 -0.11753803866E+04 -0.74716077522E+03  0.15868968919E+04  0.12699999809E+01 0. -1.
       -4    1    3    3    0  502  0.76057337276E+03  0.11753803866E+04  0.32286506072E+03  0.14367443645E+04  0.12699999809E+01 0.  1.
</event>
<event>
 5   0  0.7307508E-07  0.2997030E+04  0.7818609E-02  0.8244580E-01
       -2   -1    0    0    0  501  0.00000000000E+00  0.00000000000E+00  0.17100288496E+04  0.17100288496E+04  0.25500000920E-02 0. -1.
        2   -1    0    0  501    0  0.00000000000E+00  0.00000000000E+00 -0.13131631754E+04  0.13131631754E+04  0.25500000920E-02 0.  1.
    10030    2    1    2    0    0  0.00000000000E+00  0.00000000000E+00  0.39686567416E+03  0.30231920250E+04  0.29970298057E+04 0.  0.
        1    1    3    3  502    0 -0.13386120388E+04 -0.61073408121E+03 -0.88068693492E+02  0.14739858898E+04  0.50400001928E-02 0. -1.
       -1    1    3    3    0  502  0.13386120388E+04  0.61073408121E+03  0.48493436765E+03  0.15492061352E+04  0.50400001928E-02 0.  1.
</event>
<event>
 5   0  0.2679935E-07  0.3002865E+04  0.7818609E-02  0.8242913E-01
        1   -1    0    0  501    0  0.00000000000E+00  0.00000000000E+00  0.17064648411E+04  0.17064648411E+04  0.50400001928E-02 0.  1.
       -1   -1    0    0    0  501  0.00000000000E+00  0.00000000000E+00 -0.13210349120E+04  0.13210349121E+04  0.50400001928E-02 0. -1.
    10030    2    1    2    0    0  0.00000000000E+00  0.00000000000E+00  0.38542992905E+03  0.30274997532E+04  0.30028650528E+04 0.  0.
        2    1    3    3  502    0  0.96987977255E+03 -0.11401234091E+04  0.31094365080E+03  0.15288015291E+04  0.25500000920E-02 0. -1.
       -2    1    3    3    0  502 -0.96987977255E+03  0.11401234091E+04  0.74486278245E+02  0.14986982241E+04  0.25500000920E-02 0.  1.
</event>
<event>
 5   0  0.7399409E-07  0.3071116E+04  0.7818609E-02  0.8223710E-01
        2   -1    0    0  501    0  0.00000000000E+00  0.00000000000E+00  0.19560687754E+04  0.19560687754E+04  0.25500000920E-02 0. -1.
       -2   -1    0    0    0  501  0.00000000000E+00  0.00000000000E+00 -0.12054472144E+04  0.12054472144E+04  0.25500000920E-02 0.  1.
    10030    2    1    2    0    0  0.00000000000E+00  0.00000000000E+00  0.75062156104E+03  0.31615159898E+04  0.30711155345E+04 0.  0.
        3    1    3    3  502    0  0.13308854829E+04  0.62671512194E+03 -0.78002999080E+02  0.14731301676E+04  0.10100000352E+00 0.  1.
       -3    1    3    3    0  502 -0.13308854829E+04 -0.62671512194E+03  0.82862456012E+03  0.16883858222E+04  0.10100000352E+00 0. -1.
</event>
<event>
 5   0  0.2792361E-07  0.2979378E+04  0.7818609E-02  0.8249644E-01
       -1   -1    0    0    0  501  0.00000000000E+00  0.00000000000E+00  0.12800343123E+04  0.12800343123E+04  0.50400001928E-02 0. -1.
        1   -1    0    0  501    0  0.00000000000E+00  0.00000000000E+00 -0.17336826400E+04  0.17336826400E+04  0.50400001928E-02 0.  1.
    10030    2    1    2    0    0  0.00000000000E+00  0.00000000000E+00 -0.45364832769E+03  0.30137169523E+04  0.29793779658E+04 0.  0.
        4    1    3    3  502    0  0.23981304033E+03 -0.14601177140E+02  0.12603069903E+04  0.12830038236E+04  0.12699999809E+01 0. -1.
       -4    1    3    3    0  502 -0.23981304033E+03  0.14601177140E+02 -0.17139553180E+04  0.17307131286E+04  0.12699999809E+01 0.  1.
</event>
<event>
 5   0  0.2640081E-07  0.2999969E+04  0.7818609E-02  0.8243740E-01
        1   -1    0    0  501    0  0.00000000000E+00  0.00000000000E+00  0.18013688135E+04  0.18013688135E+04  0.50400001928E-02 0.  1.
       -1   -1    0    0    0  501  0.00000000000E+00  0.00000000000E+00 -0.12490244905E+04  0.12490244905E+04  0.50400001928E-02 0. -1.
    10030    2    1    2    0    0  0.00000000000E+00  0.00000000000E+00  0.55234432297E+03  0.30503933040E+04  0.29999691762E+04 0.  0.
        1    1    3    3  502    0  0.10776474162E+04  0.10330432067E+04  0.42509740664E+03  0.15521630152E+04  0.50400001928E-02 0. -1.
       -1    1    3    3    0  502 -0.10776474162E+04 -0.10330432067E+04  0.12724691633E+03  0.14982302888E+04  0.50400001928E-02 0.  1.
</event>
<event>
 5   0  0.7307508E-07  0.3005884E+04  0.7818609E-02  0.8242053E-01
        2   -1    0    0  501    0  0.00000000000E+00  0.00000000000E+00  0.14102577373E+04  0.14102577373E+04  0.25500000920E-02 0. -1.
       -2   -1    0    0    0  501  0.00000000000E+00  0.00000000000E+00 -0.16017171513E+04  0.16017171513E+04  0.25500000920E-02 0.  1.
    10030    2    1    2    0    0  0.00000000000E+00  0.00000000000E+00 -0.19145941399E+03  0.30119748886E+04  0.30058835676E+04 0.  0.
        1    1    3    3  502    0  0.38700364245E+03  0.11694491542E+04  0.76709064331E+03  0.14511413434E+04  0.50400001928E-02 0. -1.
       -1    1    3    3    0  502 -0.38700364245E+03 -0.11694491542E+04 -0.95855005730E+03  0.15608335452E+04  0.50400001928E-02 0.  1.
</event>
<event>
 5   0  0.7208273E-07  0.2998636E+04  0.7818609E-02  0.8244121E-01
        2   -1    0    0  501    0  0.00000000000E+00  0.00000000000E+00  0.17385256188E+04  0.17385256188E+04  0.25500000920E-02 0. -1.
       -2   -1    0    0    0  501  0.00000000000E+00  0.00000000000E+00 -0.12930231340E+04  0.12930231340E+04  0.25500000920E-02 0.  1.
    10030    2    1    2    0    0  0.00000000000E+00  0.00000000000E+00  0.44550248480E+03  0.30315487529E+04  0.29986355859E+04 0.  0.
        4    1    3    3  502    0 -0.10652279680E+04  0.49032659735E+02  0.12882823029E+04  0.16723599285E+04  0.12699999809E+01 0. -1.
       -4    1    3    3    0  502  0.10652279680E+04 -0.49032659735E+02 -0.84277981811E+03  0.13591888244E+04  0.12699999809E+01 0.  1.
</event>
<event>
 5   0  0.2602891E-07  0.2999264E+04  0.7818609E-02  0.8243941E-01
       -1   -1    0    0    0  501  0.00000000000E+00  0.00000000000E+00  0.17791616404E+04  0.17791616404E+04  0.50400001928E-02 0.  1.
        1   -1    0    0  501    0  0.00000000000E+00  0.00000000000E+00 -0.12640203152E+04  0.12640203153E+04  0.50400001928E-02 0. -1.
    10030    2    1    2    0    0  0.00000000000E+00  0.00000000000E+00  0.51514132519E+03  0.30431819557E+04  0.29992642149E+04 0.  0.
        5    1    3    3  502    0  0.85330059328E+02  0.14951330637E+04  0.33727194124E+03  0.15350825873E+04  0.46999998093E+01 0. -1.
       -5    1    3    3    0  502 -0.85330059328E+02 -0.14951330637E+04  0.17786938395E+03  0.15080993684E+04  0.46999998093E+01 0.  1.
</event>
<event>
 5   0  0.7307508E-07  0.2970650E+04  0.7818609E-02  0.8252162E-01
        2   -1    0    0  501    0  0.00000000000E+00  0.00000000000E+00  0.12497142870E+04  0.12497142870E+04  0.25500000920E-02 0. -1.
       -2   -1    0    0    0  501  0.00000000000E+00  0.00000000000E+00 -0.17653553335E+04  0.17653553335E+04  0.25500000920E-02 0.  1.
    10030    2    1    2    0    0  0.00000000000E+00  0.00000000000E+00 -0.51564104653E+03  0.30150696205E+04  0.29706496137E+04 0.  0.
        1    1    3    3  502    0  0.11391740611E+04  0.45154580549E+03 -0.11097637352E+04  0.16532352234E+04  0.50400001928E-02 0.  1.
       -1    1    3    3    0  502 -0.11391740611E+04 -0.45154580549E+03  0.59412268864E+03  0.13618343971E+04  0.50400001928E-02 0. -1.
</event>
<event>
 5   0  0.7399409E-07  0.2999556E+04  0.7818609E-02  0.8243858E-01
       -2   -1    0    0    0  501  0.00000000000E+00  0.00000000000E+00  0.11701337788E+04  0.11701337788E+04  0.25500000920E-02 0. -1.
        2   -1    0    0  501    0  0.00000000000E+00  0.00000000000E+00 -0.19222881553E+04  0.19222881553E+04  0.25500000920E-02 0.  1.
    10030    2    1    2    0    0  0.00000000000E+00  0.00000000000E+00 -0.75215437650E+03  0.30924219341E+04  0.29995561692E+04 0.  0.
        3    1    3    3  502    0  0.75001507487E+03 -0.73170862888E+03 -0.14823380038E+04  0.18152812723E+04  0.10100000352E+00 0.  1.
       -3    1    3    3    0  502 -0.75001507487E+03  0.73170862888E+03  0.73018362726E+03  0.12771406617E+04  0.10100000352E+00 0. -1.
</event>
<event>
 5   0  0.2640081E-07  0.3007914E+04  0.7818609E-02  0.8241475E-01
       -1   -1    0    0    0  501  0.00000000000E+00  0.00000000000E+00  0.10546329349E+04  0.10546329349E+04  0.50400001928E-02 0.  1.
        1   -1    0    0  501    0  0.00000000000E+00  0.00000000000E+00 -0.21447150884E+04  0.21447150884E+04  0.50400001928E-02 0. -1.
    10030    2    1    2    0    0  0.00000000000E+00  0.00000000000E+00 -0.10900821536E+04  0.31993480233E+04  0.30079143393E+04 0.  0.
        1    1    3    3  502    0 -0.62783136337E+02 -0.14101990460E+04 -0.10969931560E+04  0.17877351750E+04  0.50400001928E-02 0. -1.
       -1    1    3    3    0  502  0.62783136337E+02  0.14101990460E+04  0.69110023796E+01  0.14116128483E+04  0.50400001928E-02 0.  1.
</event>
<event>
 5   0  0.2640081E-07  0.2994880E+04  0.7818609E-02  0.8245195E-01
       -1   -1    0    0    0  501  0.00000000000E+00  0.00000000000E+00  0.14603686078E+04  0.14603686078E+04  0.50400001928E-02 0. -1.
        1   -1    0    0  501    0  0.00000000000E+00  0.00000000000E+00 -0.15354520155E+04  0.15354520155E+04  0.50400001928E-02 0.  1.
    10030    2    1    2    0    0  0.00000000000E+00  0.00000000000E+00 -0.75083407720E+02  0.29958206234E+04  0.29948795784E+04 0.  0.
        1    1    3    3  502    0  0.23005912500E+03 -0.11497076896E+04 -0.96926926494E+03  0.15212619369E+04  0.50400001928E-02 0. -1.
       -1    1    3    3    0  502 -0.23005912500E+03  0.11497076896E+04  0.89418585722E+03  0.14745586865E+04  0.50400001928E-02 0.  1.
</event>
<event>
 5   0  0.2621825E-07  0.3002273E+04  0.7818609E-02  0.8243082E-01
       -1   -1    0    0    0  501  0.00000000000E+00  0.00000000000E+00  0.10120469958E+04  0.10120469958E+04  0.50400001928E-02 0.  1.
        1   -1    0    0  501    0  0.00000000000E+00  0.00000000000E+00 -0.22265871790E+04  0.22265871790E+04  0.50400001928E-02 0. -1.
    10030    2    1    2    0    0  0.00000000000E+00  0.00000000000E+00 -0.12145401832E+04  0.32386341748E+04  0.30022730492E+04 0.  0.
        3    1    3    3  502    0 -0.54374081564E+03 -0.11929274731E+04  0.18151557685E+03  0.13235097074E+04  0.10100000352E+00 0.  1.
       -3    1    3    3    0  502  0.54374081564E+03  0.11929274731E+04 -0.13960557600E+04  0.19151244675E+04  0.10100000352E+00 0. -1.
</event>
<event>
 5   0  0.2602891E-07  0.3003260E+04  0.7818609E-02  0.8242801E-01
        1   -1    0    0  501    0  0.00000000000E+00  0.00000000000E+00  0.13476024237E+04  0.13476024237E+04  0.50400001928E-02 0.  1.
       -1   -1    0    0    0  501  0.00000000000E+00  0.00000000000E+00 -0.16732621348E+04  0.16732621349E+04  0.50400001928E-02 0. -1.
    10030    2    1    2    0    0  0.00000000000E+00  0.00000000000E+00 -0.32565971111E+03  0.30208645586E+04  0.30032596348E+04 0.  0.
        5    1    3    3  502    0 -0.76087757198E+03 -0.16326363483E+03 -0.14546011038E+04  0.16496897148E+04  0.46999998093E+01 0. -1.
       -5    1    3    3    0  502  0.76087757198E+03  0.16326363483E+03  0.11289413927E+04  0.13711748438E+04  0.46999998093E+01 0.  1.
</event>
<event>
 5   0  0.2602891E-07  0.2999902E+04  0.7818609E-02  0.8243759E-01
       -1   -1    0    0    0  501  0.00000000000E+00  0.00000000000E+00  0.11301066787E+04  0.11301066787E+04  0.50400001928E-02 0.  1.
        1   -1    0    0  501    0  0.00000000000E+00  0.00000000000E+00 -0.19908321270E+04  0.19908321270E+04  0.50400001928E-02 0. -1.
    10030    2    1    2    0    0  0.00000000000E+00  0.00000000000E+00 -0.86072544828E+03  0.31209388057E+04  0.29999017870E+04 0.  0.
        5    1    3    3  502    0  0.12674170950E+04 -0.78935558804E+03 -0.57896221137E+03  0.16014517380E+04  0.46999998093E+01 0. -1.
       -5    1    3    3    0  502 -0.12674170950E+04  0.78935558804E+03 -0.28176323691E+03  0.15194870676E+04  0.46999998093E+01 0.  1.
</event>
<event>
 5   0  0.7208273E-07  0.2960495E+04  0.7818609E-02  0.8255103E-01
       -2   -1    0    0    0  501  0.00000000000E+00  0.00000000000E+00  0.11107979737E+04  0.11107979737E+04  0.25500000920E-02 0.  1.
        2   -1    0    0  501    0  0.00000000000E+00  0.00000000000E+00 -0.19725752352E+04  0.19725752352E+04  0.25500000920E-02 0. -1.
    10030    2    1    2    0    0  0.00000000000E+00  0.00000000000E+00 -0.86177726150E+03  0.30833732088E+04  0.29604949411E+04 0.  0.
        4    1    3    3  502    0  0.28112686806E+03 -0.11925207618E+04  0.43424675364E+03  0.12998884334E+04  0.12699999809E+01 0.  1.
       -4    1    3    3    0  502 -0.28112686806E+03  0.11925207618E+04 -0.12960240151E+04  0.17834847754E+04  0.12699999809E+01 0. -1.
</event>
<event>
 5   0  0.7307508E-07  0.3002107E+04  0.7818609E-02  0.8243130E-01
        2   -1    0    0  501    0  0.00000000000E+00  0.00000000000E+00  0.18140400310E+04  0.18140400310E+04  0.25500000920E-02 0.  1.
       -2   -1    0    0    0  501  0.00000000000E+00  0.00000000000E+00 -0.12420681921E+04  0.12420681921E+04  0.25500000920E-02 0. -1.
    10030    2    1    2    0    0  0.00000000000E+00  0.00000000000E+00  0.57197183890E+03  0.30561082230E+04  0.30021068746E+04 0.  0.
        1    1    3    3  502    0  0.18748462768E+03  0.12970353480E+04  0.10310738959E+04  0.16675024913E+04  0.50400001928E-02 0.  1.
       -1    1    3    3    0  502 -0.18748462768E+03 -0.12970353480E+04 -0.45910205699E+03  0.13886057318E+04  0.50400001928E-02 0. -1.
</event>
<event>
 5   0  0.2679935E-07  0.2999833E+04  0.7818609E-02  0.8243779E-01
       -1   -1    0    0    0  501  0.00000000000E+00  0.00000000000E+00  0.14348689665E+04  0.14348689665E+04  0.50400001928E-02 0.  1.
        1   -1    0    0  501    0  0.00000000000E+00  0.00000000000E+00 -0.15679130632E+04  0.15679130633E+04  0.50400001928E-02 0. -1.
    10030    2    1    2    0    0  0.00000000000E+00  0.00000000000E+00 -0.13304409671E+03  0.30027820298E+04  0.29998331932E+04 0.  0.
        2    1    3    3  502    0  0.12212590575E+04  0.13500032189E+03  0.79458577299E+03  0.14632379585E+04  0.25500000920E-02 0.  1.
       -2    1    3    3    0  502 -0.12212590575E+04 -0.13500032189E+03 -0.92762986970E+03  0.15395440713E+04  0.25500000920E-02 0. -1.
</event>
<event>
 5   0  0.7585823E-07  0.3011998E+04  0.7818609E-02  0.8240313E-01
        2   -1    0    0  501    0  0.00000000000E+00  0.00000000000E+00  0.19406055097E+04  0.19406055097E+04  0.25500000920E-02 0. -1.
       -2   -1    0    0    0  501  0.00000000000E+00  0.00000000000E+00 -0.11687245047E+04  0.11687245047E+04  0.25500000920E-02 0.  1.
    10030    2    1    2    0    0  0.00000000000E+00  0.00000000000E+00  0.77188100502E+03  0.31093300144E+04  0.30119981495E+04 0.  0.
        5    1    3    3  502    0  0.55972855632E+03 -0.37263470514E+03 -0.10051427216E+04  0.12093331472E+04  0.46999998093E+01 0.  1.
       -5    1    3    3    0  502 -0.55972855632E+03  0.37263470514E+03  0.17770237266E+04  0.18999968672E+04  0.46999998093E+01 0. -1.
</event>
<event>
 5   0  0.2679935E-07  0.3001141E+04  0.7818609E-02  0.8243405E-01
       -1   -1    0    0    0  501  0.00000000000E+00  0.00000000000E+00  0.13828481346E+04  0.13828481346E+04  0.50400001928E-02 0. -1.
        1   -1    0    0  501    0  0.00000000000E+00  0.00000000000E+00 -0.16283149002E+04  0.16283149002E+04  0.50400001928E-02 0.  1.
    10030    2    1    2    0    0  0.00000000000E+00  0.00000000000E+00 -0.24546676561E+03  0.30111630349E+04  0.30011412645E+04 0.  0.
        2    1    3    3  502    0  0.78569504994E+03 -0.81624825389E+03 -0.11099572250E+04  0.15860589412E+04  0.25500000920E-02 0.  1.
       -2    1    3    3    0  502 -0.78569504994E+03  0.81624825389E+03  0.86449045941E+03  0.14251040937E+04  0.25500000920E-02 0. -1.
</event>
<event>
 5   0  0.7278657E-07  0.2998488E+04  0.7818609E-02  0.8244163E-01
        2   -1    0    0  501    0  0.00000000000E+00  0.00000000000E+00  0.10131318068E+04  0.10131318068E+04  0.25500000920E-02 0.  1.
       -2   -1    0    0    0  501  0.00000000000E+00  0.00000000000E+00 -0.22185984450E+04  0.22185984450E+04  0.25500000920E-02 0. -1.
    10030    2    1    2    0    0  0.00000000000E+00  0.00000000000E+00 -0.12054666383E+04  0.32317302518E+04  0.29984880531E+04 0.  0.
        2    1    3    3  502    0  0.13578066878E+04 -0.15799280906E+02 -0.12876529527E+04  0.18713467731E+04  0.25500000920E-02 0. -1.
       -2    1    3    3    0  502 -0.13578066878E+04  0.15799280906E+02  0.82186314377E+02  0.13603834787E+04  0.25500000920E-02 0.  1.
</event>
<event>
 5   0  0.7399409E-07  0.2999009E+04  0.7818609E-02  0.8244014E-01
        2   -1    0    0  501    0  0.00000000000E+00  0.00000000000E+00  0.20652417058E+04  0.20652417058E+04  0.25500000920E-02 0.  1.
       -2   -1    0    0    0  501  0.00000000000E+00  0.00000000000E+00 -0.10887409730E+04  0.10887409730E+04  0.25500000920E-02 0. -1.
    10030    2    1    2    0    0  0.00000000000E+00  0.00000000000E+00  0.97650073278E+03  0.31539826788E+04  0.29990086790E+04 0.  0.
        3    1    3    3  502    0  0.50006224528E+03 -0.10262525899E+04  0.15107341917E+04  0.18935613102E+04  0.10100000352E+00 0.  1.
       -3    1    3    3    0  502 -0.50006224528E+03  0.10262525899E+04 -0.53423345890E+03  0.12604213685E+04  0.10100000352E+00 0. -1.
</event>
<event>
 5   0  0.7307508E-07  0.3001285E+04  0.7818609E-02  0.8243364E-01
       -2   -1    0    0    0  501  0.00000000000E+00  0.00000000000E+00  0.13321793769E+04  0.13321793769E+04  0.25500000920E-02 0.  1.
        2   -1    0    0  501    0  0.00000000000E+00  0.00000000000E+00 -0.16904090665E+04  0.16904090665E+04  0.25500000920E-02 0. -1.
    10030    2    1    2    0    0  0.00000000000E+00  0.00000000000E+00 -0.35822968965E+03  0.30225884434E+04  0.30012851227E+04 0.  0.
        1    1    3    3  502    0 -0.14579665234E+04  0.35314191075E+03 -0.21879635311E+03  0.15159971757E+04  0.50400001928E-02 0.  1.
       -1    1    3    3    0  502  0.14579665234E+04 -0.35314191075E+03 -0.13943333655E+03  0.15065912677E+04  0.50400001928E-02 0. -1.
</event>
<event>
 5   0  0.7208273E-07  0.2998540E+04  0.7818609E-02  0.8244148E-01
        2   -1    0    0  501    0  0.00000000000E+00  0.00000000000E+00  0.10587009493E+04  0.10587009493E+04  0.25500000920E-02 0. -1.
       -2   -1    0    0    0  501  0.00000000000E+00  0.00000000000E+00 -0.21231779471E+04  0.21231779471E+04  0.25500000920E-02 0.  1.
    10030    2    1    2    0    0  0.00000000000E+00  0.00000000000E+00 -0.10644769978E+04  0.31818788963E+04  0.29985399834E+04 0.  0.
        4    1    3    3  502    0  0.43161729675E+03 -0.13005283169E+04  0.11335283652E+03  0.13749610439E+04  0.12699999809E+01 0. -1.
       -4    1    3    3    0  502 -0.43161729675E+03  0.13005283169E+04 -0.11778298343E+04  0.18069178524E+04  0.12699999809E+01 0.  1.
</event>
<event>
 5   0  0.2602891E-07  0.3018194E+04  0.7818609E-02  0.8238555E-01
       -1   -1    0    0    0  501  0.00000000000E+00  0.00000000000E+00  0.16384332282E+04  0.16384332282E+04  0.50400001928E-02 0.  1.
        1   -1    0    0  501    0  0.00000000000E+00  0.00000000000E+00 -0.13899700829E+04  0.13899700829E+04  0.50400001928E-02 0. -1.
    10030    2    1    2    0    0  0.00000000000E+00  0.00000000000E+00  0.24846314534E+03  0.30284033111E+04  0.30181936121E+04 0.  0.
        5    1    3    3  502    0 -0.12473260740E+04  0.49780342000E+03  0.81483337322E+03  0.15708615776E+04  0.46999998093E+01 0.  1.
       -5    1    3    3    0  502  0.12473260740E+04 -0.49780342000E+03 -0.56637022787E+03  0.14575417335E+04  0.46999998093E+01 0. -1.
</event>
<event>
 5   0  0.2792361E-07  0.2987475E+04  0.7818609E-02  0.8247317E-01
       -1   -1    0    0    0  501  0.00000000000E+00  0.00000000000E+00  0.72817560318E+03  0.72817560320E+03  0.50400001928E-02 0. -1.
        1   -1    0    0  501    0  0.00000000000E+00  0.00000000000E+00 -0.30641670577E+04  0.30641670577E+04  0.50400001928E-02 0.  1.
    10030    2    1    2    0    0  0.00000000000E+00  0.00000000000E+00 -0.23359914545E+04  0.37923426609E+04  0.29874749843E+04 0.  0.
        4    1    3    3  502    0 -0.83262562278E+03 -0.10620350653E+04 -0.35510855971E+03  0.13954524749E+04  0.12699999809E+01 0.  1.
       -4    1    3    3    0  502  0.83262562278E+03  0.10620350653E+04 -0.19808828948E+04  0.23968901859E+04  0.12699999809E+01 0. -1.
</event>
<event>
 5   0  0.2414250E-07  0.2999725E+04  0.7818609E-02  0.8243809E-01
        3   -1    0    0  501    0  0.00000000000E+00  0.00000000000E+00  0.12509881719E+04  0.12509881760E+04  0.10100000352E+00 0.  1.
       -3   -1    0    0    0  501  0.00000000000E+00  0.00000000000E+00 -0.17982487867E+04  0.17982487895E+04  0.10100000352E+00 0. -1.
    10030    2    1    2    0    0  0.00000000000E+00  0.00000000000E+00 -0.54726061477E+03  0.30492369655E+04  0.29997253026E+04 0.  0.
        2    1    3    3  502    0  0.91321944661E+03  0.63986660115E+03  0.74601578913E+03  0.13416178974E+04  0.25500000920E-02 0.  1.
       -2    1    3    3    0  502 -0.91321944661E+03 -0.63986660115E+03 -0.12932764039E+04  0.17076190681E+04  0.25500000920E-02 0. -1.
</event>
<event>
 5   0  0.7399409E-07  0.3004895E+04  0.7818609E-02  0.8242334E-01
        2   -1    0    0  501    0  0.00000000000E+00  0.00000000000E+00  0.21263185254E+04  0.21263185254E+04  0.25500000920E-02 0. -1.
       -2   -1    0    0    0  501  0.00000000000E+00  0.00000000000E+00 -0.10616230458E+04  0.10616230458E+04  0.25500000920E-02 0.  1.
    10030    2    1    2    0    0  0.00000000000E+00  0.00000000000E+00  0.10646954797E+04  0.31879415712E+04  0.30048951724E+04 0.  0.
        3    1    3    3  502    0  0.14142611403E+04 -0.46831639131E+03  0.73886949887E+03  0.16629440646E+04  0.10100000352E+00 0. -1.
       -3    1    3    3    0  502 -0.14142611403E+04  0.46831639131E+03  0.32582598079E+03  0.15249975067E+04  0.10100000352E+00 0.  1.
</event>
<event>
 5   0  0.7278657E-07  0.2995610E+04  0.7818609E-02  0.8244985E-01
       -2   -1    0    0    0  501  0.00000000000E+00  0.00000000000E+00  0.10339429187E+04  0.10339429187E+04  0.25500000920E-02 0. -1.
        2   -1    0    0  501    0  0.00000000000E+00  0.00000000000E+00 -0.21697721247E+04  0.21697721247E+04  0.25500000920E-02 0.  1.
    10030    2    1    2    0    0  0.00000000000E+00  0.00000000000E+00 -0.11358292060E+04  0.32037150435E+04  0.29956104711E+04 0.  0.
        2    1    3    3  502    0 -0.50549664294E+03  0.13981581545E+04 -0.76233304949E+03  0.16707856713E+04  0.25500000920E-02 0. -1.
       -2    1    3    3    0  502  0.50549664294E+03 -0.13981581545E+04 -0.37349615653E+03  0.15329293722E+04  0.25500000920E-02 0.  1.
</event>
<event>
 5   0  0.7585823E-07  0.3009364E+04  0.7818609E-02  0.8241062E-01
       -2   -1    0    0    0  501  0.00000000000E+00  0.00000000000E+00  0.10632262428E+04  0.10632262428E+04  0.25500000920E-02 0.  1.
        2   -1    0    0  501    0  0.00000000000E+00  0.00000000000E+00 -0.21294315251E+04  0.21294315252E+04  0.25500000920E-02 0. -1.
    10030    2    1    2    0    0  0.00000000000E+00  0.00000000000E+00 -0.10662052824E+04  0.31926577679E+04  0.30093637066E+04 0.  0.
        5    1    3    3  502    0 -0.78203504296E+03  0.53467711233E+03 -0.17733157737E+04  0.20105047491E+04  0.46999998093E+01 0. -1.
       -5    1    3    3    0  502  0.78203504296E+03 -0.53467711233E+03  0.70711049135E+03  0.11821530188E+04  0.46999998093E+01 0.  1.
</event>
<event>
 5   0  0.2792361E-07  0.3000147E+04  0.7818609E-02  0.8243689E-01
        1   -1    0    0  501    0  0.00000000000E+00  0.00000000000E+00  0.23854804318E+04  0.23854804318E+04  0.50400001928E-02 0.  1.
       -1   -1    0    0    0  501  0.00000000000E+00  0.00000000000E+00 -0.94329849888E+03  0.94329849890E+03  0.50400001928E-02 0. -1.
    10030    2    1    2    0    0  0.00000000000E+00  0.00000000000E+00  0.14421819329E+04  0.33287789307E+04  0.30001467367E+04 0.  0.
        4    1    3    3  502    0 -0.47316924575E+03 -0.11939939396E+04  0.15810427578E+04  0.20369605980E+04  0.12699999809E+01 0.  1.
       -4    1    3    3    0  502  0.47316924575E+03  0.11939939396E+04 -0.13886082489E+03  0.12918183327E+04  0.12699999809E+01 0. -1.
</event>
<event>
 5   0  0.2640081E-07  0.3016551E+04  0.7818609E-02  0.8239020E-01
        1   -1    0    0  501    0  0.00000000000E+00  0.00000000000E+00  0.18921116936E+04  0.18921116936E+04  0.50400001928E-02 0. -1.
       -1   -1    0    0    0  501  0.00000000000E+00  0.00000000000E+00 -0.12023048689E+04  0.12023048690E+04  0.50400001928E-02 0.  1.
    10030    2    1    2    0    0  0.00000000000E+00  0.00000000000E+00  0.68980682469E+03  0.30944165626E+04  0.30165510782E+04 0.  0.
        1    1    3    3  502    0  0.12659412077E+04  0.27171926742E+02 -0.49573098379E+03  0.13598142017E+04  0.50400001928E-02 0.  1.
       -1    1    3    3    0  502 -0.12659412077E+04 -0.27171926742E+02  0.11855378085E+04  0.17346023609E+04  0.50400001928E-02 0. -1.
</event>
<event>
 5   0  0.7278657E-07  0.2998007E+04  0.7818609E-02  0.8244300E-01
        2   -1    0    0  501    0  0.00000000000E+00  0.00000000000E+00  0.24022224697E+04  0.24022224697E+04  0.25500000920E-02 0. -1.
       -2   -1    0    0    0  501  0.00000000000E+00  0.00000000000E+00 -0.93538846937E+03  0.93538846937E+03  0.25500000920E-02 0.  1.
    10030    2    1    2    0    0  0.00000000000E+00  0.00000000000E+00  0.14668340004E+04  0.33376109391E+04  0.29980068039E+04 0.  0.
        2    1    3    3  502    0 -0.42370302367E+03 -0.24928450692E+03 -0.84309600281E+03  0.97594973622E+03  0.25500000920E-02 0.  1.
       -2    1    3    3    0  502  0.42370302367E+03  0.24928450692E+03  0.23099300032E+04  0.23616612029E+04  0.25500000920E-02 0. -1.
</event>
<event>
 5   0  0.2792361E-07  0.3003618E+04  0.7818609E-02  0.8242698E-01
       -1   -1    0    0    0  501  0.00000000000E+00  0.00000000000E+00  0.13824369417E+04  0.13824369417E+04  0.50400001928E-02 0. -1.
        1   -1    0    0  501    0  0.00000000000E+00  0.00000000000E+00 -0.16314888000E+04  0.16314888000E+04  0.50400001928E-02 0.  1.
    10030    2    1    2    0    0  0.00000000000E+00  0.00000000000E+00 -0.24905185825E+03  0.30139257417E+04  0.30036180763E+04 0.  0.
        4    1    3    3  502    0  0.13677328947E+04 -0.51013523876E+03  0.22952702771E+03  0.14777061624E+04  0.12699999809E+01 0.  1.
       -4    1    3    3    0  502 -0.13677328947E+04  0.51013523876E+03 -0.47857888596E+03  0.15362195793E+04  0.12699999809E+01 0. -1.
</event>
<event>
 5   0  0.7208273E-07  0.2990373E+04  0.7818609E-02  0.8246485E-01
       -2   -1    0    0    0  501  0.00000000000E+00  0.00000000000E+00  0.16827875312E+04  0.16827875312E+04  0.25500000920E-02 0. -1.
        2   -1    0    0  501    0  0.00000000000E+00  0.00000000000E+00 -0.13284992468E+04  0.13284992468E+04  0.25500000920E-02 0.  1.
    10030    2    1    2    0    0  0.00000000000E+00  0.00000000000E+00  0.35428828441E+03  0.30112867780E+04  0.29903725304E+04 0.  0.
        4    1    3    3  502    0  0.12989426779E+04 -0.70874316374E+03  0.39314702942E+03  0.15310568743E+04  0.12699999809E+01 0.  1.
       -4    1    3    3    0  502 -0.12989426779E+04  0.70874316374E+03 -0.38858745005E+02  0.14802299037E+04  0.12699999809E+01 0. -1.
</event>
<event>
 5   0  0.2602891E-07  0.3003474E+04  0.7818609E-02  0.8242739E-01
       -1   -1    0    0    0  501  0.00000000000E+00  0.00000000000E+00  0.15515090818E+04  0.15515090818E+04  0.50400001928E-02 0. -1.
        1   -1    0    0  501    0  0.00000000000E+00  0.00000000000E+00 -0.14535620369E+04  0.14535620369E+04  0.50400001928E-02 0.  1.
    10030    2    1    2    0    0  0.00000000000E+00  0.00000000000E+00  0.97947044916E+02  0.30050711188E+04  0.30034744556E+04 0.  0.
        5    1    3    3  502    0 -0.29677599471E+03  0.12783275485E+04  0.77942689954E+03  0.15263438977E+04  0.46999998093E+01 0. -1.
       -5    1    3    3    0  502  0.29677599471E+03 -0.12783275485E+04 -0.68147985462E+03  0.14787272211E+04  0.46999998093E+01 0.  1.
</event>
<event>
 5   0  0.7399409E-07  0.2999739E+04  0.7818609E-02  0.8243806E-01
       -2   -1    0    0    0  501  0.00000000000E+00  0.00000000000E+00  0.90919495551E+03  0.90919495551E+03  0.25500000920E-02 0.  1.
        2   -1    0    0  501    0  0.00000000000E+00  0.00000000000E+00 -0.24742855153E+04  0.24742855153E+04  0.25500000920E-02 0. -1.
    10030    2    1    2    0    0  0.00000000000E+00  0.00000000000E+00 -0.15650905598E+04  0.33834804708E+04  0.29997385946E+04 0.  0.
        3    1    3    3  502    0 -0.13905053188E+04 -0.36610204166E+03 -0.12638299476E+04  0.19143672304E+04  0.10100000352E+00 0. -1.
       -3    1    3    3    0  502  0.13905053188E+04  0.36610204166E+03 -0.30126061223E+03  0.14691132404E+04  0.10100000352E+00 0.  1.
</event>
<event>
 5   0  0.7307508E-07  0.3002159E+04  0.7818609E-02  0.8243115E-01
       -2   -1    0    0    0  501  0.00000000000E+00  0.00000000000E+00  0.15087792163E+04  0.15087792163E+04  0.25500000920E-02 0. -1.
        2   -1    0    0  501    0  0.00000000000E+00  0.00000000000E+00 -0.14934189092E+04  0.14934189092E+04  0.25500000920E-02 0.  1.
    10030    2    1    2    0    0  0.00000000000E+00  0.00000000000E+00  0.15360307065E+02  0.30021981255E+04  0.30021588309E+04 0.  0.
        1    1    3    3  502    0 -0.66516796245E+02 -0.14890561498E+04  0.18524010158E+03  0.15020075222E+04  0.50400001928E-02 0.  1.
       -1    1    3    3    0  502  0.66516796245E+02  0.14890561498E+04 -0.16987979452E+03  0.15001906033E+04  0.50400001928E-02 0. -1.
</event>
<event>
 5   0  0.2621825E-07  0.2998967E+04  0.7818609E-02  0.8244026E-01
        1   -1    0    0  501    0  0.00000000000E+00  0.00000000000E+00  0.18744783377E+04  0.18744783378E+04  0.50400001928E-02 0.  1.
       -1   -1    0    0    0  501  0.00000000000E+00  0.00000000000E+00 -0.11995072312E+04  0.11995072312E+04  0.50400001928E-02 0. -1.
    10030    2    1    2    0    0  0.00000000000E+00  0.00000000000E+00  0.67497110652E+03  0.30739855690E+04  0.29989667027E+04 0.  0.
        3    1    3    3  502    0 -0.99610965686E+03 -0.11480897577E+03  0.14802897259E+04  0.17879242803E+04  0.10100000352E+00 0.  1.
       -3    1    3    3    0  502  0.99610965686E+03  0.11480897577E+03 -0.80531861933E+03  0.12860612887E+04  0.10100000352E+00 0. -1.
</event>
<event>
 5   0  0.2792361E-07  0.3014517E+04  0.7818609E-02  0.8239597E-01
       -1   -1    0    0    0  501  0.00000000000E+00  0.00000000000E+00  0.10068610198E+04  0.10068610198E+04  0.50400001928E-02 0.  1.
        1   -1    0    0  501    0  0.00000000000E+00  0.00000000000E+00 -0.22563479190E+04  0.22563479190E+04  0.50400001928E-02 0. -1.
    10030    2    1    2    0    0  0.00000000000E+00  0.00000000000E+00 -0.12494868992E+04  0.32632089388E+04  0.30145173854E+04 0.  0.
        4    1    3    3  502    0 -0.47658076577E+03  0.79834085520E+03 -0.19089300023E+04  0.21233211519E+04  0.12699999809E+01 0. -1.
       -4    1    3    3    0  502  0.47658076577E+03 -0.79834085520E+03  0.65944310317E+03  0.11398877868E+04  0.12699999809E+01 0.  1.
</event>
<event>
 5   0  0.2792361E-07  0.3001139E+04  0.7818609E-02  0.8243406E-01
        1   -1    0    0  501    0  0.00000000000E+00  0.00000000000E+00  0.17356439577E+04  0.17356439577E+04  0.50400001928E-02 0. -1.
       -1   -1    0    0    0  501  0.00000000000E+00  0.00000000000E+00 -0.12973332905E+04  0.12973332905E+04  0.50400001928E-02 0.  1.
    10030    2    1    2    0    0  0.00000000000E+00  0.00000000000E+00  0.43831066721E+03  0.30329772481E+04  0.30011389083E+04 0.  0.
        4    1    3    3  502    0 -0.12131197072E+04  0.79003537016E+03 -0.17986464458E+03  0.14588242572E+04  0.12699999809E+01 0.  1.
       -4    1    3    3    0  502  0.12131197072E+04 -0.79003537016E+03  0.61817531179E+03  0.15741529910E+04  0.12699999809E+01 0. -1.
</event>
<event>
 5   0  0.2792361E-07  0.3000298E+04  0.7818609E-02  0.8243646E-01
       -1   -1    0    0    0  501  0.00000000000E+00  0.00000000000E+00  0.11674195120E+04  0.11674195120E+04  0.50400001928E-02 0.  1.
        1   -1    0    0  501    0  0.00000000000E+00  0.00000000000E+00 -0.19277109796E+04  0.19277109796E+04  0.50400001928E-02 0. -1.
    10030    2    1    2    0    0  0.00000000000E+00  0.00000000000E+00 -0.76029146758E+03  0.30951304916E+04  0.30002982592E+04 0.  0.
        4    1    3    3  502    0 -0.86142195112E+03  0.10326601864E+04 -0.10659987497E+04  0.17160389814E+04  0.12699999809E+01 0.  1.
       -4    1    3    3    0  502  0.86142195112E+03 -0.10326601864E+04  0.30570728210E+03  0.13790915102E+04  0.12699999809E+01 0. -1.
</event>
<event>
 5   0  0.2621825E-07  0.3014200E+04  0.7818609E-02  0.8239688E-01
       -1   -1    0    0    0  501  0.00000000000E+00  0.00000000000E+00  0.16246576972E+04  0.16246576972E+04  0.50400001928E-02 0.  1.
        1   -1    0    0  501    0  0.00000000000E+00  0.00000000000E+00 -0.13980483174E+04  0.13980483174E+04  0.50400001928E-02 0. -1.
    10030    2    1    2    0    0  0.00000000000E+00  0.00000000000E+00  0.22660937982E+03  0.30227060146E+04  0.30141997014E+04 0.  0.
        3    1    3    3  502    0 -0.13930684345E+03  0.45441843506E+03 -0.13209228243E+04  0.14038303419E+04  0.10100000352E+00 0. -1.
       -3    1    3    3    0  502  0.13930684345E+03 -0.45441843506E+03  0.15475322041E+04  0.16188756727E+04  0.10100000352E+00 0.  1.
</event>
<event>
 5   0  0.7585823E-07  0.3004331E+04  0.7818609E-02  0.8242495E-01
        2   -1    0    0  501    0  0.00000000000E+00  0.00000000000E+00  0.83426751160E+03  0.83426751160E+03  0.25500000920E-02 0.  1.
       -2   -1    0    0    0  501  0.00000000000E+00  0.00000000000E+00 -0.27047689004E+04  0.27047689004E+04  0.25500000920E-02 0. -1.
    10030    2    1    2    0    0  0.00000000000E+00  0.00000000000E+00 -0.18705013888E+04  0.35390364120E+04  0.30043307541E+04 0.  0.
        5    1    3    3  502    0 -0.14536254012E+04  0.23357991232E+03 -0.12864627986E+04  0.19551457758E+04  0.46999998093E+01 0. -1.
       -5    1    3    3    0  502  0.14536254012E+04 -0.23357991232E+03 -0.58403859021E+03  0.15838906362E+04  0.46999998093E+01 0.  1.
</event>
<event>
 5   0  0.7278657E-07  0.2992385E+04  0.7818609E-02  0.8245909E-01
        2   -1    0    0  501    0  0.00000000000E+00  0.00000000000E+00  0.11132514196E+04  0.11132514196E+04  0.25500000920E-02 0. -1.
       -2   -1    0    0    0  501  0.00000000000E+00  0.00000000000E+00 -0.20108591488E+04  0.20108591488E+04  0.25500000920E-02 0.  1.
    10030    2    1    2    0    0  0.00000000000E+00  0.00000000000E+00 -0.89760772923E+03  0.31241105683E+04  0.29923848696E+04 0.  0.
        2    1    3    3  502    0 -0.13937007129E+04  0.19998140028E+03 -0.97724478979E+03  0.17138849485E+04  0.25500000920E-02 0.  1.
       -2    1    3    3    0  502  0.13937007129E+04 -0.19998140028E+03  0.79637060565E+02  0.14102256199E+04  0.25500000920E-02 0. -1.
</event>
<event>
 5   0  0.2679935E-07  0.2994883E+04  0.7818609E-02  0.8245193E-01
        1   -1    0    0  501    0  0.00000000000E+00  0.00000000000E+00  0.27761417560E+04  0.27761417560E+04  0.50400001928E-02 0. -1.
       -1   -1    0    0    0  501  0.00000000000E+00  0.00000000000E+00 -0.80771507086E+03  0.80771507087E+03  0.50400001928E-02 0.  1.
    10030    2    1    2    0    0  0.00000000000E+00  0.00000000000E+00  0.19684266851E+04  0.35838568269E+04  0.29948833267E+04 0.  0.
        2    1    3    3  502    0 -0.96658415950E+03  0.34549804026E+03  0.22888897272E+04  0.25085194870E+04  0.25500000920E-02 0. -1.
       -2    1    3    3    0  502  0.96658415950E+03 -0.34549804026E+03 -0.32046304207E+03  0.10753373399E+04  0.25500000920E-02 0.  1.
</event>
<event>
 5   0  0.2640081E-07  0.3000770E+04  0.7818609E-02  0.8243511E-01
       -1   -1    0    0    0  501  0.00000000000E+00  0.00000000000E+00  0.13930208507E+04  0.13930208507E+04  0.50400001928E-02 0.  1.
        1   -1    0    0  501    0  0.00000000000E+00  0.00000000000E+00 -0.16160243837E+04  0.16160243838E+04  0.50400001928E-02 0. -1.
    10030    2    1    2    0    0  0.00000000000E+00  0.00000000000E+00 -0.22300353305E+03  0.30090452345E+04  0.30007703423E+04 0.  0.
        1    1    3    3  502    0 -0.72521210010E+03 -0.14759133785E+03 -0.14202598027E+04  0.16015160631E+04  0.50400001928E-02 0. -1.
       -1    1    3    3    0  502  0.72521210010E+03  0.14759133785E+03  0.11972562696E+04  0.14075291714E+04  0.50400001928E-02 0.  1.
</event>
<event>
 5   0  0.2621825E-07  0.3003902E+04  0.7818609E-02  0.8242618E-01
       -1   -1    0    0    0  501  0.00000000000E+00  0.00000000000E+00  0.12462774605E+04  0.12462774605E+04  0.50400001928E-02 0.  1.
        1   -1    0    0  501    0  0.00000000000E+00  0.00000000000E+00 -0.18100758798E+04  0.18100758798E+04  0.50400001928E-02 0. -1.
    10030    2    1    2    0    0  0.00000000000E+00  0.00000000000E+00 -0.56379841932E+03  0.30563533403E+04  0.30039019763E+04 0.  0.
        3    1    3    3  502    0 -0.96295560761E+03 -0.46682461427E+03 -0.13541738408E+04  0.17259766870E+04  0.10100000352E+00 0. -1.
       -3    1    3    3    0  502  0.96295560761E+03  0.46682461427E+03  0.79037542147E+03  0.13303766533E+04  0.10100000352E+00 0.  1.
</event>
<event>
 5   0  0.2640081E-07  0.2996158E+04  0.7818609E-02  0.8244829E-01
       -1   -1    0    0    0  501  0.00000000000E+00  0.00000000000E+00  0.15968799335E+04  0.15968799335E+04  0.50400001928E-02 0.  1.
        1   -1    0    0  501    0  0.00000000000E+00  0.00000000000E+00 -0.14053912406E+04  0.14053912406E+04  0.50400001928E-02 0. -1.
    10030    2    1    2    0    0  0.00000000000E+00  0.00000000000E+00  0.19148869291E+03  0.30022711742E+04  0.29961582541E+04 0.  0.
        1    1    3    3  502    0  0.30052019820E+03 -0.10535632292E+04 -0.92807073650E+03  0.14358353525E+04  0.50400001928E-02 0. -1.
       -1    1    3    3    0  502 -0.30052019820E+03  0.10535632292E+04  0.11195594294E+04  0.15664358217E+04  0.50400001928E-02 0.  1.
</event>
<event>
 5   0  0.2792361E-07  0.3004977E+04  0.7818609E-02  0.8242311E-01
        1   -1    0    0  501    0  0.00000000000E+00  0.00000000000E+00  0.15420786679E+04  0.15420786679E+04  0.50400001928E-02 0. -1.
       -1   -1    0    0    0  501  0.00000000000E+00  0.00000000000E+00 -0.14639147256E+04  0.14639147256E+04  0.50400001928E-02 0.  1.
    10030    2    1    2    0    0  0.00000000000E+00  0.00000000000E+00  0.78163942231E+02  0.30059933935E+04  0.30049769849E+04 0.  0.
        4    1    3    3  502    0 -0.18844628524E+03 -0.32411792112E+03 -0.14163691348E+04  0.14651510393E+04  0.12699999809E+01 0.  1.
       -4    1    3    3    0  502  0.18844628524E+03  0.32411792112E+03  0.14945330770E+04  0.15408423542E+04  0.12699999809E+01 0. -1.
</event>
<event>
 5   0  0.2792361E-07  0.2998505E+04  0.7818609E-02  0.8244158E-01
        1   -1    0    0  501    0  0.00000000000E+00  0.00000000000E+00  0.22060461793E+04  0.22060461793E+04  0.50400001928E-02 0. -1.
       -1   -1    0    0    0  501  0.00000000000E+00  0.00000000000E+00 -0.10189080171E+04  0.10189080171E+04  0.50400001928E-02 0.  1.
    10030    2    1    2    0    0  0.00000000000E+00  0.00000000000E+00  0.11871381622E+04  0.32249541965E+04  0.29985050530E+04 0.  0.
        4    1    3    3  502    0 -0.28226536845E+03  0.14277645084E+04  0.98071364612E+03  0.17549889168E+04  0.12699999809E+01 0. -1.
       -4    1    3    3    0  502  0.28226536845E+03 -0.14277645084E+04  0.20642451604E+03  0.14699652796E+04  0.12699999809E+01 0.  1.
</event>
<event>
 5   0  0.2621825E-07  0.2998993E+04  0.7818609E-02  0.8244019E-01
       -1   -1    0    0    0  501  0.00000000000E+00  0.00000000000E+00  0.18706506885E+04  0.18706506885E+04  0.50400001928E-02 0.  1.
        1   -1    0    0  501    0  0.00000000000E+00  0.00000000000E+00 -0.12019825881E+04  0.12019825881E+04  0.50400001928E-02 0. -1.
    10030    2    1    2    0    0  0.00000000000E+00  0.00000000000E+00  0.66866810039E+03  0.30726332765E+04  0.29989928682E+04 0.  0.
        3    1    3    3  502    0  0.60074296646E+03  0.11371937839E+04 -0.45556249643E+03  0.13644189285E+04  0.10100000352E+00 0.  1.
       -3    1    3    3    0  502 -0.60074296646E+03 -0.11371937839E+04  0.11242305968E+04  0.17082143481E+04  0.10100000352E+00 0. -1.
</event>
<event>
 5   0  0.7278657E-07  0.2995153E+04  0.7818609E-02  0.8245116E-01
        2   -1    0    0  501    0  0.00000000000E+00  0.00000000000E+00  0.13486120339E+04  0.13486120339E+04  0.25500000920E-02 0. -1.
       -2   -1    0    0    0  501  0.00000000000E+00  0.00000000000E+00 -0.16629957047E+04  0.16629957047E+04  0.25500000920E-02 0.  1.
    10030    2    1    2    0    0  0.00000000000E+00  0.00000000000E+00 -0.31438367074E+03  0.30116077386E+04  0.29951534316E+04 0.  0.
        2    1    3    3  502    0  0.11295503519E+04 -0.95896579329E+03  0.61342047022E+02  0.14829909766E+04  0.25500000920E-02 0.  1.
       -2    1    3    3    0  502 -0.11295503519E+04  0.95896579329E+03 -0.37572571777E+03  0.15286167620E+04  0.25500000920E-02 0. -1.
</event>
<event>
 5   0  0.2602891E-07  0.2987791E+04  0.7818609E-02  0.8247226E-01
       -1   -1    0    0    0  501  0.00000000000E+00  0.00000000000E+00  0.90170980664E+03  0.90170980665E+03  0.50400001928E-02 0.  1.
        1   -1    0    0  501    0  0.00000000000E+00  0.00000000000E+00 -0.24749908806E+04  0.24749908806E+04  0.50400001928E-02 0. -1.
    10030    2    1    2    0    0  0.00000000000E+00  0.00000000000E+00 -0.15732810740E+04  0.33767006873E+04  0.29877908551E+04 0.  0.
        5    1    3    3  502    0  0.19727697976E+03  0.14246058531E+04 -0.12433192310E+04  0.19011272560E+04  0.46999998093E+01 0. -1.
       -5    1    3    3    0  502 -0.19727697976E+03 -0.14246058531E+04 -0.32996184301E+03  0.14755734313E+04  0.46999998093E+01 0.  1.
</event>
<event>
 5   0  0.7307508E-07  0.3000907E+04  0.7818609E-02  0.8243472E-01
       -2   -1    0    0    0  501  0.00000000000E+00  0.00000000000E+00  0.25003634237E+04  0.25003634237E+04  0.25500000920E-02 0.  1.
        2   -1    0    0  501    0  0.00000000000E+00  0.00000000000E+00 -0.90041366059E+03  0.90041366059E+03  0.25500000920E-02 0. -1.
    10030    2    1    2    0    0  0.00000000000E+00  0.00000000000E+00  0.15999497631E+04  0.34007770843E+04  0.30009074515E+04 0.  0.
        1    1    3    3  502    0  0.31415186821E+02 -0.47624949563E+03  0.24120441608E+04  0.24588122193E+04  0.50400001928E-02 0.  1.
       -1    1    3    3    0  502 -0.31415186821E+02  0.47624949563E+03 -0.81209439770E+03  0.94196486498E+03  0.50400001928E-02 0. -1.
</event>
<event>
 5   0  0.2621825E-07  0.3006973E+04  0.7818609E-02  0.8241743E-01
       -1   -1    0    0    0  501  0.00000000000E+00  0.00000000000E+00  0.11878179696E+04  0.11878179696E+04  0.50400001928E-02 0.  1.
        1   -1    0    0  501    0  0.00000000000E+00  0.00000000000E+00 -0.19030453172E+04  0.19030453172E+04  0.50400001928E-02 0. -1.
    10030    2    1    2    0    0  0.00000000000E+00  0.00000000000E+00 -0.71522734762E+03  0.30908632869E+04  0.30069728464E+04 0.  0.
        3    1    3    3  502    0 -0.40504699304E+03  0.34606289012E+03  0.10875433863E+04  0.12110215596E+04  0.10100000352E+00 0.  1.
       -3    1    3    3    0  502  0.40504699304E+03 -0.34606289012E+03 -0.18027707339E+04  0.18798417273E+04  0.10100000352E+00 0. -1.
</event>
<event>
 5   0  0.7307508E-07  0.2976854E+04  0.7818609E-02  0.8250371E-01
       -2   -1    0    0    0  501  0.00000000000E+00  0.00000000000E+00  0.12124573238E+04  0.12124573238E+04  0.25500000920E-02 0.  1.
        2   -1    0    0  501    0  0.00000000000E+00  0.00000000000E+00 -0.18272106364E+04  0.18272106364E+04  0.25500000920E-02 0. -1.
    10030    2    1    2    0    0  0.00000000000E+00  0.00000000000E+00 -0.61475331257E+03  0.30396679602E+04  0.29768539892E+04 0.  0.
        1    1    3    3  502    0  0.48246338485E+03 -0.28258580222E+03 -0.17158997064E+04  0.18046987161E+04  0.50400001928E-02 0. -1.
       -1    1    3    3    0  502 -0.48246338485E+03  0.28258580222E+03  0.11011463938E+04  0.12349692442E+04  0.50400001928E-02 0.  1.
</event>
<event>
 5   0  0.2640081E-07  0.2995516E+04  0.7818609E-02  0.8245013E-01
        1   -1    0    0  501    0  0.00000000000E+00  0.00000000000E+00  0.16332191123E+04  0.16332191123E+04  0.50400001928E-02 0.  1.
       -1   -1    0    0    0  501  0.00000000000E+00  0.00000000000E+00 -0.13735319431E+04  0.13735319431E+04  0.50400001928E-02 0. -1.
    10030    2    1    2    0    0  0.00000000000E+00  0.00000000000E+00  0.25968716923E+03  0.30067510554E+04  0.29955157291E+04 0.  0.
        1    1    3    3  502    0 -0.13001285155E+04  0.71135365613E+03 -0.87580127134E+02  0.14845970698E+04  0.50400001928E-02 0. -1.
       -1    1    3    3    0  502  0.13001285155E+04 -0.71135365613E+03  0.34726729636E+03  0.15221539856E+04  0.50400001928E-02 0.  1.
</event>
<event>
 5   0  0.7585823E-07  0.2994134E+04  0.7818609E-02  0.8245408E-01
        2   -1    0    0  501    0  0.00000000000E+00  0.00000000000E+00  0.12482970449E+04  0.12482970449E+04  0.25500000920E-02 0.  1.
       -2   -1    0    0    0  501  0.00000000000E+00  0.00000000000E+00 -0.17954136995E+04  0.17954136995E+04  0.25500000920E-02 0. -1.
    10030    2    1    2    0    0  0.00000000000E+00  0.00000000000E+00 -0.54711665461E+03  0.30437107444E+04  0.29941340086E+04 0.  0.
        5    1    3    3  502    0 -0.90933127335E+02 -0.96968272740E+03  0.88220776072E+03  0.13141027542E+04  0.46999998093E+01 0.  1.
       -5    1    3    3    0  502  0.90933127335E+02  0.96968272740E+03 -0.14293244153E+04  0.17296079902E+04  0.46999998093E+01 0. -1.
</event>
<event>
 5   0  0.2679935E-07  0.2998127E+04  0.7818609E-02  0.8244266E-01
        1   -1    0    0  501    0  0.00000000000E+00  0.00000000000E+00  0.20588732899E+04  0.20588732899E+04  0.50400001928E-02 0. -1.
       -1   -1    0    0    0  501  0.00000000000E+00  0.00000000000E+00 -0.10914666009E+04  0.10914666009E+04  0.50400001928E-02 0.  1.
    10030    2    1    2    0    0  0.00000000000E+00  0.00000000000E+00  0.96740668903E+03  0.31503398908E+04  0.29981270363E+04 0.  0.
        2    1    3    3  502    0 -0.30501304683E+03 -0.10129277299E+04 -0.63235805812E+03  0.12324496982E+04  0.25500000920E-02 0.  1.
       -2    1    3    3    0  502  0.30501304683E+03  0.10129277299E+04  0.15997647472E+04  0.19178901926E+04  0.25500000920E-02 0. -1.
</event>
<event>
 5   0  0.7399409E-07  0.3007387E+04  0.7818609E-02  0.8241625E-01
       -2   -1    0    0    0  501  0.00000000000E+00  0.00000000000E+00  0.11153528762E+04  0.11153528762E+04  0.25500000920E-02 0.  1.
        2   -1    0    0  501    0  0.00000000000E+00  0.00000000000E+00 -0.20272453138E+04  0.20272453138E+04  0.25500000920E-02 0. -1.
    10030    2    1    2    0    0  0.00000000000E+00  0.00000000000E+00 -0.91189243754E+03  0.31425981900E+04  0.30073868335E+04 0.  0.
        3    1    3    3  502    0 -0.10190249917E+04 -0.97192866568E+03  0.95052462519E+02  0.14114149800E+04  0.10100000352E+00 0.  1.
       -3    1    3    3    0  502  0.10190249917E+04  0.97192866568E+03 -0.10069449001E+04  0.17311832101E+04  0.10100000352E+00 0. -1.
</event>
<event>
 5   0  0.7278657E-07  0.3042021E+04  0.7818609E-02  0.8231832E-01
        2   -1    0    0  501    0  0.00000000000E+00  0.00000000000E+00  0.12416091065E+04  0.12416091065E+04  0.25500000920E-02 0.  1.
       -2   -1    0    0    0  501  0.00000000000E+00  0.00000000000E+00 -0.18632860830E+04  0.18632860830E+04  0.25500000920E-02 0. -1.
    10030    2    1    2    0    0  0.00000000000E+00  0.00000000000E+00 -0.62167697648E+03  0.31048951896E+04  0.30420210182E+04 0.  0.
        2    1    3    3  502    0  0.20513591869E+03 -0.84279817275E+03  0.96441874571E+03  0.12971094874E+04  0.25500000920E-02 0.  1.
       -2    1    3    3    0  502 -0.20513591869E+03  0.84279817275E+03 -0.15860957222E+04  0.18077857022E+04  0.25500000920E-02 0. -1.
</event>
<event>
 5   0  0.2679935E-07  0.2998029E+04  0.7818609E-02  0.8244294E-01
        1   -1    0    0  501    0  0.00000000000E+00  0.00000000000E+00  0.13852111845E+04  0.13852111845E+04  0.50400001928E-02 0.  1.
       -1   -1    0    0    0  501  0.00000000000E+00  0.00000000000E+00 -0.16221673748E+04  0.16221673748E+04  0.50400001928E-02 0. -1.
    10030    2    1    2    0    0  0.00000000000E+00  0.00000000000E+00 -0.23695619030E+03  0.30073785593E+04  0.29980289463E+04 0.  0.
        2    1    3    3  502    0 -0.80690696197E+02  0.13423550805E+04 -0.78282456444E+03  0.15560342057E+04  0.25500000920E-02 0. -1.
       -2    1    3    3    0  502  0.80690696197E+02 -0.13423550805E+04  0.54586837414E+03  0.14513443536E+04  0.25500000920E-02 0.  1.
</event>
<event>
 5   0  0.7585823E-07  0.2994360E+04  0.7818609E-02  0.8245343E-01
        2   -1    0    0  501    0  0.00000000000E+00  0.00000000000E+00  0.20381849455E+04  0.20381849455E+04  0.25500000920E-02 0. -1.
       -2   -1    0    0    0  501  0.00000000000E+00  0.00000000000E+00 -0.10997761614E+04  0.10997761614E+04  0.25500000920E-02 0.  1.
    10030    2    1    2    0    0  0.00000000000E+00  0.00000000000E+00  0.93840878407E+03  0.31379611070E+04  0.29943595079E+04 0.  0.
        5    1    3    3  502    0 -0.12595898580E+04 -0.77230049565E+03  0.21571466118E+03  0.14931743271E+04  0.46999998093E+01 0. -1.
       -5    1    3    3    0  502  0.12595898580E+04  0.77230049565E+03  0.72269412289E+03  0.16447867799E+04  0.46999998093E+01 0.  1.
</event>
<event>
 5   0  0.7585823E-07  0.3006562E+04  0.7818609E-02  0.8241859E-01
       -2   -1    0    0    0  501  0.00000000000E+00  0.00000000000E+00  0.13434028098E+04  0.13434028098E+04  0.25500000920E-02 0. -1.
        2   -1    0    0  501    0  0.00000000000E+00  0.00000000000E+00 -0.16821864710E+04  0.16821864710E+04  0.25500000920E-02 0.  1.
    10030    2    1    2    0    0  0.00000000000E+00  0.00000000000E+00 -0.33878366118E+03  0.30255892808E+04  0.30065621774E+04 0.  0.
        5    1    3    3  502    0 -0.57842546264E+03 -0.11039815029E+04  0.67645154965E+03  0.14180832005E+04  0.46999998093E+01 0. -1.
       -5    1    3    3    0  502  0.57842546264E+03  0.11039815029E+04 -0.10152352108E+04  0.16075060802E+04  0.46999998093E+01 0.  1.
</event>
<event>
 5   0  0.7399409E-07  0.2999305E+04  0.7818609E-02  0.8243929E-01
        2   -1    0    0  501    0  0.00000000000E+00  0.00000000000E+00  0.17930507425E+04  0.17930507425E+04  0.25500000920E-02 0.  1.
       -2   -1    0    0    0  501  0.00000000000E+00  0.00000000000E+00 -0.12542630262E+04  0.12542630262E+04  0.25500000920E-02 0. -1.
    10030    2    1    2    0    0  0.00000000000E+00  0.00000000000E+00  0.53878771636E+03  0.30473137687E+04  0.29993047531E+04 0.  0.
        3    1    3    3  502    0 -0.57622057911E+03 -0.11527823051E+04 -0.50970513377E+03  0.13859063938E+04  0.10100000352E+00 0. -1.
       -3    1    3    3    0  502  0.57622057911E+03  0.11527823051E+04  0.10484928501E+04  0.16614073750E+04  0.10100000352E+00 0.  1.
</event>
<event>
 5   0  0.7307508E-07  0.2997905E+04  0.7818609E-02  0.8244329E-01
        2   -1    0    0  501    0  0.00000000000E+00  0.00000000000E+00  0.17209173941E+04  0.17209173941E+04  0.25500000920E-02 0. -1.
       -2   -1    0    0    0  501  0.00000000000E+00  0.00000000000E+00 -0.13056167117E+04  0.13056167117E+04  0.25500000920E-02 0.  1.
    10030    2    1    2    0    0  0.00000000000E+00  0.00000000000E+00  0.41530068235E+03  0.30265341058E+04  0.29979049413E+04 0.  0.
        1    1    3    3  502    0  0.57223685525E+03  0.10703522788E+04  0.10956808822E+04  0.16351225076E+04  0.50400001928E-02 0. -1.
       -1    1    3    3    0  502 -0.57223685525E+03 -0.10703522788E+04 -0.68038019984E+03  0.13914115982E+04  0.50400001928E-02 0.  1.
</event>
<event>
 5   0  0.2602891E-07  0.3004469E+04  0.7818609E-02  0.8242456E-01
       -1   -1    0    0    0  501  0.00000000000E+00  0.00000000000E+00  0.24071943338E+04  0.24071943338E+04  0.50400001928E-02 0. -1.
        1   -1    0    0  501    0  0.00000000000E+00  0.00000000000E+00 -0.93748477585E+03  0.93748477586E+03  0.50400001928E-02 0.  1.
    10030    2    1    2    0    0  0.00000000000E+00  0.00000000000E+00  0.14697095580E+04  0.33446791097E+04  0.30044686988E+04 0.  0.
        5    1    3    3  502    0  0.14229891651E+04  0.48074231546E+03  0.76376916899E+03  0.16850450354E+04  0.46999998093E+01 0.  1.
       -5    1    3    3    0  502 -0.14229891651E+04 -0.48074231546E+03  0.70594038899E+03  0.16596340743E+04  0.46999998093E+01 0. -1.
</event>
<event>
 5   0  0.2640081E-07  0.2999988E+04  0.7818609E-02  0.8243734E-01
       -1   -1    0    0    0  501  0.00000000000E+00  0.00000000000E+00  0.13986447762E+04  0.13986447762E+04  0.50400001928E-02 0. -1.
        1   -1    0    0  501    0  0.00000000000E+00  0.00000000000E+00 -0.16086873193E+04  0.16086873193E+04  0.50400001928E-02 0.  1.
    10030    2    1    2    0    0  0.00000000000E+00  0.00000000000E+00 -0.21004254315E+03  0.30073320955E+04  0.29999880771E+04 0.  0.
        1    1    3    3  502    0 -0.13508817137E+04 -0.57375606576E+03 -0.41546420593E+03  0.15253484631E+04  0.50400001928E-02 0.  1.
       -1    1    3    3    0  502  0.13508817137E+04  0.57375606576E+03  0.20542166278E+03  0.14819836325E+04  0.50400001928E-02 0. -1.
</event>
<event>
 5   0  0.7278657E-07  0.3004378E+04  0.7818609E-02  0.8242482E-01
       -2   -1    0    0    0  501  0.00000000000E+00  0.00000000000E+00  0.16353938698E+04  0.16353938698E+04  0.25500000920E-02 0. -1.
        2   -1    0    0  501    0  0.00000000000E+00  0.00000000000E+00 -0.13798338570E+04  0.13798338570E+04  0.25500000920E-02 0.  1.
    10030    2    1    2    0    0  0.00000000000E+00  0.00000000000E+00  0.25556001278E+03  0.30152277268E+04  0.30043780263E+04 0.  0.
        2    1    3    3  502    0 -0.48361666404E+03 -0.62648429251E+03 -0.11536253733E+04  0.13990064862E+04  0.25500000920E-02 0.  1.
       -2    1    3    3    0  502  0.48361666404E+03  0.62648429251E+03  0.14091853861E+04  0.16162212407E+04  0.25500000920E-02 0. -1.
</event>
<event>
 5   0  0.2679935E-07  0.2998121E+04  0.7818609E-02  0.8244268E-01
       -1   -1    0    0    0  501  0.00000000000E+00  0.00000000000E+00  0.11153470604E+04  0.11153470604E+04  0.50400001928E-02 0.  1.
        1   -1    0    0  501    0  0.00000000000E+00  0.00000000000E+00 -0.20147825318E+04  0.20147825318E+04  0.50400001928E-02 0. -1.
    10030    2    1    2    0    0  0.00000000000E+00  0.00000000000E+00 -0.89943547138E+03  0.31301295922E+04  0.29981205941E+04 0.  0.
        2    1    3    3  502    0 -0.71865322257E+03  0.40295547364E+03  0.85775966098E+03  0.11893642016E+04  0.25500000920E-02 0.  1.
       -2    1    3    3    0  502  0.71865322257E+03 -0.40295547364E+03 -0.17571951324E+04  0.19407653906E+04  0.25500000920E-02 0. -1.
</event>
<event>
 5   0  0.7307508E-07  0.3007991E+04  0.7818609E-02  0.8241453E-01
       -2   -1    0    0    0  501  0.00000000000E+00  0.00000000000E+00  0.14331243343E+04  0.14331243343E+04  0.25500000920E-02 0. -1.
        2   -1    0    0  501    0  0.00000000000E+00  0.00000000000E+00 -0.15783712873E+04  0.15783712874E+04  0.25500000920E-02 0.  1.
    10030    2    1    2    0    0  0.00000000000E+00  0.00000000000E+00 -0.14524695301E+03  0.30114956217E+04  0.30079908913E+04 0.  0.
        1    1    3    3  502    0  0.10882642168E+04  0.56770215208E+03  0.79752528929E+03  0.14637798080E+04  0.50400001928E-02 0.  1.
       -1    1    3    3    0  502 -0.10882642168E+04 -0.56770215208E+03 -0.94277224231E+03  0.15477158137E+04  0.50400001928E-02 0. -1.
</event>
<event>
 5   0  0.7585823E-07  0.3003385E+04  0.7818609E-02  0.8242765E-01
        2   -1    0    0  501    0  0.00000000000E+00  0.00000000000E+00  0.21416153903E+04  0.21416153903E+04  0.25500000920E-02 0.  1.
       -2   -1    0    0    0  501  0.00000000000E+00  0.00000000000E+00 -0.10529808332E+04  0.10529808332E+04  0.25500000920E-02 0. -1.
    10030    2    1    2    0    0  0.00000000000E+00  0.00000000000E+00  0.10886345571E+04  0.31945962236E+04  0.30033847294E+04 0.  0.
        5    1    3    3  502    0  0.77273570751E+03  0.11931258627E+04  0.29358154505E+02  0.14218135564E+04  0.46999998093E+01 0. -1.
       -5    1    3    3    0  502 -0.77273570751E+03 -0.11931258627E+04  0.10592764026E+04  0.17727826672E+04  0.46999998093E+01 0.  1.
</event>
<event>
 5   0  0.2602891E-07  0.3007143E+04  0.7818609E-02  0.8241694E-01
       -1   -1    0    0    0  501  0.00000000000E+00  0.00000000000E+00  0.19486894949E+04  0.19486894949E+04  0.50400001928E-02 0. -1.
        1   -1    0    0  501    0  0.00000000000E+00  0.00000000000E+00 -0.11601271050E+04  0.11601271050E+04  0.50400001928E-02 0.  1.
    10030    2    1    2    0    0  0.00000000000E+00  0.00000000000E+00  0.78856238985E+03  0.31088165999E+04  0.30071431641E+04 0.  0.
        5    1    3    3  502    0 -0.32799896413E+02  0.11799203985E+03  0.19435172239E+04  0.19473775300E+04  0.46999998093E+01 0. -1.
       -5    1    3    3    0  502  0.32799896413E+02 -0.11799203985E+03 -0.11549548340E+04  0.11614390700E+04  0.46999998093E+01 0.  1.
</event>
<event>
 5   0  0.2602891E-07  0.2950232E+04  0.7818609E-02  0.8258087E-01
        1   -1    0    0  501    0  0.00000000000E+00  0.00000000000E+00  0.22738790382E+04  0.22738790382E+04  0.50400001928E-02 0.  1.
       -1   -1    0    0    0  501  0.00000000000E+00  0.00000000000E+00 -0.95694034524E+03  0.95694034526E+03  0.50400001928E-02 0. -1.
    10030    2    1    2    0    0  0.00000000000E+00  0.00000000000E+00  0.13169386929E+04  0.32308193834E+04  0.29502315786E+04 0.  0.
        5    1    3    3  502    0  0.96169749191E+03  0.46806070610E+03  0.17709609970E+04  0.20688808166E+04  0.46999998093E+01 0.  1.
       -5    1    3    3    0  502 -0.96169749191E+03 -0.46806070610E+03 -0.45402230403E+03  0.11619385668E+04  0.46999998093E+01 0. -1.
</event>
<event>
 5   0  0.7307508E-07  0.3002017E+04  0.7818609E-02  0.8243155E-01
       -2   -1    0    0    0  501  0.00000000000E+00  0.00000000000E+00  0.12261326938E+04  0.12261326938E+04  0.25500000920E-02 0.  1.
        2   -1    0    0  501    0  0.00000000000E+00  0.00000000000E+00 -0.18375056962E+04  0.18375056962E+04  0.25500000920E-02 0. -1.
    10030    2    1    2    0    0  0.00000000000E+00  0.00000000000E+00 -0.61137300239E+03  0.30636383900E+04  0.30020165284E+04 0.  0.
        1    1    3    3  502    0 -0.72642809532E+03  0.67446683919E+03 -0.14559531152E+04  0.17613638944E+04  0.50400001928E-02 0. -1.
       -1    1    3    3    0  502  0.72642809532E+03 -0.67446683919E+03  0.84458011285E+03  0.13022744956E+04  0.50400001928E-02 0.  1.
</event>
<event>
 5   0  0.7208273E-07  0.3009288E+04  0.7818609E-02  0.8241083E-01
       -2   -1    0    0    0  501  0.00000000000E+00  0.00000000000E+00  0.16344611742E+04  0.16344611742E+04  0.25500000920E-02 0. -1.
        2   -1    0    0  501    0  0.00000000000E+00  0.00000000000E+00 -0.13851380102E+04  0.13851380102E+04  0.25500000920E-02 0.  1.
    10030    2    1    2    0    0  0.00000000000E+00  0.00000000000E+00  0.24932316392E+03  0.30195991844E+04  0.30092884864E+04 0.  0.
        4    1    3    3  502    0 -0.13198906506E+04  0.59987888592E+03  0.52851626747E+03  0.15431451860E+04  0.12699999809E+01 0. -1.
       -4    1    3    3    0  502  0.13198906506E+04 -0.59987888592E+03 -0.27919310356E+03  0.14764539984E+04  0.12699999809E+01 0.  1.
</event>
<event>
 5   0  0.2679935E-07  0.2988262E+04  0.7818609E-02  0.8247091E-01
       -1   -1    0    0    0  501  0.00000000000E+00  0.00000000000E+00  0.12436438835E+04  0.12436438835E+04  0.50400001928E-02 0. -1.
        1   -1    0    0  501    0  0.00000000000E+00  0.00000000000E+00 -0.17950691656E+04  0.17950691656E+04  0.50400001928E-02 0.  1.
    10030    2    1    2    0    0  0.00000000000E+00  0.00000000000E+00 -0.55142528211E+03  0.30387130492E+04  0.29882615604E+04 0.  0.
        2    1    3    3  502    0  0.37359094753E+03  0.72230233345E+03 -0.15503245240E+04  0.17506561589E+04  0.25500000920E-02 0.  1.
       -2    1    3    3    0  502 -0.37359094753E+03 -0.72230233345E+03  0.99889924192E+03  0.12880568902E+04  0.25500000920E-02 0. -1.
</event>
<event>
 5   0  0.2792361E-07  0.2998928E+04  0.7818609E-02  0.8244037E-01
        1   -1    0    0  501    0  0.00000000000E+00  0.00000000000E+00  0.19612831194E+04  0.19612831194E+04  0.50400001928E-02 0.  1.
       -1   -1    0    0    0  501  0.00000000000E+00  0.00000000000E+00 -0.11463887937E+04  0.11463887937E+04  0.50400001928E-02 0. -1.
    10030    2    1    2    0    0  0.00000000000E+00  0.00000000000E+00  0.81489432575E+03  0.31076719131E+04  0.29989284682E+04 0.  0.
        4    1    3    3  502    0  0.17493859927E+03  0.14871408056E+04  0.32585133351E+03  0.15324398825E+04  0.12699999809E+01 0. -1.
       -4    1    3    3    0  502 -0.17493859927E+03 -0.14871408056E+04  0.48904299224E+03  0.15752320306E+04  0.12699999809E+01 0.  1.
</event>
<event>
 5   0  0.7399409E-07  0.2995133E+04  0.7818609E-02  0.8245122E-01
        2   -1    0    0  501    0  0.00000000000E+00  0.00000000000E+00  0.16249789178E+04  0.16249789178E+04  0.25500000920E-02 0.  1.
       -2   -1    0    0    0  501  0.00000000000E+00  0.00000000000E+00 -0.13801446288E+04  0.13801446288E+04  0.25500000920E-02 0. -1.
    10030    2    1    2    0    0  0.00000000000E+00  0.00000000000E+00  0.24483428902E+03  0.30051235465E+04  0.29951333361E+04 0.  0.
        3    1    3    3  502    0  0.55934989521E+02  0.26961330359E+03 -0.13545273973E+04  0.13822317232E+04  0.10100000352E+00 0. -1.
       -3    1    3    3    0  502 -0.55934989521E+02 -0.26961330359E+03  0.15993616863E+04  0.16228918233E+04  0.10100000352E+00 0.  1.
</event>
<event>
 5   0  0.2640081E-07  0.2995584E+04  0.7818609E-02  0.8244993E-01
        1   -1    0    0  501    0  0.00000000000E+00  0.00000000000E+00  0.81784516547E+03  0.81784516548E+03  0.50400001928E-02 0. -1.
       -1   -1    0    0    0  501  0.00000000000E+00  0.00000000000E+00 -0.27430380082E+04  0.27430380082E+04  0.50400001928E-02 0.  1.
    10030    2    1    2    0    0  0.00000000000E+00  0.00000000000E+00 -0.19251928427E+04  0.35608831737E+04  0.29955836652E+04 0.  0.
        1    1    3    3  502    0  0.13019725116E+04 -0.10540898537E+03 -0.91394618781E+02  0.13094260008E+04  0.50400001928E-02 0. -1.
       -1    1    3    3    0  502 -0.13019725116E+04  0.10540898537E+03 -0.18337982240E+04  0.22514571729E+04  0.50400001928E-02 0.  1.
</event>
<event>
 5   0  0.7399409E-07  0.2996890E+04  0.7818609E-02  0.8244620E-01
        2   -1    0    0  501    0  0.00000000000E+00  0.00000000000E+00  0.13165700060E+04  0.13165700060E+04  0.25500000920E-02 0. -1.
       -2   -1    0    0    0  501  0.00000000000E+00  0.00000000000E+00 -0.17054442696E+04  0.17054442696E+04  0.25500000920E-02 0.  1.
    10030    2    1    2    0    0  0.00000000000E+00  0.00000000000E+00 -0.38887426361E+03  0.30220142756E+04  0.29968895690E+04 0.  0.
        3    1    3    3  502    0 -0.10312503105E+04 -0.67359898050E+03  0.66601841071E+03  0.14002833010E+04  0.10100000352E+00 0. -1.
       -3    1    3    3    0  502  0.10312503105E+04  0.67359898050E+03 -0.10548926743E+04  0.16217309746E+04  0.10100000352E+00 0.  1.
</event>
<event>
 5   0  0.2679935E-07  0.2998478E+04  0.7818609E-02  0.8244166E-01
       -1   -1    0    0    0  501  0.00000000000E+00  0.00000000000E+00  0.27777756273E+04  0.27777756273E+04  0.50400001928E-02 0.  1.
        1   -1    0    0  501    0  0.00000000000E+00  0.00000000000E+00 -0.80917904929E+03  0.80917904931E+03  0.50400001928E-02 0. -1.
    10030    2    1    2    0    0  0.00000000000E+00  0.00000000000E+00  0.19685965780E+04  0.35869546766E+04  0.29984781749E+04 0.  0.
        2    1    3    3  502    0  0.66298423673E+03  0.95742337155E+03  0.21138033020E+04  0.24133735745E+04  0.25500000920E-02 0.  1.
       -2    1    3    3    0  502 -0.66298423673E+03 -0.95742337155E+03 -0.14520672399E+03  0.11735811021E+04  0.25500000920E-02 0. -1.
</event>
<event>
 5   0  0.7307508E-07  0.2996327E+04  0.7818609E-02  0.8244780E-01
       -2   -1    0    0    0  501  0.00000000000E+00  0.00000000000E+00  0.13701242244E+04  0.13701242244E+04  0.25500000920E-02 0. -1.
        2   -1    0    0  501    0  0.00000000000E+00  0.00000000000E+00 -0.16381682596E+04  0.16381682596E+04  0.25500000920E-02 0.  1.
    10030    2    1    2    0    0  0.00000000000E+00  0.00000000000E+00 -0.26804403517E+03  0.30082924840E+04  0.29963270957E+04 0.  0.
        1    1    3    3  502    0  0.17942597578E+03  0.11976661449E+04 -0.10195282974E+04  0.15830463748E+04  0.50400001928E-02 0.  1.
       -1    1    3    3    0  502 -0.17942597578E+03 -0.11976661449E+04  0.75148426226E+03  0.14252461092E+04  0.50400001928E-02 0. -1.
</event>
<event>
 5   0  0.7278657E-07  0.3010534E+04  0.7818609E-02  0.8240729E-01
        2   -1    0    0  501    0  0.00000000000E+00  0.00000000000E+00  0.95385966525E+03  0.95385966525E+03  0.25500000920E-02 0. -1.
       -2   -1    0    0    0  501  0.00000000000E+00  0.00000000000E+00 -0.23754312030E+04  0.23754312030E+04  0.25500000920E-02 0.  1.
    10030    2    1    2    0    0  0.00000000000E+00  0.00000000000E+00 -0.14215715378E+04  0.33292908683E+04  0.30105335156E+04 0.  0.
        2    1    3    3  502    0  0.95667727384E+03 -0.65002769295E+02 -0.19939749434E+04  0.22125534663E+04  0.25500000920E-02 0.  1.
       -2    1    3    3    0  502 -0.95667727384E+03  0.65002769295E+02  0.57240340560E+03  0.11167374020E+04  0.25500000920E-02 0. -1.
</event>
<event>
 5   0  0.2414250E-07  0.3006970E+04  0.7818609E-02  0.8241743E-01
        3   -1    0    0  501    0  0.00000000000E+00  0.00000000000E+00  0.19642962678E+04  0.19642962704E+04  0.10100000352E+00 0.  1.
       -3   -1    0    0    0  501  0.00000000000E+00  0.00000000000E+00 -0.11507771779E+04  0.11507771823E+04  0.10100000352E+00 0. -1.
    10030    2    1    2    0    0  0.00000000000E+00  0.00000000000E+00  0.81351908992E+03  0.31150734527E+04  0.30069701206E+04 0.  0.
        3    1    3    3  502    0  0.91232008725E+03  0.42744625917E+02  0.16439782816E+04  0.18806434126E+04  0.10100000352E+00 0.  1.
       -3    1    3    3    0  502 -0.91232008725E+03 -0.42744625917E+02 -0.83045919170E+03  0.12344300401E+04  0.10100000352E+00 0. -1.
</event>
<event>
 5   0  0.2792361E-07  0.2945058E+04  0.7818609E-02  0.8259596E-01
        1   -1    0    0  501    0  0.00000000000E+00  0.00000000000E+00  0.12104553556E+04  0.12104553556E+04  0.50400001928E-02 0.  1.
       -1   -1    0    0    0  501  0.00000000000E+00  0.00000000000E+00 -0.17913439589E+04  0.17913439589E+04  0.50400001928E-02 0. -1.
    10030    2    1    2    0    0  0.00000000000E+00  0.00000000000E+00 -0.58088860327E+03  0.30017993145E+04  0.29450581582E+04 0.  0.
        4    1    3    3  502    0 -0.34752010339E+03 -0.11662059457E+04  0.55470762958E+03  0.13373513739E+04  0.12699999809E+01 0.  1.
       -4    1    3    3    0  502  0.34752010339E+03  0.11662059457E+04 -0.11355962329E+04  0.16644479406E+04  0.12699999809E+01 0. -1.
</event>
<event>
 5   0  0.7208273E-07  0.3002435E+04  0.7818609E-02  0.8243036E-01
       -2   -1    0    0    0  501  0.00000000000E+00  0.00000000000E+00  0.14406854464E+04  0.14406854464E+04  0.25500000920E-02 0.  1.
        2   -1    0    0  501    0  0.00000000000E+00  0.00000000000E+00 -0.15642928267E+04  0.15642928267E+04  0.25500000920E-02 0. -1.
    10030    2    1    2    0    0  0.00000000000E+00  0.00000000000E+00 -0.12360738027E+03  0.30049782731E+04  0.30024349513E+04 0.  0.
        4    1    3    3  502    0  0.14538854662E+04 -0.36312443271E+03 -0.15137807202E+03  0.15061737072E+04  0.12699999809E+01 0. -1.
       -4    1    3    3    0  502 -0.14538854662E+04  0.36312443271E+03  0.27770691747E+02  0.14988045659E+04  0.12699999809E+01 0.  1.
</event>
<event>
 5   0  0.7585823E-07  0.2955137E+04  0.7818609E-02  0.8256659E-01
       -2   -1    0    0    0  501  0.00000000000E+00  0.00000000000E+00  0.11735039198E+04  0.11735039198E+04  0.25500000920E-02 0. -1.
        2   -1    0    0  501    0  0.00000000000E+00  0.00000000000E+00 -0.18604183837E+04  0.18604183837E+04  0.25500000920E-02 0.  1.
    10030    2    1    2    0    0  0.00000000000E+00  0.00000000000E+00 -0.68691446393E+03  0.30339223035E+04  0.29551367249E+04 0.  0.
        5    1    3    3  502    0 -0.11013956458E+04 -0.14301824217E+03  0.65702839640E+03  0.12904398436E+04  0.46999998093E+01 0. -1.
       -5    1    3    3    0  502  0.11013956458E+04  0.14301824217E+03 -0.13439428603E+04  0.17434824599E+04  0.46999998093E+01 0.  1.
</event>
<event>
 5   0  0.2640081E-07  0.2996989E+04  0.7818609E-02  0.8244591E-01
        1   -1    0    0  501    0  0.00000000000E+00  0.00000000000E+00  0.14617404253E+04  0.14617404253E+04  0.50400001928E-02 0.  1.
       -1   -1    0    0    0  501  0.00000000000E+00  0.00000000000E+00 -0.15361730033E+04  0.15361730033E+04  0.50400001928E-02 0. -1.
    10030    2    1    2    0    0  0.00000000000E+00  0.00000000000E+00 -0.74432578066E+02  0.29979134286E+04  0.29969892754E+04 0.  0.
        1    1    3    3  502    0 -0.35092797275E+03 -0.11335546353E+04  0.87815584374E+03  0.14762297379E+04  0.50400001928E-02 0.  1.
       -1    1    3    3    0  502  0.35092797275E+03  0.11335546353E+04 -0.95258842180E+03  0.15216836907E+04  0.50400001928E-02 0. -1.
</event>
<event>
 5   0  0.7208273E-07  0.3003400E+04  0.7818609E-02  0.8242761E-01
       -2   -1    0    0    0  501  0.00000000000E+00  0.00000000000E+00  0.21232145960E+04  0.21232145960E+04  0.25500000920E-02 0.  1.
        2   -1    0    0  501    0  0.00000000000E+00  0.00000000000E+00 -0.10621175819E+04  0.10621175819E+04  0.25500000920E-02 0. -1.
    10030    2    1    2    0    0  0.00000000000E+00  0.00000000000E+00  0.10610970141E+04  0.31853321779E+04  0.30034004411E+04 0.  0.
        4    1    3    3  502    0 -0.81869843390E+03  0.11843752268E+04  0.98311739913E+03  0.17434257188E+04  0.12699999809E+01 0.  1.
       -4    1    3    3    0  502  0.81869843390E+03 -0.11843752268E+04  0.77979615005E+02  0.14419064591E+04  0.12699999809E+01 0. -1.
</event>
<event>
 5   0  0.2621825E-07  0.2997751E+04  0.7818609E-02  0.8244373E-01
        1   -1    0    0  501    0  0.00000000000E+00  0.00000000000E+00  0.20367121152E+04  0.20367121152E+04  0.50400001928E-02 0.  1.
       -1   -1    0    0    0  501  0.00000000000E+00  0.00000000000E+00 -0.11030659365E+04  0.11030659365E+04  0.50400001928E-02 0. -1.
    10030    2    1    2    0    0  0.00000000000E+00  0.00000000000E+00  0.93364617866E+03  0.31397780517E+04  0.29977509949E+04 0.  0.
        3    1    3    3  502    0 -0.70668785652E+03  0.53811464203E+03 -0.79771063741E+03  0.11938665611E+04  0.10100000352E+00 0. -1.
       -3    1    3    3    0  502  0.70668785652E+03 -0.53811464203E+03  0.17313568161E+04  0.19459114906E+04  0.10100000352E+00 0.  1.
</event>
<event>
 5   0  0.2679935E-07  0.2982766E+04  0.7818609E-02  0.8248669E-01
       -1   -1    0    0    0  501  0.00000000000E+00  0.00000000000E+00  0.10581505414E+04  0.10581505414E+04  0.50400001928E-02 0. -1.
        1   -1    0    0  501    0  0.00000000000E+00  0.00000000000E+00 -0.21019916145E+04  0.21019916145E+04  0.50400001928E-02 0.  1.
    10030    2    1    2    0    0  0.00000000000E+00  0.00000000000E+00 -0.10438410731E+04  0.31601421560E+04  0.29827662094E+04 0.  0.
        2    1    3    3  502    0 -0.10421010937E+04  0.86572417872E+03  0.13867261759E+03  0.13618675185E+04  0.25500000920E-02 0. -1.
       -2    1    3    3    0  502  0.10421010937E+04 -0.86572417872E+03 -0.11825136907E+04  0.17982746375E+04  0.25500000920E-02 0.  1.
</event>
<event>
 5   0  0.2679935E-07  0.3000377E+04  0.7818609E-02  0.8243623E-01
        1   -1    0    0  501    0  0.00000000000E+00  0.00000000000E+00  0.14439172087E+04  0.14439172087E+04  0.50400001928E-02 0. -1.
       -1   -1    0    0    0  501  0.00000000000E+00  0.00000000000E+00 -0.15586524768E+04  0.15586524768E+04  0.50400001928E-02 0.  1.
    10030    2    1    2    0    0  0.00000000000E+00  0.00000000000E+00 -0.11473526814E+03  0.30025696855E+04  0.30003767321E+04 0.  0.
        2    1    3    3  502    0 -0.28013967463E+03 -0.12070318456E+04 -0.90365766350E+03  0.15336235804E+04  0.25500000920E-02 0. -1.
       -2    1    3    3    0  502  0.28013967463E+03  0.12070318456E+04  0.78892239536E+03  0.14689461050E+04  0.25500000920E-02 0.  1.
</event>
<event>
 5   0  0.2640081E-07  0.2996165E+04  0.7818609E-02  0.8244827E-01
        1   -1    0    0  501    0  0.00000000000E+00  0.00000000000E+00  0.24871020491E+04  0.24871020491E+04  0.50400001928E-02 0.  1.
       -1   -1    0    0    0  501  0.00000000000E+00  0.00000000000E+00 -0.90235608851E+03  0.90235608853E+03  0.50400001928E-02 0. -1.
    10030    2    1    2    0    0  0.00000000000E+00  0.00000000000E+00  0.15847459606E+04  0.33894581376E+04  0.29961653337E+04 0.  0.
        1    1    3    3  502    0 -0.14435807803E+04  0.20113608302E+03  0.40070269147E+03  0.15116030696E+04  0.50400001928E-02 0. -1.
       -1    1    3    3    0  502  0.14435807803E+04 -0.20113608302E+03  0.11840432691E+04  0.18778550680E+04  0.50400001928E-02 0.  1.
</event>
<event>
 5   0  0.2602891E-07  0.2994465E+04  0.7818609E-02  0.8245313E-01
       -1   -1    0    0    0  501  0.00000000000E+00  0.00000000000E+00  0.17502892388E+04  0.17502892388E+04  0.50400001928E-02 0. -1.
        1   -1    0    0  501    0  0.00000000000E+00  0.00000000000E+00 -0.12807624355E+04  0.12807624355E+04  0.50400001928E-02 0.  1.
    10030    2    1    2    0    0  0.00000000000E+00  0.00000000000E+00  0.46952680333E+03  0.30310516743E+04  0.29944646990E+04 0.  0.
        5    1    3    3  502    0 -0.46626261597E+03 -0.46703446959E+03  0.15951186120E+04  0.17262524436E+04  0.46999998093E+01 0. -1.
       -5    1    3    3    0  502  0.46626261597E+03  0.46703446959E+03 -0.11255918086E+04  0.13047992307E+04  0.46999998093E+01 0.  1.
</event>
<event>
 5   0  0.2679935E-07  0.3000164E+04  0.7818609E-02  0.8243684E-01
       -1   -1    0    0    0  501  0.00000000000E+00  0.00000000000E+00  0.15653540520E+04  0.15653540520E+04  0.50400001928E-02 0.  1.
        1   -1    0    0  501    0  0.00000000000E+00  0.00000000000E+00 -0.14375314418E+04  0.14375314418E+04  0.50400001928E-02 0. -1.
    10030    2    1    2    0    0  0.00000000000E+00  0.00000000000E+00  0.12782261019E+03  0.30028854938E+04  0.30001637737E+04 0.  0.
        2    1    3    3  502    0  0.89107204576E+03  0.12064030362E+04  0.92712236217E+02  0.15026687044E+04  0.25500000920E-02 0. -1.
       -2    1    3    3    0  502 -0.89107204576E+03 -0.12064030362E+04  0.35110373973E+02  0.15002167893E+04  0.25500000920E-02 0.  1.
</event>
<event>
 5   0  0.7208273E-07  0.3000938E+04  0.7818609E-02  0.8243463E-01
        2   -1    0    0  501    0  0.00000000000E+00  0.00000000000E+00  0.28029214781E+04  0.28029214781E+04  0.25500000920E-02 0.  1.
       -2   -1    0    0    0  501  0.00000000000E+00  0.00000000000E+00 -0.80323574451E+03  0.80323574451E+03  0.25500000920E-02 0. -1.
    10030    2    1    2    0    0  0.00000000000E+00  0.00000000000E+00  0.19996857336E+04  0.36061572226E+04  0.30009376670E+04 0.  0.
        4    1    3    3  502    0 -0.81508411791E+02 -0.12278372859E+03 -0.79451681052E+03  0.80807056641E+03  0.12699999809E+01 0. -1.
       -4    1    3    3    0  502  0.81508411791E+02  0.12278372859E+03  0.27942025441E+04  0.27980866562E+04  0.12699999809E+01 0.  1.
</event>
<event>
 5   0  0.7208273E-07  0.2999922E+04  0.7818609E-02  0.8243753E-01
        2   -1    0    0  501    0  0.00000000000E+00  0.00000000000E+00  0.80393633859E+03  0.80393633860E+03  0.25500000920E-02 0. -1.
       -2   -1    0    0    0  501  0.00000000000E+00  0.00000000000E+00 -0.27985829320E+04  0.27985829320E+04  0.25500000920E-02 0.  1.
    10030    2    1    2    0    0  0.00000000000E+00  0.00000000000E+00 -0.19946465934E+04  0.36025192706E+04  0.29999216761E+04 0.  0.
        4    1    3    3  502    0 -0.35516989568E+03 -0.15868805344E+03  0.74230476174E+03  0.83806057377E+03  0.12699999809E+01 0. -1.
       -4    1    3    3    0  502  0.35516989568E+03  0.15868805344E+03 -0.27369513552E+04  0.27644586968E+04  0.12699999809E+01 0.  1.
</event>
<event>
 5   0  0.7307508E-07  0.3001963E+04  0.7818609E-02  0.8243170E-01
        2   -1    0    0  501    0  0.00000000000E+00  0.00000000000E+00  0.14282367827E+04  0.14282367827E+04  0.25500000920E-02 0. -1.
       -2   -1    0    0    0  501  0.00000000000E+00  0.00000000000E+00 -0.15774316532E+04  0.15774316532E+04  0.25500000920E-02 0.  1.
    10030    2    1    2    0    0  0.00000000000E+00  0.00000000000E+00 -0.14919487045E+03  0.30056684359E+04  0.30019632971E+04 0.  0.
        1    1    3    3  502    0  0.79908152606E+03  0.73174664817E+03 -0.11146101765E+04  0.15544581976E+04  0.50400001928E-02 0.  1.
       -1    1    3    3    0  502 -0.79908152606E+03 -0.73174664817E+03  0.96541530609E+03  0.14512102383E+04  0.50400001928E-02 0. -1.
</event>
<event>
 5   0  0.2792361E-07  0.2998037E+04  0.7818609E-02  0.8244292E-01
       -1   -1    0    0    0  501  0.00000000000E+00  0.00000000000E+00  0.13540056275E+04  0.13540056275E+04  0.50400001928E-02 0.  1.
        1   -1    0    0  501    0  0.00000000000E+00  0.00000000000E+00 -0.16595620603E+04  0.16595620603E+04  0.50400001928E-02 0. -1.
    10030    2    1    2    0    0  0.00000000000E+00  0.00000000000E+00 -0.30555643281E+03  0.30135676879E+04  0.29980369370E+04 0.  0.
        4    1    3    3  502    0 -0.33714935531E+03 -0.26085745453E+03 -0.15973515287E+04  0.16532543115E+04  0.12699999809E+01 0. -1.
       -4    1    3    3    0  502  0.33714935531E+03  0.26085745453E+03  0.12917950959E+04  0.13603133764E+04  0.12699999809E+01 0.  1.
</event>
<event>
 5   0  0.2792361E-07  0.2996109E+04  0.7818609E-02  0.8244843E-01
       -1   -1    0    0    0  501  0.00000000000E+00  0.00000000000E+00  0.20772228806E+04  0.20772228806E+04  0.50400001928E-02 0. -1.
        1   -1    0    0  501    0  0.00000000000E+00  0.00000000000E+00 -0.10803689552E+04  0.10803689552E+04  0.50400001928E-02 0.  1.
    10030    2    1    2    0    0  0.00000000000E+00  0.00000000000E+00  0.99685392536E+03  0.31575918358E+04  0.29961088853E+04 0.  0.
        4    1    3    3  502    0  0.14454221381E+04  0.36023769558E+03  0.33129480607E+03  0.15260321805E+04  0.12699999809E+01 0. -1.
       -4    1    3    3    0  502 -0.14454221381E+04 -0.36023769558E+03  0.66555911929E+03  0.16315596553E+04  0.12699999809E+01 0.  1.
</event>
<event>
 5   0  0.7585823E-07  0.3001824E+04  0.7818609E-02  0.8243210E-01
       -2   -1    0    0    0  501  0.00000000000E+00  0.00000000000E+00  0.21018106656E+04  0.21018106656E+04  0.25500000920E-02 0. -1.
        2   -1    0    0  501    0  0.00000000000E+00  0.00000000000E+00 -0.10718075542E+04  0.10718075542E+04  0.25500000920E-02 0.  1.
    10030    2    1    2    0    0  0.00000000000E+00  0.00000000000E+00  0.10300031114E+04  0.31736182198E+04  0.30018238116E+04 0.  0.
        5    1    3    3  502    0 -0.38379087759E+03  0.80236586070E+03 -0.76316637391E+03  0.11719775665E+04  0.46999998093E+01 0.  1.
       -5    1    3    3    0  502  0.38379087759E+03 -0.80236586070E+03  0.17931694853E+04  0.20016406533E+04  0.46999998093E+01 0. -1.
</event>
<event>
 5   0  0.2602891E-07  0.2995628E+04  0.7818609E-02  0.8244981E-01
       -1   -1    0    0    0  501  0.00000000000E+00  0.00000000000E+00  0.13032887974E+04  0.13032887974E+04  0.50400001928E-02 0. -1.
        1   -1    0    0  501    0  0.00000000000E+00  0.00000000000E+00 -0.17213730107E+04  0.17213730107E+04  0.50400001928E-02 0.  1.
    10030    2    1    2    0    0  0.00000000000E+00  0.00000000000E+00 -0.41808421329E+03  0.30246618081E+04  0.29956275876E+04 0.  0.
        5    1    3    3  502    0  0.42511232261E+03 -0.12452598213E+04  0.51345708742E+03  0.14124633729E+04  0.46999998093E+01 0. -1.
       -5    1    3    3    0  502 -0.42511232261E+03  0.12452598213E+04 -0.93154130071E+03  0.16121984351E+04  0.46999998093E+01 0.  1.
</event>
<event>
 5   0  0.2414250E-07  0.2997280E+04  0.7818609E-02  0.8244508E-01
       -3   -1    0    0    0  501  0.00000000000E+00  0.00000000000E+00  0.21481629918E+04  0.21481629942E+04  0.10100000352E+00 0. -1.
        3   -1    0    0  501    0  0.00000000000E+00  0.00000000000E+00 -0.10455083722E+04  0.10455083771E+04  0.10100000352E+00 0.  1.
    10030    2    1    2    0    0  0.00000000000E+00  0.00000000000E+00  0.11026546196E+04  0.31936713712E+04  0.29972803702E+04 0.  0.
        2    1    3    3  502    0 -0.53542547875E+03 -0.13854399341E+04  0.33876106588E+03  0.15234445556E+04  0.25500000920E-02 0.  1.
       -2    1    3    3    0  502  0.53542547875E+03  0.13854399341E+04  0.76389355371E+03  0.16702268156E+04  0.25500000920E-02 0. -1.
</event>
<event>
 5   0  0.7278657E-07  0.3010274E+04  0.7818609E-02  0.8240803E-01
       -2   -1    0    0    0  501  0.00000000000E+00  0.00000000000E+00  0.28940797042E+04  0.28940797042E+04  0.25500000920E-02 0. -1.
        2   -1    0    0  501    0  0.00000000000E+00  0.00000000000E+00 -0.78278318660E+03  0.78278318660E+03  0.25500000920E-02 0.  1.
    10030    2    1    2    0    0  0.00000000000E+00  0.00000000000E+00  0.21112965176E+04  0.36768628908E+04  0.30102736973E+04 0.  0.
        2    1    3    3  502    0  0.14483446346E+03  0.76116999526E+02  0.28831849891E+04  0.28878238348E+04  0.25500000920E-02 0. -1.
       -2    1    3    3    0  502 -0.14483446346E+03 -0.76116999526E+02 -0.77188847152E+03  0.78903905600E+03  0.25500000920E-02 0.  1.
</event>
<event>
 5   0  0.2621825E-07  0.3005478E+04  0.7818609E-02  0.8242168E-01
        1   -1    0    0  501    0  0.00000000000E+00  0.00000000000E+00  0.14894106990E+04  0.14894106990E+04  0.50400001928E-02 0. -1.
       -1   -1    0    0    0  501  0.00000000000E+00  0.00000000000E+00 -0.15161866210E+04  0.15161866211E+04  0.50400001928E-02 0.  1.
    10030    2    1    2    0    0  0.00000000000E+00  0.00000000000E+00 -0.26775922062E+02  0.30055973200E+04  0.30054780485E+04 0.  0.
        3    1    3    3  502    0 -0.77961580052E+03 -0.10847837797E+04  0.67487471799E+03  0.14966671441E+04  0.10100000352E+00 0. -1.
       -3    1    3    3    0  502  0.77961580052E+03  0.10847837797E+04 -0.70165064005E+03  0.15089301760E+04  0.10100000352E+00 0.  1.
</event>
<event>
 5   0  0.7399409E-07  0.2999056E+04  0.7818609E-02  0.8244000E-01
        2   -1    0    0  501    0  0.00000000000E+00  0.00000000000E+00  0.22324209573E+04  0.22324209573E+04  0.25500000920E-02 0. -1.
       -2   -1    0    0    0  501  0.00000000000E+00  0.00000000000E+00 -0.10072403110E+04  0.10072403110E+04  0.25500000920E-02 0.  1.
    10030    2    1    2    0    0  0.00000000000E+00  0.00000000000E+00  0.12251806463E+04  0.32396612683E+04  0.29990561044E+04 0.  0.
        3    1    3    3  502    0  0.24644484788E+03 -0.13833520932E+04  0.46953228522E+02  0.14059170291E+04  0.10100000352E+00 0.  1.
       -3    1    3    3    0  502 -0.24644484788E+03  0.13833520932E+04  0.11782274178E+04  0.18337442393E+04  0.10100000352E+00 0. -1.
</event>
<event>
 5   0  0.7208273E-07  0.2992755E+04  0.7818609E-02  0.8245803E-01
        2   -1    0    0  501    0  0.00000000000E+00  0.00000000000E+00  0.16729117816E+04  0.16729117816E+04  0.25500000920E-02 0.  1.
       -2   -1    0    0    0  501  0.00000000000E+00  0.00000000000E+00 -0.13384717589E+04  0.13384717589E+04  0.25500000920E-02 0. -1.
    10030    2    1    2    0    0  0.00000000000E+00  0.00000000000E+00  0.33444002262E+03  0.30113835405E+04  0.29927547008E+04 0.  0.
        4    1    3    3  502    0 -0.12430470262E+04 -0.51591811112E+03 -0.49092025884E+03  0.14325996371E+04  0.12699999809E+01 0. -1.
       -4    1    3    3    0  502  0.12430470262E+04  0.51591811112E+03  0.82536028146E+03  0.15787839034E+04  0.12699999809E+01 0.  1.
</event>
<event>
 5   0  0.7208273E-07  0.3002669E+04  0.7818609E-02  0.8242969E-01
        2   -1    0    0  501    0  0.00000000000E+00  0.00000000000E+00  0.24026912982E+04  0.24026912982E+04  0.25500000920E-02 0.  1.
       -2   -1    0    0    0  501  0.00000000000E+00  0.00000000000E+00 -0.93811671786E+03  0.93811671786E+03  0.25500000920E-02 0. -1.
    10030    2    1    2    0    0  0.00000000000E+00  0.00000000000E+00  0.14645745803E+04  0.33408080160E+04  0.30026687294E+04 0.  0.
        4    1    3    3  502    0  0.34613428741E+03  0.95466837851E+03 -0.49804458384E+03  0.11310396449E+04  0.12699999809E+01 0. -1.
       -4    1    3    3    0  502 -0.34613428741E+03 -0.95466837851E+03  0.19626191642E+04  0.22097683712E+04  0.12699999809E+01 0.  1.
</event>
<event>
 5   0  0.2679935E-07  0.2998112E+04  0.7818609E-02  0.8244270E-01
       -1   -1    0    0    0  501  0.00000000000E+00  0.00000000000E+00  0.12645500024E+04  0.12645500024E+04  0.50400001928E-02 0.  1.
        1   -1    0    0  501    0  0.00000000000E+00  0.00000000000E+00 -0.17770507504E+04  0.17770507504E+04  0.50400001928E-02 0. -1.
    10030    2    1    2    0    0  0.00000000000E+00  0.00000000000E+00 -0.51250074805E+03  0.30416007528E+04  0.29981124266E+04 0.  0.
        2    1    3    3  502    0 -0.37665745960E+03 -0.19324855018E+03 -0.17151475937E+04  0.17666202513E+04  0.25500000920E-02 0. -1.
       -2    1    3    3    0  502  0.37665745960E+03  0.19324855018E+03  0.12026468456E+04  0.12749805016E+04  0.25500000920E-02 0.  1.
</event>
<event>
 5   0  0.7307508E-07  0.3001154E+04  0.7818609E-02  0.8243401E-01
       -2   -1    0    0    0  501  0.00000000000E+00  0.00000000000E+00  0.11364484302E+04  0.11364484302E+04  0.25500000920E-02 0. -1.
        2   -1    0    0  501    0  0.00000000000E+00  0.00000000000E+00 -0.19813757489E+04  0.19813757489E+04  0.25500000920E-02 0.  1.
    10030    2    1    2    0    0  0.00000000000E+00  0.00000000000E+00 -0.84492731870E+03  0.31178241791E+04  0.30011540177E+04 0.  0.
        1    1    3    3  502    0  0.75276953762E+03  0.84210665304E+03 -0.14487575164E+04  0.18370367262E+04  0.50400001928E-02 0.  1.
       -1    1    3    3    0  502 -0.75276953762E+03 -0.84210665304E+03  0.60383019772E+03  0.12807874529E+04  0.50400001928E-02 0. -1.
</event>
<event>
 5   0  0.2640081E-07  0.3000360E+04  0.7818609E-02  0.8243628E-01
        1   -1    0    0  501    0  0.00000000000E+00  0.00000000000E+00  0.13410637950E+04  0.13410637950E+04  0.50400001928E-02 0.  1.
       -1   -1    0    0    0  501  0.00000000000E+00  0.00000000000E+00 -0.16781750260E+04  0.16781750260E+04  0.50400001928E-02 0. -1.
    10030    2    1    2    0    0  0.00000000000E+00  0.00000000000E+00 -0.33711123100E+03  0.30192388210E+04  0.30003598245E+04 0.  0.
        1    1    3    3  502    0 -0.11216997825E+04  0.19358142734E+03 -0.11518713186E+04  0.16194109132E+04  0.50400001928E-02 0. -1.
       -1    1    3    3    0  502  0.11216997825E+04 -0.19358142734E+03  0.81476008759E+03  0.13998279078E+04  0.50400001928E-02 0.  1.
</event>
<event>
 5   0  0.2602891E-07  0.3005949E+04  0.7818609E-02  0.8242034E-01
       -1   -1    0    0    0  501  0.00000000000E+00  0.00000000000E+00  0.10606914938E+04  0.10606914938E+04  0.50400001928E-02 0.  1.
        1   -1    0    0  501    0  0.00000000000E+00  0.00000000000E+00 -0.21296791174E+04  0.21296791174E+04  0.50400001928E-02 0. -1.
    10030    2    1    2    0    0  0.00000000000E+00  0.00000000000E+00 -0.10689876236E+04  0.31903706112E+04  0.30059491175E+04 0.  0.
        5    1    3    3  502    0 -0.87096637395E+03  0.18692696854E+03 -0.18192939580E+04  0.20256793210E+04  0.46999998093E+01 0. -1.
       -5    1    3    3    0  502  0.87096637395E+03 -0.18692696854E+03  0.75030633431E+03  0.11646912902E+04  0.46999998093E+01 0.  1.
</event>
<event>
 5   0  0.7307508E-07  0.3030897E+04  0.7818609E-02  0.8234963E-01
        2   -1    0    0  501    0  0.00000000000E+00  0.00000000000E+00  0.22128663901E+04  0.22128663901E+04  0.25500000920E-02 0. -1.
       -2   -1    0    0    0  501  0.00000000000E+00  0.00000000000E+00 -0.10378324833E+04  0.10378324833E+04  0.25500000920E-02 0.  1.
    10030    2    1    2    0    0  0.00000000000E+00  0.00000000000E+00  0.11750339068E+04  0.32506988734E+04  0.30308973067E+04 0.  0.
        1    1    3    3  502    0  0.45311164994E+03  0.70949204190E+03 -0.76398437654E+03  0.11368206774E+04  0.50400001928E-02 0.  1.
       -1    1    3    3    0  502 -0.45311164994E+03 -0.70949204190E+03  0.19390182833E+04  0.21138781961E+04  0.50400001928E-02 0. -1.
</event>
<event>
 5   0  0.2602891E-07  0.3001306E+04  0.7818609E-02  0.8243358E-01
        1   -1    0    0  501    0  0.00000000000E+00  0.00000000000E+00  0.18436145895E+04  0.18436145895E+04  0.50400001928E-02 0. -1.
       -1   -1    0    0    0  501  0.00000000000E+00  0.00000000000E+00 -0.12214917975E+04  0.12214917975E+04  0.50400001928E-02 0.  1.
    10030    2    1    2    0    0  0.00000000000E+00  0.00000000000E+00  0.62212279201E+03  0.30651063871E+04  0.30013064482E+04 0.  0.
        5    1    3    3  502    0 -0.14347934847E+04 -0.43524134346E+03  0.37459836606E+03  0.15454492540E+04  0.46999998093E+01 0.  1.
       -5    1    3    3    0  502  0.14347934847E+04  0.43524134346E+03  0.24752442595E+03  0.15196571331E+04  0.46999998093E+01 0. -1.
</event>
<event>
 5   0  0.2621825E-07  0.3001467E+04  0.7818609E-02  0.8243312E-01
       -1   -1    0    0    0  501  0.00000000000E+00  0.00000000000E+00  0.13795873718E+04  0.13795873718E+04  0.50400001928E-02 0. -1.
        1   -1    0    0  501    0  0.00000000000E+00  0.00000000000E+00 -0.16325177601E+04  0.16325177601E+04  0.50400001928E-02 0.  1.
    10030    2    1    2    0    0  0.00000000000E+00  0.00000000000E+00 -0.25293038831E+03  0.30121051318E+04  0.30014668987E+04 0.  0.
        3    1    3    3  502    0  0.13416854713E+03 -0.13939668342E+04  0.41494315881E+03  0.14605898018E+04  0.10100000352E+00 0. -1.
       -3    1    3    3    0  502 -0.13416854713E+03  0.13939668342E+04 -0.66787354713E+03  0.15515153300E+04  0.10100000352E+00 0.  1.
</event>
<event>
 5   0  0.2792361E-07  0.3004129E+04  0.7818609E-02  0.8242553E-01
       -1   -1    0    0    0  501  0.00000000000E+00  0.00000000000E+00  0.13137512205E+04  0.13137512205E+04  0.50400001928E-02 0. -1.
        1   -1    0    0  501    0  0.00000000000E+00  0.00000000000E+00 -0.17173707865E+04  0.17173707865E+04  0.50400001928E-02 0.  1.
    10030    2    1    2    0    0  0.00000000000E+00  0.00000000000E+00 -0.40361956600E+03  0.30311220070E+04  0.30041291362E+04 0.  0.
        4    1    3    3  502    0  0.20899211835E+03  0.93749115355E+03  0.96339520007E+03  0.13604040918E+04  0.12699999809E+01 0. -1.
       -4    1    3    3    0  502 -0.20899211835E+03 -0.93749115355E+03 -0.13670147661E+04  0.16707179152E+04  0.12699999809E+01 0.  1.
</event>
<event>
 5   0  0.7585823E-07  0.2999109E+04  0.7818609E-02  0.8243985E-01
       -2   -1    0    0    0  501  0.00000000000E+00  0.00000000000E+00  0.10872048456E+04  0.10872048456E+04  0.25500000920E-02 0.  1.
        2   -1    0    0  501    0  0.00000000000E+00  0.00000000000E+00 -0.20682983112E+04  0.20682983112E+04  0.25500000920E-02 0. -1.
    10030    2    1    2    0    0  0.00000000000E+00  0.00000000000E+00 -0.98109346563E+03  0.31555031569E+04  0.29991091652E+04 0.  0.
        5    1    3    3  502    0 -0.43119279859E+03  0.13052419506E+04  0.13991494767E+03  0.13817315448E+04  0.46999998093E+01 0.  1.
       -5    1    3    3    0  502  0.43119279859E+03 -0.13052419506E+04 -0.11210084133E+04  0.17737716121E+04  0.46999998093E+01 0. -1.
</event>
<event>
 5   0  0.7307508E-07  0.3012013E+04  0.7818609E-02  0.8240309E-01
        2   -1    0    0  501    0  0.00000000000E+00  0.00000000000E+00  0.25473979708E+04  0.25473979708E+04  0.25500000920E-02 0.  1.
       -2   -1    0    0    0  501  0.00000000000E+00  0.00000000000E+00 -0.89034229874E+03  0.89034229874E+03  0.25500000920E-02 0. -1.
    10030    2    1    2    0    0  0.00000000000E+00  0.00000000000E+00  0.16570556721E+04  0.34377402696E+04  0.30120133898E+04 0.  0.
        1    1    3    3  502    0  0.29702018190E+03  0.10364118961E+04  0.20286680325E+04  0.22973603533E+04  0.50400001928E-02 0.  1.
       -1    1    3    3    0  502 -0.29702018190E+03 -0.10364118961E+04 -0.37161236042E+03  0.11403799162E+04  0.50400001928E-02 0. -1.
</event>
<event>
 5   0  0.2679935E-07  0.2996228E+04  0.7818609E-02  0.8244809E-01
       -1   -1    0    0    0  501  0.00000000000E+00  0.00000000000E+00  0.11249537007E+04  0.11249537008E+04  0.50400001928E-02 0.  1.
        1   -1    0    0  501    0  0.00000000000E+00  0.00000000000E+00 -0.19950561975E+04  0.19950561975E+04  0.50400001928E-02 0. -1.
    10030    2    1    2    0    0  0.00000000000E+00  0.00000000000E+00 -0.87010249674E+03  0.31200098983E+04  0.29962281973E+04 0.  0.
        2    1    3    3  502    0  0.81461569294E+03  0.12569849966E+04 -0.46329834747E+03  0.15678824470E+04  0.25500000920E-02 0. -1.
       -2    1    3    3    0  502 -0.81461569294E+03 -0.12569849966E+04 -0.40680414927E+03  0.15521274512E+04  0.25500000920E-02 0.  1.
</event>
<event>
 5   0  0.2602891E-07  0.2997103E+04  0.7818609E-02  0.8244559E-01
       -1   -1    0    0    0  501  0.00000000000E+00  0.00000000000E+00  0.13095282264E+04  0.13095282264E+04  0.50400001928E-02 0.  1.
        1   -1    0    0  501    0  0.00000000000E+00  0.00000000000E+00 -0.17148592529E+04  0.17148592529E+04  0.50400001928E-02 0. -1.
    10030    2    1    2    0    0  0.00000000000E+00  0.00000000000E+00 -0.40533102649E+03  0.30243874794E+04  0.29971029986E+04 0.  0.
        5    1    3    3  502    0  0.63696275693E+03 -0.13103787174E+04  0.15098257627E+03  0.14647975168E+04  0.46999998093E+01 0.  1.
       -5    1    3    3    0  502 -0.63696275693E+03  0.13103787174E+04 -0.55631360276E+03  0.15595899626E+04  0.46999998093E+01 0. -1.
</event>
<event>
 5   0  0.7399409E-07  0.3006774E+04  0.7818609E-02  0.8241799E-01
       -2   -1    0    0    0  501  0.00000000000E+00  0.00000000000E+00  0.10560895106E+04  0.10560895106E+04  0.25500000920E-02 0.  1.
        2   -1    0    0  501    0  0.00000000000E+00  0.00000000000E+00 -0.21401333677E+04  0.21401333677E+04  0.25500000920E-02 0. -1.
    10030    2    1    2    0    0  0.00000000000E+00  0.00000000000E+00 -0.10840438570E+04  0.31962228783E+04  0.30067739528E+04 0.  0.
        3    1    3    3  502    0 -0.14249908171E+04  0.47882083817E+03 -0.52348268059E+03  0.15918235929E+04  0.10100000352E+00 0.  1.
       -3    1    3    3    0  502  0.14249908171E+04 -0.47882083817E+03 -0.56056117646E+03  0.16043992853E+04  0.10100000352E+00 0. -1.
</event>
<event>
 5   0  0.7307508E-07  0.2995185E+04  0.7818609E-02  0.8245107E-01
        2   -1    0    0  501    0  0.00000000000E+00  0.00000000000E+00  0.21828178512E+04  0.21828178512E+04  0.25500000920E-02 0. -1.
       -2   -1    0    0    0  501  0.00000000000E+00  0.00000000000E+00 -0.10274718766E+04  0.10274718766E+04  0.25500000920E-02 0.  1.
    10030    2    1    2    0    0  0.00000000000E+00  0.00000000000E+00  0.11553459746E+04  0.32102897278E+04  0.29951854392E+04 0.  0.
        1    1    3    3  502    0 -0.30749416770E+02  0.41950991653E+03 -0.96285605661E+03  0.10507263595E+04  0.50400001928E-02 0.  1.
       -1    1    3    3    0  502  0.30749416770E+02 -0.41950991653E+03  0.21182020312E+04  0.21595633683E+04  0.50400001928E-02 0. -1.
</event>
<event>
 5   0  0.2414250E-07  0.2996920E+04  0.7818609E-02  0.8244611E-01
        3   -1    0    0  501    0  0.00000000000E+00  0.00000000000E+00  0.96267529441E+03  0.96267529971E+03  0.10100000352E+00 0. -1.
       -3   -1    0    0    0  501  0.00000000000E+00  0.00000000000E+00 -0.23324400233E+04  0.23324400255E+04  0.10100000352E+00 0.  1.
    10030    2    1    2    0    0  0.00000000000E+00  0.00000000000E+00 -0.13697647289E+04  0.32951153252E+04  0.29969200179E+04 0.  0.
        4    1    3    3  502    0  0.24982241148E+03  0.44500605433E+03  0.86418058392E+03  0.10036191111E+04  0.12699999809E+01 0. -1.
       -4    1    3    3    0  502 -0.24982241148E+03 -0.44500605433E+03 -0.22339453128E+04  0.22914962141E+04  0.12699999809E+01 0.  1.
</event>
<event>
 5   0  0.2679935E-07  0.2990310E+04  0.7818609E-02  0.8246503E-01
        1   -1    0    0  501    0  0.00000000000E+00  0.00000000000E+00  0.15760394167E+04  0.15760394167E+04  0.50400001928E-02 0.  1.
       -1   -1    0    0    0  501  0.00000000000E+00  0.00000000000E+00 -0.14184217500E+04  0.14184217500E+04  0.50400001928E-02 0. -1.
    10030    2    1    2    0    0  0.00000000000E+00  0.00000000000E+00  0.15761766666E+03  0.29944611667E+04  0.29903100759E+04 0.  0.
        2    1    3    3  502    0  0.49528440381E+03 -0.12672221576E+04 -0.54199526578E+03  0.14645536882E+04  0.25500000920E-02 0. -1.
       -2    1    3    3    0  502 -0.49528440381E+03  0.12672221576E+04  0.69961293244E+03  0.15299074785E+04  0.25500000920E-02 0.  1.
</event>
<event>
 5   0  0.2602891E-07  0.3002157E+04  0.7818609E-02  0.8243115E-01
        1   -1    0    0  501    0  0.00000000000E+00  0.00000000000E+00  0.10665361220E+04  0.10665361220E+04  0.50400001928E-02 0.  1.
       -1   -1    0    0    0  501  0.00000000000E+00  0.00000000000E+00 -0.21126673315E+04  0.21126673315E+04  0.50400001928E-02 0. -1.
    10030    2    1    2    0    0  0.00000000000E+00  0.00000000000E+00 -0.10461312095E+04  0.31792034535E+04  0.30021565734E+04 0.  0.
        5    1    3    3  502    0 -0.15531073313E+03  0.94024581896E+03  0.70508328062E+03  0.11854738068E+04  0.46999998093E+01 0.  1.
       -5    1    3    3    0  502  0.15531073313E+03 -0.94024581896E+03 -0.17512144901E+04  0.19937296468E+04  0.46999998093E+01 0. -1.
</event>
<event>
 5   0  0.2679935E-07  0.3000116E+04  0.7818609E-02  0.8243698E-01
        1   -1    0    0  501    0  0.00000000000E+00  0.00000000000E+00  0.14881146334E+04  0.14881146334E+04  0.50400001928E-02 0.  1.
       -1   -1    0    0    0  501  0.00000000000E+00  0.00000000000E+00 -0.15120975600E+04  0.15120975600E+04  0.50400001928E-02 0. -1.
    10030    2    1    2    0    0  0.00000000000E+00  0.00000000000E+00 -0.23982926572E+02  0.30002121933E+04  0.30001163351E+04 0.  0.
        2    1    3    3  502    0 -0.89508730107E+03  0.76379952203E+03 -0.94239934977E+03  0.15075435386E+04  0.25500000920E-02 0. -1.
       -2    1    3    3    0  502  0.89508730107E+03 -0.76379952203E+03  0.91841642320E+03  0.14926686547E+04  0.25500000920E-02 0.  1.
</event>
<event>
 5   0  0.2602891E-07  0.2998010E+04  0.7818609E-02  0.8244299E-01
       -1   -1    0    0    0  501  0.00000000000E+00  0.00000000000E+00  0.13707346660E+04  0.13707346660E+04  0.50400001928E-02 0.  1.
        1   -1    0    0  501    0  0.00000000000E+00  0.00000000000E+00 -0.16392784959E+04  0.16392784959E+04  0.50400001928E-02 0. -1.
    10030    2    1    2    0    0  0.00000000000E+00  0.00000000000E+00 -0.26854382988E+03  0.30100131620E+04  0.29980099144E+04 0.  0.
        5    1    3    3  502    0  0.14614055507E+04 -0.10114265324E+03  0.18489667573E+03  0.14765313714E+04  0.46999998093E+01 0.  1.
       -5    1    3    3    0  502 -0.14614055507E+04  0.10114265324E+03 -0.45344050560E+03  0.15334817906E+04  0.46999998093E+01 0. -1.
</event>
<event>
 5   0  0.2679935E-07  0.3033314E+04  0.7818609E-02  0.8234281E-01
       -1   -1    0    0    0  501  0.00000000000E+00  0.00000000000E+00  0.11040527732E+04  0.11040527732E+04  0.50400001928E-02 0.  1.
        1   -1    0    0  501    0  0.00000000000E+00  0.00000000000E+00 -0.20834591103E+04  0.20834591103E+04  0.50400001928E-02 0. -1.
    10030    2    1    2    0    0  0.00000000000E+00  0.00000000000E+00 -0.97940633714E+03  0.31875118835E+04  0.30333142327E+04 0.  0.
        2    1    3    3  502    0 -0.15077198145E+04  0.14886893565E+03 -0.56301957911E+03  0.16162834051E+04  0.25500000920E-02 0. -1.
       -2    1    3    3    0  502  0.15077198145E+04 -0.14886893565E+03 -0.41638675803E+03  0.15712284784E+04  0.25500000920E-02 0.  1.
</event>
<event>
 5   0  0.7399409E-07  0.3004754E+04  0.7818609E-02  0.8242375E-01
        2   -1    0    0  501    0  0.00000000000E+00  0.00000000000E+00  0.23336359053E+04  0.23336359053E+04  0.25500000920E-02 0.  1.
       -2   -1    0    0    0  501  0.00000000000E+00  0.00000000000E+00 -0.96721859768E+03  0.96721859768E+03  0.25500000920E-02 0. -1.
    10030    2    1    2    0    0  0.00000000000E+00  0.00000000000E+00  0.13664173077E+04  0.33008545030E+04  0.30047535991E+04 0.  0.
        3    1    3    3  502    0  0.18785450798E+03  0.34034046775E+02 -0.95383903157E+03  0.97275718494E+03  0.10100000352E+00 0. -1.
       -3    1    3    3    0  502 -0.18785450798E+03 -0.34034046775E+02  0.23202563392E+04  0.23280973181E+04  0.10100000352E+00 0.  1.
</event>
<event>
 5   0  0.7278657E-07  0.2997326E+04  0.7818609E-02  0.8244495E-01
       -2   -1    0    0    0  501  0.00000000000E+00  0.00000000000E+00  0.11074398168E+04  0.11074398168E+04  0.25500000920E-02 0.  1.
        2   -1    0    0  501    0  0.00000000000E+00  0.00000000000E+00 -0.20280922783E+04  0.20280922783E+04  0.25500000920E-02 0. -1.
    10030    2    1    2    0    0  0.00000000000E+00  0.00000000000E+00 -0.92065246154E+03  0.31355320951E+04  0.29973255686E+04 0.  0.
        2    1    3    3  502    0  0.13014126172E+04  0.45028665571E+03 -0.10788216689E+04  0.17493681904E+04  0.25500000920E-02 0.  1.
       -2    1    3    3    0  502 -0.13014126172E+04 -0.45028665571E+03  0.15816920734E+03  0.13861639046E+04  0.25500000920E-02 0. -1.
</event>
<event>
 5   0  0.7307508E-07  0.3015361E+04  0.7818609E-02  0.8239358E-01
       -2   -1    0    0    0  501  0.00000000000E+00  0.00000000000E+00  0.10907541727E+04  0.10907541728E+04  0.25500000920E-02 0. -1.
        2   -1    0    0  501    0  0.00000000000E+00  0.00000000000E+00 -0.20839715196E+04  0.20839715196E+04  0.25500000920E-02 0.  1.
    10030    2    1    2    0    0  0.00000000000E+00  0.00000000000E+00 -0.99321734681E+03  0.31747256923E+04  0.30153610934E+04 0.  0.
        1    1    3    3  502    0 -0.16365104712E+03 -0.69732098936E+03 -0.18933980161E+04  0.20243503340E+04  0.50400001928E-02 0.  1.
       -1    1    3    3    0  502  0.16365104712E+03  0.69732098936E+03  0.90018066933E+03  0.11503753583E+04  0.50400001928E-02 0. -1.
</event>
<event>
 5   0  0.2679935E-07  0.2996727E+04  0.7818609E-02  0.8244666E-01
        1   -1    0    0  501    0  0.00000000000E+00  0.00000000000E+00  0.14205292600E+04  0.14205292600E+04  0.50400001928E-02 0. -1.
       -1   -1    0    0    0  501  0.00000000000E+00  0.00000000000E+00 -0.15804629149E+04  0.15804629149E+04  0.50400001928E-02 0.  1.
    10030    2    1    2    0    0  0.00000000000E+00  0.00000000000E+00 -0.15993365495E+03  0.30009921749E+04  0.29967274250E+04 0.  0.
        2    1    3    3  502    0 -0.11072578893E+04 -0.91257932964E+03  0.35224065611E+03  0.14774621978E+04  0.25500000920E-02 0. -1.
       -2    1    3    3    0  502  0.11072578893E+04  0.91257932964E+03 -0.51217431106E+03  0.15235299771E+04  0.25500000920E-02 0.  1.
</event>
<event>
 5   0  0.7208273E-07  0.3007662E+04  0.7818609E-02  0.8241546E-01
        2   -1    0    0  501    0  0.00000000000E+00  0.00000000000E+00  0.16459938050E+04  0.16459938050E+04  0.25500000920E-02 0. -1.
       -2   -1    0    0    0  501  0.00000000000E+00  0.00000000000E+00 -0.13739465458E+04  0.13739465458E+04  0.25500000920E-02 0.  1.
    10030    2    1    2    0    0  0.00000000000E+00  0.00000000000E+00  0.27204725920E+03  0.30199403507E+04  0.30076618844E+04 0.  0.
        4    1    3    3  502    0  0.77672884515E+03  0.11509208053E+04  0.71594488050E+03  0.15622116002E+04  0.12699999809E+01 0. -1.
       -4    1    3    3    0  502 -0.77672884515E+03 -0.11509208053E+04 -0.44389762130E+03  0.14577287505E+04  0.12699999809E+01 0.  1.
</event>
<event>
 5   0  0.2640081E-07  0.3000099E+04  0.7818609E-02  0.8243703E-01
        1   -1    0    0  501    0  0.00000000000E+00  0.00000000000E+00  0.23966668803E+04  0.23966668804E+04  0.50400001928E-02 0. -1.
       -1   -1    0    0    0  501  0.00000000000E+00  0.00000000000E+00 -0.93886598563E+03  0.93886598564E+03  0.50400001928E-02 0.  1.
    10030    2    1    2    0    0  0.00000000000E+00  0.00000000000E+00  0.14578008947E+04  0.33355328660E+04  0.30000993403E+04 0.  0.
        1    1    3    3  502    0  0.63128063398E+03 -0.87983287670E+02 -0.78082304501E+03  0.10079389492E+04  0.50400001928E-02 0.  1.
       -1    1    3    3    0  502 -0.63128063398E+03  0.87983287670E+02  0.22386239397E+04  0.23275939168E+04  0.50400001928E-02 0. -1.
</event>
<event>
 5   0  0.2792361E-07  0.2987955E+04  0.7818609E-02  0.8247179E-01
        1   -1    0    0  501    0  0.00000000000E+00  0.00000000000E+00  0.18521185276E+04  0.18521185276E+04  0.50400001928E-02 0.  1.
       -1   -1    0    0    0  501  0.00000000000E+00  0.00000000000E+00 -0.12050895757E+04  0.12050895757E+04  0.50400001928E-02 0. -1.
    10030    2    1    2    0    0  0.00000000000E+00  0.00000000000E+00  0.64702895198E+03  0.30572081033E+04  0.29879549733E+04 0.  0.
        4    1    3    3  502    0 -0.71917556703E+03 -0.12049596351E+04  0.84806223136E+03  0.16396195838E+04  0.12699999809E+01 0.  1.
       -4    1    3    3    0  502  0.71917556703E+03  0.12049596351E+04 -0.20103327939E+03  0.14175885195E+04  0.12699999809E+01 0. -1.
</event>
<event>
 5   0  0.7399409E-07  0.2994845E+04  0.7818609E-02  0.8245204E-01
        2   -1    0    0  501    0  0.00000000000E+00  0.00000000000E+00  0.78087397674E+03  0.78087397674E+03  0.25500000920E-02 0.  1.
       -2   -1    0    0    0  501  0.00000000000E+00  0.00000000000E+00 -0.28714934413E+04  0.28714934413E+04  0.25500000920E-02 0. -1.
    10030    2    1    2    0    0  0.00000000000E+00  0.00000000000E+00 -0.20906194645E+04  0.36523674180E+04  0.29948452399E+04 0.  0.
        3    1    3    3  502    0  0.40977923169E+03 -0.56090762151E+03  0.57248752644E+03  0.90015462934E+03  0.10100000352E+00 0.  1.
       -3    1    3    3    0  502 -0.40977923169E+03  0.56090762151E+03 -0.26631069910E+04  0.27522127887E+04  0.10100000352E+00 0. -1.
</event>
<event>
 5   0  0.2602891E-07  0.3002141E+04  0.7818609E-02  0.8243120E-01
        1   -1    0    0  501    0  0.00000000000E+00  0.00000000000E+00  0.95972393044E+03  0.95972393045E+03  0.50400001928E-02 0.  1.
       -1   -1    0    0    0  501  0.00000000000E+00  0.00000000000E+00 -0.23477714773E+04  0.23477714773E+04  0.50400001928E-02 0. -1.
    10030    2    1    2    0    0  0.00000000000E+00  0.00000000000E+00 -0.13880475468E+04  0.33074954077E+04  0.30021408828E+04 0.  0.
        5    1    3    3  502    0 -0.42871975828E+03  0.10877526356E+04  0.34309888325E+03  0.12185012766E+04  0.46999998093E+01 0.  1.
       -5    1    3    3    0  502  0.42871975828E+03 -0.10877526356E+04 -0.17311464301E+04  0.20889941311E+04  0.46999998093E+01 0. -1.
</event>
<event>
 5   0  0.7399409E-07  0.3005990E+04  0.7818609E-02  0.8242022E-01
        2   -1    0    0  501    0  0.00000000000E+00  0.00000000000E+00  0.20442744104E+04  0.20442744104E+04  0.25500000920E-02 0.  1.
       -2   -1    0    0    0  501  0.00000000000E+00  0.00000000000E+00 -0.11050347914E+04  0.11050347914E+04  0.25500000920E-02 0. -1.
    10030    2    1    2    0    0  0.00000000000E+00  0.00000000000E+00  0.93923961908E+03  0.31493092018E+04  0.30059902506E+04 0.  0.
        3    1    3    3  502    0 -0.12132578116E+04  0.35147414406E+03 -0.38374943526E+03  0.13201485638E+04  0.10100000352E+00 0. -1.
       -3    1    3    3    0  502  0.12132578116E+04 -0.35147414406E+03  0.13229890543E+04  0.18291606380E+04  0.10100000352E+00 0.  1.
</event>
<event>
 5   0  0.2792361E-07  0.3000052E+04  0.7818609E-02  0.8243716E-01
       -1   -1    0    0    0  501  0.00000000000E+00  0.00000000000E+00  0.72261478954E+03  0.72261478956E+03  0.50400001928E-02 0. -1.
        1   -1    0    0  501    0  0.00000000000E+00  0.00000000000E+00 -0.31138009792E+04  0.31138009792E+04  0.50400001928E-02 0.  1.
    10030    2    1    2    0    0  0.00000000000E+00  0.00000000000E+00 -0.23911861896E+04  0.38364157687E+04  0.30000524257E+04 0.  0.
        4    1    3    3  502    0 -0.49685235826E+03  0.60399373363E+03 -0.28324383807E+04  0.29384314675E+04  0.12699999809E+01 0.  1.
       -4    1    3    3    0  502  0.49685235826E+03 -0.60399373363E+03  0.44125219106E+03  0.89798430119E+03  0.12699999809E+01 0. -1.
</event>
<event>
 5   0  0.2602891E-07  0.2953286E+04  0.7818609E-02  0.8257198E-01
       -1   -1    0    0    0  501  0.00000000000E+00  0.00000000000E+00  0.15184625951E+04  0.15184625952E+04  0.50400001928E-02 0.  1.
        1   -1    0    0  501    0  0.00000000000E+00  0.00000000000E+00 -0.14359751321E+04  0.14359751322E+04  0.50400001928E-02 0. -1.
    10030    2    1    2    0    0  0.00000000000E+00  0.00000000000E+00  0.82487463000E+02  0.29544377273E+04  0.29532859839E+04 0.  0.
        5    1    3    3  502    0 -0.71105825296E+03  0.36895751739E+03 -0.11996911346E+04  0.14425721463E+04  0.46999998093E+01 0. -1.
       -5    1    3    3    0  502  0.71105825296E+03 -0.36895751739E+03  0.12821785976E+04  0.15118655810E+04  0.46999998093E+01 0.  1.
</event>
<event>
 5   0  0.7585823E-07  0.2992760E+04  0.7818609E-02  0.8245801E-01
        2   -1    0    0  501    0  0.00000000000E+00  0.00000000000E+00  0.25023417110E+04  0.25023417110E+04  0.25500000920E-02 0. -1.
       -2   -1    0    0    0  501  0.00000000000E+00  0.00000000000E+00 -0.89482312096E+03  0.89482312096E+03  0.25500000920E-02 0.  1.
    10030    2    1    2    0    0  0.00000000000E+00  0.00000000000E+00  0.16075185901E+04  0.33971648320E+04  0.29927600770E+04 0.  0.
        5    1    3    3  502    0  0.10077805239E+04 -0.45926855714E+03 -0.33848712572E+03  0.11580780700E+04  0.46999998093E+01 0.  1.
       -5    1    3    3    0  502 -0.10077805239E+04  0.45926855714E+03  0.19460057158E+04  0.22390867620E+04  0.46999998093E+01 0. -1.
</event>
<event>
 5   0  0.2640081E-07  0.3000368E+04  0.7818609E-02  0.8243626E-01
        1   -1    0    0  501    0  0.00000000000E+00  0.00000000000E+00  0.18261258221E+04  0.18261258221E+04  0.50400001928E-02 0. -1.
       -1   -1    0    0    0  501  0.00000000000E+00  0.00000000000E+00 -0.12324185974E+04  0.12324185975E+04  0.50400001928E-02 0.  1.
    10030    2    1    2    0    0  0.00000000000E+00  0.00000000000E+00  0.59370722469E+03  0.30585444196E+04  0.30003675938E+04 0.  0.
        1    1    3    3  502    0  0.12754046809E+04 -0.40686187716E+03 -0.39329498474E+03  0.13953044944E+04  0.50400001928E-02 0.  1.
       -1    1    3    3    0  502 -0.12754046809E+04  0.40686187716E+03  0.98700220942E+03  0.16632399252E+04  0.50400001928E-02 0. -1.
</event>
<event>
 5   0  0.7585823E-07  0.3000883E+04  0.7818609E-02  0.8243479E-01
       -2   -1    0    0    0  501  0.00000000000E+00  0.00000000000E+00  0.83376876825E+03  0.83376876825E+03  0.25500000920E-02 0. -1.
        2   -1    0    0  501    0  0.00000000000E+00  0.00000000000E+00 -0.27001788506E+04  0.27001788506E+04  0.25500000920E-02 0.  1.
    10030    2    1    2    0    0  0.00000000000E+00  0.00000000000E+00 -0.18664100823E+04  0.35339476188E+04  0.30008830662E+04 0.  0.
        5    1    3    3  502    0  0.88692003326E+03  0.10252185072E+04 -0.16905655401E+04  0.21669642517E+04  0.46999998093E+01 0.  1.
       -5    1    3    3    0  502 -0.88692003326E+03 -0.10252185072E+04 -0.17584454222E+03  0.13669833671E+04  0.46999998093E+01 0. -1.
</event>
<event>
 5   0  0.2679935E-07  0.3001158E+04  0.7818609E-02  0.8243400E-01
        1   -1    0    0  501    0  0.00000000000E+00  0.00000000000E+00  0.12837895708E+04  0.12837895708E+04  0.50400001928E-02 0. -1.
       -1   -1    0    0    0  501  0.00000000000E+00  0.00000000000E+00 -0.17539770667E+04  0.17539770667E+04  0.50400001928E-02 0.  1.
    10030    2    1    2    0    0  0.00000000000E+00  0.00000000000E+00 -0.47018749590E+03  0.30377666375E+04  0.30011580869E+04 0.  0.
        2    1    3    3  502    0 -0.11173906292E+04 -0.70386326204E+03  0.48616554782E+03  0.14072463358E+04  0.25500000920E-02 0. -1.
       -2    1    3    3    0  502  0.11173906292E+04  0.70386326204E+03 -0.95635304372E+03  0.16305203016E+04  0.25500000920E-02 0.  1.
</event>
<event>
 5   0  0.2621825E-07  0.2999731E+04  0.7818609E-02  0.8243808E-01
        1   -1    0    0  501    0  0.00000000000E+00  0.00000000000E+00  0.78467519559E+03  0.78467519560E+03  0.50400001928E-02 0.  1.
       -1   -1    0    0    0  501  0.00000000000E+00  0.00000000000E+00 -0.28669149103E+04  0.28669149103E+04  0.50400001928E-02 0. -1.
    10030    2    1    2    0    0  0.00000000000E+00  0.00000000000E+00 -0.20822397147E+04  0.36515901059E+04  0.29997313333E+04 0.  0.
        3    1    3    3  502    0  0.61595718654E+00 -0.11399651913E+04  0.14541044464E+03  0.11492019946E+04  0.10100000352E+00 0.  1.
       -3    1    3    3    0  502 -0.61595718654E+00  0.11399651913E+04 -0.22276501593E+04  0.25023881113E+04  0.10100000352E+00 0. -1.
</event>
<event>
 5   0  0.2602891E-07  0.3000593E+04  0.7818609E-02  0.8243561E-01
       -1   -1    0    0    0  501  0.00000000000E+00  0.00000000000E+00  0.89549818021E+03  0.89549818023E+03  0.50400001928E-02 0.  1.
        1   -1    0    0  501    0  0.00000000000E+00  0.00000000000E+00 -0.25135620221E+04  0.25135620221E+04  0.50400001928E-02 0. -1.
    10030    2    1    2    0    0  0.00000000000E+00  0.00000000000E+00 -0.16180638419E+04  0.34090602023E+04  0.30005934191E+04 0.  0.
        5    1    3    3  502    0 -0.11365606693E+04 -0.58588923112E+03 -0.17006083266E+04  0.21277046591E+04  0.46999998093E+01 0. -1.
       -5    1    3    3    0  502  0.11365606693E+04  0.58588923112E+03  0.82544484672E+02  0.12813555432E+04  0.46999998093E+01 0.  1.
</event>
<event>
 5   0  0.7278657E-07  0.2997685E+04  0.7818609E-02  0.8244392E-01
        2   -1    0    0  501    0  0.00000000000E+00  0.00000000000E+00  0.11532941827E+04  0.11532941827E+04  0.25500000920E-02 0.  1.
       -2   -1    0    0    0  501  0.00000000000E+00  0.00000000000E+00 -0.19479238791E+04  0.19479238791E+04  0.25500000920E-02 0. -1.
    10030    2    1    2    0    0  0.00000000000E+00  0.00000000000E+00 -0.79462969643E+03  0.31012180619E+04  0.29976852925E+04 0.  0.
        2    1    3    3  502    0 -0.55410686555E+03  0.52212265705E+03 -0.17329837023E+04  0.18928494394E+04  0.25500000920E-02 0. -1.
       -2    1    3    3    0  502  0.55410686555E+03 -0.52212265705E+03  0.93835400592E+03  0.12083686225E+04  0.25500000920E-02 0.  1.
</event>
<event>
 5   0  0.7307508E-07  0.2997699E+04  0.7818609E-02  0.8244388E-01
       -2   -1    0    0    0  501  0.00000000000E+00  0.00000000000E+00  0.13695431663E+04  0.13695431663E+04  0.25500000920E-02 0.  1.
        2   -1    0    0  501    0  0.00000000000E+00  0.00000000000E+00 -0.16403643766E+04  0.16403643766E+04  0.25500000920E-02 0. -1.
    10030    2    1    2    0    0  0.00000000000E+00  0.00000000000E+00 -0.27082121029E+03  0.30099075428E+04  0.29976989990E+04 0.  0.
        1    1    3    3  502    0  0.10540452502E+04 -0.11134513106E+03  0.92868883329E+03  0.14092097349E+04  0.50400001928E-02 0.  1.
       -1    1    3    3    0  502 -0.10540452502E+04  0.11134513106E+03 -0.11995100436E+04  0.16006978080E+04  0.50400001928E-02 0. -1.
</event>
<event>
 5   0  0.2640081E-07  0.3000625E+04  0.7818609E-02  0.8243552E-01
       -1   -1    0    0    0  501  0.00000000000E+00  0.00000000000E+00  0.11156141802E+04  0.11156141802E+04  0.50400001928E-02 0.  1.
        1   -1    0    0  501    0  0.00000000000E+00  0.00000000000E+00 -0.20176669212E+04  0.20176669213E+04  0.50400001928E-02 0. -1.
    10030    2    1    2    0    0  0.00000000000E+00  0.00000000000E+00 -0.90205274108E+03  0.31332811014E+04  0.30006251537E+04 0.  0.
        1    1    3    3  502    0  0.13218903216E+04 -0.90080323538E+02 -0.11860113699E+04  0.17782383014E+04  0.50400001928E-02 0. -1.
       -1    1    3    3    0  502 -0.13218903216E+04  0.90080323538E+02  0.28395862886E+03  0.13550428000E+04  0.50400001928E-02 0.  1.
</event>
<event>
 5   0  0.2621825E-07  0.3000997E+04  0.7818609E-02  0.8243446E-01
        1   -1    0    0  501    0  0.00000000000E+00  0.00000000000E+00  0.26965077301E+04  0.26965077301E+04  0.50400001928E-02 0.  1.
       -1   -1    0    0    0  501  0.00000000000E+00  0.00000000000E+00 -0.83496712048E+03  0.83496712049E+03  0.50400001928E-02 0. -1.
    10030    2    1    2    0    0  0.00000000000E+00  0.00000000000E+00  0.18615406096E+04  0.35314748506E+04  0.30009966976E+04 0.  0.
        3    1    3    3  502    0  0.13764753216E+04 -0.22973072814E+03  0.28190847935E+03  0.14237039438E+04  0.10100000352E+00 0. -1.
       -3    1    3    3    0  502 -0.13764753216E+04  0.22973072814E+03  0.15796321302E+04  0.21077709068E+04  0.10100000352E+00 0.  1.
</event>
<event>
 5   0  0.2621825E-07  0.2987779E+04  0.7818609E-02  0.8247229E-01
       -1   -1    0    0    0  501  0.00000000000E+00  0.00000000000E+00  0.18629916526E+04  0.18629916526E+04  0.50400001928E-02 0. -1.
        1   -1    0    0  501    0  0.00000000000E+00  0.00000000000E+00 -0.11979151616E+04  0.11979151616E+04  0.50400001928E-02 0.  1.
    10030    2    1    2    0    0  0.00000000000E+00  0.00000000000E+00  0.66507649107E+03  0.30609068142E+04  0.29877790725E+04 0.  0.
        3    1    3    3  502    0 -0.11419745125E+04  0.33949111856E+03 -0.59082403926E+03  0.13298244479E+04  0.10100000352E+00 0.  1.
       -3    1    3    3    0  502  0.11419745125E+04 -0.33949111856E+03  0.12559005303E+04  0.17310823663E+04  0.10100000352E+00 0. -1.
</event>
<event>
 5   0  0.2792361E-07  0.2994115E+04  0.7818609E-02  0.8245413E-01
       -1   -1    0    0    0  501  0.00000000000E+00  0.00000000000E+00  0.10048387269E+04  0.10048387269E+04  0.50400001928E-02 0.  1.
        1   -1    0    0  501    0  0.00000000000E+00  0.00000000000E+00 -0.22303888857E+04  0.22303888857E+04  0.50400001928E-02 0. -1.
    10030    2    1    2    0    0  0.00000000000E+00  0.00000000000E+00 -0.12255501588E+04  0.32352276126E+04  0.29941149800E+04 0.  0.
        4    1    3    3  502    0  0.91216346345E+03  0.21563125990E+03  0.64854994316E+03  0.11398059773E+04  0.12699999809E+01 0.  1.
       -4    1    3    3    0  502 -0.91216346345E+03 -0.21563125990E+03 -0.18741001020E+04  0.20954216352E+04  0.12699999809E+01 0. -1.
</event>
<event>
 5   0  0.7307508E-07  0.2995277E+04  0.7818609E-02  0.8245081E-01
        2   -1    0    0  501    0  0.00000000000E+00  0.00000000000E+00  0.17042624247E+04  0.17042624247E+04  0.25500000920E-02 0.  1.
       -2   -1    0    0    0  501  0.00000000000E+00  0.00000000000E+00 -0.13160651780E+04  0.13160651780E+04  0.25500000920E-02 0. -1.
    10030    2    1    2    0    0  0.00000000000E+00  0.00000000000E+00  0.38819724669E+03  0.30203276026E+04  0.29952765690E+04 0.  0.
        1    1    3    3  502    0 -0.14444672710E+04  0.25242312302E+03  0.50114043031E+03  0.15496273297E+04  0.50400001928E-02 0.  1.
       -1    1    3    3    0  502  0.14444672710E+04 -0.25242312302E+03 -0.11294318361E+03  0.14707002729E+04  0.50400001928E-02 0. -1.
</event>
<event>
 5   0  0.7399409E-07  0.2922890E+04  0.7818609E-02  0.8266099E-01
        2   -1    0    0  501    0  0.00000000000E+00  0.00000000000E+00  0.25606727812E+04  0.25606727812E+04  0.25500000920E-02 0. -1.
       -2   -1    0    0    0  501  0.00000000000E+00  0.00000000000E+00 -0.83408634652E+03  0.83408634653E+03  0.25500000920E-02 0.  1.
    10030    2    1    2    0    0  0.00000000000E+00  0.00000000000E+00  0.17265864347E+04  0.33947591277E+04  0.29228904904E+04 0.  0.
        3    1    3    3  502    0  0.11677909974E+04 -0.81455171336E+03  0.12460255135E+04  0.18920385561E+04  0.10100000352E+00 0.  1.
       -3    1    3    3    0  502 -0.11677909974E+04  0.81455171336E+03  0.48056092118E+03  0.15027205716E+04  0.10100000352E+00 0. -1.
</event>
<event>
 5   0  0.2621825E-07  0.2999734E+04  0.7818609E-02  0.8243807E-01
       -1   -1    0    0    0  501  0.00000000000E+00  0.00000000000E+00  0.13439994259E+04  0.13439994259E+04  0.50400001928E-02 0. -1.
        1   -1    0    0  501    0  0.00000000000E+00  0.00000000000E+00 -0.16738114466E+04  0.16738114466E+04  0.50400001928E-02 0.  1.
    10030    2    1    2    0    0  0.00000000000E+00  0.00000000000E+00 -0.32981202070E+03  0.30178108726E+04  0.29997344039E+04 0.  0.
        3    1    3    3  502    0  0.14600061699E+03  0.14216892209E+04  0.29290236935E+03  0.14588722456E+04  0.10100000352E+00 0. -1.
       -3    1    3    3    0  502 -0.14600061699E+03 -0.14216892209E+04 -0.62271439006E+03  0.15589386270E+04  0.10100000352E+00 0.  1.
</event>
<event>
 5   0  0.7208273E-07  0.3016073E+04  0.7818609E-02  0.8239156E-01
       -2   -1    0    0    0  501  0.00000000000E+00  0.00000000000E+00  0.14504992005E+04  0.14504992005E+04  0.25500000920E-02 0. -1.
        2   -1    0    0  501    0  0.00000000000E+00  0.00000000000E+00 -0.15678565321E+04  0.15678565321E+04  0.25500000920E-02 0.  1.
    10030    2    1    2    0    0  0.00000000000E+00  0.00000000000E+00 -0.11735733168E+03  0.30183557326E+04  0.30160733720E+04 0.  0.
        4    1    3    3  502    0 -0.10470689136E+04  0.22651120292E+03 -0.11208547249E+04  0.15504765597E+04  0.12699999809E+01 0.  1.
       -4    1    3    3    0  502  0.10470689136E+04 -0.22651120292E+03  0.10034973933E+04  0.14678791729E+04  0.12699999809E+01 0. -1.
</event>
<event>
 5   0  0.2621825E-07  0.2999695E+04  0.7818609E-02  0.8243818E-01
        1   -1    0    0  501    0  0.00000000000E+00  0.00000000000E+00  0.23423210596E+04  0.23423210596E+04  0.50400001928E-02 0. -1.
       -1   -1    0    0    0  501  0.00000000000E+00  0.00000000000E+00 -0.96039065514E+03  0.96039065515E+03  0.50400001928E-02 0.  1.
    10030    2    1    2    0    0  0.00000000000E+00  0.00000000000E+00  0.13819304044E+04  0.33027117147E+04  0.29996954892E+04 0.  0.
        3    1    3    3  502    0 -0.12173159988E+04 -0.12235219089E+01 -0.27371774719E+03  0.12477103643E+04  0.10100000352E+00 0.  1.
       -3    1    3    3    0  502  0.12173159988E+04  0.12235219089E+01  0.16556481516E+04  0.20550013504E+04  0.10100000352E+00 0. -1.
</event>
<event>
 5   0  0.2621825E-07  0.2996764E+04  0.7818609E-02  0.8244655E-01
       -1   -1    0    0    0  501  0.00000000000E+00  0.00000000000E+00  0.11852307497E+04  0.11852307497E+04  0.50400001928E-02 0.  1.
        1   -1    0    0  501    0  0.00000000000E+00  0.00000000000E+00 -0.18942719227E+04  0.18942719227E+04  0.50400001928E-02 0. -1.
    10030    2    1    2    0    0  0.00000000000E+00  0.00000000000E+00 -0.70904117296E+03  0.30795026724E+04  0.29967644759E+04 0.  0.
        3    1    3    3  502    0 -0.13102824105E+04  0.62143944736E+03  0.32878994279E+02  0.14505543838E+04  0.10100000352E+00 0. -1.
       -3    1    3    3    0  502  0.13102824105E+04 -0.62143944736E+03 -0.74192016724E+03  0.16289482885E+04  0.10100000352E+00 0.  1.
</event>
<event>
 5   0  0.7399409E-07  0.3000558E+04  0.7818609E-02  0.8243571E-01
        2   -1    0    0  501    0  0.00000000000E+00  0.00000000000E+00  0.12113180198E+04  0.12113180198E+04  0.25500000920E-02 0. -1.
       -2   -1    0    0    0  501  0.00000000000E+00  0.00000000000E+00 -0.18581723050E+04  0.18581723050E+04  0.25500000920E-02 0.  1.
    10030    2    1    2    0    0  0.00000000000E+00  0.00000000000E+00 -0.64685428522E+03  0.30694903249E+04  0.30005583461E+04 0.  0.
        3    1    3    3  502    0  0.10625395006E+04  0.10150478469E+04 -0.13945644868E+02  0.14695260505E+04  0.10100000352E+00 0. -1.
       -3    1    3    3    0  502 -0.10625395006E+04 -0.10150478469E+04 -0.63290864035E+03  0.15999642743E+04  0.10100000352E+00 0.  1.
</event>
<event>
 5   0  0.2792361E-07  0.2998737E+04  0.7818609E-02  0.8244092E-01
        1   -1    0    0  501    0  0.00000000000E+00  0.00000000000E+00  0.22757475825E+04  0.22757475825E+04  0.50400001928E-02 0.  1.
       -1   -1    0    0    0  501  0.00000000000E+00  0.00000000000E+00 -0.98785371019E+03  0.98785371020E+03  0.50400001928E-02 0. -1.
    10030    2    1    2    0    0  0.00000000000E+00  0.00000000000E+00  0.12878938723E+04  0.32636012927E+04  0.29987368627E+04 0.  0.
        4    1    3    3  502    0 -0.60776216346E+03 -0.86583494744E+03  0.18003708697E+04  0.20881527446E+04  0.12699999809E+01 0.  1.
       -4    1    3    3    0  502  0.60776216346E+03  0.86583494744E+03 -0.51247699736E+03  0.11754485481E+04  0.12699999809E+01 0. -1.
</event>
<event>
 5   0  0.2621825E-07  0.2996289E+04  0.7818609E-02  0.8244791E-01
       -1   -1    0    0    0  501  0.00000000000E+00  0.00000000000E+00  0.99108654226E+03  0.99108654227E+03  0.50400001928E-02 0.  1.
        1   -1    0    0  501    0  0.00000000000E+00  0.00000000000E+00 -0.22646231854E+04  0.22646231854E+04  0.50400001928E-02 0. -1.
    10030    2    1    2    0    0  0.00000000000E+00  0.00000000000E+00 -0.12735366431E+04  0.32557097276E+04  0.29962894135E+04 0.  0.
        3    1    3    3  502    0  0.72019905227E+03 -0.39819552850E+03 -0.19970313971E+04  0.21599492506E+04  0.10100000352E+00 0. -1.
       -3    1    3    3    0  502 -0.72019905227E+03  0.39819552850E+03  0.72349475401E+03  0.10957604771E+04  0.10100000352E+00 0.  1.
</event>
<event>
 5   0  0.7278657E-07  0.2999281E+04  0.7818609E-02  0.8243936E-01
        2   -1    0    0  501    0  0.00000000000E+00  0.00000000000E+00  0.20050953683E+04  0.20050953683E+04  0.25500000920E-02 0.  1.
       -2   -1    0    0    0  501  0.00000000000E+00  0.00000000000E+00 -0.11216031689E+04  0.11216031689E+04  0.25500000920E-02 0. -1.
    10030    2    1    2    0    0  0.00000000000E+00  0.00000000000E+00  0.88349219942E+03  0.31266985372E+04  0.29992807932E+04 0.  0.
        2    1    3    3  502    0  0.16763238936E+03  0.11926614693E+04 -0.48973387742E+03  0.13001466337E+04  0.25500000920E-02 0. -1.
       -2    1    3    3    0  502 -0.16763238936E+03 -0.11926614693E+04  0.13732260768E+04  0.18265519036E+04  0.25500000920E-02 0.  1.
</event>
<event>
 5   0  0.2640081E-07  0.2999417E+04  0.7818609E-02  0.8243897E-01
       -1   -1    0    0    0  501  0.00000000000E+00  0.00000000000E+00  0.11273983579E+04  0.11273983579E+04  0.50400001928E-02 0. -1.
        1   -1    0    0  501    0  0.00000000000E+00  0.00000000000E+00 -0.19949697272E+04  0.19949697272E+04  0.50400001928E-02 0.  1.
    10030    2    1    2    0    0  0.00000000000E+00  0.00000000000E+00 -0.86757136933E+03  0.31223680851E+04  0.29994170064E+04 0.  0.
        1    1    3    3  502    0 -0.49311974619E+03 -0.24969098321E+03 -0.18850687870E+04  0.19644329979E+04  0.50400001928E-02 0.  1.
       -1    1    3    3    0  502  0.49311974619E+03  0.24969098321E+03  0.10174974177E+04  0.11579350872E+04  0.50400001928E-02 0. -1.
</event>
<event>
 5   0  0.7307508E-07  0.3000130E+04  0.7818609E-02  0.8243694E-01
        2   -1    0    0  501    0  0.00000000000E+00  0.00000000000E+00  0.19944667485E+04  0.19944667485E+04  0.25500000920E-02 0. -1.
       -2   -1    0    0    0  501  0.00000000000E+00  0.00000000000E+00 -0.11282189098E+04  0.11282189098E+04  0.25500000920E-02 0.  1.
    10030    2    1    2    0    0  0.00000000000E+00  0.00000000000E+00  0.86624783871E+03  0.31226856583E+04  0.30001300642E+04 0.  0.
        1    1    3    3  502    0  0.80375611097E+03  0.48104739315E+03 -0.78638849159E+03  0.12230442920E+04  0.50400001928E-02 0.  1.
       -1    1    3    3    0  502 -0.80375611097E+03 -0.48104739315E+03  0.16526363303E+04  0.18996413663E+04  0.50400001928E-02 0. -1.
</event>
<event>
 5   0  0.2679935E-07  0.2998505E+04  0.7818609E-02  0.8244158E-01
        1   -1    0    0  501    0  0.00000000000E+00  0.00000000000E+00  0.13936256052E+04  0.13936256052E+04  0.50400001928E-02 0. -1.
       -1   -1    0    0    0  501  0.00000000000E+00  0.00000000000E+00 -0.16128854592E+04  0.16128854592E+04  0.50400001928E-02 0.  1.
    10030    2    1    2    0    0  0.00000000000E+00  0.00000000000E+00 -0.21925985403E+03  0.30065110644E+04  0.29985052771E+04 0.  0.
        2    1    3    3  502    0  0.17482726948E+03 -0.14885745915E+04 -0.72931857949E+02  0.15005792030E+04  0.25500000920E-02 0. -1.
       -2    1    3    3    0  502 -0.17482726948E+03  0.14885745915E+04 -0.14632799608E+03  0.15059318614E+04  0.25500000920E-02 0.  1.
</event>
<event>
 5   0  0.2792361E-07  0.2988274E+04  0.7818609E-02  0.8247087E-01
        1   -1    0    0  501    0  0.00000000000E+00  0.00000000000E+00  0.18204950973E+04  0.18204950973E+04  0.50400001928E-02 0.  1.
       -1   -1    0    0    0  501  0.00000000000E+00  0.00000000000E+00 -0.12262848184E+04  0.12262848184E+04  0.50400001928E-02 0. -1.
    10030    2    1    2    0    0  0.00000000000E+00  0.00000000000E+00  0.59421027891E+03  0.30467799157E+04  0.29882740837E+04 0.  0.
        4    1    3    3  502    0 -0.71338968217E+03 -0.86589133804E+03  0.13032132903E+04  0.17196101711E+04  0.12699999809E+01 0.  1.
       -4    1    3    3    0  502  0.71338968217E+03  0.86589133804E+03 -0.70900301134E+03  0.13271697446E+04  0.12699999809E+01 0. -1.
</event>
<event>
 5   0  0.7399409E-07  0.3023025E+04  0.7818609E-02  0.8237186E-01
        2   -1    0    0  501    0  0.00000000000E+00  0.00000000000E+00  0.22100472344E+04  0.22100472344E+04  0.25500000920E-02 0.  1.
       -2   -1    0    0    0  501  0.00000000000E+00  0.00000000000E+00 -0.10337655243E+04  0.10337655243E+04  0.25500000920E-02 0. -1.
    10030    2    1    2    0    0  0.00000000000E+00  0.00000000000E+00  0.11762817101E+04  0.32438127587E+04  0.30230253972E+04 0.  0.
        3    1    3    3  502    0 -0.80041743455E+02 -0.89448042216E+03  0.18927366849E+04  0.20949830727E+04  0.10100000352E+00 0.  1.
       -3    1    3    3    0  502  0.80041743455E+02  0.89448042216E+03 -0.71645497484E+03  0.11488296860E+04  0.10100000352E+00 0. -1.
</event>
<event>
 5   0  0.2621825E-07  0.3016088E+04  0.7818609E-02  0.8239152E-01
       -1   -1    0    0    0  501  0.00000000000E+00  0.00000000000E+00  0.27843119425E+04  0.27843119425E+04  0.50400001928E-02 0. -1.
        1   -1    0    0  501    0  0.00000000000E+00  0.00000000000E+00 -0.81678929075E+03  0.81678929077E+03  0.50400001928E-02 0.  1.
    10030    2    1    2    0    0  0.00000000000E+00  0.00000000000E+00  0.19675226517E+04  0.36011012333E+04  0.30160876491E+04 0.  0.
        3    1    3    3  502    0 -0.63284495781E+03  0.59145375484E+03 -0.49013723522E+03  0.99526117391E+03  0.10100000352E+00 0.  1.
       -3    1    3    3    0  502  0.63284495781E+03 -0.59145375484E+03  0.24576598870E+04  0.26058400594E+04  0.10100000352E+00 0. -1.
</event>
<event>
 5   0  0.7278657E-07  0.3005733E+04  0.7818609E-02  0.8242096E-01
        2   -1    0    0  501    0  0.00000000000E+00  0.00000000000E+00  0.13802664878E+04  0.13802664878E+04  0.25500000920E-02 0.  1.
       -2   -1    0    0    0  501  0.00000000000E+00  0.00000000000E+00 -0.16363557796E+04  0.16363557796E+04  0.25500000920E-02 0. -1.
    10030    2    1    2    0    0  0.00000000000E+00  0.00000000000E+00 -0.25608929179E+03  0.30166222675E+04  0.30057325528E+04 0.  0.
        2    1    3    3  502    0  0.58173112520E+03 -0.73318693284E+03  0.10520695521E+04  0.14081280208E+04  0.25500000920E-02 0.  1.
       -2    1    3    3    0  502 -0.58173112520E+03  0.73318693284E+03 -0.13081588439E+04  0.16084942466E+04  0.25500000920E-02 0. -1.
</event>
<event>
 5   0  0.7399409E-07  0.3005797E+04  0.7818609E-02  0.8242077E-01
        2   -1    0    0  501    0  0.00000000000E+00  0.00000000000E+00  0.19170919992E+04  0.19170919992E+04  0.25500000920E-02 0.  1.
       -2   -1    0    0    0  501  0.00000000000E+00  0.00000000000E+00 -0.11781928262E+04  0.11781928262E+04  0.25500000920E-02 0. -1.
    10030    2    1    2    0    0  0.00000000000E+00  0.00000000000E+00  0.73889917299E+03  0.30952848254E+04  0.30057970927E+04 0.  0.
        3    1    3    3  502    0  0.11140661723E+04 -0.12081491535E+03 -0.66184730063E+03  0.13014536256E+04  0.10100000352E+00 0. -1.
       -3    1    3    3    0  502 -0.11140661723E+04  0.12081491535E+03  0.14007464736E+04  0.17938311998E+04  0.10100000352E+00 0.  1.
</event>
<event>
 5   0  0.7278657E-07  0.2980768E+04  0.7818609E-02  0.8249244E-01
        2   -1    0    0  501    0  0.00000000000E+00  0.00000000000E+00  0.16209912490E+04  0.16209912490E+04  0.25500000920E-02 0.  1.
       -2   -1    0    0    0  501  0.00000000000E+00  0.00000000000E+00 -0.13703001734E+04  0.13703001734E+04  0.25500000920E-02 0. -1.
    10030    2    1    2    0    0  0.00000000000E+00  0.00000000000E+00  0.25069107557E+03  0.29912914224E+04  0.29807680820E+04 0.  0.
        2    1    3    3  502    0 -0.71854221038E+03 -0.11337625125E+04 -0.52464804889E+03  0.14411717171E+04  0.25500000920E-02 0. -1.
       -2    1    3    3    0  502  0.71854221038E+03  0.11337625125E+04  0.77533912446E+03  0.15501197053E+04  0.25500000920E-02 0.  1.
</event>
<event>
 5   0  0.7278657E-07  0.2993157E+04  0.7818609E-02  0.8245688E-01
       -2   -1    0    0    0  501  0.00000000000E+00  0.00000000000E+00  0.11722110387E+04  0.11722110387E+04  0.25500000920E-02 0.  1.
        2   -1    0    0  501    0  0.00000000000E+00  0.00000000000E+00 -0.19107030516E+04  0.19107030516E+04  0.25500000920E-02 0. -1.
    10030    2    1    2    0    0  0.00000000000E+00  0.00000000000E+00 -0.73849201296E+03  0.30829140903E+04  0.29931570014E+04 0.  0.
        2    1    3    3  502    0 -0.10037726358E+04 -0.50961546546E+03 -0.13849618235E+04  0.17847651609E+04  0.25500000920E-02 0. -1.
       -2    1    3    3    0  502  0.10037726358E+04  0.50961546546E+03  0.64646981049E+03  0.12981489294E+04  0.25500000920E-02 0.  1.
</event>
<event>
 5   0  0.2602891E-07  0.2941506E+04  0.7818609E-02  0.8260634E-01
       -1   -1    0    0    0  501  0.00000000000E+00  0.00000000000E+00  0.11587887628E+04  0.11587887628E+04  0.50400001928E-02 0. -1.
        1   -1    0    0  501    0  0.00000000000E+00  0.00000000000E+00 -0.18667024970E+04  0.18667024970E+04  0.50400001928E-02 0.  1.
    10030    2    1    2    0    0  0.00000000000E+00  0.00000000000E+00 -0.70791373421E+03  0.30254912598E+04  0.29415056533E+04 0.  0.
        5    1    3    3  502    0 -0.27994706044E+03 -0.13140517784E+04 -0.96936222237E+03  0.16567400644E+04  0.46999998093E+01 0.  1.
       -5    1    3    3    0  502  0.27994706044E+03  0.13140517784E+04  0.26144848816E+03  0.13687511954E+04  0.46999998093E+01 0. -1.
</event>
<event>
 5   0  0.2640081E-07  0.3001462E+04  0.7818609E-02  0.8243313E-01
        1   -1    0    0  501    0  0.00000000000E+00  0.00000000000E+00  0.85667751918E+03  0.85667751920E+03  0.50400001928E-02 0.  1.
       -1   -1    0    0    0  501  0.00000000000E+00  0.00000000000E+00 -0.26289867487E+04  0.26289867487E+04  0.50400001928E-02 0. -1.
    10030    2    1    2    0    0  0.00000000000E+00  0.00000000000E+00 -0.17723092296E+04  0.34856642679E+04  0.30014622076E+04 0.  0.
        1    1    3    3  502    0 -0.58765133111E+03 -0.13683393474E+04 -0.67042614260E+03  0.16331435544E+04  0.50400001928E-02 0. -1.
       -1    1    3    3    0  502  0.58765133111E+03  0.13683393474E+04 -0.11018830869E+04  0.18525207135E+04  0.50400001928E-02 0.  1.
</event>
<event>
 5   0  0.7278657E-07  0.3001674E+04  0.7818609E-02  0.8243253E-01
       -2   -1    0    0    0  501  0.00000000000E+00  0.00000000000E+00  0.10158118210E+04  0.10158118210E+04  0.25500000920E-02 0. -1.
        2   -1    0    0  501    0  0.00000000000E+00  0.00000000000E+00 -0.22174501811E+04  0.22174501811E+04  0.25500000920E-02 0.  1.
    10030    2    1    2    0    0  0.00000000000E+00  0.00000000000E+00 -0.12016383601E+04  0.32332620022E+04  0.30016742705E+04 0.  0.
        2    1    3    3  502    0 -0.84792097478E+03 -0.12201268294E+04 -0.82889252265E+03  0.17013942146E+04  0.25500000920E-02 0.  1.
       -2    1    3    3    0  502  0.84792097478E+03  0.12201268294E+04 -0.37274583746E+03  0.15318677876E+04  0.25500000920E-02 0. -1.
</event>
<event>
 5   0  0.7278657E-07  0.2998540E+04  0.7818609E-02  0.8244148E-01
        2   -1    0    0  501    0  0.00000000000E+00  0.00000000000E+00  0.20558416615E+04  0.20558416615E+04  0.25500000920E-02 0. -1.
       -2   -1    0    0    0  501  0.00000000000E+00  0.00000000000E+00 -0.10933769556E+04  0.10933769556E+04  0.25500000920E-02 0.  1.
    10030    2    1    2    0    0  0.00000000000E+00  0.00000000000E+00  0.96246470592E+03  0.31492186170E+04  0.29985395758E+04 0.  0.
        2    1    3    3  502    0 -0.11669230238E+04  0.93606869772E+03  0.37686074108E+03  0.15427112395E+04  0.25500000920E-02 0. -1.
       -2    1    3    3    0  502  0.11669230238E+04 -0.93606869772E+03  0.58560396485E+03  0.16065073775E+04  0.25500000920E-02 0.  1.
</event>
<event>
 5   0  0.7399409E-07  0.2999519E+04  0.7818609E-02  0.8243868E-01
        2   -1    0    0  501    0  0.00000000000E+00  0.00000000000E+00  0.15826384483E+04  0.15826384483E+04  0.25500000920E-02 0. -1.
       -2   -1    0    0    0  501  0.00000000000E+00  0.00000000000E+00 -0.14212210392E+04  0.14212210392E+04  0.25500000920E-02 0.  1.
    10030    2    1    2    0    0  0.00000000000E+00  0.00000000000E+00  0.16141740912E+03  0.30038594875E+04  0.29995193349E+04 0.  0.
        3    1    3    3  502    0  0.64790256721E+03 -0.12935391209E+04  0.47657532060E+03  0.15232022979E+04  0.10100000352E+00 0. -1.
       -3    1    3    3    0  502 -0.64790256721E+03  0.12935391209E+04 -0.31515791148E+03  0.14806571896E+04  0.10100000352E+00 0.  1.
</event>
<event>
 5   0  0.2679935E-07  0.2988062E+04  0.7818609E-02  0.8247148E-01
       -1   -1    0    0    0  501  0.00000000000E+00  0.00000000000E+00  0.13157212962E+04  0.13157212962E+04  0.50400001928E-02 0. -1.
        1   -1    0    0  501    0  0.00000000000E+00  0.00000000000E+00 -0.16965058106E+04  0.16965058106E+04  0.50400001928E-02 0.  1.
    10030    2    1    2    0    0  0.00000000000E+00  0.00000000000E+00 -0.38078451446E+03  0.30122271068E+04  0.29880621306E+04 0.  0.
        2    1    3    3  502    0 -0.78818713911E+03 -0.12344502692E+04  0.10698900075E+03  0.14685207113E+04  0.25500000920E-02 0. -1.
       -2    1    3    3    0  502  0.78818713911E+03  0.12344502692E+04 -0.48777351521E+03  0.15437063955E+04  0.25500000920E-02 0.  1.
</event>
<event>
 5   0  0.2640081E-07  0.2998418E+04  0.7818609E-02  0.8244183E-01
       -1   -1    0    0    0  501  0.00000000000E+00  0.00000000000E+00  0.79131999150E+03  0.79131999152E+03  0.50400001928E-02 0.  1.
        1   -1    0    0  501    0  0.00000000000E+00  0.00000000000E+00 -0.28403532207E+04  0.28403532207E+04  0.50400001928E-02 0. -1.
    10030    2    1    2    0    0  0.00000000000E+00  0.00000000000E+00 -0.20490332292E+04  0.36316732122E+04  0.29984184408E+04 0.  0.
        1    1    3    3  502    0  0.16513851725E+03  0.14412784625E+04 -0.14826530225E+04  0.20743226175E+04  0.50400001928E-02 0. -1.
       -1    1    3    3    0  502 -0.16513851725E+03 -0.14412784625E+04 -0.56638020672E+03  0.15573505947E+04  0.50400001928E-02 0.  1.
</event>
<event>
 5   0  0.7278657E-07  0.2999176E+04  0.7818609E-02  0.8243966E-01
       -2   -1    0    0    0  501  0.00000000000E+00  0.00000000000E+00  0.15011610405E+04  0.15011610405E+04  0.25500000920E-02 0.  1.
        2   -1    0    0  501    0  0.00000000000E+00  0.00000000000E+00 -0.14980161536E+04  0.14980161536E+04  0.25500000920E-02 0. -1.
    10030    2    1    2    0    0  0.00000000000E+00  0.00000000000E+00  0.31448868920E+01  0.29991771941E+04  0.29991755453E+04 0.  0.
        2    1    3    3  502    0  0.30386629166E+03  0.22234781815E+03 -0.14499758779E+04  0.14980665278E+04  0.25500000920E-02 0. -1.
       -2    1    3    3    0  502 -0.30386629166E+03 -0.22234781815E+03  0.14531207648E+04  0.15011106663E+04  0.25500000920E-02 0.  1.
</event>
<event>
 5   0  0.7585823E-07  0.3008137E+04  0.7818609E-02  0.8241411E-01
        2   -1    0    0  501    0  0.00000000000E+00  0.00000000000E+00  0.18731977926E+04  0.18731977926E+04  0.25500000920E-02 0.  1.
       -2   -1    0    0    0  501  0.00000000000E+00  0.00000000000E+00 -0.12076789720E+04  0.12076789720E+04  0.25500000920E-02 0. -1.
    10030    2    1    2    0    0  0.00000000000E+00  0.00000000000E+00  0.66551882061E+03  0.30808767647E+04  0.30081366888E+04 0.  0.
        5    1    3    3  502    0  0.80276987169E+03 -0.10889635050E+04 -0.34033761264E+03  0.13950386241E+04  0.46999998093E+01 0. -1.
       -5    1    3    3    0  502 -0.80276987169E+03  0.10889635050E+04  0.10058564332E+04  0.16858381406E+04  0.46999998093E+01 0.  1.
</event>
<event>
 5   0  0.2679935E-07  0.3008857E+04  0.7818609E-02  0.8241206E-01
        1   -1    0    0  501    0  0.00000000000E+00  0.00000000000E+00  0.14241876624E+04  0.14241876624E+04  0.50400001928E-02 0.  1.
       -1   -1    0    0    0  501  0.00000000000E+00  0.00000000000E+00 -0.15891906936E+04  0.15891906936E+04  0.50400001928E-02 0. -1.
    10030    2    1    2    0    0  0.00000000000E+00  0.00000000000E+00 -0.16500303124E+03  0.30133783560E+04  0.30088574437E+04 0.  0.
        2    1    3    3  502    0  0.10558739997E+03 -0.25679408906E+03 -0.15633082334E+04  0.15877734523E+04  0.25500000920E-02 0. -1.
       -2    1    3    3    0  502 -0.10558739997E+03  0.25679408906E+03  0.13983052021E+04  0.14256049037E+04  0.25500000920E-02 0.  1.
</event>
<event>
 5   0  0.2602891E-07  0.2994989E+04  0.7818609E-02  0.8245163E-01
       -1   -1    0    0    0  501  0.00000000000E+00  0.00000000000E+00  0.20629422078E+04  0.20629422078E+04  0.50400001928E-02 0. -1.
        1   -1    0    0  501    0  0.00000000000E+00  0.00000000000E+00 -0.10870349700E+04  0.10870349700E+04  0.50400001928E-02 0.  1.
    10030    2    1    2    0    0  0.00000000000E+00  0.00000000000E+00  0.97590723778E+03  0.31499771778E+04  0.29949893629E+04 0.  0.
        5    1    3    3  502    0  0.38745626034E+02  0.13380280357E+04  0.11939961104E+04  0.17937304841E+04  0.46999998093E+01 0. -1.
       -5    1    3    3    0  502 -0.38745626034E+02 -0.13380280357E+04 -0.21808887262E+03  0.13562466937E+04  0.46999998093E+01 0.  1.
</event>
<event>
 5   0  0.7208273E-07  0.2999176E+04  0.7818609E-02  0.8243966E-01
       -2   -1    0    0    0  501  0.00000000000E+00  0.00000000000E+00  0.10829110621E+04  0.10829110621E+04  0.25500000920E-02 0.  1.
        2   -1    0    0  501    0  0.00000000000E+00  0.00000000000E+00 -0.20765915838E+04  0.20765915838E+04  0.25500000920E-02 0. -1.
    10030    2    1    2    0    0  0.00000000000E+00  0.00000000000E+00 -0.99368052170E+03  0.31595026459E+04  0.29991758852E+04 0.  0.
        4    1    3    3  502    0  0.16361915448E+03 -0.12311696502E+04  0.38844752527E+03  0.13013235678E+04  0.12699999809E+01 0. -1.
       -4    1    3    3    0  502 -0.16361915448E+03  0.12311696502E+04 -0.13821280470E+04  0.18581790781E+04  0.12699999809E+01 0.  1.
</event>
<event>
 5   0  0.2621825E-07  0.2998650E+04  0.7818609E-02  0.8244116E-01
        1   -1    0    0  501    0  0.00000000000E+00  0.00000000000E+00  0.18239418967E+04  0.18239418967E+04  0.50400001928E-02 0. -1.
       -1   -1    0    0    0  501  0.00000000000E+00  0.00000000000E+00 -0.12324819212E+04  0.12324819212E+04  0.50400001928E-02 0.  1.
    10030    2    1    2    0    0  0.00000000000E+00  0.00000000000E+00  0.59145997548E+03  0.30564238179E+04  0.29986499716E+04 0.  0.
        3    1    3    3  502    0 -0.39739470558E+03  0.11869419514E+04  0.11369934436E+04  0.16910079388E+04  0.10100000352E+00 0. -1.
       -3    1    3    3    0  502  0.39739470558E+03 -0.11869419514E+04 -0.54553346812E+03  0.13654158792E+04  0.10100000352E+00 0.  1.
</event>
<event>
 5   0  0.2679935E-07  0.2999639E+04  0.7818609E-02  0.8243834E-01
       -1   -1    0    0    0  501  0.00000000000E+00  0.00000000000E+00  0.10751024718E+04  0.10751024718E+04  0.50400001928E-02 0.  1.
        1   -1    0    0  501    0  0.00000000000E+00  0.00000000000E+00 -0.20923197535E+04  0.20923197535E+04  0.50400001928E-02 0. -1.
    10030    2    1    2    0    0  0.00000000000E+00  0.00000000000E+00 -0.10172172817E+04  0.31674222253E+04  0.29996387375E+04 0.  0.
        2    1    3    3  502    0  0.39089679283E+01  0.51110492248E+03  0.98030201291E+03  0.11055476282E+04  0.25500000920E-02 0.  1.
       -2    1    3    3    0  502 -0.39089679283E+01 -0.51110492248E+03 -0.19975192946E+04  0.20618745971E+04  0.25500000920E-02 0. -1.
</event>
<event>
 5   0  0.7278657E-07  0.2997066E+04  0.7818609E-02  0.8244569E-01
        2   -1    0    0  501    0  0.00000000000E+00  0.00000000000E+00  0.21995357624E+04  0.21995357624E+04  0.25500000920E-02 0. -1.
       -2   -1    0    0    0  501  0.00000000000E+00  0.00000000000E+00 -0.10209434354E+04  0.10209434354E+04  0.25500000920E-02 0.  1.
    10030    2    1    2    0    0  0.00000000000E+00  0.00000000000E+00  0.11785923270E+04  0.32204791978E+04  0.29970662973E+04 0.  0.
        2    1    3    3  502    0 -0.65967376509E+03  0.33739543077E+03  0.19889267496E+04  0.21224596035E+04  0.25500000920E-02 0. -1.
       -2    1    3    3    0  502  0.65967376509E+03 -0.33739543077E+03 -0.81033442260E+03  0.10980195943E+04  0.25500000920E-02 0.  1.
</event>
<event>
 5   0  0.7399409E-07  0.2998377E+04  0.7818609E-02  0.8244194E-01
        2   -1    0    0  501    0  0.00000000000E+00  0.00000000000E+00  0.16748301170E+04  0.16748301170E+04  0.25500000920E-02 0.  1.
       -2   -1    0    0    0  501  0.00000000000E+00  0.00000000000E+00 -0.13419668060E+04  0.13419668060E+04  0.25500000920E-02 0. -1.
    10030    2    1    2    0    0  0.00000000000E+00  0.00000000000E+00  0.33286331100E+03  0.30167969230E+04  0.29983771762E+04 0.  0.
        3    1    3    3  502    0  0.21542841879E+03 -0.67750348327E+03 -0.11615806278E+04  0.13618700153E+04  0.10100000352E+00 0. -1.
       -3    1    3    3    0  502 -0.21542841879E+03  0.67750348327E+03  0.14944439388E+04  0.16549269077E+04  0.10100000352E+00 0.  1.
</event>
<event>
 5   0  0.2792361E-07  0.2997755E+04  0.7818609E-02  0.8244372E-01
       -1   -1    0    0    0  501  0.00000000000E+00  0.00000000000E+00  0.12176608458E+04  0.12176608458E+04  0.50400001928E-02 0. -1.
        1   -1    0    0  501    0  0.00000000000E+00  0.00000000000E+00 -0.18450400513E+04  0.18450400513E+04  0.50400001928E-02 0.  1.
    10030    2    1    2    0    0  0.00000000000E+00  0.00000000000E+00 -0.62737920552E+03  0.30627008971E+04  0.29977545125E+04 0.  0.
        4    1    3    3  502    0 -0.35213039625E+03  0.68944761448E+03 -0.16249669284E+04  0.17999591552E+04  0.12699999809E+01 0.  1.
       -4    1    3    3    0  502  0.35213039625E+03 -0.68944761448E+03  0.99758772284E+03  0.12627417419E+04  0.12699999809E+01 0. -1.
</event>
<event>
 5   0  0.7399409E-07  0.3001866E+04  0.7818609E-02  0.8243198E-01
        2   -1    0    0  501    0  0.00000000000E+00  0.00000000000E+00  0.78739608407E+03  0.78739608407E+03  0.25500000920E-02 0. -1.
       -2   -1    0    0    0  501  0.00000000000E+00  0.00000000000E+00 -0.28610754019E+04  0.28610754019E+04  0.25500000920E-02 0.  1.
    10030    2    1    2    0    0  0.00000000000E+00  0.00000000000E+00 -0.20736793178E+04  0.36484714859E+04  0.30018657982E+04 0.  0.
        3    1    3    3  502    0 -0.30826953363E+03  0.13172394627E+04 -0.18269903795E+04  0.22733331838E+04  0.10100000352E+00 0.  1.
       -3    1    3    3    0  502  0.30826953363E+03 -0.13172394627E+04 -0.24668893830E+03  0.13751383021E+04  0.10100000352E+00 0. -1.
</event>
<event>
 5   0  0.2621825E-07  0.3000225E+04  0.7818609E-02  0.8243667E-01
        1   -1    0    0  501    0  0.00000000000E+00  0.00000000000E+00  0.23160085622E+04  0.23160085622E+04  0.50400001928E-02 0. -1.
       -1   -1    0    0    0  501  0.00000000000E+00  0.00000000000E+00 -0.97164497279E+03  0.97164497280E+03  0.50400001928E-02 0.  1.
    10030    2    1    2    0    0  0.00000000000E+00  0.00000000000E+00  0.13443635894E+04  0.32876535350E+04  0.30002253758E+04 0.  0.
        3    1    3    3  502    0  0.81745989667E+03  0.50507126012E+03  0.19344966454E+04  0.21600034587E+04  0.10100000352E+00 0. -1.
       -3    1    3    3    0  502 -0.81745989667E+03 -0.50507126012E+03 -0.59013305602E+03  0.11276500762E+04  0.10100000352E+00 0.  1.
</event>
<event>
 5   0  0.7278657E-07  0.3003974E+04  0.7818609E-02  0.8242597E-01
       -2   -1    0    0    0  501  0.00000000000E+00  0.00000000000E+00  0.77623921892E+03  0.77623921893E+03  0.25500000920E-02 0. -1.
        2   -1    0    0  501    0  0.00000000000E+00  0.00000000000E+00 -0.29062750217E+04  0.29062750217E+04  0.25500000920E-02 0.  1.
    10030    2    1    2    0    0  0.00000000000E+00  0.00000000000E+00 -0.21300358028E+04  0.36825142406E+04  0.30039738034E+04 0.  0.
        2    1    3    3  502    0  0.33645806127E+03 -0.91849209013E+03  0.33223521078E+03  0.10330595249E+04  0.25500000920E-02 0. -1.
       -2    1    3    3    0  502 -0.33645806127E+03  0.91849209013E+03 -0.24622710135E+04  0.26494547157E+04  0.25500000920E-02 0.  1.
</event>
<event>
 5   0  0.7399409E-07  0.2998673E+04  0.7818609E-02  0.8244110E-01
        2   -1    0    0  501    0  0.00000000000E+00  0.00000000000E+00  0.18482944699E+04  0.18482944699E+04  0.25500000920E-02 0.  1.
       -2   -1    0    0    0  501  0.00000000000E+00  0.00000000000E+00 -0.12162620732E+04  0.12162620732E+04  0.25500000920E-02 0. -1.
    10030    2    1    2    0    0  0.00000000000E+00  0.00000000000E+00  0.63203239670E+03  0.30645565430E+04  0.29986733491E+04 0.  0.
        3    1    3    3  502    0  0.67087689444E+02 -0.13124686576E+04  0.10536325692E+04  0.16844038519E+04  0.10100000352E+00 0.  1.
       -3    1    3    3    0  502 -0.67087689444E+02  0.13124686576E+04 -0.42160017252E+03  0.13801526911E+04  0.10100000352E+00 0. -1.
</event>
<event>
 5   0  0.7307508E-07  0.3000373E+04  0.7818609E-02  0.8243624E-01
       -2   -1    0    0    0  501  0.00000000000E+00  0.00000000000E+00  0.13167278470E+04  0.13167278470E+04  0.25500000920E-02 0. -1.
        2   -1    0    0  501    0  0.00000000000E+00  0.00000000000E+00 -0.17092061408E+04  0.17092061408E+04  0.25500000920E-02 0.  1.
    10030    2    1    2    0    0  0.00000000000E+00  0.00000000000E+00 -0.39247829378E+03  0.30259339878E+04  0.30003728581E+04 0.  0.
        1    1    3    3  502    0 -0.18458560829E+03  0.51364316626E+03  0.12130409974E+04  0.13301765336E+04  0.50400001928E-02 0. -1.
       -1    1    3    3    0  502  0.18458560829E+03 -0.51364316626E+03 -0.16055192912E+04  0.16957574542E+04  0.50400001928E-02 0.  1.
</event>
<event>
 5   0  0.2640081E-07  0.3000609E+04  0.7818609E-02  0.8243557E-01
       -1   -1    0    0    0  501  0.00000000000E+00  0.00000000000E+00  0.76522050083E+03  0.76522050084E+03  0.50400001928E-02 0.  1.
        1   -1    0    0  501    0  0.00000000000E+00  0.00000000000E+00 -0.29415224977E+04  0.29415224977E+04  0.50400001928E-02 0. -1.
    10030    2    1    2    0    0  0.00000000000E+00  0.00000000000E+00 -0.21763019969E+04  0.37067429985E+04  0.30006088175E+04 0.  0.
        1    1    3    3  502    0 -0.66361830578E+03 -0.13217459065E+04 -0.77682859127E+03  0.16705879676E+04  0.50400001928E-02 0.  1.
       -1    1    3    3    0  502  0.66361830578E+03  0.13217459065E+04 -0.13994734056E+04  0.20361550310E+04  0.50400001928E-02 0. -1.
</event>
<event>
 5   0  0.7399409E-07  0.3004073E+04  0.7818609E-02  0.8242569E-01
       -2   -1    0    0    0  501  0.00000000000E+00  0.00000000000E+00  0.15949646442E+04  0.15949646442E+04  0.25500000920E-02 0. -1.
        2   -1    0    0  501    0  0.00000000000E+00  0.00000000000E+00 -0.14145229813E+04  0.14145229813E+04  0.25500000920E-02 0.  1.
    10030    2    1    2    0    0  0.00000000000E+00  0.00000000000E+00  0.18044166292E+03  0.30094876254E+04  0.30040733303E+04 0.  0.
        3    1    3    3  502    0 -0.10502625076E+04  0.10720531991E+04  0.28752795765E+02  0.15010583367E+04  0.10100000352E+00 0. -1.
       -3    1    3    3    0  502  0.10502625076E+04 -0.10720531991E+04  0.15168886715E+03  0.15084292888E+04  0.10100000352E+00 0.  1.
</event>
<event>
 5   0  0.2792361E-07  0.3000086E+04  0.7818609E-02  0.8243706E-01
        1   -1    0    0  501    0  0.00000000000E+00  0.00000000000E+00  0.14128155873E+04  0.14128155874E+04  0.50400001928E-02 0. -1.
       -1   -1    0    0    0  501  0.00000000000E+00  0.00000000000E+00 -0.15926556980E+04  0.15926556980E+04  0.50400001928E-02 0.  1.
    10030    2    1    2    0    0  0.00000000000E+00  0.00000000000E+00 -0.17984011069E+03  0.30054712854E+04  0.30000858624E+04 0.  0.
        4    1    3    3  502    0  0.77796095136E+02 -0.75222065781E+03 -0.13877141911E+04  0.15803924954E+04  0.12699999809E+01 0.  1.
       -4    1    3    3    0  502 -0.77796095136E+02  0.75222065781E+03  0.12078740805E+04  0.14250787900E+04  0.12699999809E+01 0. -1.
</event>
<event>
 5   0  0.7585823E-07  0.3003649E+04  0.7818609E-02  0.8242690E-01
        2   -1    0    0  501    0  0.00000000000E+00  0.00000000000E+00  0.16452490106E+04  0.16452490106E+04  0.25500000920E-02 0.  1.
       -2   -1    0    0    0  501  0.00000000000E+00  0.00000000000E+00 -0.13709032212E+04  0.13709032212E+04  0.25500000920E-02 0. -1.
    10030    2    1    2    0    0  0.00000000000E+00  0.00000000000E+00  0.27434578945E+03  0.30161522318E+04  0.30036492261E+04 0.  0.
        5    1    3    3  502    0 -0.39003017438E+03  0.29790927744E+03 -0.12880949140E+04  0.13784353710E+04  0.46999998093E+01 0. -1.
       -5    1    3    3    0  502  0.39003017438E+03 -0.29790927744E+03  0.15624407034E+04  0.16377168608E+04  0.46999998093E+01 0.  1.
</event>
<event>
 5   0  0.2792361E-07  0.2995946E+04  0.7818609E-02  0.8244890E-01
        1   -1    0    0  501    0  0.00000000000E+00  0.00000000000E+00  0.12969937605E+04  0.12969937605E+04  0.50400001928E-02 0.  1.
       -1   -1    0    0    0  501  0.00000000000E+00  0.00000000000E+00 -0.17300952988E+04  0.17300952989E+04  0.50400001928E-02 0. -1.
    10030    2    1    2    0    0  0.00000000000E+00  0.00000000000E+00 -0.43310153838E+03  0.30270890593E+04  0.29959457990E+04 0.  0.
        4    1    3    3  502    0 -0.89371711081E+03  0.11741192000E+02 -0.14311503981E+04  0.16873236810E+04  0.12699999809E+01 0. -1.
       -4    1    3    3    0  502  0.89371711081E+03 -0.11741192000E+02  0.99804885968E+03  0.13397653783E+04  0.12699999809E+01 0.  1.
</event>
<event>
 5   0  0.2602891E-07  0.3000310E+04  0.7818609E-02  0.8243642E-01
       -1   -1    0    0    0  501  0.00000000000E+00  0.00000000000E+00  0.12108712425E+04  0.12108712425E+04  0.50400001928E-02 0.  1.
        1   -1    0    0  501    0  0.00000000000E+00  0.00000000000E+00 -0.18585499207E+04  0.18585499207E+04  0.50400001928E-02 0. -1.
    10030    2    1    2    0    0  0.00000000000E+00  0.00000000000E+00 -0.64767867814E+03  0.30694211632E+04  0.30003097519E+04 0.  0.
        5    1    3    3  502    0  0.88083086842E+03  0.11985134436E+04 -0.12403284957E+03  0.14925494066E+04  0.46999998093E+01 0.  1.
       -5    1    3    3    0  502 -0.88083086842E+03 -0.11985134436E+04 -0.52364582857E+03  0.15768717567E+04  0.46999998093E+01 0. -1.
</event>
<event>
 5   0  0.7307508E-07  0.2999511E+04  0.7818609E-02  0.8243871E-01
        2   -1    0    0  501    0  0.00000000000E+00  0.00000000000E+00  0.20504254446E+04  0.20504254446E+04  0.25500000920E-02 0.  1.
       -2   -1    0    0    0  501  0.00000000000E+00  0.00000000000E+00 -0.10969752218E+04  0.10969752218E+04  0.25500000920E-02 0. -1.
    10030    2    1    2    0    0  0.00000000000E+00  0.00000000000E+00  0.95345022278E+03  0.31474006665E+04  0.29995105647E+04 0.  0.
        1    1    3    3  502    0  0.12339429103E+04  0.51760759089E+03  0.11874175827E+04  0.17889922413E+04  0.50400001928E-02 0.  1.
       -1    1    3    3    0  502 -0.12339429103E+04 -0.51760759089E+03 -0.23396735988E+03  0.13584084251E+04  0.50400001928E-02 0. -1.
</event>
<event>
 5   0  0.7208273E-07  0.3001239E+04  0.7818609E-02  0.8243377E-01
        2   -1    0    0  501    0  0.00000000000E+00  0.00000000000E+00  0.15966410176E+04  0.15966410176E+04  0.25500000920E-02 0.  1.
       -2   -1    0    0    0  501  0.00000000000E+00  0.00000000000E+00 -0.14103729995E+04  0.14103729995E+04  0.25500000920E-02 0. -1.
    10030    2    1    2    0    0  0.00000000000E+00  0.00000000000E+00  0.18626801805E+03  0.30070140171E+04  0.30012393314E+04 0.  0.
        4    1    3    3  502    0 -0.84894697251E+03 -0.85718173539E+03 -0.80098784018E+03  0.14481210663E+04  0.12699999809E+01 0. -1.
       -4    1    3    3    0  502  0.84894697251E+03  0.85718173539E+03  0.98725585823E+03  0.15588929508E+04  0.12699999809E+01 0.  1.
</event>
<event>
 5   0  0.7399409E-07  0.2995642E+04  0.7818609E-02  0.8244976E-01
        2   -1    0    0  501    0  0.00000000000E+00  0.00000000000E+00  0.18476069029E+04  0.18476069029E+04  0.25500000920E-02 0. -1.
       -2   -1    0    0    0  501  0.00000000000E+00  0.00000000000E+00 -0.12142560699E+04  0.12142560699E+04  0.25500000920E-02 0.  1.
    10030    2    1    2    0    0  0.00000000000E+00  0.00000000000E+00  0.63335083301E+03  0.30618629729E+04  0.29956420993E+04 0.  0.
        3    1    3    3  502    0 -0.12366177181E+03 -0.22269555470E+03 -0.11919548460E+04  0.12188691107E+04  0.10100000352E+00 0.  1.
       -3    1    3    3    0  502  0.12366177181E+03  0.22269555470E+03  0.18253056790E+04  0.18429938622E+04  0.10100000352E+00 0. -1.
</event>
<event>
 5   0  0.2792361E-07  0.3051368E+04  0.7818609E-02  0.8229213E-01
        1   -1    0    0  501    0  0.00000000000E+00  0.00000000000E+00  0.23003901983E+04  0.23003901983E+04  0.50400001928E-02 0. -1.
       -1   -1    0    0    0  501  0.00000000000E+00  0.00000000000E+00 -0.10118767738E+04  0.10118767738E+04  0.50400001928E-02 0.  1.
    10030    2    1    2    0    0  0.00000000000E+00  0.00000000000E+00  0.12885134245E+04  0.33122669721E+04  0.30513678325E+04 0.  0.
        4    1    3    3  502    0  0.13114864020E+04  0.75524069977E+03  0.43454197713E+03  0.15745518220E+04  0.12699999809E+01 0.  1.
       -4    1    3    3    0  502 -0.13114864020E+04 -0.75524069977E+03  0.85397144736E+03  0.17377151502E+04  0.12699999809E+01 0. -1.
</event>
<event>
 5   0  0.2679935E-07  0.3002383E+04  0.7818609E-02  0.8243051E-01
       -1   -1    0    0    0  501  0.00000000000E+00  0.00000000000E+00  0.12494470495E+04  0.12494470495E+04  0.50400001928E-02 0.  1.
        1   -1    0    0  501    0  0.00000000000E+00  0.00000000000E+00 -0.18036587914E+04  0.18036587914E+04  0.50400001928E-02 0. -1.
    10030    2    1    2    0    0  0.00000000000E+00  0.00000000000E+00 -0.55421174195E+03  0.30531058409E+04  0.30023831569E+04 0.  0.
        2    1    3    3  502    0 -0.10998839068E+04  0.69124189857E+03 -0.10421564879E+04  0.16654279078E+04  0.25500000920E-02 0. -1.
       -2    1    3    3    0  502  0.10998839068E+04 -0.69124189857E+03  0.48794474596E+03  0.13876779331E+04  0.25500000920E-02 0.  1.
</event>
<event>
 5   0  0.7585823E-07  0.2999876E+04  0.7818609E-02  0.8243766E-01
       -2   -1    0    0    0  501  0.00000000000E+00  0.00000000000E+00  0.11452843486E+04  0.11452843486E+04  0.25500000920E-02 0.  1.
        2   -1    0    0  501    0  0.00000000000E+00  0.00000000000E+00 -0.19644157078E+04  0.19644157078E+04  0.25500000920E-02 0. -1.
    10030    2    1    2    0    0  0.00000000000E+00  0.00000000000E+00 -0.81913135918E+03  0.31097000564E+04  0.29998763736E+04 0.  0.
        5    1    3    3  502    0  0.11969869326E+04  0.66023796356E+03  0.23036797984E+03  0.13862840190E+04  0.46999998093E+01 0.  1.
       -5    1    3    3    0  502 -0.11969869326E+04 -0.66023796356E+03 -0.10494993390E+04  0.17234160374E+04  0.46999998093E+01 0. -1.
</event>
<event>
 5   0  0.2640081E-07  0.2997778E+04  0.7818609E-02  0.8244366E-01
        1   -1    0    0  501    0  0.00000000000E+00  0.00000000000E+00  0.20100394591E+04  0.20100394591E+04  0.50400001928E-02 0.  1.
       -1   -1    0    0    0  501  0.00000000000E+00  0.00000000000E+00 -0.11177233885E+04  0.11177233885E+04  0.50400001928E-02 0. -1.
    10030    2    1    2    0    0  0.00000000000E+00  0.00000000000E+00  0.89231607068E+03  0.31277628476E+04  0.29977779205E+04 0.  0.
        1    1    3    3  502    0  0.26560177787E+03  0.11394995687E+04 -0.53130116118E+03  0.12850231497E+04  0.50400001928E-02 0.  1.
       -1    1    3    3    0  502 -0.26560177787E+03 -0.11394995687E+04  0.14236172319E+04  0.18427396979E+04  0.50400001928E-02 0. -1.
</event>
<event>
 5   0  0.7399409E-07  0.3002132E+04  0.7818609E-02  0.8243122E-01
        2   -1    0    0  501    0  0.00000000000E+00  0.00000000000E+00  0.15374380139E+04  0.15374380139E+04  0.25500000920E-02 0.  1.
       -2   -1    0    0    0  501  0.00000000000E+00  0.00000000000E+00 -0.14655544985E+04  0.14655544985E+04  0.25500000920E-02 0. -1.
    10030    2    1    2    0    0  0.00000000000E+00  0.00000000000E+00  0.71883515346E+02  0.30029925124E+04  0.30021320407E+04 0.  0.
        3    1    3    3  502    0 -0.59342835784E+03  0.71112853643E+03  0.12175246599E+04  0.15297801538E+04  0.10100000352E+00 0.  1.
       -3    1    3    3    0  502  0.59342835784E+03 -0.71112853643E+03 -0.11456411446E+04  0.14732123586E+04  0.10100000352E+00 0. -1.
</event>
<event>
 5   0  0.2679935E-07  0.3020165E+04  0.7818609E-02  0.8237996E-01
       -1   -1    0    0    0  501  0.00000000000E+00  0.00000000000E+00  0.15048088379E+04  0.15048088379E+04  0.50400001928E-02 0.  1.
        1   -1    0    0  501    0  0.00000000000E+00  0.00000000000E+00 -0.15153750962E+04  0.15153750962E+04  0.50400001928E-02 0. -1.
    10030    2    1    2    0    0  0.00000000000E+00  0.00000000000E+00 -0.10566258239E+02  0.30201839341E+04  0.30201654508E+04 0.  0.
        2    1    3    3  502    0 -0.44149924357E+03  0.61544643395E+03  0.13011145254E+04  0.15055214722E+04  0.25500000920E-02 0.  1.
       -2    1    3    3    0  502  0.44149924357E+03 -0.61544643395E+03 -0.13116807836E+04  0.15146624618E+04  0.25500000920E-02 0. -1.
</event>
<event>
 5   0  0.2792361E-07  0.2999983E+04  0.7818609E-02  0.8243736E-01
       -1   -1    0    0    0  501  0.00000000000E+00  0.00000000000E+00  0.14604506994E+04  0.14604506994E+04  0.50400001928E-02 0. -1.
        1   -1    0    0  501    0  0.00000000000E+00  0.00000000000E+00 -0.15406023943E+04  0.15406023943E+04  0.50400001928E-02 0.  1.
    10030    2    1    2    0    0  0.00000000000E+00  0.00000000000E+00 -0.80151694873E+02  0.30010530937E+04  0.29999825628E+04 0.  0.
        4    1    3    3  502    0  0.10957572878E+04 -0.23699459170E+03 -0.10369864101E+04  0.15271518909E+04  0.12699999809E+01 0.  1.
       -4    1    3    3    0  502 -0.10957572878E+04  0.23699459170E+03  0.95683471526E+03  0.14739012028E+04  0.12699999809E+01 0. -1.
</event>
<event>
 5   0  0.2414250E-07  0.3000496E+04  0.7818609E-02  0.8243589E-01
        3   -1    0    0  501    0  0.00000000000E+00  0.00000000000E+00  0.20218900958E+04  0.20218900983E+04  0.10100000352E+00 0.  1.
       -3   -1    0    0    0  501  0.00000000000E+00  0.00000000000E+00 -0.11131877882E+04  0.11131877927E+04  0.10100000352E+00 0. -1.
    10030    2    1    2    0    0  0.00000000000E+00  0.00000000000E+00  0.90870230766E+03  0.31350778911E+04  0.30004955423E+04 0.  0.
        1    1    3    3  502    0 -0.55945380457E+03 -0.79863253185E+03 -0.73693790365E+03  0.12222438195E+04  0.50400001928E-02 0. -1.
       -1    1    3    3    0  502  0.55945380457E+03  0.79863253185E+03  0.16456402113E+04  0.19128340716E+04  0.50400001928E-02 0.  1.
</event>
<event>
 5   0  0.7208273E-07  0.3001200E+04  0.7818609E-02  0.8243388E-01
        2   -1    0    0  501    0  0.00000000000E+00  0.00000000000E+00  0.15169499285E+04  0.15169499285E+04  0.25500000920E-02 0. -1.
       -2   -1    0    0    0  501  0.00000000000E+00  0.00000000000E+00 -0.14844266648E+04  0.14844266648E+04  0.25500000920E-02 0.  1.
    10030    2    1    2    0    0  0.00000000000E+00  0.00000000000E+00  0.32523263635E+02  0.30013765933E+04  0.30012003752E+04 0.  0.
        4    1    3    3  502    0 -0.42882885021E+03  0.10011442319E+04  0.10486087125E+04  0.15118749289E+04  0.12699999809E+01 0. -1.
       -4    1    3    3    0  502  0.42882885021E+03 -0.10011442319E+04 -0.10160854489E+04  0.14895016644E+04  0.12699999809E+01 0.  1.
</event>
<event>
 5   0  0.2602891E-07  0.2997366E+04  0.7818609E-02  0.8244483E-01
       -1   -1    0    0    0  501  0.00000000000E+00  0.00000000000E+00  0.14021003878E+04  0.14021003878E+04  0.50400001928E-02 0.  1.
        1   -1    0    0  501    0  0.00000000000E+00  0.00000000000E+00 -0.16019190039E+04  0.16019190039E+04  0.50400001928E-02 0. -1.
    10030    2    1    2    0    0  0.00000000000E+00  0.00000000000E+00 -0.19981861608E+03  0.30040193917E+04  0.29973663484E+04 0.  0.
        5    1    3    3  502    0  0.55190243546E+02 -0.17826328890E+03  0.13904035490E+04  0.14028784275E+04  0.46999998093E+01 0.  1.
       -5    1    3    3    0  502 -0.55190243546E+02  0.17826328890E+03 -0.15902221651E+04  0.16011409643E+04  0.46999998093E+01 0. -1.
</event>
<event>
 5   0  0.7278657E-07  0.2998028E+04  0.7818609E-02  0.8244294E-01
        2   -1    0    0  501    0  0.00000000000E+00  0.00000000000E+00  0.21401804213E+04  0.21401804213E+04  0.25500000920E-02 0.  1.
       -2   -1    0    0    0  501  0.00000000000E+00  0.00000000000E+00 -0.10499317301E+04  0.10499317301E+04  0.25500000920E-02 0. -1.
    10030    2    1    2    0    0  0.00000000000E+00  0.00000000000E+00  0.10902486912E+04  0.31901121514E+04  0.29980282403E+04 0.  0.
        2    1    3    3  502    0  0.14482760960E+04  0.71004977427E+01  0.95653471651E+03  0.17356591633E+04  0.25500000920E-02 0. -1.
       -2    1    3    3    0  502 -0.14482760960E+04 -0.71004977427E+01  0.13371397472E+03  0.14544529880E+04  0.25500000920E-02 0.  1.
</event>
<event>
 5   0  0.2792361E-07  0.2983881E+04  0.7818609E-02  0.8248349E-01
        1   -1    0    0  501    0  0.00000000000E+00  0.00000000000E+00  0.13730492914E+04  0.13730492914E+04  0.50400001928E-02 0. -1.
       -1   -1    0    0    0  501  0.00000000000E+00  0.00000000000E+00 -0.16211263076E+04  0.16211263076E+04  0.50400001928E-02 0.  1.
    10030    2    1    2    0    0  0.00000000000E+00  0.00000000000E+00 -0.24807701614E+03  0.29941755990E+04  0.29838809145E+04 0.  0.
        4    1    3    3  502    0  0.36753950976E+03  0.72092650390E+02  0.13251053654E+04  0.13770215989E+04  0.12699999809E+01 0. -1.
       -4    1    3    3    0  502 -0.36753950976E+03 -0.72092650390E+02 -0.15731823816E+04  0.16171540001E+04  0.12699999809E+01 0.  1.
</event>
<event>
 5   0  0.2640081E-07  0.3004068E+04  0.7818609E-02  0.8242570E-01
        1   -1    0    0  501    0  0.00000000000E+00  0.00000000000E+00  0.16408648517E+04  0.16408648517E+04  0.50400001928E-02 0. -1.
       -1   -1    0    0    0  501  0.00000000000E+00  0.00000000000E+00 -0.13749494251E+04  0.13749494251E+04  0.50400001928E-02 0.  1.
    10030    2    1    2    0    0  0.00000000000E+00  0.00000000000E+00  0.26591542662E+03  0.30158142768E+04  0.30040680315E+04 0.  0.
        1    1    3    3  502    0  0.38171844030E+03 -0.89086813444E+03  0.12849423518E+04  0.16094818570E+04  0.50400001928E-02 0. -1.
       -1    1    3    3    0  502 -0.38171844030E+03  0.89086813444E+03 -0.10190269252E+04  0.14063324198E+04  0.50400001928E-02 0.  1.
</event>
<event>
 5   0  0.7278657E-07  0.3004629E+04  0.7818609E-02  0.8242410E-01
        2   -1    0    0  501    0  0.00000000000E+00  0.00000000000E+00  0.18041156177E+04  0.18041156177E+04  0.25500000920E-02 0. -1.
       -2   -1    0    0    0  501  0.00000000000E+00  0.00000000000E+00 -0.12510002785E+04  0.12510002785E+04  0.25500000920E-02 0.  1.
    10030    2    1    2    0    0  0.00000000000E+00  0.00000000000E+00  0.55311533919E+03  0.30551158962E+04  0.30046291886E+04 0.  0.
        2    1    3    3  502    0 -0.10984625805E+04  0.49669620084E+03 -0.63495500579E+03  0.13625325744E+04  0.25500000920E-02 0.  1.
       -2    1    3    3    0  502  0.10984625805E+04 -0.49669620084E+03  0.11880703450E+04  0.16925833219E+04  0.25500000920E-02 0. -1.
</event>
<event>
 5   0  0.7208273E-07  0.3003574E+04  0.7818609E-02  0.8242711E-01
        2   -1    0    0  501    0  0.00000000000E+00  0.00000000000E+00  0.22833015910E+04  0.22833015910E+04  0.25500000920E-02 0. -1.
       -2   -1    0    0    0  501  0.00000000000E+00  0.00000000000E+00 -0.98776442716E+03  0.98776442716E+03  0.25500000920E-02 0.  1.
    10030    2    1    2    0    0  0.00000000000E+00  0.00000000000E+00  0.12955371638E+04  0.32710660181E+04  0.30035739299E+04 0.  0.
        4    1    3    3  502    0  0.78162848542E+03 -0.10925313618E+03 -0.74370618526E+03  0.10844260417E+04  0.12699999809E+01 0.  1.
       -4    1    3    3    0  502 -0.78162848542E+03  0.10925313618E+03  0.20392433491E+04  0.21866399764E+04  0.12699999809E+01 0. -1.
</event>
<event>
 5   0  0.2679935E-07  0.3000842E+04  0.7818609E-02  0.8243490E-01
        1   -1    0    0  501    0  0.00000000000E+00  0.00000000000E+00  0.16265979920E+04  0.16265979920E+04  0.50400001928E-02 0.  1.
       -1   -1    0    0    0  501  0.00000000000E+00  0.00000000000E+00 -0.13840318785E+04  0.13840318785E+04  0.50400001928E-02 0. -1.
    10030    2    1    2    0    0  0.00000000000E+00  0.00000000000E+00  0.24256611352E+03  0.30106298705E+04  0.30008421981E+04 0.  0.
        2    1    3    3  502    0  0.40326915888E+03  0.18828531578E+03 -0.13162848399E+04  0.13894902499E+04  0.25500000920E-02 0. -1.
       -2    1    3    3    0  502 -0.40326915888E+03 -0.18828531578E+03  0.15588509534E+04  0.16211396207E+04  0.25500000920E-02 0.  1.
</event>
<event>
 5   0  0.2640081E-07  0.2999718E+04  0.7818609E-02  0.8243811E-01
        1   -1    0    0  501    0  0.00000000000E+00  0.00000000000E+00  0.78977914728E+03  0.78977914730E+03  0.50400001928E-02 0. -1.
       -1   -1    0    0    0  501  0.00000000000E+00  0.00000000000E+00 -0.28483627075E+04  0.28483627075E+04  0.50400001928E-02 0.  1.
    10030    2    1    2    0    0  0.00000000000E+00  0.00000000000E+00 -0.20585835602E+04  0.36381418548E+04  0.29997183003E+04 0.  0.
        1    1    3    3  502    0 -0.23327249707E+03 -0.97258220412E+02 -0.28223510926E+04  0.28336444571E+04  0.50400001928E-02 0.  1.
       -1    1    3    3    0  502  0.23327249707E+03  0.97258220412E+02  0.76376753239E+03  0.80449739769E+03  0.50400001928E-02 0. -1.
</event>
<event>
 5   0  0.2640081E-07  0.3000115E+04  0.7818609E-02  0.8243698E-01
       -1   -1    0    0    0  501  0.00000000000E+00  0.00000000000E+00  0.85320918383E+03  0.85320918385E+03  0.50400001928E-02 0.  1.
        1   -1    0    0  501    0  0.00000000000E+00  0.00000000000E+00 -0.26373038199E+04  0.26373038199E+04  0.50400001928E-02 0. -1.
    10030    2    1    2    0    0  0.00000000000E+00  0.00000000000E+00 -0.17840946360E+04  0.34905130037E+04  0.30001145576E+04 0.  0.
        1    1    3    3  502    0 -0.55179165814E+03 -0.74203847545E+03  0.48215433207E+03  0.10428652516E+04  0.50400001928E-02 0.  1.
       -1    1    3    3    0  502  0.55179165814E+03  0.74203847545E+03 -0.22662489681E+04  0.24476477521E+04  0.50400001928E-02 0. -1.
</event>
<event>
 5   0  0.7208273E-07  0.2994811E+04  0.7818609E-02  0.8245214E-01
        2   -1    0    0  501    0  0.00000000000E+00  0.00000000000E+00  0.16924603348E+04  0.16924603348E+04  0.25500000920E-02 0.  1.
       -2   -1    0    0    0  501  0.00000000000E+00  0.00000000000E+00 -0.13248309720E+04  0.13248309720E+04  0.25500000920E-02 0. -1.
    10030    2    1    2    0    0  0.00000000000E+00  0.00000000000E+00  0.36762936274E+03  0.30172913068E+04  0.29948114267E+04 0.  0.
        4    1    3    3  502    0  0.13930130012E+04 -0.51694761715E+03 -0.33272625332E+01  0.14858441183E+04  0.12699999809E+01 0. -1.
       -4    1    3    3    0  502 -0.13930130012E+04  0.51694761715E+03  0.37095662527E+03  0.15314471885E+04  0.12699999809E+01 0.  1.
</event>
<event>
 5   0  0.2621825E-07  0.2998382E+04  0.7818609E-02  0.8244193E-01
       -1   -1    0    0    0  501  0.00000000000E+00  0.00000000000E+00  0.23431721757E+04  0.23431721757E+04  0.50400001928E-02 0. -1.
        1   -1    0    0  501    0  0.00000000000E+00  0.00000000000E+00 -0.95920128784E+03  0.95920128785E+03  0.50400001928E-02 0.  1.
    10030    2    1    2    0    0  0.00000000000E+00  0.00000000000E+00  0.13839708879E+04  0.33023734636E+04  0.29983820761E+04 0.  0.
        3    1    3    3  502    0 -0.74812156880E+03  0.50946624778E+03 -0.62431127489E+03  0.10995482334E+04  0.10100000352E+00 0.  1.
       -3    1    3    3    0  502  0.74812156880E+03 -0.50946624778E+03  0.20082821628E+04  0.22028252302E+04  0.10100000352E+00 0. -1.
</event>
<event>
 5   0  0.2640081E-07  0.3002008E+04  0.7818609E-02  0.8243158E-01
       -1   -1    0    0    0  501  0.00000000000E+00  0.00000000000E+00  0.14437744807E+04  0.14437744808E+04  0.50400001928E-02 0. -1.
        1   -1    0    0  501    0  0.00000000000E+00  0.00000000000E+00 -0.15605022282E+04  0.15605022283E+04  0.50400001928E-02 0.  1.
    10030    2    1    2    0    0  0.00000000000E+00  0.00000000000E+00 -0.11672774750E+03  0.30042767090E+04  0.30020081907E+04 0.  0.
        1    1    3    3  502    0 -0.12927125138E+04  0.76119277615E+03 -0.10833364509E+03  0.15040798730E+04  0.50400001928E-02 0. -1.
       -1    1    3    3    0  502  0.12927125138E+04 -0.76119277615E+03 -0.83941024013E+01  0.15001968360E+04  0.50400001928E-02 0.  1.
</event>
<event>
 5   0  0.2640081E-07  0.2997716E+04  0.7818609E-02  0.8244383E-01
       -1   -1    0    0    0  501  0.00000000000E+00  0.00000000000E+00  0.75793612336E+03  0.75793612338E+03  0.50400001928E-02 0.  1.
        1   -1    0    0  501    0  0.00000000000E+00  0.00000000000E+00 -0.29640695180E+04  0.29640695180E+04  0.50400001928E-02 0. -1.
    10030    2    1    2    0    0  0.00000000000E+00  0.00000000000E+00 -0.22061333946E+04  0.37220056414E+04  0.29977160372E+04 0.  0.
        1    1    3    3  502    0 -0.61997785583E+02  0.93861335209E+03  0.34581555424E+03  0.10022111293E+04  0.50400001928E-02 0.  1.
       -1    1    3    3    0  502  0.61997785583E+02 -0.93861335209E+03 -0.25519489489E+04  0.27197945121E+04  0.50400001928E-02 0. -1.
</event>
<event>
 5   0  0.7208273E-07  0.3000817E+04  0.7818609E-02  0.8243498E-01
       -2   -1    0    0    0  501  0.00000000000E+00  0.00000000000E+00  0.10196048672E+04  0.10196048672E+04  0.25500000920E-02 0.  1.
        2   -1    0    0  501    0  0.00000000000E+00  0.00000000000E+00 -0.22079390164E+04  0.22079390164E+04  0.25500000920E-02 0. -1.
    10030    2    1    2    0    0  0.00000000000E+00  0.00000000000E+00 -0.11883341492E+04  0.32275438837E+04  0.30008168006E+04 0.  0.
        4    1    3    3  502    0 -0.43589032454E+03 -0.12466106728E+04  0.17181033892E+03  0.13317503332E+04  0.12699999809E+01 0.  1.
       -4    1    3    3    0  502  0.43589032454E+03  0.12466106728E+04 -0.13601444881E+04  0.18957935504E+04  0.12699999809E+01 0. -1.
</event>
<event>
 5   0  0.7399409E-07  0.2998193E+04  0.7818609E-02  0.8244247E-01
       -2   -1    0    0    0  501  0.00000000000E+00  0.00000000000E+00  0.10512103250E+04  0.10512103250E+04  0.25500000920E-02 0. -1.
        2   -1    0    0  501    0  0.00000000000E+00  0.00000000000E+00 -0.21378117614E+04  0.21378117614E+04  0.25500000920E-02 0.  1.
    10030    2    1    2    0    0  0.00000000000E+00  0.00000000000E+00 -0.10866014364E+04  0.31890220863E+04  0.29981926532E+04 0.  0.
        3    1    3    3  502    0  0.12984651287E+04 -0.50209687884E+03 -0.11347281366E+04  0.17960292092E+04  0.10100000352E+00 0. -1.
       -3    1    3    3    0  502 -0.12984651287E+04  0.50209687884E+03  0.48126700145E+02  0.13929928771E+04  0.10100000352E+00 0.  1.
</event>
<event>
 5   0  0.7585823E-07  0.2994104E+04  0.7818609E-02  0.8245417E-01
        2   -1    0    0  501    0  0.00000000000E+00  0.00000000000E+00  0.29584915113E+04  0.29584915113E+04  0.25500000920E-02 0.  1.
       -2   -1    0    0    0  501  0.00000000000E+00  0.00000000000E+00 -0.75753604775E+03  0.75753604776E+03  0.25500000920E-02 0. -1.
    10030    2    1    2    0    0  0.00000000000E+00  0.00000000000E+00  0.22009554636E+04  0.37160275591E+04  0.29941035165E+04 0.  0.
        5    1    3    3  502    0  0.30666016581E+03 -0.15122641420E+03 -0.70841613978E+03  0.78662913927E+03  0.46999998093E+01 0. -1.
       -5    1    3    3    0  502 -0.30666016581E+03  0.15122641420E+03  0.29093716034E+04  0.29293984198E+04  0.46999998093E+01 0.  1.
</event>
<event>
 5   0  0.7399409E-07  0.3007399E+04  0.7818609E-02  0.8241621E-01
       -2   -1    0    0    0  501  0.00000000000E+00  0.00000000000E+00  0.14944070624E+04  0.14944070624E+04  0.25500000920E-02 0. -1.
        2   -1    0    0  501    0  0.00000000000E+00  0.00000000000E+00 -0.15130496374E+04  0.15130496374E+04  0.25500000920E-02 0.  1.
    10030    2    1    2    0    0  0.00000000000E+00  0.00000000000E+00 -0.18642575020E+02  0.30074566998E+04  0.30073989186E+04 0.  0.
        3    1    3    3  502    0 -0.52773010415E+03  0.57646245744E+03 -0.12939875637E+04  0.15116917189E+04  0.10100000352E+00 0.  1.
       -3    1    3    3    0  502  0.52773010415E+03 -0.57646245744E+03  0.12753449887E+04  0.14957649809E+04  0.10100000352E+00 0. -1.
</event>
<event>
 5   0  0.2602891E-07  0.3015869E+04  0.7818609E-02  0.8239214E-01
       -1   -1    0    0    0  501  0.00000000000E+00  0.00000000000E+00  0.13609435446E+04  0.13609435446E+04  0.50400001928E-02 0.  1.
        1   -1    0    0  501    0  0.00000000000E+00  0.00000000000E+00 -0.16708011577E+04  0.16708011577E+04  0.50400001928E-02 0. -1.
    10030    2    1    2    0    0  0.00000000000E+00  0.00000000000E+00 -0.30985761313E+03  0.30317447023E+04  0.30158687305E+04 0.  0.
        5    1    3    3  502    0  0.42748579504E+03 -0.72467327250E+03  0.11030372736E+04  0.13873026973E+04  0.46999998093E+01 0.  1.
       -5    1    3    3    0  502 -0.42748579504E+03  0.72467327250E+03 -0.14128948868E+04  0.16444420050E+04  0.46999998093E+01 0. -1.
</event>
<event>
 5   0  0.7585823E-07  0.2996325E+04  0.7818609E-02  0.8244781E-01
        2   -1    0    0  501    0  0.00000000000E+00  0.00000000000E+00  0.24488791942E+04  0.24488791942E+04  0.25500000920E-02 0.  1.
       -2   -1    0    0    0  501  0.00000000000E+00  0.00000000000E+00 -0.91653791490E+03  0.91653791490E+03  0.25500000920E-02 0. -1.
    10030    2    1    2    0    0  0.00000000000E+00  0.00000000000E+00  0.15323412794E+04  0.33654171092E+04  0.29963248359E+04 0.  0.
        5    1    3    3  502    0  0.93979505253E+03 -0.10380042413E+04  0.13645229344E+04  0.19551502434E+04  0.46999998093E+01 0.  1.
       -5    1    3    3    0  502 -0.93979505253E+03  0.10380042413E+04  0.16781834492E+03  0.14102668657E+04  0.46999998093E+01 0. -1.
</event>
<event>
 5   0  0.7278657E-07  0.2999291E+04  0.7818609E-02  0.8243933E-01
       -2   -1    0    0    0  501  0.00000000000E+00  0.00000000000E+00  0.83253184308E+03  0.83253184308E+03  0.25500000920E-02 0.  1.
        2   -1    0    0  501    0  0.00000000000E+00  0.00000000000E+00 -0.27013223594E+04  0.27013223594E+04  0.25500000920E-02 0. -1.
    10030    2    1    2    0    0  0.00000000000E+00  0.00000000000E+00 -0.18687905163E+04  0.35338542024E+04  0.29992911713E+04 0.  0.
        2    1    3    3  502    0 -0.21025900004E+03 -0.10883289169E+04  0.25571493472E+03  0.11375670557E+04  0.25500000920E-02 0.  1.
       -2    1    3    3    0  502  0.21025900004E+03  0.10883289169E+04 -0.21245054510E+04  0.23962871467E+04  0.25500000920E-02 0. -1.
</event>
<event>
 5   0  0.7585823E-07  0.3001013E+04  0.7818609E-02  0.8243442E-01
        2   -1    0    0  501    0  0.00000000000E+00  0.00000000000E+00  0.20335528996E+04  0.20335528996E+04  0.25500000920E-02 0. -1.
       -2   -1    0    0    0  501  0.00000000000E+00  0.00000000000E+00 -0.11071854074E+04  0.11071854074E+04  0.25500000920E-02 0.  1.
    10030    2    1    2    0    0  0.00000000000E+00  0.00000000000E+00  0.92636749221E+03  0.31407383069E+04  0.30010132259E+04 0.  0.
        5    1    3    3  502    0  0.68696312491E+03 -0.10385514148E+04  0.13394174385E+04  0.18288161582E+04  0.46999998093E+01 0. -1.
       -5    1    3    3    0  502 -0.68696312491E+03  0.10385514148E+04 -0.41304994625E+03  0.13119221487E+04  0.46999998093E+01 0.  1.
</event>
<event>
 5   0  0.2640081E-07  0.2998090E+04  0.7818609E-02  0.8244276E-01
       -1   -1    0    0    0  501  0.00000000000E+00  0.00000000000E+00  0.13796280659E+04  0.13796280659E+04  0.50400001928E-02 0. -1.
        1   -1    0    0  501    0  0.00000000000E+00  0.00000000000E+00 -0.16287985935E+04  0.16287985935E+04  0.50400001928E-02 0.  1.
    10030    2    1    2    0    0  0.00000000000E+00  0.00000000000E+00 -0.24917052758E+03  0.30084266594E+04  0.29980902277E+04 0.  0.
        1    1    3    3  502    0  0.44454483132E+03 -0.17495982788E+03  0.13011953113E+04  0.13861241960E+04  0.50400001928E-02 0. -1.
       -1    1    3    3    0  502 -0.44454483132E+03  0.17495982788E+03 -0.15503658389E+04  0.16223024635E+04  0.50400001928E-02 0.  1.
</event>
<event>
 5   0  0.7278657E-07  0.2998943E+04  0.7818609E-02  0.8244033E-01
        2   -1    0    0  501    0  0.00000000000E+00  0.00000000000E+00  0.18789682348E+04  0.18789682348E+04  0.25500000920E-02 0.  1.
       -2   -1    0    0    0  501  0.00000000000E+00  0.00000000000E+00 -0.11966219980E+04  0.11966219980E+04  0.25500000920E-02 0. -1.
    10030    2    1    2    0    0  0.00000000000E+00  0.00000000000E+00  0.68234623677E+03  0.30755902328E+04  0.29989429627E+04 0.  0.
        2    1    3    3  502    0  0.13064613097E+04 -0.10321565668E+03  0.10884384771E+04  0.17035823854E+04  0.25500000920E-02 0.  1.
       -2    1    3    3    0  502 -0.13064613097E+04  0.10321565668E+03 -0.40609224035E+03  0.13720078474E+04  0.25500000920E-02 0. -1.
</event>
<event>
 5   0  0.2602891E-07  0.2996056E+04  0.7818609E-02  0.8244858E-01
        1   -1    0    0  501    0  0.00000000000E+00  0.00000000000E+00  0.13867898976E+04  0.13867898977E+04  0.50400001928E-02 0.  1.
       -1   -1    0    0    0  501  0.00000000000E+00  0.00000000000E+00 -0.16181888718E+04  0.16181888718E+04  0.50400001928E-02 0. -1.
    10030    2    1    2    0    0  0.00000000000E+00  0.00000000000E+00 -0.23139897419E+03  0.30049787695E+04  0.29960560609E+04 0.  0.
        5    1    3    3  502    0 -0.47943132432E+03 -0.88850590660E+03 -0.12256880932E+04  0.15879642731E+04  0.46999998093E+01 0. -1.
       -5    1    3    3    0  502  0.47943132432E+03  0.88850590660E+03  0.99428911902E+03  0.14170144964E+04  0.46999998093E+01 0.  1.
</event>
<event>
 5   0  0.2621825E-07  0.2992311E+04  0.7818609E-02  0.8245930E-01
       -1   -1    0    0    0  501  0.00000000000E+00  0.00000000000E+00  0.88991945637E+03  0.88991945639E+03  0.50400001928E-02 0. -1.
        1   -1    0    0  501    0  0.00000000000E+00  0.00000000000E+00 -0.25153752629E+04  0.25153752629E+04  0.50400001928E-02 0.  1.
    10030    2    1    2    0    0  0.00000000000E+00  0.00000000000E+00 -0.16254558065E+04  0.34052947193E+04  0.29923110711E+04 0.  0.
        3    1    3    3  502    0 -0.11798010742E+04  0.26865824600E+03  0.18870814477E+03  0.12246299857E+04  0.10100000352E+00 0. -1.
       -3    1    3    3    0  502  0.11798010742E+04 -0.26865824600E+03 -0.18141639513E+04  0.21806647335E+04  0.10100000352E+00 0.  1.
</event>
<event>
 5   0  0.7208273E-07  0.3004443E+04  0.7818609E-02  0.8242463E-01
        2   -1    0    0  501    0  0.00000000000E+00  0.00000000000E+00  0.18204973355E+04  0.18204973355E+04  0.25500000920E-02 0. -1.
       -2   -1    0    0    0  501  0.00000000000E+00  0.00000000000E+00 -0.12395898013E+04  0.12395898013E+04  0.25500000920E-02 0.  1.
    10030    2    1    2    0    0  0.00000000000E+00  0.00000000000E+00  0.58090753420E+03  0.30600871367E+04  0.30044433297E+04 0.  0.
        4    1    3    3  502    0 -0.42999506487E+03  0.94252439831E+03 -0.81754502691E+03  0.13197081045E+04  0.12699999809E+01 0.  1.
       -4    1    3    3    0  502  0.42999506487E+03 -0.94252439831E+03  0.13984525611E+04  0.17403790322E+04  0.12699999809E+01 0. -1.
</event>
<event>
 5   0  0.2602891E-07  0.3002745E+04  0.7818609E-02  0.8242947E-01
        1   -1    0    0  501    0  0.00000000000E+00  0.00000000000E+00  0.13042050653E+04  0.13042050653E+04  0.50400001928E-02 0. -1.
       -1   -1    0    0    0  501  0.00000000000E+00  0.00000000000E+00 -0.17283474568E+04  0.17283474568E+04  0.50400001928E-02 0.  1.
    10030    2    1    2    0    0  0.00000000000E+00  0.00000000000E+00 -0.42414239149E+03  0.30325525222E+04  0.30027450827E+04 0.  0.
        5    1    3    3  502    0 -0.95483006767E+03  0.97868032836E+03  0.41423140694E+03  0.14286795973E+04  0.46999998093E+01 0.  1.
       -5    1    3    3    0  502  0.95483006767E+03 -0.97868032836E+03 -0.83837379843E+03  0.16038729249E+04  0.46999998093E+01 0. -1.
</event>
<event>
 5   0  0.2640081E-07  0.3004773E+04  0.7818609E-02  0.8242369E-01
       -1   -1    0    0    0  501  0.00000000000E+00  0.00000000000E+00  0.17946851342E+04  0.17946851342E+04  0.50400001928E-02 0. -1.
        1   -1    0    0  501    0  0.00000000000E+00  0.00000000000E+00 -0.12576941212E+04  0.12576941212E+04  0.50400001928E-02 0.  1.
    10030    2    1    2    0    0  0.00000000000E+00  0.00000000000E+00  0.53699101296E+03  0.30523792555E+04  0.30047728319E+04 0.  0.
        1    1    3    3  502    0  0.41579895101E+03  0.84947889023E+03  0.14543212888E+04  0.17348064917E+04  0.50400001928E-02 0. -1.
       -1    1    3    3    0  502 -0.41579895101E+03 -0.84947889023E+03 -0.91733027588E+03  0.13175727637E+04  0.50400001928E-02 0.  1.
</event>
<event>
 5   0  0.2602891E-07  0.2994773E+04  0.7818609E-02  0.8245225E-01
        1   -1    0    0  501    0  0.00000000000E+00  0.00000000000E+00  0.20301269280E+04  0.20301269280E+04  0.50400001928E-02 0. -1.
       -1   -1    0    0    0  501  0.00000000000E+00  0.00000000000E+00 -0.11044466313E+04  0.11044466313E+04  0.50400001928E-02 0.  1.
    10030    2    1    2    0    0  0.00000000000E+00  0.00000000000E+00  0.92568029664E+03  0.31345735593E+04  0.29947733449E+04 0.  0.
        5    1    3    3  502    0  0.18551493114E+03  0.59107820792E+03  0.18896920810E+04  0.19886546931E+04  0.46999998093E+01 0.  1.
       -5    1    3    3    0  502 -0.18551493114E+03 -0.59107820792E+03 -0.96401178434E+03  0.11459188662E+04  0.46999998093E+01 0. -1.
</event>
<event>
 5   0  0.7585823E-07  0.3003798E+04  0.7818609E-02  0.8242647E-01
       -2   -1    0    0    0  501  0.00000000000E+00  0.00000000000E+00  0.11357119618E+04  0.11357119618E+04  0.25500000920E-02 0.  1.
        2   -1    0    0  501    0  0.00000000000E+00  0.00000000000E+00 -0.19861558634E+04  0.19861558634E+04  0.25500000920E-02 0. -1.
    10030    2    1    2    0    0  0.00000000000E+00  0.00000000000E+00 -0.85044390161E+03  0.31218678252E+04  0.30037982436E+04 0.  0.
        5    1    3    3  502    0  0.63385667570E+03  0.15719446929E+03  0.98041671701E+03  0.11780167297E+04  0.46999998093E+01 0.  1.
       -5    1    3    3    0  502 -0.63385667570E+03 -0.15719446929E+03 -0.18308606186E+04  0.19438510955E+04  0.46999998093E+01 0. -1.
</event>
<event>
 5   0  0.2640081E-07  0.2986441E+04  0.7818609E-02  0.8247613E-01
       -1   -1    0    0    0  501  0.00000000000E+00  0.00000000000E+00  0.86155202049E+03  0.86155202051E+03  0.50400001928E-02 0.  1.
        1   -1    0    0  501    0  0.00000000000E+00  0.00000000000E+00 -0.25880132958E+04  0.25880132958E+04  0.50400001928E-02 0. -1.
    10030    2    1    2    0    0  0.00000000000E+00  0.00000000000E+00 -0.17264612753E+04  0.34495653163E+04  0.29864414169E+04 0.  0.
        1    1    3    3  502    0  0.44950556979E+03  0.85519230142E+03 -0.21783432961E+04  0.23829789436E+04  0.50400001928E-02 0. -1.
       -1    1    3    3    0  502 -0.44950556979E+03 -0.85519230142E+03  0.45188202085E+03  0.10665863727E+04  0.50400001928E-02 0.  1.
</event>
<event>
 5   0  0.2414250E-07  0.2981565E+04  0.7818609E-02  0.8249015E-01
        3   -1    0    0  501    0  0.00000000000E+00  0.00000000000E+00  0.13628152689E+04  0.13628152727E+04  0.10100000352E+00 0.  1.
       -3   -1    0    0    0  501  0.00000000000E+00  0.00000000000E+00 -0.16307659727E+04  0.16307659758E+04  0.10100000352E+00 0. -1.
    10030    2    1    2    0    0  0.00000000000E+00  0.00000000000E+00 -0.26795070380E+03  0.29935812485E+04  0.29815652117E+04 0.  0.
        2    1    3    3  502    0 -0.20944257939E+03 -0.88888310893E+02  0.13452801196E+04  0.13643848160E+04  0.25500000920E-02 0.  1.
       -2    1    3    3    0  502  0.20944257939E+03  0.88888310893E+02 -0.16132308234E+04  0.16291964325E+04  0.25500000920E-02 0. -1.
</event>
<event>
 5   0  0.7585823E-07  0.2975288E+04  0.7818609E-02  0.8250823E-01
        2   -1    0    0  501    0  0.00000000000E+00  0.00000000000E+00  0.15372767543E+04  0.15372767543E+04  0.25500000920E-02 0. -1.
       -2   -1    0    0    0  501  0.00000000000E+00  0.00000000000E+00 -0.14396139389E+04  0.14396139389E+04  0.25500000920E-02 0.  1.
    10030    2    1    2    0    0  0.00000000000E+00  0.00000000000E+00  0.97662815391E+02  0.29768906933E+04  0.29752882506E+04 0.  0.
        5    1    3    3  502    0  0.11376867029E+04 -0.94011029644E+03 -0.13815035599E+03  0.14823110383E+04  0.46999998093E+01 0. -1.
       -5    1    3    3    0  502 -0.11376867029E+04  0.94011029644E+03  0.23581317138E+03  0.14945796550E+04  0.46999998093E+01 0.  1.
</event>
<event>
 5   0  0.2602891E-07  0.2999641E+04  0.7818609E-02  0.8243833E-01
        1   -1    0    0  501    0  0.00000000000E+00  0.00000000000E+00  0.26187960881E+04  0.26187960881E+04  0.50400001928E-02 0.  1.
       -1   -1    0    0    0  501  0.00000000000E+00  0.00000000000E+00 -0.85896766802E+03  0.85896766803E+03  0.50400001928E-02 0. -1.
    10030    2    1    2    0    0  0.00000000000E+00  0.00000000000E+00  0.17598284201E+04  0.34777637562E+04  0.29996407577E+04 0.  0.
        5    1    3    3  502    0  0.11787489763E+04  0.92258801079E+03  0.98880644950E+03  0.17939838549E+04  0.46999998093E+01 0. -1.
       -5    1    3    3    0  502 -0.11787489763E+04 -0.92258801079E+03  0.77102197059E+03  0.16837799013E+04  0.46999998093E+01 0.  1.
</event>
<event>
 5   0  0.7208273E-07  0.3001234E+04  0.7818609E-02  0.8243379E-01
        2   -1    0    0  501    0  0.00000000000E+00  0.00000000000E+00  0.22353295550E+04  0.22353295550E+04  0.25500000920E-02 0. -1.
       -2   -1    0    0    0  501  0.00000000000E+00  0.00000000000E+00 -0.10073912165E+04  0.10073912165E+04  0.25500000920E-02 0.  1.
    10030    2    1    2    0    0  0.00000000000E+00  0.00000000000E+00  0.12279383385E+04  0.32427207716E+04  0.30012339861E+04 0.  0.
        4    1    3    3  502    0  0.58261147890E+03 -0.10827049234E+03  0.21035547843E+04  0.21854297010E+04  0.12699999809E+01 0. -1.
       -4    1    3    3    0  502 -0.58261147890E+03  0.10827049234E+03 -0.87561644577E+03  0.10572910705E+04  0.12699999809E+01 0.  1.
</event>
<event>
 5   0  0.2792361E-07  0.2998180E+04  0.7818609E-02  0.8244251E-01
        1   -1    0    0  501    0  0.00000000000E+00  0.00000000000E+00  0.29428040044E+04  0.29428040044E+04  0.50400001928E-02 0.  1.
       -1   -1    0    0    0  501  0.00000000000E+00  0.00000000000E+00 -0.76364963319E+03  0.76364963320E+03  0.50400001928E-02 0. -1.
    10030    2    1    2    0    0  0.00000000000E+00  0.00000000000E+00  0.21791543712E+04  0.37064536376E+04  0.29981802471E+04 0.  0.
        4    1    3    3  502    0 -0.34396622783E+03 -0.13070279712E+04  0.28780057477E+03  0.13818341677E+04  0.12699999809E+01 0. -1.
       -4    1    3    3    0  502  0.34396622783E+03  0.13070279712E+04  0.18913537964E+04  0.23246194698E+04  0.12699999809E+01 0.  1.
</event>
<event>
 5   0  0.2679935E-07  0.3001640E+04  0.7818609E-02  0.8243263E-01
        1   -1    0    0  501    0  0.00000000000E+00  0.00000000000E+00  0.19315974800E+04  0.19315974800E+04  0.50400001928E-02 0.  1.
       -1   -1    0    0    0  501  0.00000000000E+00  0.00000000000E+00 -0.11661129587E+04  0.11661129587E+04  0.50400001928E-02 0. -1.
    10030    2    1    2    0    0  0.00000000000E+00  0.00000000000E+00  0.76548452132E+03  0.30977104387E+04  0.30016401200E+04 0.  0.
        2    1    3    3  502    0 -0.87570633683E+03 -0.10801727112E+03  0.16356550801E+04  0.18584662656E+04  0.25500000920E-02 0.  1.
       -2    1    3    3    0  502  0.87570633683E+03  0.10801727112E+03 -0.87017055881E+03  0.12392441731E+04  0.25500000920E-02 0. -1.
</event>
<event>
 5   0  0.2621825E-07  0.2992876E+04  0.7818609E-02  0.8245768E-01
       -1   -1    0    0    0  501  0.00000000000E+00  0.00000000000E+00  0.10946110549E+04  0.10946110549E+04  0.50400001928E-02 0. -1.
        1   -1    0    0  501    0  0.00000000000E+00  0.00000000000E+00 -0.20457740941E+04  0.20457740941E+04  0.50400001928E-02 0.  1.
    10030    2    1    2    0    0  0.00000000000E+00  0.00000000000E+00 -0.95116303925E+03  0.31403851490E+04  0.29928761680E+04 0.  0.
        3    1    3    3  502    0 -0.19466956853E+02  0.85849798951E+03 -0.17615161519E+04  0.19596777603E+04  0.10100000352E+00 0.  1.
       -3    1    3    3    0  502  0.19466956853E+02 -0.85849798951E+03  0.81035311270E+03  0.11807073888E+04  0.10100000352E+00 0. -1.
</event>
<event>
 5   0  0.7399409E-07  0.3001593E+04  0.7818609E-02  0.8243276E-01
        2   -1    0    0  501    0  0.00000000000E+00  0.00000000000E+00  0.12893857418E+04  0.12893857418E+04  0.25500000920E-02 0. -1.
       -2   -1    0    0    0  501  0.00000000000E+00  0.00000000000E+00 -0.17468704491E+04  0.17468704491E+04  0.25500000920E-02 0.  1.
    10030    2    1    2    0    0  0.00000000000E+00  0.00000000000E+00 -0.45748470729E+03  0.30362561909E+04  0.30015928104E+04 0.  0.
        3    1    3    3  502    0  0.82238029998E+03  0.49502478375E+03 -0.13957688412E+04  0.16939685837E+04  0.10100000352E+00 0.  1.
       -3    1    3    3    0  502 -0.82238029998E+03 -0.49502478375E+03  0.93828413392E+03  0.13422876072E+04  0.10100000352E+00 0. -1.
</event>
<event>
 5   0  0.2679935E-07  0.2999105E+04  0.7818609E-02  0.8243986E-01
        1   -1    0    0  501    0  0.00000000000E+00  0.00000000000E+00  0.21540216981E+04  0.21540216981E+04  0.50400001928E-02 0. -1.
       -1   -1    0    0    0  501  0.00000000000E+00  0.00000000000E+00 -0.10439346999E+04  0.10439346999E+04  0.50400001928E-02 0.  1.
    10030    2    1    2    0    0  0.00000000000E+00  0.00000000000E+00  0.11100869982E+04  0.31979563981E+04  0.29991051966E+04 0.  0.
        2    1    3    3  502    0  0.38255346995E+03 -0.63108524701E+03  0.19469851099E+04  0.20821543566E+04  0.25500000920E-02 0. -1.
       -2    1    3    3    0  502 -0.38255346995E+03  0.63108524701E+03 -0.83689811172E+03  0.11158020415E+04  0.25500000920E-02 0.  1.
</event>
<event>
 5   0  0.2679935E-07  0.2994476E+04  0.7818609E-02  0.8245310E-01
        1   -1    0    0  501    0  0.00000000000E+00  0.00000000000E+00  0.21712898069E+04  0.21712898069E+04  0.50400001928E-02 0.  1.
       -1   -1    0    0    0  501  0.00000000000E+00  0.00000000000E+00 -0.10324378711E+04  0.10324378711E+04  0.50400001928E-02 0. -1.
    10030    2    1    2    0    0  0.00000000000E+00  0.00000000000E+00  0.11388519358E+04  0.32037276780E+04  0.29944761317E+04 0.  0.
        2    1    3    3  502    0  0.11458317619E+04  0.76131970513E+03 -0.62784558135E+02  0.13771274526E+04  0.25500000920E-02 0.  1.
       -2    1    3    3    0  502 -0.11458317619E+04 -0.76131970513E+03  0.12016364939E+04  0.18266002254E+04  0.25500000920E-02 0. -1.
</event>
<event>
 5   0  0.7585823E-07  0.2987228E+04  0.7818609E-02  0.8247388E-01
       -2   -1    0    0    0  501  0.00000000000E+00  0.00000000000E+00  0.10143017876E+04  0.10143017876E+04  0.25500000920E-02 0. -1.
        2   -1    0    0  501    0  0.00000000000E+00  0.00000000000E+00 -0.21994265545E+04  0.21994265545E+04  0.25500000920E-02 0.  1.
    10030    2    1    2    0    0  0.00000000000E+00  0.00000000000E+00 -0.11851247669E+04  0.32137283421E+04  0.29872276686E+04 0.  0.
        5    1    3    3  502    0  0.74979799940E+03 -0.28311960294E+03  0.76336156238E+03  0.11068408713E+04  0.46999998093E+01 0. -1.
       -5    1    3    3    0  502 -0.74979799940E+03  0.28311960294E+03 -0.19484863293E+04  0.21068874708E+04  0.46999998093E+01 0.  1.
</event>
<event>
 5   0  0.7208273E-07  0.2997012E+04  0.7818609E-02  0.8244585E-01
       -2   -1    0    0    0  501  0.00000000000E+00  0.00000000000E+00  0.17721155715E+04  0.17721155715E+04  0.25500000920E-02 0.  1.
        2   -1    0    0  501    0  0.00000000000E+00  0.00000000000E+00 -0.12671405845E+04  0.12671405845E+04  0.25500000920E-02 0. -1.
    10030    2    1    2    0    0  0.00000000000E+00  0.00000000000E+00  0.50497498694E+03  0.30392561560E+04  0.29970115522E+04 0.  0.
        4    1    3    3  502    0  0.86897117655E+03  0.72715224330E+03 -0.74197614755E+03  0.13543971009E+04  0.12699999809E+01 0. -1.
       -4    1    3    3    0  502 -0.86897117655E+03 -0.72715224330E+03  0.12469511345E+04  0.16848590550E+04  0.12699999809E+01 0.  1.
</event>
<event>
 5   0  0.2679935E-07  0.2964253E+04  0.7818609E-02  0.8254013E-01
        1   -1    0    0  501    0  0.00000000000E+00  0.00000000000E+00  0.18727130595E+04  0.18727130595E+04  0.50400001928E-02 0.  1.
       -1   -1    0    0    0  501  0.00000000000E+00  0.00000000000E+00 -0.11730037633E+04  0.11730037633E+04  0.50400001928E-02 0. -1.
    10030    2    1    2    0    0  0.00000000000E+00  0.00000000000E+00  0.69970929623E+03  0.30457168228E+04  0.29642533403E+04 0.  0.
        2    1    3    3  502    0 -0.57540966412E+03  0.80733264879E+03 -0.78215686546E+03  0.12627951732E+04  0.25500000920E-02 0. -1.
       -2    1    3    3    0  502  0.57540966412E+03 -0.80733264879E+03  0.14818661617E+04  0.17829216496E+04  0.25500000920E-02 0.  1.
</event>
<event>
 5   0  0.2621825E-07  0.3043481E+04  0.7818609E-02  0.8231422E-01
        1   -1    0    0  501    0  0.00000000000E+00  0.00000000000E+00  0.22265889251E+04  0.22265889251E+04  0.50400001928E-02 0.  1.
       -1   -1    0    0    0  501  0.00000000000E+00  0.00000000000E+00 -0.10400189015E+04  0.10400189015E+04  0.50400001928E-02 0. -1.
    10030    2    1    2    0    0  0.00000000000E+00  0.00000000000E+00  0.11865700236E+04  0.32666078266E+04  0.30434812751E+04 0.  0.
        3    1    3    3  502    0  0.30866020685E+03 -0.27535326776E+03 -0.97852453141E+03  0.10623562558E+04  0.10100000352E+00 0. -1.
       -3    1    3    3    0  502 -0.30866020685E+03  0.27535326776E+03  0.21650945550E+04  0.22042515709E+04  0.10100000352E+00 0.  1.
</event>
<event>
 5   0  0.2621825E-07  0.3001246E+04  0.7818609E-02  0.8243375E-01
       -1   -1    0    0    0  501  0.00000000000E+00  0.00000000000E+00  0.14814070582E+04  0.14814070582E+04  0.50400001928E-02 0.  1.
        1   -1    0    0  501    0  0.00000000000E+00  0.00000000000E+00 -0.15200884722E+04  0.15200884722E+04  0.50400001928E-02 0. -1.
    10030    2    1    2    0    0  0.00000000000E+00  0.00000000000E+00 -0.38681414017E+02  0.30014955304E+04  0.30012462690E+04 0.  0.
        3    1    3    3  502    0 -0.98752375610E+02  0.10472000294E+04  0.10510237768E+04  0.14869535712E+04  0.10100000352E+00 0.  1.
       -3    1    3    3    0  502  0.98752375610E+02 -0.10472000294E+04 -0.10897051908E+04  0.15145419592E+04  0.10100000352E+00 0. -1.
</event>
<event>
 5   0  0.7278657E-07  0.2963605E+04  0.7818609E-02  0.8254201E-01
        2   -1    0    0  501    0  0.00000000000E+00  0.00000000000E+00  0.18872330708E+04  0.18872330708E+04  0.25500000920E-02 0.  1.
       -2   -1    0    0    0  501  0.00000000000E+00  0.00000000000E+00 -0.11634694596E+04  0.11634694596E+04  0.25500000920E-02 0. -1.
    10030    2    1    2    0    0  0.00000000000E+00  0.00000000000E+00  0.72376361122E+03  0.30507025303E+04  0.29636045896E+04 0.  0.
        2    1    3    3  502    0  0.76370289829E+03  0.10520206945E+03 -0.94078507971E+03  0.12163001926E+04  0.25500000920E-02 0. -1.
       -2    1    3    3    0  502 -0.76370289829E+03 -0.10520206945E+03  0.16645486909E+04  0.18344023378E+04  0.25500000920E-02 0.  1.
</event>
<event>
 5   0  0.2640081E-07  0.2989213E+04  0.7818609E-02  0.8246818E-01
       -1   -1    0    0    0  501  0.00000000000E+00  0.00000000000E+00  0.20699016903E+04  0.20699016903E+04  0.50400001928E-02 0. -1.
        1   -1    0    0  501    0  0.00000000000E+00  0.00000000000E+00 -0.10792048110E+04  0.10792048110E+04  0.50400001928E-02 0.  1.
    10030    2    1    2    0    0  0.00000000000E+00  0.00000000000E+00  0.99069687933E+03  0.31491065014E+04  0.29892125134E+04 0.  0.
        1    1    3    3  502    0  0.81346686157E+03  0.10206279149E+04 -0.27192108360E+03  0.13331731888E+04  0.50400001928E-02 0.  1.
       -1    1    3    3    0  502 -0.81346686157E+03 -0.10206279149E+04  0.12626179629E+04  0.18159333126E+04  0.50400001928E-02 0. -1.
</event>
<event>
 5   0  0.7585823E-07  0.2998362E+04  0.7818609E-02  0.8244199E-01
        2   -1    0    0  501    0  0.00000000000E+00  0.00000000000E+00  0.15138724931E+04  0.15138724931E+04  0.25500000920E-02 0.  1.
       -2   -1    0    0    0  501  0.00000000000E+00  0.00000000000E+00 -0.14846325405E+04  0.14846325405E+04  0.25500000920E-02 0. -1.
    10030    2    1    2    0    0  0.00000000000E+00  0.00000000000E+00  0.29239952599E+02  0.29985050336E+04  0.29983624634E+04 0.  0.
        5    1    3    3  502    0 -0.12649030925E+04  0.79221840674E+03  0.15580897652E+03  0.15006293228E+04  0.46999998093E+01 0.  1.
       -5    1    3    3    0  502  0.12649030925E+04 -0.79221840674E+03 -0.12656902392E+03  0.14978757108E+04  0.46999998093E+01 0. -1.
</event>
<event>
 5   0  0.2621825E-07  0.3007217E+04  0.7818609E-02  0.8241673E-01
        1   -1    0    0  501    0  0.00000000000E+00  0.00000000000E+00  0.19261952475E+04  0.19261952475E+04  0.50400001928E-02 0. -1.
       -1   -1    0    0    0  501  0.00000000000E+00  0.00000000000E+00 -0.11737327164E+04  0.11737327164E+04  0.50400001928E-02 0.  1.
    10030    2    1    2    0    0  0.00000000000E+00  0.00000000000E+00  0.75246253112E+03  0.30999279639E+04  0.30072169062E+04 0.  0.
        3    1    3    3  502    0 -0.12666682191E+04  0.55828462712E+02  0.12094024866E+04  0.17522042060E+04  0.10100000352E+00 0. -1.
       -3    1    3    3    0  502  0.12666682191E+04 -0.55828462712E+02 -0.45693995547E+03  0.13477237580E+04  0.10100000352E+00 0.  1.
</event>
<event>
 5   0  0.7278657E-07  0.2999615E+04  0.7818609E-02  0.8243841E-01
       -2   -1    0    0    0  501  0.00000000000E+00  0.00000000000E+00  0.17251874097E+04  0.17251874097E+04  0.25500000920E-02 0. -1.
        2   -1    0    0  501    0  0.00000000000E+00  0.00000000000E+00 -0.13038714193E+04  0.13038714193E+04  0.25500000920E-02 0.  1.
    10030    2    1    2    0    0  0.00000000000E+00  0.00000000000E+00  0.42131599037E+03  0.30290588291E+04  0.29996150130E+04 0.  0.
        2    1    3    3  502    0 -0.18906207550E+03 -0.64343364001E+03  0.15653444163E+04  0.17029546262E+04  0.25500000920E-02 0. -1.
       -2    1    3    3    0  502  0.18906207550E+03  0.64343364001E+03 -0.11440284259E+04  0.13261042028E+04  0.25500000920E-02 0.  1.
</event>
<event>
 5   0  0.7585823E-07  0.3014445E+04  0.7818609E-02  0.8239618E-01
        2   -1    0    0  501    0  0.00000000000E+00  0.00000000000E+00  0.21200121172E+04  0.21200121172E+04  0.25500000920E-02 0. -1.
       -2   -1    0    0    0  501  0.00000000000E+00  0.00000000000E+00 -0.10715595106E+04  0.10715595106E+04  0.25500000920E-02 0.  1.
    10030    2    1    2    0    0  0.00000000000E+00  0.00000000000E+00  0.10484526067E+04  0.31915716278E+04  0.30144446565E+04 0.  0.
        5    1    3    3  502    0 -0.16721801461E+03 -0.14190991877E+04  0.10318710071E+04  0.17625504913E+04  0.46999998093E+01 0. -1.
       -5    1    3    3    0  502  0.16721801461E+03  0.14190991877E+04  0.16581599560E+02  0.14290211365E+04  0.46999998093E+01 0.  1.
</event>
<event>
 5   0  0.2640081E-07  0.2991138E+04  0.7818609E-02  0.8246266E-01
       -1   -1    0    0    0  501  0.00000000000E+00  0.00000000000E+00  0.15931178680E+04  0.15931178680E+04  0.50400001928E-02 0. -1.
        1   -1    0    0  501    0  0.00000000000E+00  0.00000000000E+00 -0.14039933816E+04  0.14039933816E+04  0.50400001928E-02 0.  1.
    10030    2    1    2    0    0  0.00000000000E+00  0.00000000000E+00  0.18912448640E+03  0.29971112495E+04  0.29911382065E+04 0.  0.
        1    1    3    3  502    0  0.13512594910E+04  0.36088326015E+03  0.62532560068E+03  0.15320479909E+04  0.50400001928E-02 0. -1.
       -1    1    3    3    0  502 -0.13512594910E+04 -0.36088326015E+03 -0.43620111428E+03  0.14650632586E+04  0.50400001928E-02 0.  1.
</event>
<event>
 5   0  0.2792361E-07  0.3002621E+04  0.7818609E-02  0.8242983E-01
        1   -1    0    0  501    0  0.00000000000E+00  0.00000000000E+00  0.15504538241E+04  0.15504538241E+04  0.50400001928E-02 0. -1.
       -1   -1    0    0    0  501  0.00000000000E+00  0.00000000000E+00 -0.14537249066E+04  0.14537249066E+04  0.50400001928E-02 0.  1.
    10030    2    1    2    0    0  0.00000000000E+00  0.00000000000E+00  0.96728917471E+02  0.30041787307E+04  0.30026210821E+04 0.  0.
        4    1    3    3  502    0  0.50051181288E+03 -0.13692708089E+04  0.40704325543E+03  0.15136381495E+04  0.12699999809E+01 0.  1.
       -4    1    3    3    0  502 -0.50051181288E+03  0.13692708089E+04 -0.31031433796E+03  0.14905405812E+04  0.12699999809E+01 0. -1.
</event>
<event>
 5   0  0.7399409E-07  0.3005407E+04  0.7818609E-02  0.8242189E-01
        2   -1    0    0  501    0  0.00000000000E+00  0.00000000000E+00  0.30449057096E+04  0.30449057096E+04  0.25500000920E-02 0. -1.
       -2   -1    0    0    0  501  0.00000000000E+00  0.00000000000E+00 -0.74160516458E+03  0.74160516459E+03  0.25500000920E-02 0.  1.
    10030    2    1    2    0    0  0.00000000000E+00  0.00000000000E+00  0.23033005451E+04  0.37865108742E+04  0.30054069940E+04 0.  0.
        3    1    3    3  502    0 -0.59305180123E+03 -0.11317041019E+04  0.21482086460E+04  0.24994529421E+04  0.10100000352E+00 0. -1.
       -3    1    3    3    0  502  0.59305180123E+03  0.11317041019E+04  0.15509189910E+03  0.12870579321E+04  0.10100000352E+00 0.  1.
</event>
<event>
 5   0  0.2602891E-07  0.3001602E+04  0.7818609E-02  0.8243274E-01
       -1   -1    0    0    0  501  0.00000000000E+00  0.00000000000E+00  0.11242376080E+04  0.11242376080E+04  0.50400001928E-02 0. -1.
        1   -1    0    0  501    0  0.00000000000E+00  0.00000000000E+00 -0.20034942648E+04  0.20034942648E+04  0.50400001928E-02 0.  1.
    10030    2    1    2    0    0  0.00000000000E+00  0.00000000000E+00 -0.87925665680E+03  0.31277318727E+04  0.30016019721E+04 0.  0.
        5    1    3    3  502    0  0.13139461105E+04  0.24810332672E+03  0.27045507903E+03  0.13642498605E+04  0.46999998093E+01 0.  1.
       -5    1    3    3    0  502 -0.13139461105E+04 -0.24810332672E+03 -0.11497117358E+04  0.17634820123E+04  0.46999998093E+01 0. -1.
</event>
<event>
 5   0  0.7307508E-07  0.2995911E+04  0.7818609E-02  0.8244899E-01
       -2   -1    0    0    0  501  0.00000000000E+00  0.00000000000E+00  0.14141047551E+04  0.14141047551E+04  0.25500000920E-02 0.  1.
        2   -1    0    0  501    0  0.00000000000E+00  0.00000000000E+00 -0.15867783378E+04  0.15867783378E+04  0.25500000920E-02 0. -1.
    10030    2    1    2    0    0  0.00000000000E+00  0.00000000000E+00 -0.17267358274E+03  0.30008830929E+04  0.29959110753E+04 0.  0.
        1    1    3    3  502    0 -0.12480883114E+04  0.77315207651E+03 -0.38412166028E+03  0.15175763626E+04  0.50400001928E-02 0.  1.
       -1    1    3    3    0  502  0.12480883114E+04 -0.77315207651E+03  0.21144807755E+03  0.14833067302E+04  0.50400001928E-02 0. -1.
</event>
<event>
 5   0  0.2640081E-07  0.3002376E+04  0.7818609E-02  0.8243053E-01
        1   -1    0    0  501    0  0.00000000000E+00  0.00000000000E+00  0.27182794529E+04  0.27182794529E+04  0.50400001928E-02 0.  1.
       -1   -1    0    0    0  501  0.00000000000E+00  0.00000000000E+00 -0.82904107175E+03  0.82904107177E+03  0.50400001928E-02 0. -1.
    10030    2    1    2    0    0  0.00000000000E+00  0.00000000000E+00  0.18892383811E+04  0.35473205247E+04  0.30023759331E+04 0.  0.
        1    1    3    3  502    0 -0.10410223862E+03  0.60447749977E+03  0.25634678449E+04  0.26358296067E+04  0.50400001928E-02 0.  1.
       -1    1    3    3    0  502  0.10410223862E+03 -0.60447749977E+03 -0.67422946371E+03  0.91149091799E+03  0.50400001928E-02 0. -1.
</event>
<event>
 5   0  0.7278657E-07  0.2998568E+04  0.7818609E-02  0.8244140E-01
       -2   -1    0    0    0  501  0.00000000000E+00  0.00000000000E+00  0.99974747405E+03  0.99974747405E+03  0.25500000920E-02 0.  1.
        2   -1    0    0  501    0  0.00000000000E+00  0.00000000000E+00 -0.22484196008E+04  0.22484196008E+04  0.25500000920E-02 0. -1.
    10030    2    1    2    0    0  0.00000000000E+00  0.00000000000E+00 -0.12486721267E+04  0.32481670748E+04  0.29985675356E+04 0.  0.
        2    1    3    3  502    0  0.10280518979E+04  0.61849272827E+03 -0.15983051214E+04  0.19985002429E+04  0.25500000920E-02 0. -1.
       -2    1    3    3    0  502 -0.10280518979E+04 -0.61849272827E+03  0.34963299469E+03  0.12496668319E+04  0.25500000920E-02 0.  1.
</event>
<event>
 5   0  0.2621825E-07  0.2997207E+04  0.7818609E-02  0.8244529E-01
       -1   -1    0    0    0  501  0.00000000000E+00  0.00000000000E+00  0.13557610565E+04  0.13557610565E+04  0.50400001928E-02 0.  1.
        1   -1    0    0  501    0  0.00000000000E+00  0.00000000000E+00 -0.16564955937E+04  0.16564955937E+04  0.50400001928E-02 0. -1.
    10030    2    1    2    0    0  0.00000000000E+00  0.00000000000E+00 -0.30073453725E+03  0.30122566502E+04  0.29972068438E+04 0.  0.
        3    1    3    3  502    0  0.86877769864E+02 -0.51151512525E+03  0.12626142789E+04  0.13650605473E+04  0.10100000352E+00 0.  1.
       -3    1    3    3    0  502 -0.86877769864E+02  0.51151512525E+03 -0.15633488161E+04  0.16471961029E+04  0.10100000352E+00 0. -1.
</event>
<event>
 5   0  0.7208273E-07  0.2972349E+04  0.7818609E-02  0.8251671E-01
        2   -1    0    0  501    0  0.00000000000E+00  0.00000000000E+00  0.27046974605E+04  0.27046974605E+04  0.25500000920E-02 0. -1.
       -2   -1    0    0    0  501  0.00000000000E+00  0.00000000000E+00 -0.81662150237E+03  0.81662150237E+03  0.25500000920E-02 0.  1.
    10030    2    1    2    0    0  0.00000000000E+00  0.00000000000E+00  0.18880759582E+04  0.35213189629E+04  0.29723486361E+04 0.  0.
        4    1    3    3  502    0 -0.63376036664E+03 -0.30213936775E+03  0.24958367989E+04  0.25927096520E+04  0.12699999809E+01 0. -1.
       -4    1    3    3    0  502  0.63376036664E+03  0.30213936775E+03 -0.60776084074E+03  0.92860931091E+03  0.12699999809E+01 0.  1.
</event>
<event>
 5   0  0.7307508E-07  0.2972343E+04  0.7818609E-02  0.8251673E-01
       -2   -1    0    0    0  501  0.00000000000E+00  0.00000000000E+00  0.13006807087E+04  0.13006807087E+04  0.25500000920E-02 0. -1.
        2   -1    0    0  501    0  0.00000000000E+00  0.00000000000E+00 -0.16981157607E+04  0.16981157607E+04  0.25500000920E-02 0.  1.
    10030    2    1    2    0    0  0.00000000000E+00  0.00000000000E+00 -0.39743505199E+03  0.29987964695E+04  0.29723434601E+04 0.  0.
        1    1    3    3  502    0  0.35942969870E+03 -0.89955999512E+03  0.93839280287E+03  0.13486952753E+04  0.50400001928E-02 0. -1.
       -1    1    3    3    0  502 -0.35942969870E+03  0.89955999512E+03 -0.13358278549E+04  0.16501011942E+04  0.50400001928E-02 0.  1.
</event>
<event>
 5   0  0.2621825E-07  0.3001940E+04  0.7818609E-02  0.8243177E-01
       -1   -1    0    0    0  501  0.00000000000E+00  0.00000000000E+00  0.13201828259E+04  0.13201828259E+04  0.50400001928E-02 0. -1.
        1   -1    0    0  501    0  0.00000000000E+00  0.00000000000E+00 -0.17065145724E+04  0.17065145724E+04  0.50400001928E-02 0.  1.
    10030    2    1    2    0    0  0.00000000000E+00  0.00000000000E+00 -0.38633174650E+03  0.30266973983E+04  0.30019401930E+04 0.  0.
        3    1    3    3  502    0  0.69399860387E+03  0.12524134834E+04  0.26081143437E+03  0.14554024221E+04  0.10100000352E+00 0. -1.
       -3    1    3    3    0  502 -0.69399860387E+03 -0.12524134834E+04 -0.64714318087E+03  0.15712949763E+04  0.10100000352E+00 0.  1.
</event>
<event>
 5   0  0.2602891E-07  0.2957493E+04  0.7818609E-02  0.8255974E-01
       -1   -1    0    0    0  501  0.00000000000E+00  0.00000000000E+00  0.93443897878E+03  0.93443897879E+03  0.50400001928E-02 0. -1.
        1   -1    0    0  501    0  0.00000000000E+00  0.00000000000E+00 -0.23401115140E+04  0.23401115140E+04  0.50400001928E-02 0.  1.
    10030    2    1    2    0    0  0.00000000000E+00  0.00000000000E+00 -0.14056725352E+04  0.32745504928E+04  0.29574931367E+04 0.  0.
        5    1    3    3  502    0  0.12131726947E+04  0.82579916393E+03 -0.50189438154E+03  0.15510165397E+04  0.46999998093E+01 0. -1.
       -5    1    3    3    0  502 -0.12131726947E+04 -0.82579916393E+03 -0.90377815366E+03  0.17235339530E+04  0.46999998093E+01 0.  1.
</event>
<event>
 5   0  0.2621825E-07  0.3000823E+04  0.7818609E-02  0.8243496E-01
        1   -1    0    0  501    0  0.00000000000E+00  0.00000000000E+00  0.77892219704E+03  0.77892219706E+03  0.50400001928E-02 0. -1.
       -1   -1    0    0    0  501  0.00000000000E+00  0.00000000000E+00 -0.28901923263E+04  0.28901923263E+04  0.50400001928E-02 0.  1.
    10030    2    1    2    0    0  0.00000000000E+00  0.00000000000E+00 -0.21112701292E+04  0.36691145233E+04  0.30008231915E+04 0.  0.
        3    1    3    3  502    0  0.84414738943E+03  0.12264110477E+04 -0.12829593758E+04  0.19653634888E+04  0.10100000352E+00 0.  1.
       -3    1    3    3    0  502 -0.84414738943E+03 -0.12264110477E+04 -0.82831075347E+03  0.17037510345E+04  0.10100000352E+00 0. -1.
</event>
<event>
 5   0  0.2414250E-07  0.3002147E+04  0.7818609E-02  0.8243118E-01
       -3   -1    0    0    0  501  0.00000000000E+00  0.00000000000E+00  0.29592780794E+04  0.29592780812E+04  0.10100000352E+00 0.  1.
        3   -1    0    0  501    0  0.00000000000E+00  0.00000000000E+00 -0.76140943498E+03  0.76140944168E+03  0.10100000352E+00 0. -1.
    10030    2    1    2    0    0  0.00000000000E+00  0.00000000000E+00  0.21978686444E+04  0.37206875228E+04  0.30021474088E+04 0.  0.
        2    1    3    3  502    0  0.30250426186E+03  0.55884119745E+03 -0.58648427020E+03  0.86474048801E+03  0.25500000920E-02 0. -1.
       -2    1    3    3    0  502 -0.30250426186E+03 -0.55884119745E+03  0.27843529146E+04  0.28559470348E+04  0.25500000920E-02 0.  1.
</event>
<event>
 5   0  0.7278657E-07  0.2999449E+04  0.7818609E-02  0.8243888E-01
        2   -1    0    0  501    0  0.00000000000E+00  0.00000000000E+00  0.13509988684E+04  0.13509988684E+04  0.25500000920E-02 0.  1.
       -2   -1    0    0    0  501  0.00000000000E+00  0.00000000000E+00 -0.16648227540E+04  0.16648227540E+04  0.25500000920E-02 0. -1.
    10030    2    1    2    0    0  0.00000000000E+00  0.00000000000E+00 -0.31382388559E+03  0.30158216223E+04  0.29994490538E+04 0.  0.
        2    1    3    3  502    0  0.10084984391E+04  0.70858748619E+03 -0.10159809844E+04  0.15973048200E+04  0.25500000920E-02 0. -1.
       -2    1    3    3    0  502 -0.10084984391E+04 -0.70858748619E+03  0.70215709876E+03  0.14185168024E+04  0.25500000920E-02 0.  1.
</event>
<event>
 5   0  0.2621825E-07  0.3002879E+04  0.7818609E-02  0.8242909E-01
       -1   -1    0    0    0  501  0.00000000000E+00  0.00000000000E+00  0.15533099398E+04  0.15533099398E+04  0.50400001928E-02 0.  1.
        1   -1    0    0  501    0  0.00000000000E+00  0.00000000000E+00 -0.14513015931E+04  0.14513015931E+04  0.50400001928E-02 0. -1.
    10030    2    1    2    0    0  0.00000000000E+00  0.00000000000E+00  0.10200834663E+03  0.30046115329E+04  0.30028794117E+04 0.  0.
        3    1    3    3  502    0 -0.84130863267E+03  0.12301016119E+04 -0.13177847986E+03  0.14961001868E+04  0.10100000352E+00 0. -1.
       -3    1    3    3    0  502  0.84130863267E+03 -0.12301016119E+04  0.23378682648E+03  0.15085113461E+04  0.10100000352E+00 0.  1.
</event>
<event>
 5   0  0.7307508E-07  0.2997807E+04  0.7818609E-02  0.8244357E-01
       -2   -1    0    0    0  501  0.00000000000E+00  0.00000000000E+00  0.23199745182E+04  0.23199745182E+04  0.25500000920E-02 0. -1.
        2   -1    0    0  501    0  0.00000000000E+00  0.00000000000E+00 -0.96842069296E+03  0.96842069296E+03  0.25500000920E-02 0.  1.
    10030    2    1    2    0    0  0.00000000000E+00  0.00000000000E+00  0.13515538252E+04  0.32883952112E+04  0.29978067520E+04 0.  0.
        1    1    3    3  502    0 -0.74236704102E+03 -0.78953001026E+02 -0.74997060800E+03  0.10582052319E+04  0.50400001928E-02 0.  1.
       -1    1    3    3    0  502  0.74236704102E+03  0.78953001026E+02  0.21015244332E+04  0.22301899792E+04  0.50400001928E-02 0. -1.
</event>
<event>
 5   0  0.7208273E-07  0.3002957E+04  0.7818609E-02  0.8242887E-01
       -2   -1    0    0    0  501  0.00000000000E+00  0.00000000000E+00  0.14930162942E+04  0.14930162942E+04  0.25500000920E-02 0.  1.
        2   -1    0    0  501    0  0.00000000000E+00  0.00000000000E+00 -0.15099884823E+04  0.15099884823E+04  0.25500000920E-02 0. -1.
    10030    2    1    2    0    0  0.00000000000E+00  0.00000000000E+00 -0.16972188092E+02  0.30030047766E+04  0.30029568150E+04 0.  0.
        4    1    3    3  502    0 -0.63494343892E+03  0.86747844914E+03  0.10397499781E+04  0.14955780355E+04  0.12699999809E+01 0.  1.
       -4    1    3    3    0  502  0.63494343892E+03 -0.86747844914E+03 -0.10567221662E+04  0.15074267411E+04  0.12699999809E+01 0. -1.
</event>
<event>
 5   0  0.2602891E-07  0.2998061E+04  0.7818609E-02  0.8244285E-01
        1   -1    0    0  501    0  0.00000000000E+00  0.00000000000E+00  0.22036569986E+04  0.22036569986E+04  0.50400001928E-02 0. -1.
       -1   -1    0    0    0  501  0.00000000000E+00  0.00000000000E+00 -0.10197103656E+04  0.10197103656E+04  0.50400001928E-02 0.  1.
    10030    2    1    2    0    0  0.00000000000E+00  0.00000000000E+00  0.11839466330E+04  0.32233673642E+04  0.29980606289E+04 0.  0.
        5    1    3    3  502    0 -0.60192641648E+03 -0.60804329204E+03 -0.73139617583E+03  0.11256085074E+04  0.46999998093E+01 0.  1.
       -5    1    3    3    0  502  0.60192641648E+03  0.60804329204E+03  0.19153428088E+04  0.20977588568E+04  0.46999998093E+01 0. -1.
</event>
<event>
 5   0  0.7399409E-07  0.3004950E+04  0.7818609E-02  0.8242319E-01
       -2   -1    0    0    0  501  0.00000000000E+00  0.00000000000E+00  0.15052336971E+04  0.15052336971E+04  0.25500000920E-02 0.  1.
        2   -1    0    0  501    0  0.00000000000E+00  0.00000000000E+00 -0.14997210035E+04  0.14997210035E+04  0.25500000920E-02 0. -1.
    10030    2    1    2    0    0  0.00000000000E+00  0.00000000000E+00  0.55126935721E+01  0.30049547007E+04  0.30049496440E+04 0.  0.
        3    1    3    3  502    0 -0.57978230454E+03  0.28253783657E+03  0.13597609998E+04  0.15049668224E+04  0.10100000352E+00 0.  1.
       -3    1    3    3    0  502  0.57978230454E+03 -0.28253783657E+03 -0.13542483062E+04  0.14999878782E+04  0.10100000352E+00 0. -1.
</event>
<event>
 5   0  0.7307508E-07  0.2998075E+04  0.7818609E-02  0.8244281E-01
        2   -1    0    0  501    0  0.00000000000E+00  0.00000000000E+00  0.14684374882E+04  0.14684374882E+04  0.25500000920E-02 0. -1.
       -2   -1    0    0    0  501  0.00000000000E+00  0.00000000000E+00 -0.15302756756E+04  0.15302756756E+04  0.25500000920E-02 0.  1.
    10030    2    1    2    0    0  0.00000000000E+00  0.00000000000E+00 -0.61838187350E+02  0.29987131638E+04  0.29980754956E+04 0.  0.
        1    1    3    3  502    0  0.28963742813E+02 -0.59776107942E+03  0.13437665367E+04  0.14710083996E+04  0.50400001928E-02 0. -1.
       -1    1    3    3    0  502 -0.28963742813E+02  0.59776107942E+03 -0.14056047240E+04  0.15277047643E+04  0.50400001928E-02 0.  1.
</event>
<event>
 5   0  0.2679935E-07  0.3002703E+04  0.7818609E-02  0.8242959E-01
       -1   -1    0    0    0  501  0.00000000000E+00  0.00000000000E+00  0.88612193971E+03  0.88612193972E+03  0.50400001928E-02 0. -1.
        1   -1    0    0  501    0  0.00000000000E+00  0.00000000000E+00 -0.25437321681E+04  0.25437321681E+04  0.50400001928E-02 0.  1.
    10030    2    1    2    0    0  0.00000000000E+00  0.00000000000E+00 -0.16576102284E+04  0.34298541079E+04  0.30027033706E+04 0.  0.
        2    1    3    3  502    0 -0.44227129203E+03  0.14296224243E+04 -0.69063134153E+03  0.16481492110E+04  0.25500000920E-02 0.  1.
       -2    1    3    3    0  502  0.44227129203E+03 -0.14296224243E+04 -0.96697888689E+03  0.17817048969E+04  0.25500000920E-02 0. -1.
</event>
<event>
 5   0  0.2602891E-07  0.2999594E+04  0.7818609E-02  0.8243847E-01
        1   -1    0    0  501    0  0.00000000000E+00  0.00000000000E+00  0.21512003815E+04  0.21512003815E+04  0.50400001928E-02 0. -1.
       -1   -1    0    0    0  501  0.00000000000E+00  0.00000000000E+00 -0.10456443946E+04  0.10456443946E+04  0.50400001928E-02 0.  1.
    10030    2    1    2    0    0  0.00000000000E+00  0.00000000000E+00  0.11055559869E+04  0.31968447761E+04  0.29995937195E+04 0.  0.
        5    1    3    3  502    0  0.76381433038E+03 -0.10920102777E+04 -0.18056176919E+03  0.13448135262E+04  0.46999998093E+01 0.  1.
       -5    1    3    3    0  502 -0.76381433038E+03  0.10920102777E+04  0.12861177561E+04  0.18520312499E+04  0.46999998093E+01 0. -1.
</event>
<event>
 5   0  0.2640081E-07  0.2914169E+04  0.7818609E-02  0.8268674E-01
       -1   -1    0    0    0  501  0.00000000000E+00  0.00000000000E+00  0.22274916557E+04  0.22274916557E+04  0.50400001928E-02 0. -1.
        1   -1    0    0  501    0  0.00000000000E+00  0.00000000000E+00 -0.95313255031E+03  0.95313255032E+03  0.50400001928E-02 0.  1.
    10030    2    1    2    0    0  0.00000000000E+00  0.00000000000E+00  0.12743591054E+04  0.31806242061E+04  0.29141686997E+04 0.  0.
        1    1    3    3  502    0  0.46249841142E+03 -0.18584177417E+03  0.21315494124E+04  0.21890511285E+04  0.50400001928E-02 0. -1.
       -1    1    3    3    0  502 -0.46249841142E+03  0.18584177417E+03 -0.85719030703E+03  0.99157307753E+03  0.50400001928E-02 0.  1.
</event>
<event>
 5   0  0.7585823E-07  0.3000351E+04  0.7818609E-02  0.8243631E-01
        2   -1    0    0  501    0  0.00000000000E+00  0.00000000000E+00  0.22503650614E+04  0.22503650614E+04  0.25500000920E-02 0.  1.
       -2   -1    0    0    0  501  0.00000000000E+00  0.00000000000E+00 -0.10000718706E+04  0.10000718706E+04  0.25500000920E-02 0. -1.
    10030    2    1    2    0    0  0.00000000000E+00  0.00000000000E+00  0.12502931908E+04  0.32504369319E+04  0.30003511770E+04 0.  0.
        5    1    3    3  502    0  0.37920739044E+03  0.39997381217E+03  0.21366955806E+04  0.22066416541E+04  0.46999998093E+01 0.  1.
       -5    1    3    3    0  502 -0.37920739044E+03 -0.39997381217E+03 -0.88640238981E+03  0.10437952778E+04  0.46999998093E+01 0. -1.
</event>
<event>
 5   0  0.7399409E-07  0.3001888E+04  0.7818609E-02  0.8243192E-01
        2   -1    0    0  501    0  0.00000000000E+00  0.00000000000E+00  0.26581974406E+04  0.26581974406E+04  0.25500000920E-02 0. -1.
       -2   -1    0    0    0  501  0.00000000000E+00  0.00000000000E+00 -0.84750417095E+03  0.84750417095E+03  0.25500000920E-02 0.  1.
    10030    2    1    2    0    0  0.00000000000E+00  0.00000000000E+00  0.18106932696E+04  0.35057016115E+04  0.30018883511E+04 0.  0.
        3    1    3    3  502    0 -0.11173034849E+04 -0.24833500944E+03 -0.22859131642E+03  0.11671723756E+04  0.10100000352E+00 0.  1.
       -3    1    3    3    0  502  0.11173034849E+04  0.24833500944E+03  0.20392845860E+04  0.23385292359E+04  0.10100000352E+00 0. -1.
</event>
<event>
 5   0  0.7208273E-07  0.3000347E+04  0.7818609E-02  0.8243632E-01
       -2   -1    0    0    0  501  0.00000000000E+00  0.00000000000E+00  0.95914618356E+03  0.95914618356E+03  0.25500000920E-02 0. -1.
        2   -1    0    0  501    0  0.00000000000E+00  0.00000000000E+00 -0.23463793023E+04  0.23463793023E+04  0.25500000920E-02 0.  1.
    10030    2    1    2    0    0  0.00000000000E+00  0.00000000000E+00 -0.13872331188E+04  0.33055254859E+04  0.30003471486E+04 0.  0.
        4    1    3    3  502    0  0.84269748754E+03  0.23116978758E+03  0.64981583147E+03  0.10889631554E+04  0.12699999809E+01 0. -1.
       -4    1    3    3    0  502 -0.84269748754E+03 -0.23116978758E+03 -0.20370489502E+04  0.22165623305E+04  0.12699999809E+01 0.  1.
</event>
<event>
 5   0  0.7399409E-07  0.2997792E+04  0.7818609E-02  0.8244362E-01
        2   -1    0    0  501    0  0.00000000000E+00  0.00000000000E+00  0.12889099123E+04  0.12889099123E+04  0.25500000920E-02 0. -1.
       -2   -1    0    0    0  501  0.00000000000E+00  0.00000000000E+00 -0.17430924114E+04  0.17430924114E+04  0.25500000920E-02 0.  1.
    10030    2    1    2    0    0  0.00000000000E+00  0.00000000000E+00 -0.45418249909E+03  0.30320023237E+04  0.29977919121E+04 0.  0.
        3    1    3    3  502    0 -0.16937880545E+03 -0.36631678668E+03  0.12329237047E+04  0.12972964348E+04  0.10100000352E+00 0. -1.
       -3    1    3    3    0  502  0.16937880545E+03  0.36631678668E+03 -0.16871062038E+04  0.17347058889E+04  0.10100000352E+00 0.  1.
</event>
<event>
 5   0  0.2602891E-07  0.2998176E+04  0.7818609E-02  0.8244252E-01
        1   -1    0    0  501    0  0.00000000000E+00  0.00000000000E+00  0.10986109075E+04  0.10986109075E+04  0.50400001928E-02 0.  1.
       -1   -1    0    0    0  501  0.00000000000E+00  0.00000000000E+00 -0.20455505184E+04  0.20455505184E+04  0.50400001928E-02 0. -1.
    10030    2    1    2    0    0  0.00000000000E+00  0.00000000000E+00 -0.94693961086E+03  0.31441614259E+04  0.29981755195E+04 0.  0.
        5    1    3    3  502    0 -0.43066806270E+03 -0.58242577475E+03 -0.18498339625E+04  0.19866057843E+04  0.46999998093E+01 0. -1.
       -5    1    3    3    0  502  0.43066806270E+03  0.58242577475E+03  0.90289435162E+03  0.11575556416E+04  0.46999998093E+01 0.  1.
</event>
<event>
 5   0  0.2792361E-07  0.3003388E+04  0.7818609E-02  0.8242764E-01
        1   -1    0    0  501    0  0.00000000000E+00  0.00000000000E+00  0.93031046949E+03  0.93031046950E+03  0.50400001928E-02 0. -1.
       -1   -1    0    0    0  501  0.00000000000E+00  0.00000000000E+00 -0.24240134088E+04  0.24240134088E+04  0.50400001928E-02 0.  1.
    10030    2    1    2    0    0  0.00000000000E+00  0.00000000000E+00 -0.14937029393E+04  0.33543238783E+04  0.30033881217E+04 0.  0.
        4    1    3    3  502    0  0.34166550615E+03  0.95107176417E+03 -0.19874115076E+04  0.22295916514E+04  0.12699999809E+01 0.  1.
       -4    1    3    3    0  502 -0.34166550615E+03 -0.95107176417E+03  0.49370856834E+03  0.11247322268E+04  0.12699999809E+01 0. -1.
</event>
<event>
 5   0  0.2602891E-07  0.2999018E+04  0.7818609E-02  0.8244011E-01
       -1   -1    0    0    0  501  0.00000000000E+00  0.00000000000E+00  0.12296288263E+04  0.12296288263E+04  0.50400001928E-02 0. -1.
        1   -1    0    0  501    0  0.00000000000E+00  0.00000000000E+00 -0.18286225458E+04  0.18286225458E+04  0.50400001928E-02 0.  1.
    10030    2    1    2    0    0  0.00000000000E+00  0.00000000000E+00 -0.59899371949E+03  0.30582513722E+04  0.29990178358E+04 0.  0.
        5    1    3    3  502    0 -0.34450326606E+03 -0.12332108955E+03 -0.17823895160E+04  0.18195672750E+04  0.46999998093E+01 0.  1.
       -5    1    3    3    0  502  0.34450326606E+03  0.12332108955E+03  0.11833957965E+04  0.12386840972E+04  0.46999998093E+01 0. -1.
</event>
<event>
 5   0  0.2792361E-07  0.3000320E+04  0.7818609E-02  0.8243640E-01
        1   -1    0    0  501    0  0.00000000000E+00  0.00000000000E+00  0.10323497237E+04  0.10323497238E+04  0.50400001928E-02 0. -1.
       -1   -1    0    0    0  501  0.00000000000E+00  0.00000000000E+00 -0.21799589538E+04  0.21799589538E+04  0.50400001928E-02 0.  1.
    10030    2    1    2    0    0  0.00000000000E+00  0.00000000000E+00 -0.11476092300E+04  0.32123086776E+04  0.30003199988E+04 0.  0.
        4    1    3    3  502    0  0.12612409212E+04 -0.22837604350E+03  0.26075329848E+03  0.13080054183E+04  0.12699999809E+01 0.  1.
       -4    1    3    3    0  502 -0.12612409212E+04  0.22837604350E+03 -0.14083625285E+04  0.19043032593E+04  0.12699999809E+01 0. -1.
</event>
<event>
 5   0  0.7399409E-07  0.2950762E+04  0.7818609E-02  0.8257932E-01
        2   -1    0    0  501    0  0.00000000000E+00  0.00000000000E+00  0.17375609736E+04  0.17375609736E+04  0.25500000920E-02 0.  1.
       -2   -1    0    0    0  501  0.00000000000E+00  0.00000000000E+00 -0.12527615178E+04  0.12527615178E+04  0.25500000920E-02 0. -1.
    10030    2    1    2    0    0  0.00000000000E+00  0.00000000000E+00  0.48479945580E+03  0.29903224914E+04  0.29507622896E+04 0.  0.
        3    1    3    3  502    0  0.97007848772E+03  0.54558534984E+03 -0.73910650482E+03  0.13360367068E+04  0.10100000352E+00 0. -1.
       -3    1    3    3    0  502 -0.97007848772E+03 -0.54558534984E+03  0.12239059606E+04  0.16542857845E+04  0.10100000352E+00 0.  1.
</event>
<event>
 5   0  0.2621825E-07  0.2999088E+04  0.7818609E-02  0.8243991E-01
       -1   -1    0    0    0  501  0.00000000000E+00  0.00000000000E+00  0.72749292095E+03  0.72749292096E+03  0.50400001928E-02 0. -1.
        1   -1    0    0  501    0  0.00000000000E+00  0.00000000000E+00 -0.30909337152E+04  0.30909337152E+04  0.50400001928E-02 0.  1.
    10030    2    1    2    0    0  0.00000000000E+00  0.00000000000E+00 -0.23634407943E+04  0.38184266362E+04  0.29990881261E+04 0.  0.
        3    1    3    3  502    0  0.42209715485E+03  0.13401826880E+04 -0.18486329171E+04  0.23220032984E+04  0.10100000352E+00 0. -1.
       -3    1    3    3    0  502 -0.42209715485E+03 -0.13401826880E+04 -0.51480787723E+03  0.14964233378E+04  0.10100000352E+00 0.  1.
</event>
<event>
 5   0  0.7585823E-07  0.2998260E+04  0.7818609E-02  0.8244228E-01
       -2   -1    0    0    0  501  0.00000000000E+00  0.00000000000E+00  0.16432982946E+04  0.16432982946E+04  0.25500000920E-02 0. -1.
        2   -1    0    0  501    0  0.00000000000E+00  0.00000000000E+00 -0.13676098254E+04  0.13676098254E+04  0.25500000920E-02 0.  1.
    10030    2    1    2    0    0  0.00000000000E+00  0.00000000000E+00  0.27568846915E+03  0.30109081200E+04  0.29982600913E+04 0.  0.
        5    1    3    3  502    0  0.14057735480E+04 -0.38545441845E+03 -0.21376766333E+03  0.14732593393E+04  0.46999998093E+01 0. -1.
       -5    1    3    3    0  502 -0.14057735480E+04  0.38545441845E+03  0.48945613248E+03  0.15376487806E+04  0.46999998093E+01 0.  1.
</event>
<event>
 5   0  0.7399409E-07  0.3000705E+04  0.7818609E-02  0.8243530E-01
       -2   -1    0    0    0  501  0.00000000000E+00  0.00000000000E+00  0.11380981524E+04  0.11380981524E+04  0.25500000920E-02 0. -1.
        2   -1    0    0  501    0  0.00000000000E+00  0.00000000000E+00 -0.19779116602E+04  0.19779116602E+04  0.25500000920E-02 0.  1.
    10030    2    1    2    0    0  0.00000000000E+00  0.00000000000E+00 -0.83981350786E+03  0.31160098126E+04  0.30007049879E+04 0.  0.
        3    1    3    3  502    0  0.85826613454E+03 -0.76179519366E+03 -0.14235360882E+04  0.18284987502E+04  0.10100000352E+00 0.  1.
       -3    1    3    3    0  502 -0.85826613454E+03  0.76179519366E+03  0.58372258037E+03  0.12875110624E+04  0.10100000352E+00 0. -1.
</event>
<event>
 5   0  0.2621825E-07  0.3006135E+04  0.7818609E-02  0.8241981E-01
       -1   -1    0    0    0  501  0.00000000000E+00  0.00000000000E+00  0.13959323643E+04  0.13959323643E+04  0.50400001928E-02 0. -1.
        1   -1    0    0  501    0  0.00000000000E+00  0.00000000000E+00 -0.16184255713E+04  0.16184255713E+04  0.50400001928E-02 0.  1.
    10030    2    1    2    0    0  0.00000000000E+00  0.00000000000E+00 -0.22249320699E+03  0.30143579356E+04  0.30061354822E+04 0.  0.
        3    1    3    3  502    0 -0.73569034553E+02 -0.10860011419E+04 -0.11506152761E+04  0.15838959584E+04  0.10100000352E+00 0.  1.
       -3    1    3    3    0  502  0.73569034553E+02  0.10860011419E+04  0.92812206914E+03  0.14304619773E+04  0.10100000352E+00 0. -1.
</event>
<event>
 5   0  0.7208273E-07  0.2999008E+04  0.7818609E-02  0.8244014E-01
        2   -1    0    0  501    0  0.00000000000E+00  0.00000000000E+00  0.23016892139E+04  0.23016892139E+04  0.25500000920E-02 0.  1.
       -2   -1    0    0    0  501  0.00000000000E+00  0.00000000000E+00 -0.97689644588E+03  0.97689644589E+03  0.25500000920E-02 0. -1.
    10030    2    1    2    0    0  0.00000000000E+00  0.00000000000E+00  0.13247927680E+04  0.32785856598E+04  0.29990078443E+04 0.  0.
        4    1    3    3  502    0  0.71972610156E+03 -0.39342864702E+03 -0.70990110689E+03  0.10847824464E+04  0.12699999809E+01 0. -1.
       -4    1    3    3    0  502 -0.71972610156E+03  0.39342864702E+03  0.20346938749E+04  0.21938032134E+04  0.12699999809E+01 0.  1.
</event>
<event>
 5   0  0.2414250E-07  0.3000388E+04  0.7818609E-02  0.8243620E-01
       -4   -1    0    0    0  501  0.00000000000E+00  0.00000000000E+00  0.19241766635E+04  0.19241770826E+04  0.12699999809E+01 0.  1.
        4   -1    0    0  501    0  0.00000000000E+00  0.00000000000E+00 -0.11696325369E+04  0.11696332264E+04  0.12699999809E+01 0. -1.
    10030    2    1    2    0    0  0.00000000000E+00  0.00000000000E+00  0.75454412658E+03  0.30938103090E+04  0.30003875398E+04 0.  0.
        2    1    3    3  502    0 -0.46341090471E+03 -0.10403213473E+04 -0.62963888848E+03  0.13013313575E+04  0.25500000920E-02 0. -1.
       -2    1    3    3    0  502  0.46341090471E+03  0.10403213473E+04  0.13841830151E+04  0.17924789514E+04  0.25500000920E-02 0.  1.
</event>
<event>
 5   0  0.2679935E-07  0.2997674E+04  0.7818609E-02  0.8244395E-01
        1   -1    0    0  501    0  0.00000000000E+00  0.00000000000E+00  0.22491389133E+04  0.22491389133E+04  0.50400001928E-02 0.  1.
       -1   -1    0    0    0  501  0.00000000000E+00  0.00000000000E+00 -0.99883250020E+03  0.99883250022E+03  0.50400001928E-02 0. -1.
    10030    2    1    2    0    0  0.00000000000E+00  0.00000000000E+00  0.12503064131E+04  0.32479714135E+04  0.29976744614E+04 0.  0.
        2    1    3    3  502    0  0.10322757232E+04  0.41718741763E+03  0.17123681390E+04  0.20425090339E+04  0.25500000920E-02 0.  1.
       -2    1    3    3    0  502 -0.10322757232E+04 -0.41718741763E+03 -0.46206172588E+03  0.12054623796E+04  0.25500000920E-02 0. -1.
</event>
<event>
 5   0  0.2792361E-07  0.2993921E+04  0.7818609E-02  0.8245469E-01
        1   -1    0    0  501    0  0.00000000000E+00  0.00000000000E+00  0.16466076219E+04  0.16466076219E+04  0.50400001928E-02 0.  1.
       -1   -1    0    0    0  501  0.00000000000E+00  0.00000000000E+00 -0.13609132011E+04  0.13609132011E+04  0.50400001928E-02 0. -1.
    10030    2    1    2    0    0  0.00000000000E+00  0.00000000000E+00  0.28569442079E+03  0.30075208230E+04  0.29939205398E+04 0.  0.
        4    1    3    3  502    0 -0.61414910206E+03  0.41033657515E+03  0.14508115641E+04  0.16280083022E+04  0.12699999809E+01 0.  1.
       -4    1    3    3    0  502  0.61414910206E+03 -0.41033657515E+03 -0.11651171433E+04  0.13795125208E+04  0.12699999809E+01 0. -1.
</event>
<event>
 5   0  0.2621825E-07  0.2992149E+04  0.7818609E-02  0.8245976E-01
       -1   -1    0    0    0  501  0.00000000000E+00  0.00000000000E+00  0.10003049947E+04  0.10003049948E+04  0.50400001928E-02 0.  1.
        1   -1    0    0  501    0  0.00000000000E+00  0.00000000000E+00 -0.22375568294E+04  0.22375568294E+04  0.50400001928E-02 0. -1.
    10030    2    1    2    0    0  0.00000000000E+00  0.00000000000E+00 -0.12372518346E+04  0.32378618241E+04  0.29921492426E+04 0.  0.
        3    1    3    3  502    0 -0.50065936717E+03  0.75273078041E+03  0.67131080220E+03  0.11260202632E+04  0.10100000352E+00 0.  1.
       -3    1    3    3    0  502  0.50065936717E+03 -0.75273078041E+03 -0.19085626368E+04  0.21118415610E+04  0.10100000352E+00 0. -1.
</event>
<event>
 5   0  0.2602891E-07  0.3003903E+04  0.7818609E-02  0.8242617E-01
        1   -1    0    0  501    0  0.00000000000E+00  0.00000000000E+00  0.93665845783E+03  0.93665845784E+03  0.50400001928E-02 0.  1.
       -1   -1    0    0    0  501  0.00000000000E+00  0.00000000000E+00 -0.24084109533E+04  0.24084109533E+04  0.50400001928E-02 0. -1.
    10030    2    1    2    0    0  0.00000000000E+00  0.00000000000E+00 -0.14717524955E+04  0.33450694112E+04  0.30039031205E+04 0.  0.
        5    1    3    3  502    0  0.11389968584E+04 -0.84757038336E+03 -0.19017142025E+03  0.14324373136E+04  0.46999998093E+01 0.  1.
       -5    1    3    3    0  502 -0.11389968584E+04  0.84757038336E+03 -0.12815810752E+04  0.19126320976E+04  0.46999998093E+01 0. -1.
</event>
<event>
 5   0  0.7307508E-07  0.3001977E+04  0.7818609E-02  0.8243167E-01
       -2   -1    0    0    0  501  0.00000000000E+00  0.00000000000E+00  0.72393557371E+03  0.72393557372E+03  0.25500000920E-02 0.  1.
        2   -1    0    0  501    0  0.00000000000E+00  0.00000000000E+00 -0.31121089781E+04  0.31121089781E+04  0.25500000920E-02 0. -1.
    10030    2    1    2    0    0  0.00000000000E+00  0.00000000000E+00 -0.23881734043E+04  0.38360445518E+04  0.30019769476E+04 0.  0.
        1    1    3    3  502    0  0.78566872778E+03  0.14552617049E+03  0.42958075820E+03  0.90718953033E+03  0.50400001928E-02 0.  1.
       -1    1    3    3    0  502 -0.78566872778E+03 -0.14552617049E+03 -0.28177541625E+04  0.29288550214E+04  0.50400001928E-02 0. -1.
</event>
<event>
 5   0  0.2640081E-07  0.3001981E+04  0.7818609E-02  0.8243165E-01
       -1   -1    0    0    0  501  0.00000000000E+00  0.00000000000E+00  0.13774851264E+04  0.13774851264E+04  0.50400001928E-02 0. -1.
        1   -1    0    0  501    0  0.00000000000E+00  0.00000000000E+00 -0.16355693411E+04  0.16355693412E+04  0.50400001928E-02 0.  1.
    10030    2    1    2    0    0  0.00000000000E+00  0.00000000000E+00 -0.25808421473E+03  0.30130544676E+04  0.30019809731E+04 0.  0.
        1    1    3    3  502    0  0.32279963535E+03 -0.38930221276E+03 -0.15474842743E+04  0.16280243845E+04  0.50400001928E-02 0.  1.
       -1    1    3    3    0  502 -0.32279963535E+03  0.38930221276E+03  0.12894000595E+04  0.13850300831E+04  0.50400001928E-02 0. -1.
</event>
<event>
 5   0  0.7307508E-07  0.2997490E+04  0.7818609E-02  0.8244448E-01
       -2   -1    0    0    0  501  0.00000000000E+00  0.00000000000E+00  0.11644674783E+04  0.11644674783E+04  0.25500000920E-02 0. -1.
        2   -1    0    0  501    0  0.00000000000E+00  0.00000000000E+00 -0.19289815305E+04  0.19289815305E+04  0.25500000920E-02 0.  1.
    10030    2    1    2    0    0  0.00000000000E+00  0.00000000000E+00 -0.76451405224E+03  0.30934490088E+04  0.29974897888E+04 0.  0.
        1    1    3    3  502    0 -0.12180501043E+04 -0.44656231182E+03 -0.11567293338E+04  0.17381273563E+04  0.50400001928E-02 0.  1.
       -1    1    3    3    0  502  0.12180501043E+04  0.44656231182E+03  0.39221528156E+03  0.13553216526E+04  0.50400001928E-02 0. -1.
</event>
<event>
 5   0  0.2621825E-07  0.3009771E+04  0.7818609E-02  0.8240946E-01
        1   -1    0    0  501    0  0.00000000000E+00  0.00000000000E+00  0.16330596546E+04  0.16330596546E+04  0.50400001928E-02 0.  1.
       -1   -1    0    0    0  501  0.00000000000E+00  0.00000000000E+00 -0.13867715351E+04  0.13867715351E+04  0.50400001928E-02 0. -1.
    10030    2    1    2    0    0  0.00000000000E+00  0.00000000000E+00  0.24628811947E+03  0.30198311896E+04  0.30097711834E+04 0.  0.
        3    1    3    3  502    0 -0.63617658998E+03  0.12452265033E+04 -0.43492628087E+03  0.14644010988E+04  0.10100000352E+00 0. -1.
       -3    1    3    3    0  502  0.63617658998E+03 -0.12452265033E+04  0.68121440035E+03  0.15554300909E+04  0.10100000352E+00 0.  1.
</event>
<event>
 5   0  0.2679935E-07  0.2920277E+04  0.7818609E-02  0.8266870E-01
        1   -1    0    0  501    0  0.00000000000E+00  0.00000000000E+00  0.17790774064E+04  0.17790774064E+04  0.50400001928E-02 0. -1.
       -1   -1    0    0    0  501  0.00000000000E+00  0.00000000000E+00 -0.11983767722E+04  0.11983767722E+04  0.50400001928E-02 0.  1.
    10030    2    1    2    0    0  0.00000000000E+00  0.00000000000E+00  0.58070063421E+03  0.29774541787E+04  0.29202774114E+04 0.  0.
        2    1    3    3  502    0  0.54710673280E+03 -0.12902027823E+04  0.70832314032E+03  0.15702454164E+04  0.25500000920E-02 0. -1.
       -2    1    3    3    0  502 -0.54710673280E+03  0.12902027823E+04 -0.12762250610E+03  0.14072087623E+04  0.25500000920E-02 0.  1.
</event>
<event>
 5   0  0.2602891E-07  0.2998432E+04  0.7818609E-02  0.8244179E-01
        1   -1    0    0  501    0  0.00000000000E+00  0.00000000000E+00  0.93796529037E+03  0.93796529038E+03  0.50400001928E-02 0.  1.
       -1   -1    0    0    0  501  0.00000000000E+00  0.00000000000E+00 -0.23963032972E+04  0.23963032972E+04  0.50400001928E-02 0. -1.
    10030    2    1    2    0    0  0.00000000000E+00  0.00000000000E+00 -0.14583380069E+04  0.33342685876E+04  0.29984324692E+04 0.  0.
        5    1    3    3  502    0 -0.95813315656E+02 -0.13798390202E+04 -0.13722989490E+04  0.19484256230E+04  0.46999998093E+01 0.  1.
       -5    1    3    3    0  502  0.95813315656E+02  0.13798390202E+04 -0.86039057858E+02  0.13858429646E+04  0.46999998093E+01 0. -1.
</event>
<event>
 5   0  0.7585823E-07  0.2999266E+04  0.7818609E-02  0.8243940E-01
       -2   -1    0    0    0  501  0.00000000000E+00  0.00000000000E+00  0.10212004496E+04  0.10212004496E+04  0.25500000920E-02 0.  1.
        2   -1    0    0  501    0  0.00000000000E+00  0.00000000000E+00 -0.22022115505E+04  0.22022115505E+04  0.25500000920E-02 0. -1.
    10030    2    1    2    0    0  0.00000000000E+00  0.00000000000E+00 -0.11810111008E+04  0.32234120001E+04  0.29992661940E+04 0.  0.
        5    1    3    3  502    0 -0.30167280972E+03 -0.14667295724E+04 -0.50335789266E+03  0.15797763705E+04  0.46999998093E+01 0. -1.
       -5    1    3    3    0  502  0.30167280972E+03  0.14667295724E+04 -0.67765320818E+03  0.16436356297E+04  0.46999998093E+01 0.  1.
</event>
<event>
 5   0  0.7585823E-07  0.3015447E+04  0.7818609E-02  0.8239334E-01
       -2   -1    0    0    0  501  0.00000000000E+00  0.00000000000E+00  0.12693387470E+04  0.12693387470E+04  0.25500000920E-02 0. -1.
        2   -1    0    0  501    0  0.00000000000E+00  0.00000000000E+00 -0.17908775923E+04  0.17908775923E+04  0.25500000920E-02 0.  1.
    10030    2    1    2    0    0  0.00000000000E+00  0.00000000000E+00 -0.52153884533E+03  0.30602163393E+04  0.30154471105E+04 0.  0.
        5    1    3    3  502    0  0.74907551720E+03  0.11897163704E+04 -0.81352933506E+03  0.16243125443E+04  0.46999998093E+01 0.  1.
       -5    1    3    3    0  502 -0.74907551720E+03 -0.11897163704E+04  0.29199048973E+03  0.14359037950E+04  0.46999998093E+01 0. -1.
</event>
<event>
 5   0  0.7585823E-07  0.3002518E+04  0.7818609E-02  0.8243012E-01
       -2   -1    0    0    0  501  0.00000000000E+00  0.00000000000E+00  0.98168494058E+03  0.98168494059E+03  0.25500000920E-02 0. -1.
        2   -1    0    0  501    0  0.00000000000E+00  0.00000000000E+00 -0.22958267065E+04  0.22958267065E+04  0.25500000920E-02 0.  1.
    10030    2    1    2    0    0  0.00000000000E+00  0.00000000000E+00 -0.13141417660E+04  0.32775116471E+04  0.30025179460E+04 0.  0.
        5    1    3    3  502    0 -0.21293792422E+01  0.63411245442E+03 -0.21424539393E+04  0.22343307972E+04  0.46999998093E+01 0.  1.
       -5    1    3    3    0  502  0.21293792422E+01 -0.63411245442E+03  0.82831217338E+03  0.10431808499E+04  0.46999998093E+01 0. -1.
</event>
<event>
 5   0  0.2792361E-07  0.3006576E+04  0.7818609E-02  0.8241856E-01
        1   -1    0    0  501    0  0.00000000000E+00  0.00000000000E+00  0.11137771412E+04  0.11137771412E+04  0.50400001928E-02 0. -1.
       -1   -1    0    0    0  501  0.00000000000E+00  0.00000000000E+00 -0.20290190041E+04  0.20290190041E+04  0.50400001928E-02 0.  1.
    10030    2    1    2    0    0  0.00000000000E+00  0.00000000000E+00 -0.91524186293E+03  0.31427961453E+04  0.30065761163E+04 0.  0.
        4    1    3    3  502    0  0.51577820268E+03 -0.14062132518E+04 -0.32371339107E+03  0.15324016564E+04  0.12699999809E+01 0.  1.
       -4    1    3    3    0  502 -0.51577820268E+03  0.14062132518E+04 -0.59152847186E+03  0.16103944889E+04  0.12699999809E+01 0. -1.
</event>
<event>
 5   0  0.7278657E-07  0.2999339E+04  0.7818609E-02  0.8243920E-01
       -2   -1    0    0    0  501  0.00000000000E+00  0.00000000000E+00  0.12053337673E+04  0.12053337673E+04  0.25500000920E-02 0.  1.
        2   -1    0    0  501    0  0.00000000000E+00  0.00000000000E+00 -0.18658808750E+04  0.18658808750E+04  0.25500000920E-02 0. -1.
    10030    2    1    2    0    0  0.00000000000E+00  0.00000000000E+00 -0.66054710767E+03  0.30712146423E+04  0.29993394102E+04 0.  0.
        2    1    3    3  502    0 -0.75178718498E+03  0.24496699545E+03 -0.16351008116E+04  0.18162454307E+04  0.25500000920E-02 0. -1.
       -2    1    3    3    0  502  0.75178718498E+03 -0.24496699545E+03  0.97455370390E+03  0.12549692116E+04  0.25500000920E-02 0.  1.
</event>
<event>
 5   0  0.7399409E-07  0.2978623E+04  0.7818609E-02  0.8249862E-01
        2   -1    0    0  501    0  0.00000000000E+00  0.00000000000E+00  0.86139776443E+03  0.86139776444E+03  0.25500000920E-02 0. -1.
       -2   -1    0    0    0  501  0.00000000000E+00  0.00000000000E+00 -0.25749409364E+04  0.25749409364E+04  0.25500000920E-02 0.  1.
    10030    2    1    2    0    0  0.00000000000E+00  0.00000000000E+00 -0.17135431720E+04  0.34363387009E+04  0.29786227463E+04 0.  0.
        3    1    3    3  502    0  0.13664440754E+04  0.57226615486E+03 -0.68033070387E+03  0.16301864433E+04  0.10100000352E+00 0.  1.
       -3    1    3    3    0  502 -0.13664440754E+04 -0.57226615486E+03 -0.10332124681E+04  0.18061522576E+04  0.10100000352E+00 0. -1.
</event>
<event>
 5   0  0.2621825E-07  0.3000820E+04  0.7818609E-02  0.8243497E-01
        1   -1    0    0  501    0  0.00000000000E+00  0.00000000000E+00  0.13657227587E+04  0.13657227587E+04  0.50400001928E-02 0. -1.
       -1   -1    0    0    0  501  0.00000000000E+00  0.00000000000E+00 -0.16483805857E+04  0.16483805857E+04  0.50400001928E-02 0.  1.
    10030    2    1    2    0    0  0.00000000000E+00  0.00000000000E+00 -0.28265782703E+03  0.30141033444E+04  0.30008204751E+04 0.  0.
        3    1    3    3  502    0  0.19409035269E+03  0.12924031179E+04  0.59899126257E+03  0.14376256213E+04  0.10100000352E+00 0. -1.
       -3    1    3    3    0  502 -0.19409035269E+03 -0.12924031179E+04 -0.88164908960E+03  0.15764777231E+04  0.10100000352E+00 0.  1.
</event>
<event>
 5   0  0.7399409E-07  0.2998120E+04  0.7818609E-02  0.8244268E-01
       -2   -1    0    0    0  501  0.00000000000E+00  0.00000000000E+00  0.96414573090E+03  0.96414573090E+03  0.25500000920E-02 0. -1.
        2   -1    0    0  501    0  0.00000000000E+00  0.00000000000E+00 -0.23307475510E+04  0.23307475510E+04  0.25500000920E-02 0.  1.
    10030    2    1    2    0    0  0.00000000000E+00  0.00000000000E+00 -0.13666018201E+04  0.32948932819E+04  0.29981196114E+04 0.  0.
        3    1    3    3  502    0  0.10755386389E+04 -0.62792389667E+03  0.23361787071E+03  0.12671421007E+04  0.10100000352E+00 0. -1.
       -3    1    3    3    0  502 -0.10755386389E+04  0.62792389667E+03 -0.16002196908E+04  0.20277511811E+04  0.10100000352E+00 0.  1.
</event>
<event>
 5   0  0.2640081E-07  0.3004525E+04  0.7818609E-02  0.8242440E-01
       -1   -1    0    0    0  501  0.00000000000E+00  0.00000000000E+00  0.84513642180E+03  0.84513642182E+03  0.50400001928E-02 0. -1.
        1   -1    0    0  501    0  0.00000000000E+00  0.00000000000E+00 -0.26703301978E+04  0.26703301978E+04  0.50400001928E-02 0.  1.
    10030    2    1    2    0    0  0.00000000000E+00  0.00000000000E+00 -0.18251937760E+04  0.35154666197E+04  0.30045254590E+04 0.  0.
        1    1    3    3  502    0  0.86305531766E+03  0.12204988866E+04 -0.10873679312E+04  0.18484726212E+04  0.50400001928E-02 0. -1.
       -1    1    3    3    0  502 -0.86305531766E+03 -0.12204988866E+04 -0.73782584480E+03  0.16669939984E+04  0.50400001928E-02 0.  1.
</event>
<event>
 5   0  0.7585823E-07  0.3006184E+04  0.7818609E-02  0.8241967E-01
        2   -1    0    0  501    0  0.00000000000E+00  0.00000000000E+00  0.18703308055E+04  0.18703308055E+04  0.25500000920E-02 0.  1.
       -2   -1    0    0    0  501  0.00000000000E+00  0.00000000000E+00 -0.12079602258E+04  0.12079602258E+04  0.25500000920E-02 0. -1.
    10030    2    1    2    0    0  0.00000000000E+00  0.00000000000E+00  0.66237057971E+03  0.30782910312E+04  0.30061837748E+04 0.  0.
        5    1    3    3  502    0 -0.54235977474E+03  0.38408745129E+03  0.17117018335E+04  0.18361978521E+04  0.46999998093E+01 0.  1.
       -5    1    3    3    0  502  0.54235977474E+03 -0.38408745129E+03 -0.10493312537E+04  0.12420931791E+04  0.46999998093E+01 0. -1.
</event>
<event>
 5   0  0.2621825E-07  0.2995726E+04  0.7818609E-02  0.8244952E-01
       -1   -1    0    0    0  501  0.00000000000E+00  0.00000000000E+00  0.12539406072E+04  0.12539406072E+04  0.50400001928E-02 0.  1.
        1   -1    0    0  501    0  0.00000000000E+00  0.00000000000E+00 -0.17892341145E+04  0.17892341145E+04  0.50400001928E-02 0. -1.
    10030    2    1    2    0    0  0.00000000000E+00  0.00000000000E+00 -0.53529350737E+03  0.30431747217E+04  0.29957258299E+04 0.  0.
        3    1    3    3  502    0 -0.43256984158E+03  0.57893761809E+03 -0.16004133544E+04  0.17560206003E+04  0.10100000352E+00 0. -1.
       -3    1    3    3    0  502  0.43256984158E+03 -0.57893761809E+03  0.10651198470E+04  0.12871541214E+04  0.10100000352E+00 0.  1.
</event>
<event>
 5   0  0.7278657E-07  0.3003257E+04  0.7818609E-02  0.8242801E-01
        2   -1    0    0  501    0  0.00000000000E+00  0.00000000000E+00  0.77197283192E+03  0.77197283193E+03  0.25500000920E-02 0.  1.
       -2   -1    0    0    0  501  0.00000000000E+00  0.00000000000E+00 -0.29209422748E+04  0.29209422748E+04  0.25500000920E-02 0. -1.
    10030    2    1    2    0    0  0.00000000000E+00  0.00000000000E+00 -0.21489694429E+04  0.36929151067E+04  0.30032569519E+04 0.  0.
        2    1    3    3  502    0 -0.54342653769E+02  0.47555211240E+03  0.67565823333E+03  0.82801991758E+03  0.25500000920E-02 0.  1.
       -2    1    3    3    0  502  0.54342653769E+02 -0.47555211240E+03 -0.28246276762E+04  0.28648951891E+04  0.25500000920E-02 0. -1.
</event>
<event>
 5   0  0.2602891E-07  0.3001198E+04  0.7818609E-02  0.8243389E-01
        1   -1    0    0  501    0  0.00000000000E+00  0.00000000000E+00  0.25031691832E+04  0.25031691833E+04  0.50400001928E-02 0.  1.
       -1   -1    0    0    0  501  0.00000000000E+00  0.00000000000E+00 -0.89957882315E+03  0.89957882316E+03  0.50400001928E-02 0. -1.
    10030    2    1    2    0    0  0.00000000000E+00  0.00000000000E+00  0.16035903601E+04  0.34027480064E+04  0.30011984193E+04 0.  0.
        5    1    3    3  502    0 -0.10929362178E+03  0.11336541223E+04  0.19095897832E+04  0.22234369780E+04  0.46999998093E+01 0.  1.
       -5    1    3    3    0  502  0.10929362178E+03 -0.11336541223E+04 -0.30599942313E+03  0.11793110284E+04  0.46999998093E+01 0. -1.
</event>
<event>
 5   0  0.2679935E-07  0.2999039E+04  0.7818609E-02  0.8244005E-01
       -1   -1    0    0    0  501  0.00000000000E+00  0.00000000000E+00  0.11283203750E+04  0.11283203751E+04  0.50400001928E-02 0. -1.
        1   -1    0    0  501    0  0.00000000000E+00  0.00000000000E+00 -0.19928375172E+04  0.19928375172E+04  0.50400001928E-02 0.  1.
    10030    2    1    2    0    0  0.00000000000E+00  0.00000000000E+00 -0.86451714216E+03  0.31211578923E+04  0.29990392961E+04 0.  0.
        2    1    3    3  502    0 -0.50191787412E+03  0.14088578579E+01  0.10383022530E+04  0.11532541376E+04  0.25500000920E-02 0. -1.
       -2    1    3    3    0  502  0.50191787412E+03 -0.14088578579E+01 -0.19028193951E+04  0.19679037547E+04  0.25500000920E-02 0.  1.
</event>
<event>
 5   0  0.2602891E-07  0.3001899E+04  0.7818609E-02  0.8243189E-01
        1   -1    0    0  501    0  0.00000000000E+00  0.00000000000E+00  0.11045532783E+04  0.11045532783E+04  0.50400001928E-02 0.  1.
       -1   -1    0    0    0  501  0.00000000000E+00  0.00000000000E+00 -0.20396027465E+04  0.20396027465E+04  0.50400001928E-02 0. -1.
    10030    2    1    2    0    0  0.00000000000E+00  0.00000000000E+00 -0.93504946819E+03  0.31441560248E+04  0.30018993322E+04 0.  0.
        5    1    3    3  502    0 -0.27703175646E+02  0.58696260060E+03  0.97906124382E+03  0.11418737100E+04  0.46999998093E+01 0.  1.
       -5    1    3    3    0  502  0.27703175646E+02 -0.58696260060E+03 -0.19141107120E+04  0.20022823148E+04  0.46999998093E+01 0. -1.
</event>
<event>
 5   0  0.7585823E-07  0.2978051E+04  0.7818609E-02  0.8250026E-01
       -2   -1    0    0    0  501  0.00000000000E+00  0.00000000000E+00  0.83743825817E+03  0.83743825818E+03  0.25500000920E-02 0. -1.
        2   -1    0    0  501    0  0.00000000000E+00  0.00000000000E+00 -0.26475951385E+04  0.26475951385E+04  0.25500000920E-02 0.  1.
    10030    2    1    2    0    0  0.00000000000E+00  0.00000000000E+00 -0.18101568804E+04  0.34850333967E+04  0.29780513502E+04 0.  0.
        5    1    3    3  502    0  0.91626099999E+03 -0.11710607447E+04 -0.99765232511E+03  0.17906003853E+04  0.46999998093E+01 0.  1.
       -5    1    3    3    0  502 -0.91626099999E+03  0.11710607447E+04 -0.81250455525E+03  0.16944330114E+04  0.46999998093E+01 0. -1.
</event>
<event>
 5   0  0.2602891E-07  0.3001430E+04  0.7818609E-02  0.8243323E-01
       -1   -1    0    0    0  501  0.00000000000E+00  0.00000000000E+00  0.13319122559E+04  0.13319122559E+04  0.50400001928E-02 0.  1.
        1   -1    0    0  501    0  0.00000000000E+00  0.00000000000E+00 -0.16909118534E+04  0.16909118534E+04  0.50400001928E-02 0. -1.
    10030    2    1    2    0    0  0.00000000000E+00  0.00000000000E+00 -0.35899959753E+03  0.30228241093E+04  0.30014304731E+04 0.  0.
        5    1    3    3  502    0 -0.88859418665E+03 -0.47404565585E+03  0.94099732105E+03  0.13783384782E+04  0.46999998093E+01 0.  1.
       -5    1    3    3    0  502  0.88859418665E+03  0.47404565585E+03 -0.12999969186E+04  0.16444856310E+04  0.46999998093E+01 0. -1.
</event>
<event>
 5   0  0.7307508E-07  0.2993915E+04  0.7818609E-02  0.8245471E-01
        2   -1    0    0  501    0  0.00000000000E+00  0.00000000000E+00  0.19398745603E+04  0.19398745603E+04  0.25500000920E-02 0.  1.
       -2   -1    0    0    0  501  0.00000000000E+00  0.00000000000E+00 -0.11551682308E+04  0.11551682308E+04  0.25500000920E-02 0. -1.
    10030    2    1    2    0    0  0.00000000000E+00  0.00000000000E+00  0.78470632948E+03  0.30950427910E+04  0.29939148042E+04 0.  0.
        1    1    3    3  502    0  0.10873811694E+04  0.10218651969E+04  0.51586766555E+03  0.15788368303E+04  0.50400001928E-02 0. -1.
       -1    1    3    3    0  502 -0.10873811694E+04 -0.10218651969E+04  0.26883866393E+03  0.15162059608E+04  0.50400001928E-02 0.  1.
</event>
<event>
 5   0  0.7585823E-07  0.2996948E+04  0.7818609E-02  0.8244603E-01
        2   -1    0    0  501    0  0.00000000000E+00  0.00000000000E+00  0.15499049599E+04  0.15499049599E+04  0.25500000920E-02 0.  1.
       -2   -1    0    0    0  501  0.00000000000E+00  0.00000000000E+00 -0.14487499125E+04  0.14487499125E+04  0.25500000920E-02 0. -1.
    10030    2    1    2    0    0  0.00000000000E+00  0.00000000000E+00  0.10115504737E+03  0.29986548725E+04  0.29969482312E+04 0.  0.
        5    1    3    3  502    0  0.33906564389E+03 -0.12073056461E+04  0.87131907347E+03  0.15270139003E+04  0.46999998093E+01 0. -1.
       -5    1    3    3    0  502 -0.33906564389E+03  0.12073056461E+04 -0.77016402610E+03  0.14716409722E+04  0.46999998093E+01 0.  1.
</event>
<event>
 5   0  0.7585823E-07  0.3003575E+04  0.7818609E-02  0.8242711E-01
       -2   -1    0    0    0  501  0.00000000000E+00  0.00000000000E+00  0.10653470308E+04  0.10653470308E+04  0.25500000920E-02 0.  1.
        2   -1    0    0  501    0  0.00000000000E+00  0.00000000000E+00 -0.21170241321E+04  0.21170241321E+04  0.25500000920E-02 0. -1.
    10030    2    1    2    0    0  0.00000000000E+00  0.00000000000E+00 -0.10516771013E+04  0.31823711629E+04  0.30035747857E+04 0.  0.
        5    1    3    3  502    0 -0.82707864776E+03  0.38171417810E+02 -0.18533500649E+04  0.20298878540E+04  0.46999998093E+01 0. -1.
       -5    1    3    3    0  502  0.82707864776E+03 -0.38171417810E+02  0.80167296365E+03  0.11524833089E+04  0.46999998093E+01 0.  1.
</event>
<event>
 5   0  0.2602891E-07  0.2986303E+04  0.7818609E-02  0.8247653E-01
       -1   -1    0    0    0  501  0.00000000000E+00  0.00000000000E+00  0.18432450236E+04  0.18432450236E+04  0.50400001928E-02 0.  1.
        1   -1    0    0  501    0  0.00000000000E+00  0.00000000000E+00 -0.12095527310E+04  0.12095527310E+04  0.50400001928E-02 0. -1.
    10030    2    1    2    0    0  0.00000000000E+00  0.00000000000E+00  0.63369229265E+03  0.30527977546E+04  0.29863034355E+04 0.  0.
        5    1    3    3  502    0  0.98059173351E+03  0.70303973236E+02 -0.83199993987E+03  0.12879242161E+04  0.46999998093E+01 0. -1.
       -5    1    3    3    0  502 -0.98059173351E+03 -0.70303973236E+02  0.14656922325E+04  0.17648735385E+04  0.46999998093E+01 0.  1.
</event>
<event>
 5   0  0.2602891E-07  0.3007988E+04  0.7818609E-02  0.8241454E-01
        1   -1    0    0  501    0  0.00000000000E+00  0.00000000000E+00  0.16957764481E+04  0.16957764481E+04  0.50400001928E-02 0. -1.
       -1   -1    0    0    0  501  0.00000000000E+00  0.00000000000E+00 -0.13339009537E+04  0.13339009537E+04  0.50400001928E-02 0.  1.
    10030    2    1    2    0    0  0.00000000000E+00  0.00000000000E+00  0.36187549439E+03  0.30296774019E+04  0.30079879132E+04 0.  0.
        5    1    3    3  502    0  0.44086002762E+03  0.66632662524E+03 -0.11024663830E+04  0.13615443258E+04  0.46999998093E+01 0.  1.
       -5    1    3    3    0  502 -0.44086002762E+03 -0.66632662524E+03  0.14643418774E+04  0.16681330761E+04  0.46999998093E+01 0. -1.
</event>
<event>
 5   0  0.7585823E-07  0.3003271E+04  0.7818609E-02  0.8242797E-01
        2   -1    0    0  501    0  0.00000000000E+00  0.00000000000E+00  0.18980125033E+04  0.18980125033E+04  0.25500000920E-02 0. -1.
       -2   -1    0    0    0  501  0.00000000000E+00  0.00000000000E+00 -0.11880373218E+04  0.11880373218E+04  0.25500000920E-02 0.  1.
    10030    2    1    2    0    0  0.00000000000E+00  0.00000000000E+00  0.70997518145E+03  0.30860498251E+04  0.30032713438E+04 0.  0.
        5    1    3    3  502    0 -0.11771598782E+04 -0.86769127433E+03  0.45689868010E+01  0.14624077722E+04  0.46999998093E+01 0. -1.
       -5    1    3    3    0  502  0.11771598782E+04  0.86769127433E+03  0.70540619464E+03  0.16236420529E+04  0.46999998093E+01 0.  1.
</event>
<event>
 5   0  0.2792361E-07  0.3000630E+04  0.7818609E-02  0.8243551E-01
       -1   -1    0    0    0  501  0.00000000000E+00  0.00000000000E+00  0.15337486363E+04  0.15337486363E+04  0.50400001928E-02 0.  1.
        1   -1    0    0  501    0  0.00000000000E+00  0.00000000000E+00 -0.14676103262E+04  0.14676103262E+04  0.50400001928E-02 0. -1.
    10030    2    1    2    0    0  0.00000000000E+00  0.00000000000E+00  0.66138310116E+02  0.30013589626E+04  0.30006301582E+04 0.  0.
        4    1    3    3  502    0 -0.70390529739E+03  0.23789105380E+03 -0.12706540740E+04  0.14719504781E+04  0.12699999809E+01 0. -1.
       -4    1    3    3    0  502  0.70390529739E+03 -0.23789105380E+03  0.13367923842E+04  0.15294084845E+04  0.12699999809E+01 0.  1.
</event>
<event>
 5   0  0.7307508E-07  0.3002959E+04  0.7818609E-02  0.8242886E-01
        2   -1    0    0  501    0  0.00000000000E+00  0.00000000000E+00  0.18132478679E+04  0.18132478679E+04  0.25500000920E-02 0. -1.
       -2   -1    0    0    0  501  0.00000000000E+00  0.00000000000E+00 -0.12433163550E+04  0.12433163550E+04  0.25500000920E-02 0.  1.
    10030    2    1    2    0    0  0.00000000000E+00  0.00000000000E+00  0.56993151295E+03  0.30565642229E+04  0.30029590272E+04 0.  0.
        1    1    3    3  502    0  0.11525214577E+04 -0.93565149141E+03  0.51413211209E+03  0.15710128111E+04  0.50400001928E-02 0.  1.
       -1    1    3    3    0  502 -0.11525214577E+04  0.93565149141E+03  0.55799400856E+02  0.14855514118E+04  0.50400001928E-02 0. -1.
</event>
<event>
 5   0  0.2602891E-07  0.2998885E+04  0.7818609E-02  0.8244049E-01
        1   -1    0    0  501    0  0.00000000000E+00  0.00000000000E+00  0.86233912128E+03  0.86233912130E+03  0.50400001928E-02 0.  1.
       -1   -1    0    0    0  501  0.00000000000E+00  0.00000000000E+00 -0.26072431718E+04  0.26072431718E+04  0.50400001928E-02 0. -1.
    10030    2    1    2    0    0  0.00000000000E+00  0.00000000000E+00 -0.17449040505E+04  0.34695822931E+04  0.29988849833E+04 0.  0.
        5    1    3    3  502    0 -0.17234155346E+03  0.12681450394E+04  0.31465905282E+02  0.12801975024E+04  0.46999998093E+01 0.  1.
       -5    1    3    3    0  502  0.17234155346E+03 -0.12681450394E+04 -0.17763699558E+04  0.21893847907E+04  0.46999998093E+01 0. -1.
</event>
<event>
 5   0  0.2640081E-07  0.2999555E+04  0.7818609E-02  0.8243858E-01
       -1   -1    0    0    0  501  0.00000000000E+00  0.00000000000E+00  0.84540794876E+03  0.84540794878E+03  0.50400001928E-02 0.  1.
        1   -1    0    0  501    0  0.00000000000E+00  0.00000000000E+00 -0.26606467577E+04  0.26606467577E+04  0.50400001928E-02 0. -1.
    10030    2    1    2    0    0  0.00000000000E+00  0.00000000000E+00 -0.18152388089E+04  0.35060547065E+04  0.29995545788E+04 0.  0.
        1    1    3    3  502    0 -0.42159516430E+03  0.99680674899E+03 -0.21211881944E+04  0.23813453201E+04  0.50400001928E-02 0. -1.
       -1    1    3    3    0  502  0.42159516430E+03 -0.99680674899E+03  0.30594938545E+03  0.11247093864E+04  0.50400001928E-02 0.  1.
</event>
<event>
 5   0  0.2640081E-07  0.2999960E+04  0.7818609E-02  0.8243742E-01
        1   -1    0    0  501    0  0.00000000000E+00  0.00000000000E+00  0.22403127632E+04  0.22403127632E+04  0.50400001928E-02 0. -1.
       -1   -1    0    0    0  501  0.00000000000E+00  0.00000000000E+00 -0.10042975696E+04  0.10042975696E+04  0.50400001928E-02 0.  1.
    10030    2    1    2    0    0  0.00000000000E+00  0.00000000000E+00  0.12360151936E+04  0.32446103328E+04  0.29999604419E+04 0.  0.
        1    1    3    3  502    0  0.89256417338E+03 -0.11144788303E+04  0.11150586100E+04  0.18116538219E+04  0.50400001928E-02 0. -1.
       -1    1    3    3    0  502 -0.89256417338E+03  0.11144788303E+04  0.12095658359E+03  0.14329565108E+04  0.50400001928E-02 0.  1.
</event>
<event>
 5   0  0.2792361E-07  0.3001999E+04  0.7818609E-02  0.8243160E-01
       -1   -1    0    0    0  501  0.00000000000E+00  0.00000000000E+00  0.10140632142E+04  0.10140632142E+04  0.50400001928E-02 0. -1.
        1   -1    0    0  501    0  0.00000000000E+00  0.00000000000E+00 -0.22217547020E+04  0.22217547020E+04  0.50400001928E-02 0.  1.
    10030    2    1    2    0    0  0.00000000000E+00  0.00000000000E+00 -0.12076914877E+04  0.32358179162E+04  0.30019991434E+04 0.  0.
        4    1    3    3  502    0  0.89167770941E+02 -0.36299065875E+03  0.96309490030E+03  0.10330859159E+04  0.12699999809E+01 0. -1.
       -4    1    3    3    0  502 -0.89167770941E+02  0.36299065875E+03 -0.21707863880E+04  0.22027320003E+04  0.12699999809E+01 0.  1.
</event>
<event>
 5   0  0.7208273E-07  0.3005775E+04  0.7818609E-02  0.8242084E-01
       -2   -1    0    0    0  501  0.00000000000E+00  0.00000000000E+00  0.26663286105E+04  0.26663286105E+04  0.25500000920E-02 0.  1.
        2   -1    0    0  501    0  0.00000000000E+00  0.00000000000E+00 -0.84710904235E+03  0.84710904235E+03  0.25500000920E-02 0. -1.
    10030    2    1    2    0    0  0.00000000000E+00  0.00000000000E+00  0.18192195681E+04  0.35134376528E+04  0.30057751585E+04 0.  0.
        4    1    3    3  502    0 -0.70403388657E+03 -0.16011663217E+03 -0.63110312414E+03  0.95895454299E+03  0.12699999809E+01 0. -1.
       -4    1    3    3    0  502  0.70403388657E+03  0.16011663217E+03  0.24503226923E+04  0.25544831098E+04  0.12699999809E+01 0.  1.
</event>
<event>
 5   0  0.7307508E-07  0.2988597E+04  0.7818609E-02  0.8246995E-01
       -2   -1    0    0    0  501  0.00000000000E+00  0.00000000000E+00  0.26047780761E+04  0.26047780761E+04  0.25500000920E-02 0.  1.
        2   -1    0    0  501    0  0.00000000000E+00  0.00000000000E+00 -0.85724292570E+03  0.85724292570E+03  0.25500000920E-02 0. -1.
    10030    2    1    2    0    0  0.00000000000E+00  0.00000000000E+00  0.17475351504E+04  0.34620210018E+04  0.29885967134E+04 0.  0.
        1    1    3    3  502    0 -0.74246564591E+03 -0.61628432254E+03  0.21955060200E+04  0.23981885425E+04  0.50400001928E-02 0.  1.
       -1    1    3    3    0  502  0.74246564591E+03  0.61628432254E+03 -0.44797086954E+03  0.10638324593E+04  0.50400001928E-02 0. -1.
</event>
<event>
 5   0  0.2640081E-07  0.2994286E+04  0.7818609E-02  0.8245364E-01
        1   -1    0    0  501    0  0.00000000000E+00  0.00000000000E+00  0.16684718199E+04  0.16684718199E+04  0.50400001928E-02 0.  1.
       -1   -1    0    0    0  501  0.00000000000E+00  0.00000000000E+00 -0.13434075679E+04  0.13434075679E+04  0.50400001928E-02 0. -1.
    10030    2    1    2    0    0  0.00000000000E+00  0.00000000000E+00  0.32506425200E+03  0.30118793879E+04  0.29942863389E+04 0.  0.
        1    1    3    3  502    0  0.15183553498E+03 -0.51437738646E+03 -0.12434644060E+04  0.13541941716E+04  0.50400001928E-02 0. -1.
       -1    1    3    3    0  502 -0.15183553498E+03  0.51437738646E+03  0.15685286580E+04  0.16576852163E+04  0.50400001928E-02 0.  1.
</event>
<event>
 5   0  0.7585823E-07  0.2997150E+04  0.7818609E-02  0.8244545E-01
        2   -1    0    0  501    0  0.00000000000E+00  0.00000000000E+00  0.17117638185E+04  0.17117638185E+04  0.25500000920E-02 0. -1.
       -2   -1    0    0    0  501  0.00000000000E+00  0.00000000000E+00 -0.13119376377E+04  0.13119376377E+04  0.25500000920E-02 0.  1.
    10030    2    1    2    0    0  0.00000000000E+00  0.00000000000E+00  0.39982618081E+03  0.30237014561E+04  0.29971502333E+04 0.  0.
        5    1    3    3  502    0 -0.79212764784E+03 -0.23540352089E+03 -0.10612912852E+04  0.13450807820E+04  0.46999998093E+01 0.  1.
       -5    1    3    3    0  502  0.79212764784E+03  0.23540352089E+03  0.14611174660E+04  0.16786206741E+04  0.46999998093E+01 0. -1.
</event>
<event>
 5   0  0.7399409E-07  0.3090233E+04  0.7818609E-02  0.8218424E-01
        2   -1    0    0  501    0  0.00000000000E+00  0.00000000000E+00  0.25162859961E+04  0.25162859961E+04  0.25500000920E-02 0. -1.
       -2   -1    0    0    0  501  0.00000000000E+00  0.00000000000E+00 -0.94877313624E+03  0.94877313624E+03  0.25500000920E-02 0.  1.
    10030    2    1    2    0    0  0.00000000000E+00  0.00000000000E+00  0.15675128599E+04  0.34650591323E+04  0.30902327137E+04 0.  0.
        3    1    3    3  502    0  0.10989290971E+04 -0.39437373416E+03  0.19185417373E+04  0.22458802752E+04  0.10100000352E+00 0. -1.
       -3    1    3    3    0  502 -0.10989290971E+04  0.39437373416E+03 -0.35102887747E+03  0.12191788571E+04  0.10100000352E+00 0.  1.
</event>
<event>
 5   0  0.7208273E-07  0.3000776E+04  0.7818609E-02  0.8243509E-01
       -2   -1    0    0    0  501  0.00000000000E+00  0.00000000000E+00  0.83734011148E+03  0.83734011148E+03  0.25500000920E-02 0. -1.
        2   -1    0    0  501    0  0.00000000000E+00  0.00000000000E+00 -0.26884704542E+04  0.26884704542E+04  0.25500000920E-02 0.  1.
    10030    2    1    2    0    0  0.00000000000E+00  0.00000000000E+00 -0.18511303427E+04  0.35258105656E+04  0.30007759995E+04 0.  0.
        4    1    3    3  502    0 -0.12530541409E+04  0.42485704763E+03 -0.94311335881E+02  0.13264782064E+04  0.12699999809E+01 0. -1.
       -4    1    3    3    0  502  0.12530541409E+04 -0.42485704763E+03 -0.17568190068E+04  0.21993323593E+04  0.12699999809E+01 0.  1.
</event>
<event>
 5   0  0.7278657E-07  0.2989296E+04  0.7818609E-02  0.8246794E-01
        2   -1    0    0  501    0  0.00000000000E+00  0.00000000000E+00  0.16835815955E+04  0.16835815955E+04  0.25500000920E-02 0. -1.
       -2   -1    0    0    0  501  0.00000000000E+00  0.00000000000E+00 -0.13269167374E+04  0.13269167374E+04  0.25500000920E-02 0.  1.
    10030    2    1    2    0    0  0.00000000000E+00  0.00000000000E+00  0.35666485815E+03  0.30104983329E+04  0.29892959692E+04 0.  0.
        2    1    3    3  502    0  0.14560757571E+04  0.25918689122E+03  0.39582283222E+03  0.15310160579E+04  0.25500000920E-02 0. -1.
       -2    1    3    3    0  502 -0.14560757571E+04 -0.25918689122E+03 -0.39157974062E+02  0.14794822750E+04  0.25500000920E-02 0.  1.
</event>
<event>
 5   0  0.7278657E-07  0.2999160E+04  0.7818609E-02  0.8243971E-01
        2   -1    0    0  501    0  0.00000000000E+00  0.00000000000E+00  0.18348037149E+04  0.18348037149E+04  0.25500000920E-02 0. -1.
       -2   -1    0    0    0  501  0.00000000000E+00  0.00000000000E+00 -0.12256027581E+04  0.12256027581E+04  0.25500000920E-02 0.  1.
    10030    2    1    2    0    0  0.00000000000E+00  0.00000000000E+00  0.60920095679E+03  0.30604064730E+04  0.29991602115E+04 0.  0.
        2    1    3    3  502    0  0.71572768821E+03  0.19050352882E+03 -0.10259374283E+04  0.12653479067E+04  0.25500000920E-02 0.  1.
       -2    1    3    3    0  502 -0.71572768821E+03 -0.19050352882E+03  0.16351383851E+04  0.17950585663E+04  0.25500000920E-02 0. -1.
</event>
<event>
 5   0  0.7278657E-07  0.2994382E+04  0.7818609E-02  0.8245337E-01
        2   -1    0    0  501    0  0.00000000000E+00  0.00000000000E+00  0.24393000319E+04  0.24393000319E+04  0.25500000920E-02 0. -1.
       -2   -1    0    0    0  501  0.00000000000E+00  0.00000000000E+00 -0.91894420091E+03  0.91894420091E+03  0.25500000920E-02 0.  1.
    10030    2    1    2    0    0  0.00000000000E+00  0.00000000000E+00  0.15203558310E+04  0.33582442328E+04  0.29943818184E+04 0.  0.
        2    1    3    3  502    0  0.69052391437E+03  0.21243743096E+03  0.22308718932E+04  0.23449397311E+04  0.25500000920E-02 0. -1.
       -2    1    3    3    0  502 -0.69052391437E+03 -0.21243743096E+03 -0.71051606227E+03  0.10133045017E+04  0.25500000920E-02 0.  1.
</event>
<event>
 5   0  0.7399409E-07  0.2999381E+04  0.7818609E-02  0.8243908E-01
       -2   -1    0    0    0  501  0.00000000000E+00  0.00000000000E+00  0.10294038838E+04  0.10294038838E+04  0.25500000920E-02 0.  1.
        2   -1    0    0  501    0  0.00000000000E+00  0.00000000000E+00 -0.21848290191E+04  0.21848290191E+04  0.25500000920E-02 0. -1.
    10030    2    1    2    0    0  0.00000000000E+00  0.00000000000E+00 -0.11554251353E+04  0.32142329028E+04  0.29993809212E+04 0.  0.
        3    1    3    3  502    0 -0.10477358966E+04 -0.64187556079E+03  0.34371453579E+03  0.12758896649E+04  0.10100000352E+00 0.  1.
       -3    1    3    3    0  502  0.10477358966E+04  0.64187556079E+03 -0.14991396711E+04  0.19383432380E+04  0.10100000352E+00 0. -1.
</event>
<event>
 5   0  0.7208273E-07  0.3004656E+04  0.7818609E-02  0.8242403E-01
       -2   -1    0    0    0  501  0.00000000000E+00  0.00000000000E+00  0.19318568970E+04  0.19318568970E+04  0.25500000920E-02 0. -1.
        2   -1    0    0  501    0  0.00000000000E+00  0.00000000000E+00 -0.11683006906E+04  0.11683006906E+04  0.25500000920E-02 0.  1.
    10030    2    1    2    0    0  0.00000000000E+00  0.00000000000E+00  0.76355620643E+03  0.31001575875E+04  0.30046562178E+04 0.  0.
        4    1    3    3  502    0 -0.33934981496E+03 -0.93076672437E+03 -0.78350043581E+03  0.12630754284E+04  0.12699999809E+01 0.  1.
       -4    1    3    3    0  502  0.33934981496E+03  0.93076672437E+03  0.15470566422E+04  0.18370821591E+04  0.12699999809E+01 0. -1.
</event>
<event>
 5   0  0.7307508E-07  0.2983177E+04  0.7818609E-02  0.8248551E-01
        2   -1    0    0  501    0  0.00000000000E+00  0.00000000000E+00  0.17971060076E+04  0.17971060076E+04  0.25500000920E-02 0.  1.
       -2   -1    0    0    0  501  0.00000000000E+00  0.00000000000E+00 -0.12380101842E+04  0.12380101842E+04  0.25500000920E-02 0. -1.
    10030    2    1    2    0    0  0.00000000000E+00  0.00000000000E+00  0.55909582334E+03  0.30351161918E+04  0.29831765215E+04 0.  0.
        1    1    3    3  502    0  0.36418248512E+03 -0.21892463361E+03  0.17342243918E+04  0.17855226459E+04  0.50400001928E-02 0.  1.
       -1    1    3    3    0  502 -0.36418248512E+03  0.21892463361E+03 -0.11751285685E+04  0.12495935460E+04  0.50400001928E-02 0. -1.
</event>
<event>
 5   0  0.2640081E-07  0.3003224E+04  0.7818609E-02  0.8242811E-01
       -1   -1    0    0    0  501  0.00000000000E+00  0.00000000000E+00  0.18748975957E+04  0.18748975957E+04  0.50400001928E-02 0.  1.
        1   -1    0    0  501    0  0.00000000000E+00  0.00000000000E+00 -0.12026463897E+04  0.12026463897E+04  0.50400001928E-02 0. -1.
    10030    2    1    2    0    0  0.00000000000E+00  0.00000000000E+00  0.67225120597E+03  0.30775439854E+04  0.30032241505E+04 0.  0.
        1    1    3    3  502    0 -0.36349657650E+03 -0.94836456959E+02  0.18259660036E+04  0.18642090980E+04  0.50400001928E-02 0.  1.
       -1    1    3    3    0  502  0.36349657650E+03  0.94836456959E+02 -0.11537147976E+04  0.12133348874E+04  0.50400001928E-02 0. -1.
</event>
<event>
 5   0  0.2621825E-07  0.3005717E+04  0.7818609E-02  0.8242100E-01
        1   -1    0    0  501    0  0.00000000000E+00  0.00000000000E+00  0.14231614941E+04  0.14231614941E+04  0.50400001928E-02 0. -1.
       -1   -1    0    0    0  501  0.00000000000E+00  0.00000000000E+00 -0.15870183042E+04  0.15870183042E+04  0.50400001928E-02 0.  1.
    10030    2    1    2    0    0  0.00000000000E+00  0.00000000000E+00 -0.16385681017E+03  0.30101797983E+04  0.30057167804E+04 0.  0.
        3    1    3    3  502    0  0.12309100800E+04  0.59080115447E+03  0.54701500152E+03  0.14708538510E+04  0.10100000352E+00 0. -1.
       -3    1    3    3    0  502 -0.12309100800E+04 -0.59080115447E+03 -0.71087181169E+03  0.15393259473E+04  0.10100000352E+00 0.  1.
</event>
<event>
 5   0  0.2640081E-07  0.2964452E+04  0.7818609E-02  0.8253955E-01
       -1   -1    0    0    0  501  0.00000000000E+00  0.00000000000E+00  0.14756083312E+04  0.14756083312E+04  0.50400001928E-02 0. -1.
        1   -1    0    0  501    0  0.00000000000E+00  0.00000000000E+00 -0.14888730231E+04  0.14888730231E+04  0.50400001928E-02 0.  1.
    10030    2    1    2    0    0  0.00000000000E+00  0.00000000000E+00 -0.13264691856E+02  0.29644813543E+04  0.29644516774E+04 0.  0.
        1    1    3    3  502    0  0.30973831102E+03  0.25674357798E+03 -0.14332293802E+04  0.14886240433E+04  0.50400001928E-02 0.  1.
       -1    1    3    3    0  502 -0.30973831102E+03 -0.25674357798E+03  0.14199646883E+04  0.14758573109E+04  0.50400001928E-02 0. -1.
</event>
<event>
 5   0  0.7208273E-07  0.3002607E+04  0.7818609E-02  0.8242987E-01
        2   -1    0    0  501    0  0.00000000000E+00  0.00000000000E+00  0.25044984078E+04  0.25044984078E+04  0.25500000920E-02 0. -1.
       -2   -1    0    0    0  501  0.00000000000E+00  0.00000000000E+00 -0.89994533349E+03  0.89994533349E+03  0.25500000920E-02 0.  1.
    10030    2    1    2    0    0  0.00000000000E+00  0.00000000000E+00  0.16045530743E+04  0.34044437413E+04  0.30026066375E+04 0.  0.
        4    1    3    3  502    0  0.27302232402E+03  0.10183788565E+04 -0.40952847697E+03  0.11310843784E+04  0.12699999809E+01 0.  1.
       -4    1    3    3    0  502 -0.27302232402E+03 -0.10183788565E+04  0.20140815513E+04  0.22733593629E+04  0.12699999809E+01 0. -1.
</event>
<event>
 5   0  0.7278657E-07  0.3001315E+04  0.7818609E-02  0.8243355E-01
        2   -1    0    0  501    0  0.00000000000E+00  0.00000000000E+00  0.15737232347E+04  0.15737232347E+04  0.25500000920E-02 0.  1.
       -2   -1    0    0    0  501  0.00000000000E+00  0.00000000000E+00 -0.14309844435E+04  0.14309844435E+04  0.25500000920E-02 0. -1.
    10030    2    1    2    0    0  0.00000000000E+00  0.00000000000E+00  0.14273879127E+03  0.30047076782E+04  0.30013153564E+04 0.  0.
        2    1    3    3  502    0 -0.51288343604E+03 -0.28485785445E+03  0.14541546766E+04  0.15680431243E+04  0.25500000920E-02 0.  1.
       -2    1    3    3    0  502  0.51288343604E+03  0.28485785445E+03 -0.13114158853E+04  0.14366645539E+04  0.25500000920E-02 0. -1.
</event>
<event>
 5   0  0.7278657E-07  0.3030536E+04  0.7818609E-02  0.8235065E-01
       -2   -1    0    0    0  501  0.00000000000E+00  0.00000000000E+00  0.14231287606E+04  0.14231287606E+04  0.25500000920E-02 0.  1.
        2   -1    0    0  501    0  0.00000000000E+00  0.00000000000E+00 -0.16133727688E+04  0.16133727688E+04  0.25500000920E-02 0. -1.
    10030    2    1    2    0    0  0.00000000000E+00  0.00000000000E+00 -0.19024400814E+03  0.30365015294E+04  0.30305360508E+04 0.  0.
        2    1    3    3  502    0  0.91758349592E+03  0.47594015601E+03 -0.12052554344E+04  0.15878032518E+04  0.25500000920E-02 0. -1.
       -2    1    3    3    0  502 -0.91758349592E+03 -0.47594015601E+03  0.10150114263E+04  0.14486982776E+04  0.25500000920E-02 0.  1.
</event>
<event>
 5   0  0.7307508E-07  0.2986802E+04  0.7818609E-02  0.8247510E-01
       -2   -1    0    0    0  501  0.00000000000E+00  0.00000000000E+00  0.15778962553E+04  0.15778962553E+04  0.25500000920E-02 0. -1.
        2   -1    0    0  501    0  0.00000000000E+00  0.00000000000E+00 -0.14134301397E+04  0.14134301397E+04  0.25500000920E-02 0.  1.
    10030    2    1    2    0    0  0.00000000000E+00  0.00000000000E+00  0.16446611564E+03  0.29913263949E+04  0.29868017172E+04 0.  0.
        1    1    3    3  502    0 -0.81365685352E+03  0.12430145328E+04  0.23452761711E+03  0.15040365046E+04  0.50400001928E-02 0. -1.
       -1    1    3    3    0  502  0.81365685352E+03 -0.12430145328E+04 -0.70061501468E+02  0.14872898904E+04  0.50400001928E-02 0.  1.
</event>
<event>
 5   0  0.7585823E-07  0.2988965E+04  0.7818609E-02  0.8246889E-01
        2   -1    0    0  501    0  0.00000000000E+00  0.00000000000E+00  0.30004375566E+04  0.30004375566E+04  0.25500000920E-02 0. -1.
       -2   -1    0    0    0  501  0.00000000000E+00  0.00000000000E+00 -0.74438404538E+03  0.74438404539E+03  0.25500000920E-02 0.  1.
    10030    2    1    2    0    0  0.00000000000E+00  0.00000000000E+00  0.22560535112E+04  0.37448216019E+04  0.29889649354E+04 0.  0.
        5    1    3    3  502    0  0.40056833830E+03  0.32606876698E+03 -0.62899506534E+03  0.81389969693E+03  0.46999998093E+01 0.  1.
       -5    1    3    3    0  502 -0.40056833830E+03 -0.32606876698E+03  0.28850485765E+04  0.29309219050E+04  0.46999998093E+01 0. -1.
</event>
<event>
 5   0  0.2679935E-07  0.2999290E+04  0.7818609E-02  0.8243934E-01
       -1   -1    0    0    0  501  0.00000000000E+00  0.00000000000E+00  0.13565690003E+04  0.13565690003E+04  0.50400001928E-02 0. -1.
        1   -1    0    0  501    0  0.00000000000E+00  0.00000000000E+00 -0.16578112395E+04  0.16578112395E+04  0.50400001928E-02 0.  1.
    10030    2    1    2    0    0  0.00000000000E+00  0.00000000000E+00 -0.30124223921E+03  0.30143802398E+04  0.29992901399E+04 0.  0.
        2    1    3    3  502    0  0.90499196207E+03  0.95503909632E+03  0.57260008154E+03  0.14349149732E+04  0.25500000920E-02 0. -1.
       -2    1    3    3    0  502 -0.90499196207E+03 -0.95503909632E+03 -0.87384232075E+03  0.15794652666E+04  0.25500000920E-02 0.  1.
</event>
<event>
 5   0  0.2621825E-07  0.3000881E+04  0.7818609E-02  0.8243479E-01
       -1   -1    0    0    0  501  0.00000000000E+00  0.00000000000E+00  0.11466555570E+04  0.11466555570E+04  0.50400001928E-02 0.  1.
        1   -1    0    0  501    0  0.00000000000E+00  0.00000000000E+00 -0.19633805431E+04  0.19633805431E+04  0.50400001928E-02 0. -1.
    10030    2    1    2    0    0  0.00000000000E+00  0.00000000000E+00 -0.81672498617E+03  0.31100361001E+04  0.30008806776E+04 0.  0.
        3    1    3    3  502    0  0.34644619550E+03  0.38182343335E+03  0.10519722751E+04  0.11715202851E+04  0.10100000352E+00 0.  1.
       -3    1    3    3    0  502 -0.34644619550E+03 -0.38182343335E+03 -0.18686972613E+04  0.19385158150E+04  0.10100000352E+00 0. -1.
</event>
<event>
 5   0  0.2640081E-07  0.2994358E+04  0.7818609E-02  0.8245344E-01
       -1   -1    0    0    0  501  0.00000000000E+00  0.00000000000E+00  0.14250601980E+04  0.14250601980E+04  0.50400001928E-02 0. -1.
        1   -1    0    0  501    0  0.00000000000E+00  0.00000000000E+00 -0.15729477089E+04  0.15729477089E+04  0.50400001928E-02 0.  1.
    10030    2    1    2    0    0  0.00000000000E+00  0.00000000000E+00 -0.14788751093E+03  0.29980079069E+04  0.29943581439E+04 0.  0.
        1    1    3    3  502    0  0.43481746993E+03 -0.58445238613E+03  0.12356621551E+04  0.14344029369E+04  0.50400001928E-02 0. -1.
       -1    1    3    3    0  502 -0.43481746993E+03  0.58445238613E+03 -0.13835496660E+04  0.15636049700E+04  0.50400001928E-02 0.  1.
</event>
<event>
 5   0  0.2679935E-07  0.2994211E+04  0.7818609E-02  0.8245386E-01
       -1   -1    0    0    0  501  0.00000000000E+00  0.00000000000E+00  0.11758444077E+04  0.11758444077E+04  0.50400001928E-02 0.  1.
        1   -1    0    0  501    0  0.00000000000E+00  0.00000000000E+00 -0.19061413254E+04  0.19061413254E+04  0.50400001928E-02 0. -1.
    10030    2    1    2    0    0  0.00000000000E+00  0.00000000000E+00 -0.73029691774E+03  0.30819857332E+04  0.29942114941E+04 0.  0.
        2    1    3    3  502    0 -0.60313261987E+03  0.12082057381E+04  0.30017074382E+03  0.13833410781E+04  0.25500000920E-02 0.  1.
       -2    1    3    3    0  502  0.60313261987E+03 -0.12082057381E+04 -0.10304676616E+04  0.16986446551E+04  0.25500000920E-02 0. -1.
</event>
<event>
 5   0  0.7399409E-07  0.2997225E+04  0.7818609E-02  0.8244524E-01
       -2   -1    0    0    0  501  0.00000000000E+00  0.00000000000E+00  0.11656067725E+04  0.11656067725E+04  0.25500000920E-02 0. -1.
        2   -1    0    0  501    0  0.00000000000E+00  0.00000000000E+00 -0.19267559105E+04  0.19267559105E+04  0.25500000920E-02 0.  1.
    10030    2    1    2    0    0  0.00000000000E+00  0.00000000000E+00 -0.76114913802E+03  0.30923626831E+04  0.29972252090E+04 0.  0.
        3    1    3    3  502    0 -0.12814972527E+04  0.67213069698E+03 -0.78261624461E+03  0.16451392279E+04  0.10100000352E+00 0. -1.
       -3    1    3    3    0  502  0.12814972527E+04 -0.67213069698E+03  0.21467106587E+02  0.14472234552E+04  0.10100000352E+00 0.  1.
</event>
<event>
 5   0  0.2679935E-07  0.2999764E+04  0.7818609E-02  0.8243798E-01
        1   -1    0    0  501    0  0.00000000000E+00  0.00000000000E+00  0.19773834090E+04  0.19773834090E+04  0.50400001928E-02 0.  1.
       -1   -1    0    0    0  501  0.00000000000E+00  0.00000000000E+00 -0.11376880278E+04  0.11376880278E+04  0.50400001928E-02 0. -1.
    10030    2    1    2    0    0  0.00000000000E+00  0.00000000000E+00  0.83969538115E+03  0.31150714368E+04  0.29997636112E+04 0.  0.
        2    1    3    3  502    0 -0.66900489749E+03 -0.75052319687E+03  0.15756413719E+04  0.18690902479E+04  0.25500000920E-02 0.  1.
       -2    1    3    3    0  502  0.66900489749E+03  0.75052319687E+03 -0.73594599072E+03  0.12459811889E+04  0.25500000920E-02 0. -1.
</event>
<event>
 5   0  0.7585823E-07  0.3001244E+04  0.7818609E-02  0.8243376E-01
       -2   -1    0    0    0  501  0.00000000000E+00  0.00000000000E+00  0.12963058316E+04  0.12963058316E+04  0.25500000920E-02 0.  1.
        2   -1    0    0  501    0  0.00000000000E+00  0.00000000000E+00 -0.17371417907E+04  0.17371417907E+04  0.25500000920E-02 0. -1.
    10030    2    1    2    0    0  0.00000000000E+00  0.00000000000E+00 -0.44083595902E+03  0.30334476223E+04  0.30012444310E+04 0.  0.
        5    1    3    3  502    0 -0.83217057704E+03  0.15030328355E+03  0.10325390546E+04  0.13346377544E+04  0.46999998093E+01 0.  1.
       -5    1    3    3    0  502  0.83217057704E+03 -0.15030328355E+03 -0.14733750136E+04  0.16988098678E+04  0.46999998093E+01 0. -1.
</event>
<event>
 5   0  0.7208273E-07  0.2994563E+04  0.7818609E-02  0.8245285E-01
        2   -1    0    0  501    0  0.00000000000E+00  0.00000000000E+00  0.15741925779E+04  0.15741925779E+04  0.25500000920E-02 0.  1.
       -2   -1    0    0    0  501  0.00000000000E+00  0.00000000000E+00 -0.14241279449E+04  0.14241279449E+04  0.25500000920E-02 0. -1.
    10030    2    1    2    0    0  0.00000000000E+00  0.00000000000E+00  0.15006463305E+03  0.29983205228E+04  0.29945628334E+04 0.  0.
        4    1    3    3  502    0  0.10239521577E+04  0.10623482076E+04 -0.17982252836E+03  0.14864048877E+04  0.12699999809E+01 0.  1.
       -4    1    3    3    0  502 -0.10239521577E+04 -0.10623482076E+04  0.32988716142E+03  0.15119156351E+04  0.12699999809E+01 0. -1.
</event>
<event>
 5   0  0.2602891E-07  0.2988946E+04  0.7818609E-02  0.8246895E-01
       -1   -1    0    0    0  501  0.00000000000E+00  0.00000000000E+00  0.15119991182E+04  0.15119991183E+04  0.50400001928E-02 0.  1.
        1   -1    0    0  501    0  0.00000000000E+00  0.00000000000E+00 -0.14771495437E+04  0.14771495437E+04  0.50400001928E-02 0. -1.
    10030    2    1    2    0    0  0.00000000000E+00  0.00000000000E+00  0.34849574585E+02  0.29891486619E+04  0.29889455047E+04 0.  0.
        5    1    3    3  502    0 -0.92527292953E+03  0.35994869898E+03  0.11345207004E+04  0.15075982123E+04  0.46999998093E+01 0.  1.
       -5    1    3    3    0  502  0.92527292953E+03 -0.35994869898E+03 -0.10996711258E+04  0.14815504497E+04  0.46999998093E+01 0. -1.
</event>
<event>
 5   0  0.2621825E-07  0.2995561E+04  0.7818609E-02  0.8245000E-01
       -1   -1    0    0    0  501  0.00000000000E+00  0.00000000000E+00  0.13221321184E+04  0.13221321184E+04  0.50400001928E-02 0. -1.
        1   -1    0    0  501    0  0.00000000000E+00  0.00000000000E+00 -0.16967640086E+04  0.16967640086E+04  0.50400001928E-02 0.  1.
    10030    2    1    2    0    0  0.00000000000E+00  0.00000000000E+00 -0.37463189022E+03  0.30188961270E+04  0.29955608444E+04 0.  0.
        3    1    3    3  502    0 -0.10058923404E+04  0.45122495192E+03  0.83444730876E+03  0.13826516839E+04  0.10100000352E+00 0. -1.
       -3    1    3    3    0  502  0.10058923404E+04 -0.45122495192E+03 -0.12090791990E+04  0.16362444431E+04  0.10100000352E+00 0.  1.
</event>
<event>
 5   0  0.2640081E-07  0.2988810E+04  0.7818609E-02  0.8246934E-01
        1   -1    0    0  501    0  0.00000000000E+00  0.00000000000E+00  0.11639807806E+04  0.11639807806E+04  0.50400001928E-02 0. -1.
       -1   -1    0    0    0  501  0.00000000000E+00  0.00000000000E+00 -0.19186276476E+04  0.19186276476E+04  0.50400001928E-02 0.  1.
    10030    2    1    2    0    0  0.00000000000E+00  0.00000000000E+00 -0.75464686703E+03  0.30826084281E+04  0.29888096004E+04 0.  0.
        1    1    3    3  502    0  0.91135334088E+03 -0.11836392731E+04 -0.41958330057E+03  0.15516497630E+04  0.50400001928E-02 0. -1.
       -1    1    3    3    0  502 -0.91135334088E+03  0.11836392731E+04 -0.33506356646E+03  0.15309586652E+04  0.50400001928E-02 0.  1.
</event>
<event>
 5   0  0.2602891E-07  0.2985819E+04  0.7818609E-02  0.8247792E-01
       -1   -1    0    0    0  501  0.00000000000E+00  0.00000000000E+00  0.10605024311E+04  0.10605024311E+04  0.50400001928E-02 0. -1.
        1   -1    0    0  501    0  0.00000000000E+00  0.00000000000E+00 -0.21016249269E+04  0.21016249269E+04  0.50400001928E-02 0.  1.
    10030    2    1    2    0    0  0.00000000000E+00  0.00000000000E+00 -0.10411224958E+04  0.31621273581E+04  0.29858187114E+04 0.  0.
        5    1    3    3  502    0 -0.87267678340E+02  0.13167289843E+03  0.10516188451E+04  0.10634273295E+04  0.46999998093E+01 0. -1.
       -5    1    3    3    0  502  0.87267678340E+02 -0.13167289843E+03 -0.20927413409E+04  0.20987000285E+04  0.46999998093E+01 0.  1.
</event>
<event>
 5   0  0.7278657E-07  0.3014652E+04  0.7818609E-02  0.8239559E-01
        2   -1    0    0  501    0  0.00000000000E+00  0.00000000000E+00  0.18823347236E+04  0.18823347236E+04  0.25500000920E-02 0. -1.
       -2   -1    0    0    0  501  0.00000000000E+00  0.00000000000E+00 -0.12070283719E+04  0.12070283719E+04  0.25500000920E-02 0.  1.
    10030    2    1    2    0    0  0.00000000000E+00  0.00000000000E+00  0.67530635172E+03  0.30893630956E+04  0.30146518319E+04 0.  0.
        2    1    3    3  502    0 -0.65254668685E+03 -0.13566469492E+04  0.26012585073E+03  0.15277347877E+04  0.25500000920E-02 0.  1.
       -2    1    3    3    0  502  0.65254668685E+03  0.13566469492E+04  0.41518050099E+03  0.15616283078E+04  0.25500000920E-02 0. -1.
</event>
<event>
 5   0  0.2679935E-07  0.2996848E+04  0.7818609E-02  0.8244631E-01
       -1   -1    0    0    0  501  0.00000000000E+00  0.00000000000E+00  0.21908998626E+04  0.21908998626E+04  0.50400001928E-02 0.  1.
        1   -1    0    0  501    0  0.00000000000E+00  0.00000000000E+00 -0.10248184885E+04  0.10248184885E+04  0.50400001928E-02 0. -1.
    10030    2    1    2    0    0  0.00000000000E+00  0.00000000000E+00  0.11660813741E+04  0.32157183511E+04  0.29968481348E+04 0.  0.
        2    1    3    3  502    0  0.16838891718E+03  0.14838878684E+04  0.45163612936E+03  0.15602093535E+04  0.25500000920E-02 0. -1.
       -2    1    3    3    0  502 -0.16838891718E+03 -0.14838878684E+04  0.71444524469E+03  0.16555089976E+04  0.25500000920E-02 0.  1.
</event>
<event>
 5   0  0.7585823E-07  0.2986713E+04  0.7818609E-02  0.8247535E-01
       -2   -1    0    0    0  501  0.00000000000E+00  0.00000000000E+00  0.11122796160E+04  0.11122796160E+04  0.25500000920E-02 0.  1.
        2   -1    0    0  501    0  0.00000000000E+00  0.00000000000E+00 -0.20049936992E+04  0.20049936992E+04  0.25500000920E-02 0. -1.
    10030    2    1    2    0    0  0.00000000000E+00  0.00000000000E+00 -0.89271408317E+03  0.31172733152E+04  0.29867129904E+04 0.  0.
        5    1    3    3  502    0 -0.88053962085E+03  0.60090239597E+03  0.64513889182E+03  0.12460577808E+04  0.46999998093E+01 0.  1.
       -5    1    3    3    0  502  0.88053962085E+03 -0.60090239597E+03 -0.15378529750E+04  0.18712155344E+04  0.46999998093E+01 0. -1.
</event>
<event>
 5   0  0.2640081E-07  0.2992312E+04  0.7818609E-02  0.8245930E-01
        1   -1    0    0  501    0  0.00000000000E+00  0.00000000000E+00  0.13949540197E+04  0.13949540197E+04  0.50400001928E-02 0.  1.
       -1   -1    0    0    0  501  0.00000000000E+00  0.00000000000E+00 -0.16046997178E+04  0.16046997178E+04  0.50400001928E-02 0. -1.
    10030    2    1    2    0    0  0.00000000000E+00  0.00000000000E+00 -0.20974569814E+03  0.29996537375E+04  0.29923116962E+04 0.  0.
        1    1    3    3  502    0  0.35237104194E+02 -0.11051935774E+04  0.90546307809E+03  0.14291808433E+04  0.50400001928E-02 0.  1.
       -1    1    3    3    0  502 -0.35237104194E+02  0.11051935774E+04 -0.11152087762E+04  0.15704728943E+04  0.50400001928E-02 0. -1.
</event>
<event>
 5   0  0.7399409E-07  0.2979519E+04  0.7818609E-02  0.8249604E-01
       -2   -1    0    0    0  501  0.00000000000E+00  0.00000000000E+00  0.16165870786E+04  0.16165870786E+04  0.25500000920E-02 0. -1.
        2   -1    0    0  501    0  0.00000000000E+00  0.00000000000E+00 -0.13728818557E+04  0.13728818557E+04  0.25500000920E-02 0.  1.
    10030    2    1    2    0    0  0.00000000000E+00  0.00000000000E+00  0.24370522296E+03  0.29894689343E+04  0.29795187990E+04 0.  0.
        3    1    3    3  502    0 -0.74722482459E+03 -0.68693276051E+03 -0.97227590000E+03  0.14055397511E+04  0.10100000352E+00 0.  1.
       -3    1    3    3    0  502  0.74722482459E+03  0.68693276051E+03  0.12159811230E+04  0.15839291833E+04  0.10100000352E+00 0. -1.
</event>
<event>
 5   0  0.7585823E-07  0.3000959E+04  0.7818609E-02  0.8243457E-01
       -2   -1    0    0    0  501  0.00000000000E+00  0.00000000000E+00  0.14247043448E+04  0.14247043448E+04  0.25500000920E-02 0.  1.
        2   -1    0    0  501    0  0.00000000000E+00  0.00000000000E+00 -0.15802844653E+04  0.15802844653E+04  0.25500000920E-02 0. -1.
    10030    2    1    2    0    0  0.00000000000E+00  0.00000000000E+00 -0.15558012053E+03  0.30049888101E+04  0.30009586093E+04 0.  0.
        5    1    3    3  502    0  0.23380395292E+03 -0.60656448357E+03 -0.14319491079E+04  0.15726045589E+04  0.46999998093E+01 0. -1.
       -5    1    3    3    0  502 -0.23380395292E+03  0.60656448357E+03  0.12763689874E+04  0.14323842512E+04  0.46999998093E+01 0.  1.
</event>
<event>
 5   0  0.7585823E-07  0.3007260E+04  0.7818609E-02  0.8241661E-01
        2   -1    0    0  501    0  0.00000000000E+00  0.00000000000E+00  0.28774479035E+04  0.28774479035E+04  0.25500000920E-02 0. -1.
       -2   -1    0    0    0  501  0.00000000000E+00  0.00000000000E+00 -0.78573233196E+03  0.78573233196E+03  0.25500000920E-02 0.  1.
    10030    2    1    2    0    0  0.00000000000E+00  0.00000000000E+00  0.20917155715E+04  0.36631802355E+04  0.30072604485E+04 0.  0.
        5    1    3    3  502    0  0.69667038734E+03  0.84468070752E+03  0.23011910541E+04  0.25483990040E+04  0.46999998093E+01 0. -1.
       -5    1    3    3    0  502 -0.69667038734E+03 -0.84468070752E+03 -0.20947548253E+03  0.11147812315E+04  0.46999998093E+01 0.  1.
</event>
<event>
 5   0  0.7399409E-07  0.2991067E+04  0.7818609E-02  0.8246286E-01
        2   -1    0    0  501    0  0.00000000000E+00  0.00000000000E+00  0.12913514650E+04  0.12913514650E+04  0.25500000920E-02 0. -1.
       -2   -1    0    0    0  501  0.00000000000E+00  0.00000000000E+00 -0.17319992091E+04  0.17319992091E+04  0.25500000920E-02 0.  1.
    10030    2    1    2    0    0  0.00000000000E+00  0.00000000000E+00 -0.44064774410E+03  0.30233506741E+04  0.29910665095E+04 0.  0.
        3    1    3    3  502    0 -0.31707065259E+03  0.13493613997E+04 -0.78790916368E+03  0.15943998389E+04  0.10100000352E+00 0.  1.
       -3    1    3    3    0  502  0.31707065259E+03 -0.13493613997E+04  0.34726141958E+03  0.14289508352E+04  0.10100000352E+00 0. -1.
</event>
<event>
 5   0  0.2640081E-07  0.3006850E+04  0.7818609E-02  0.8241778E-01
        1   -1    0    0  501    0  0.00000000000E+00  0.00000000000E+00  0.12869739810E+04  0.12869739810E+04  0.50400001928E-02 0.  1.
       -1   -1    0    0    0  501  0.00000000000E+00  0.00000000000E+00 -0.17562801611E+04  0.17562801611E+04  0.50400001928E-02 0. -1.
    10030    2    1    2    0    0  0.00000000000E+00  0.00000000000E+00 -0.46930618011E+03  0.30432541421E+04  0.30068500931E+04 0.  0.
        1    1    3    3  502    0  0.72212057255E+03 -0.10643027796E+04  0.55328920010E+03  0.14001169476E+04  0.50400001928E-02 0.  1.
       -1    1    3    3    0  502 -0.72212057255E+03  0.10643027796E+04 -0.10225953802E+04  0.16431371944E+04  0.50400001928E-02 0. -1.
</event>
<event>
 5   0  0.2792361E-07  0.3001079E+04  0.7818609E-02  0.8243423E-01
        1   -1    0    0  501    0  0.00000000000E+00  0.00000000000E+00  0.13916795657E+04  0.13916795657E+04  0.50400001928E-02 0.  1.
       -1   -1    0    0    0  501  0.00000000000E+00  0.00000000000E+00 -0.16179147808E+04  0.16179147808E+04  0.50400001928E-02 0. -1.
    10030    2    1    2    0    0  0.00000000000E+00  0.00000000000E+00 -0.22623521512E+03  0.30095943466E+04  0.30010790990E+04 0.  0.
        4    1    3    3  502    0 -0.11782485622E+03 -0.56516423221E+03  0.12758480333E+04  0.14003867763E+04  0.12699999809E+01 0.  1.
       -4    1    3    3    0  502  0.11782485622E+03  0.56516423221E+03 -0.15020832484E+04  0.16092075703E+04  0.12699999809E+01 0. -1.
</event>
<event>
 5   0  0.2602891E-07  0.3001654E+04  0.7818609E-02  0.8243259E-01
        1   -1    0    0  501    0  0.00000000000E+00  0.00000000000E+00  0.16544317409E+04  0.16544317409E+04  0.50400001928E-02 0.  1.
       -1   -1    0    0    0  501  0.00000000000E+00  0.00000000000E+00 -0.13614832803E+04  0.13614832804E+04  0.50400001928E-02 0. -1.
    10030    2    1    2    0    0  0.00000000000E+00  0.00000000000E+00  0.29294846052E+03  0.30159150212E+04  0.30016536467E+04 0.  0.
        5    1    3    3  502    0 -0.92763078445E+02  0.20440531244E+03  0.16374628638E+04  0.16527834828E+04  0.46999998093E+01 0.  1.
       -5    1    3    3    0  502  0.92763078445E+02 -0.20440531244E+03 -0.13445144033E+04  0.13631315385E+04  0.46999998093E+01 0. -1.
</event>
<event>
 5   0  0.7278657E-07  0.2999486E+04  0.7818609E-02  0.8243878E-01
       -2   -1    0    0    0  501  0.00000000000E+00  0.00000000000E+00  0.11321958994E+04  0.11321958994E+04  0.25500000920E-02 0. -1.
        2   -1    0    0  501    0  0.00000000000E+00  0.00000000000E+00 -0.19866076214E+04  0.19866076214E+04  0.25500000920E-02 0.  1.
    10030    2    1    2    0    0  0.00000000000E+00  0.00000000000E+00 -0.85441172199E+03  0.31188035209E+04  0.29994859578E+04 0.  0.
        2    1    3    3  502    0 -0.12379158777E+04 -0.70628307805E+03  0.58224670169E+02  0.14264156543E+04  0.25500000920E-02 0. -1.
       -2    1    3    3    0  502  0.12379158777E+04  0.70628307805E+03 -0.91263639216E+03  0.16923878666E+04  0.25500000920E-02 0.  1.
</event>
<event>
 5   0  0.2621825E-07  0.3011753E+04  0.7818609E-02  0.8240383E-01
       -1   -1    0    0    0  501  0.00000000000E+00  0.00000000000E+00  0.14051602910E+04  0.14051602910E+04  0.50400001928E-02 0.  1.
        1   -1    0    0  501    0  0.00000000000E+00  0.00000000000E+00 -0.16138116815E+04  0.16138116815E+04  0.50400001928E-02 0. -1.
    10030    2    1    2    0    0  0.00000000000E+00  0.00000000000E+00 -0.20865139054E+03  0.30189719726E+04  0.30117530391E+04 0.  0.
        3    1    3    3  502    0 -0.21493733232E+03  0.68913739672E+03  0.12204151923E+04  0.14179286513E+04  0.10100000352E+00 0.  1.
       -3    1    3    3    0  502  0.21493733232E+03 -0.68913739672E+03 -0.14290665828E+04  0.16010433213E+04  0.10100000352E+00 0. -1.
</event>
<event>
 5   0  0.2792361E-07  0.2991495E+04  0.7818609E-02  0.8246164E-01
        1   -1    0    0  501    0  0.00000000000E+00  0.00000000000E+00  0.17693289704E+04  0.17693289704E+04  0.50400001928E-02 0. -1.
       -1   -1    0    0    0  501  0.00000000000E+00  0.00000000000E+00 -0.12644686436E+04  0.12644686436E+04  0.50400001928E-02 0.  1.
    10030    2    1    2    0    0  0.00000000000E+00  0.00000000000E+00  0.50486032682E+03  0.30337976141E+04  0.29914952805E+04 0.  0.
        4    1    3    3  502    0 -0.79869282219E+03 -0.10396518755E+04 -0.47780277093E+03  0.13953792844E+04  0.12699999809E+01 0.  1.
       -4    1    3    3    0  502  0.79869282219E+03  0.10396518755E+04  0.98266309775E+03  0.16384183297E+04  0.12699999809E+01 0. -1.
</event>
<event>
 5   0  0.7208273E-07  0.3001187E+04  0.7818609E-02  0.8243392E-01
        2   -1    0    0  501    0  0.00000000000E+00  0.00000000000E+00  0.22093958729E+04  0.22093958729E+04  0.25500000920E-02 0.  1.
       -2   -1    0    0    0  501  0.00000000000E+00  0.00000000000E+00 -0.10191840075E+04  0.10191840075E+04  0.25500000920E-02 0. -1.
    10030    2    1    2    0    0  0.00000000000E+00  0.00000000000E+00  0.11902118654E+04  0.32285798804E+04  0.30011870584E+04 0.  0.
        4    1    3    3  502    0 -0.63637852214E+03  0.65236228021E+02  0.20553573392E+04  0.21526097634E+04  0.12699999809E+01 0.  1.
       -4    1    3    3    0  502  0.63637852214E+03 -0.65236228021E+02 -0.86514547382E+03  0.10759701170E+04  0.12699999809E+01 0. -1.
</event>
<event>
 5   0  0.2792361E-07  0.3004157E+04  0.7818609E-02  0.8242545E-01
        1   -1    0    0  501    0  0.00000000000E+00  0.00000000000E+00  0.17039073285E+04  0.17039073285E+04  0.50400001928E-02 0. -1.
       -1   -1    0    0    0  501  0.00000000000E+00  0.00000000000E+00 -0.13241568280E+04  0.13241568280E+04  0.50400001928E-02 0.  1.
    10030    2    1    2    0    0  0.00000000000E+00  0.00000000000E+00  0.37975050043E+03  0.30280641565E+04  0.30041574681E+04 0.  0.
        4    1    3    3  502    0 -0.11539324340E+04 -0.91394959563E+03  0.49121079963E+03  0.15518226665E+04  0.12699999809E+01 0. -1.
       -4    1    3    3    0  502  0.11539324340E+04  0.91394959563E+03 -0.11146029920E+03  0.14762414900E+04  0.12699999809E+01 0.  1.
</event>
<event>
 5   0  0.2792361E-07  0.3000437E+04  0.7818609E-02  0.8243606E-01
       -1   -1    0    0    0  501  0.00000000000E+00  0.00000000000E+00  0.95227717047E+03  0.95227717048E+03  0.50400001928E-02 0. -1.
        1   -1    0    0  501    0  0.00000000000E+00  0.00000000000E+00 -0.23634460889E+04  0.23634460889E+04  0.50400001928E-02 0.  1.
    10030    2    1    2    0    0  0.00000000000E+00  0.00000000000E+00 -0.14111689185E+04  0.33157232594E+04  0.30004371376E+04 0.  0.
        4    1    3    3  502    0 -0.10797512481E+04  0.74734367573E+03  0.96089101935E+02  0.13166700634E+04  0.12699999809E+01 0. -1.
       -4    1    3    3    0  502  0.10797512481E+04 -0.74734367573E+03 -0.15072580204E+04  0.19990531960E+04  0.12699999809E+01 0.  1.
</event>
<event>
 5   0  0.2640081E-07  0.3002209E+04  0.7818609E-02  0.8243100E-01
        1   -1    0    0  501    0  0.00000000000E+00  0.00000000000E+00  0.17689761323E+04  0.17689761323E+04  0.50400001928E-02 0.  1.
       -1   -1    0    0    0  501  0.00000000000E+00  0.00000000000E+00 -0.12737960151E+04  0.12737960151E+04  0.50400001928E-02 0. -1.
    10030    2    1    2    0    0  0.00000000000E+00  0.00000000000E+00  0.49518011712E+03  0.30427721474E+04  0.30022090188E+04 0.  0.
        1    1    3    3  502    0 -0.13871738783E+04  0.56435855530E+03  0.14342596321E+03  0.15044344301E+04  0.50400001928E-02 0. -1.
       -1    1    3    3    0  502  0.13871738783E+04 -0.56435855530E+03  0.35175415391E+03  0.15383377173E+04  0.50400001928E-02 0.  1.
</event>
<event>
 5   0  0.7307508E-07  0.3004658E+04  0.7818609E-02  0.8242402E-01
       -2   -1    0    0    0  501  0.00000000000E+00  0.00000000000E+00  0.10969393890E+04  0.10969393890E+04  0.25500000920E-02 0. -1.
        2   -1    0    0  501    0  0.00000000000E+00  0.00000000000E+00 -0.20575360899E+04  0.20575360899E+04  0.25500000920E-02 0.  1.
    10030    2    1    2    0    0  0.00000000000E+00  0.00000000000E+00 -0.96059670092E+03  0.31544754789E+04  0.30046579714E+04 0.  0.
        1    1    3    3  502    0  0.74630475113E+03 -0.15655788299E+03  0.87865886834E+03  0.11634098844E+04  0.50400001928E-02 0. -1.
       -1    1    3    3    0  502 -0.74630475113E+03  0.15655788299E+03 -0.18392555693E+04  0.19910655944E+04  0.50400001928E-02 0.  1.
</event>
<event>
 5   0  0.2621825E-07  0.3001512E+04  0.7818609E-02  0.8243299E-01
        1   -1    0    0  501    0  0.00000000000E+00  0.00000000000E+00  0.28178487067E+04  0.28178487067E+04  0.50400001928E-02 0. -1.
       -1   -1    0    0    0  501  0.00000000000E+00  0.00000000000E+00 -0.79928649709E+03  0.79928649710E+03  0.50400001928E-02 0.  1.
    10030    2    1    2    0    0  0.00000000000E+00  0.00000000000E+00  0.20185622096E+04  0.36171352038E+04  0.30015119004E+04 0.  0.
        3    1    3    3  502    0 -0.43195930460E+02 -0.35102942766E+03  0.27669087773E+04  0.27894213987E+04  0.10100000352E+00 0. -1.
       -3    1    3    3    0  502  0.43195930460E+02  0.35102942766E+03 -0.74834656771E+03  0.82771380507E+03  0.10100000352E+00 0.  1.
</event>
<event>
 5   0  0.7278657E-07  0.3008757E+04  0.7818609E-02  0.8241235E-01
        2   -1    0    0  501    0  0.00000000000E+00  0.00000000000E+00  0.10593342542E+04  0.10593342542E+04  0.25500000920E-02 0.  1.
       -2   -1    0    0    0  501  0.00000000000E+00  0.00000000000E+00 -0.21363929588E+04  0.21363929588E+04  0.25500000920E-02 0. -1.
    10030    2    1    2    0    0  0.00000000000E+00  0.00000000000E+00 -0.10770587046E+04  0.31957272130E+04  0.30087567144E+04 0.  0.
        2    1    3    3  502    0  0.87838191936E+03 -0.12135801191E+04 -0.68425099174E+03  0.16469762966E+04  0.25500000920E-02 0. -1.
       -2    1    3    3    0  502 -0.87838191936E+03  0.12135801191E+04 -0.39280771287E+03  0.15487509164E+04  0.25500000920E-02 0.  1.
</event>
<event>
 5   0  0.7399409E-07  0.2994839E+04  0.7818609E-02  0.8245206E-01
       -2   -1    0    0    0  501  0.00000000000E+00  0.00000000000E+00  0.69426449765E+03  0.69426449765E+03  0.25500000920E-02 0.  1.
        2   -1    0    0  501    0  0.00000000000E+00  0.00000000000E+00 -0.32296978791E+04  0.32296978791E+04  0.25500000920E-02 0. -1.
    10030    2    1    2    0    0  0.00000000000E+00  0.00000000000E+00 -0.25354333815E+04  0.39239623768E+04  0.29948386104E+04 0.  0.
        3    1    3    3  502    0  0.14533472710E+04 -0.12517707827E+03 -0.82459734300E+03  0.16756635639E+04  0.10100000352E+00 0. -1.
       -3    1    3    3    0  502 -0.14533472710E+04  0.12517707827E+03 -0.17108360385E+04  0.22482988128E+04  0.10100000352E+00 0.  1.
</event>
<event>
 5   0  0.2602891E-07  0.2998818E+04  0.7818609E-02  0.8244068E-01
        1   -1    0    0  501    0  0.00000000000E+00  0.00000000000E+00  0.29217697238E+04  0.29217697238E+04  0.50400001928E-02 0.  1.
       -1   -1    0    0    0  501  0.00000000000E+00  0.00000000000E+00 -0.76947466562E+03  0.76947466564E+03  0.50400001928E-02 0. -1.
    10030    2    1    2    0    0  0.00000000000E+00  0.00000000000E+00  0.21522950582E+04  0.36912443894E+04  0.29988182881E+04 0.  0.
        5    1    3    3  502    0  0.13388244237E+04 -0.66065779994E+03  0.12470880961E+04  0.19452944187E+04  0.46999998093E+01 0.  1.
       -5    1    3    3    0  502 -0.13388244237E+04  0.66065779994E+03  0.90520696208E+03  0.17459499707E+04  0.46999998093E+01 0. -1.
</event>
<event>
 5   0  0.7208273E-07  0.2996546E+04  0.7818609E-02  0.8244718E-01
       -2   -1    0    0    0  501  0.00000000000E+00  0.00000000000E+00  0.19789632439E+04  0.19789632439E+04  0.25500000920E-02 0. -1.
        2   -1    0    0  501    0  0.00000000000E+00  0.00000000000E+00 -0.11343422907E+04  0.11343422907E+04  0.25500000920E-02 0.  1.
    10030    2    1    2    0    0  0.00000000000E+00  0.00000000000E+00  0.84462095318E+03  0.31133055347E+04  0.29965458110E+04 0.  0.
        4    1    3    3  502    0 -0.88643158273E+03 -0.18608388861E+03 -0.81768948317E+03  0.12202482814E+04  0.12699999809E+01 0.  1.
       -4    1    3    3    0  502  0.88643158273E+03  0.18608388861E+03  0.16623104363E+04  0.18930572533E+04  0.12699999809E+01 0. -1.
</event>
<event>
 5   0  0.7208273E-07  0.2997087E+04  0.7818609E-02  0.8244563E-01
        2   -1    0    0  501    0  0.00000000000E+00  0.00000000000E+00  0.25178325247E+04  0.25178325247E+04  0.25500000920E-02 0. -1.
       -2   -1    0    0    0  501  0.00000000000E+00  0.00000000000E+00 -0.89189129429E+03  0.89189129429E+03  0.25500000920E-02 0.  1.
    10030    2    1    2    0    0  0.00000000000E+00  0.00000000000E+00  0.16259412304E+04  0.34097238190E+04  0.29970871921E+04 0.  0.
        4    1    3    3  502    0  0.11531842119E+04 -0.78354527821E+03  0.14380259774E+04  0.20029222037E+04  0.12699999809E+01 0. -1.
       -4    1    3    3    0  502 -0.11531842119E+04  0.78354527821E+03  0.18791525302E+03  0.14068016153E+04  0.12699999809E+01 0.  1.
</event>
<event>
 5   0  0.7278657E-07  0.2986435E+04  0.7818609E-02  0.8247615E-01
        2   -1    0    0  501    0  0.00000000000E+00  0.00000000000E+00  0.12730262078E+04  0.12730262078E+04  0.25500000920E-02 0.  1.
       -2   -1    0    0    0  501  0.00000000000E+00  0.00000000000E+00 -0.17514942200E+04  0.17514942200E+04  0.25500000920E-02 0. -1.
    10030    2    1    2    0    0  0.00000000000E+00  0.00000000000E+00 -0.47846801220E+03  0.30245204279E+04  0.29864346937E+04 0.  0.
        2    1    3    3  502    0  0.30198822940E+03  0.14509143254E+04 -0.42417936631E+03  0.15415178900E+04  0.25500000920E-02 0. -1.
       -2    1    3    3    0  502 -0.30198822940E+03 -0.14509143254E+04 -0.54288645896E+02  0.14830025379E+04  0.25500000920E-02 0.  1.
</event>
<event>
 5   0  0.2602891E-07  0.3006026E+04  0.7818609E-02  0.8242012E-01
        1   -1    0    0  501    0  0.00000000000E+00  0.00000000000E+00  0.99406015483E+03  0.99406015484E+03  0.50400001928E-02 0.  1.
       -1   -1    0    0    0  501  0.00000000000E+00  0.00000000000E+00 -0.22725462675E+04  0.22725462675E+04  0.50400001928E-02 0. -1.
    10030    2    1    2    0    0  0.00000000000E+00  0.00000000000E+00 -0.12784861127E+04  0.32666064223E+04  0.30060257448E+04 0.  0.
        5    1    3    3  502    0  0.60872890926E+03 -0.52340824147E+03 -0.20200266974E+04  0.21737150274E+04  0.46999998093E+01 0. -1.
       -5    1    3    3    0  502 -0.60872890926E+03  0.52340824147E+03  0.74154058476E+03  0.10928913949E+04  0.46999998093E+01 0.  1.
</event>
<event>
 5   0  0.7399409E-07  0.3000778E+04  0.7818609E-02  0.8243509E-01
        2   -1    0    0  501    0  0.00000000000E+00  0.00000000000E+00  0.23927136796E+04  0.23927136796E+04  0.25500000920E-02 0. -1.
       -2   -1    0    0    0  501  0.00000000000E+00  0.00000000000E+00 -0.94084273141E+03  0.94084273141E+03  0.25500000920E-02 0.  1.
    10030    2    1    2    0    0  0.00000000000E+00  0.00000000000E+00  0.14518709482E+04  0.33335564110E+04  0.30007780816E+04 0.  0.
        3    1    3    3  502    0  0.34491833983E+03  0.34247408303E+03  0.23028268108E+04  0.23535650595E+04  0.10100000352E+00 0. -1.
       -3    1    3    3    0  502 -0.34491833983E+03 -0.34247408303E+03 -0.85095586260E+03  0.97999135149E+03  0.10100000352E+00 0.  1.
</event>
<event>
 5   0  0.2414250E-07  0.2998531E+04  0.7818609E-02  0.8244150E-01
        3   -1    0    0  501    0  0.00000000000E+00  0.00000000000E+00  0.12931889430E+04  0.12931889469E+04  0.10100000352E+00 0.  1.
       -3   -1    0    0    0  501  0.00000000000E+00  0.00000000000E+00 -0.17381816899E+04  0.17381816928E+04  0.10100000352E+00 0. -1.
    10030    2    1    2    0    0  0.00000000000E+00  0.00000000000E+00 -0.44499274692E+03  0.30313706398E+04  0.29985312089E+04 0.  0.
        3    1    3    3  502    0  0.83513749544E+03  0.74823924165E+03 -0.12286249515E+04  0.16633808586E+04  0.10100000352E+00 0. -1.
       -3    1    3    3    0  502 -0.83513749544E+03 -0.74823924165E+03  0.78363220461E+03  0.13679897812E+04  0.10100000352E+00 0.  1.
</event>
<event>
 5   0  0.2621825E-07  0.3012187E+04  0.7818609E-02  0.8240259E-01
        1   -1    0    0  501    0  0.00000000000E+00  0.00000000000E+00  0.18961459569E+04  0.18961459569E+04  0.50400001928E-02 0. -1.
       -1   -1    0    0    0  501  0.00000000000E+00  0.00000000000E+00 -0.11962780935E+04  0.11962780936E+04  0.50400001928E-02 0.  1.
    10030    2    1    2    0    0  0.00000000000E+00  0.00000000000E+00  0.69986786335E+03  0.30924240504E+04  0.30121871591E+04 0.  0.
        3    1    3    3  502    0 -0.57176269921E+01 -0.14218943032E+04  0.85964856421E+03  0.16615690671E+04  0.10100000352E+00 0. -1.
       -3    1    3    3    0  502  0.57176269921E+01  0.14218943032E+04 -0.15978070087E+03  0.14308549833E+04  0.10100000352E+00 0.  1.
</event>
<event>
 5   0  0.2414250E-07  0.2995886E+04  0.7818609E-02  0.8244907E-01
        3   -1    0    0  501    0  0.00000000000E+00  0.00000000000E+00  0.23087105827E+04  0.23087105849E+04  0.10100000352E+00 0. -1.
       -3   -1    0    0    0  501  0.00000000000E+00  0.00000000000E+00 -0.97189907318E+03  0.97189907843E+03  0.10100000352E+00 0.  1.
    10030    2    1    2    0    0  0.00000000000E+00  0.00000000000E+00  0.13368115095E+04  0.32806096633E+04  0.29958863048E+04 0.  0.
        5    1    3    3  502    0 -0.24193180858E+03  0.34899654454E+03  0.22414088441E+04  0.22812858840E+04  0.46999998093E+01 0. -1.
       -5    1    3    3    0  502  0.24193180858E+03 -0.34899654454E+03 -0.90459733462E+03  0.99932377931E+03  0.46999998093E+01 0.  1.
</event>
<event>
 5   0  0.7208273E-07  0.2999747E+04  0.7818609E-02  0.8243803E-01
        2   -1    0    0  501    0  0.00000000000E+00  0.00000000000E+00  0.10038922817E+04  0.10038922817E+04  0.25500000920E-02 0.  1.
       -2   -1    0    0    0  501  0.00000000000E+00  0.00000000000E+00 -0.22408982965E+04  0.22408982965E+04  0.25500000920E-02 0. -1.
    10030    2    1    2    0    0  0.00000000000E+00  0.00000000000E+00 -0.12370060148E+04  0.32447905783E+04  0.29997469920E+04 0.  0.
        4    1    3    3  502    0  0.13152122577E+04 -0.20329486068E+03  0.12974592586E+03  0.13371416160E+04  0.12699999809E+01 0.  1.
       -4    1    3    3    0  502 -0.13152122577E+04  0.20329486068E+03 -0.13667519406E+04  0.19076489623E+04  0.12699999809E+01 0. -1.
</event>
<event>
 5   0  0.2792361E-07  0.2957509E+04  0.7818609E-02  0.8255970E-01
       -1   -1    0    0    0  501  0.00000000000E+00  0.00000000000E+00  0.16585468771E+04  0.16585468771E+04  0.50400001928E-02 0.  1.
        1   -1    0    0  501    0  0.00000000000E+00  0.00000000000E+00 -0.13184523412E+04  0.13184523412E+04  0.50400001928E-02 0. -1.
    10030    2    1    2    0    0  0.00000000000E+00  0.00000000000E+00  0.34009453593E+03  0.29769992183E+04  0.29575090959E+04 0.  0.
        4    1    3    3  502    0  0.87986001904E+03 -0.97513847889E+03  0.85398405389E+03  0.15666330404E+04  0.12699999809E+01 0.  1.
       -4    1    3    3    0  502 -0.87986001904E+03  0.97513847889E+03 -0.51388951796E+03  0.14103661779E+04  0.12699999809E+01 0. -1.
</event>
<event>
 5   0  0.2621825E-07  0.3013411E+04  0.7818609E-02  0.8239912E-01
       -1   -1    0    0    0  501  0.00000000000E+00  0.00000000000E+00  0.28086910221E+04  0.28086910221E+04  0.50400001928E-02 0.  1.
        1   -1    0    0  501    0  0.00000000000E+00  0.00000000000E+00 -0.80826305466E+03  0.80826305467E+03  0.50400001928E-02 0. -1.
    10030    2    1    2    0    0  0.00000000000E+00  0.00000000000E+00  0.20004279674E+04  0.36169540768E+04  0.30134108151E+04 0.  0.
        3    1    3    3  502    0  0.60786946801E+02 -0.64485924259E+03  0.26330538383E+04  0.27115514048E+04  0.10100000352E+00 0.  1.
       -3    1    3    3    0  502 -0.60786946801E+02  0.64485924259E+03 -0.63262587085E+03  0.90540267192E+03  0.10100000352E+00 0. -1.
</event>
<event>
 5   0  0.7278657E-07  0.2998157E+04  0.7818609E-02  0.8244257E-01
       -2   -1    0    0    0  501  0.00000000000E+00  0.00000000000E+00  0.19933681639E+04  0.19933681639E+04  0.25500000920E-02 0.  1.
        2   -1    0    0  501    0  0.00000000000E+00  0.00000000000E+00 -0.11273565932E+04  0.11273565932E+04  0.25500000920E-02 0. -1.
    10030    2    1    2    0    0  0.00000000000E+00  0.00000000000E+00  0.86601157075E+03  0.31207247571E+04  0.29981572622E+04 0.  0.
        2    1    3    3  502    0  0.18219326386E+02  0.92975127341E+02 -0.11242371346E+04  0.11282222534E+04  0.25500000920E-02 0. -1.
       -2    1    3    3    0  502 -0.18219326386E+02 -0.92975127341E+02  0.19902487053E+04  0.19925025037E+04  0.25500000920E-02 0.  1.
</event>
<event>
 5   0  0.2621825E-07  0.2991164E+04  0.7818609E-02  0.8246259E-01
        1   -1    0    0  501    0  0.00000000000E+00  0.00000000000E+00  0.17347202734E+04  0.17347202734E+04  0.50400001928E-02 0.  1.
       -1   -1    0    0    0  501  0.00000000000E+00  0.00000000000E+00 -0.12894095197E+04  0.12894095197E+04  0.50400001928E-02 0. -1.
    10030    2    1    2    0    0  0.00000000000E+00  0.00000000000E+00  0.44531075364E+03  0.30241297931E+04  0.29911635426E+04 0.  0.
        3    1    3    3  502    0  0.13222336941E+04 -0.32050691418E+03  0.85057866895E+03  0.16045281880E+04  0.10100000352E+00 0.  1.
       -3    1    3    3    0  502 -0.13222336941E+04  0.32050691418E+03 -0.40526791531E+03  0.14196016051E+04  0.10100000352E+00 0. -1.
</event>
<event>
 5   0  0.7208273E-07  0.3015743E+04  0.7818609E-02  0.8239250E-01
       -2   -1    0    0    0  501  0.00000000000E+00  0.00000000000E+00  0.19426563989E+04  0.19426563989E+04  0.25500000920E-02 0.  1.
        2   -1    0    0  501    0  0.00000000000E+00  0.00000000000E+00 -0.11703954579E+04  0.11703954579E+04  0.25500000920E-02 0. -1.
    10030    2    1    2    0    0  0.00000000000E+00  0.00000000000E+00  0.77226094098E+03  0.31130518567E+04  0.30157428441E+04 0.  0.
        4    1    3    3  502    0  0.23842307030E+03 -0.14021784072E+04 -0.13075064706E+03  0.14283022056E+04  0.12699999809E+01 0. -1.
       -4    1    3    3    0  502 -0.23842307030E+03  0.14021784072E+04  0.90301158804E+03  0.16847496511E+04  0.12699999809E+01 0.  1.
</event>
<event>
 5   0  0.7307508E-07  0.2993475E+04  0.7818609E-02  0.8245597E-01
        2   -1    0    0  501    0  0.00000000000E+00  0.00000000000E+00  0.13292844725E+04  0.13292844725E+04  0.25500000920E-02 0. -1.
       -2   -1    0    0    0  501  0.00000000000E+00  0.00000000000E+00 -0.16852846685E+04  0.16852846685E+04  0.25500000920E-02 0.  1.
    10030    2    1    2    0    0  0.00000000000E+00  0.00000000000E+00 -0.35600019602E+03  0.30145691411E+04  0.29934747313E+04 0.  0.
        1    1    3    3  502    0 -0.26998682889E+03 -0.12243563770E+04  0.64524530106E+03  0.14100648653E+04  0.50400001928E-02 0. -1.
       -1    1    3    3    0  502  0.26998682889E+03  0.12243563770E+04 -0.10012454971E+04  0.16045042758E+04  0.50400001928E-02 0.  1.
</event>
<event>
 5   0  0.7307508E-07  0.2996945E+04  0.7818609E-02  0.8244604E-01
        2   -1    0    0  501    0  0.00000000000E+00  0.00000000000E+00  0.89045564086E+03  0.89045564086E+03  0.25500000920E-02 0. -1.
       -2   -1    0    0    0  501  0.00000000000E+00  0.00000000000E+00 -0.25216531734E+04  0.25216531734E+04  0.25500000920E-02 0.  1.
    10030    2    1    2    0    0  0.00000000000E+00  0.00000000000E+00 -0.16311975325E+04  0.34121088142E+04  0.29969453065E+04 0.  0.
        1    1    3    3  502    0 -0.93729860549E+03  0.10563749071E+04 -0.13859593248E+04  0.19787217769E+04  0.50400001928E-02 0.  1.
       -1    1    3    3    0  502  0.93729860549E+03 -0.10563749071E+04 -0.24523820769E+03  0.14333870373E+04  0.50400001928E-02 0. -1.
</event>
<event>
 5   0  0.7399409E-07  0.3004883E+04  0.7818609E-02  0.8242338E-01
        2   -1    0    0  501    0  0.00000000000E+00  0.00000000000E+00  0.26684323102E+04  0.26684323102E+04  0.25500000920E-02 0.  1.
       -2   -1    0    0    0  501  0.00000000000E+00  0.00000000000E+00 -0.84593860850E+03  0.84593860850E+03  0.25500000920E-02 0. -1.
    10030    2    1    2    0    0  0.00000000000E+00  0.00000000000E+00  0.18224937017E+04  0.35143709187E+04  0.30048826369E+04 0.  0.
        3    1    3    3  502    0  0.55072723175E+03 -0.20776630834E+03 -0.70547314758E+03  0.91878163610E+03  0.10100000352E+00 0. -1.
       -3    1    3    3    0  502 -0.55072723175E+03  0.20776630834E+03  0.25279668493E+04  0.25955892826E+04  0.10100000352E+00 0.  1.
</event>
<event>
 5   0  0.7585823E-07  0.2990209E+04  0.7818609E-02  0.8246532E-01
       -2   -1    0    0    0  501  0.00000000000E+00  0.00000000000E+00  0.13002566122E+04  0.13002566122E+04  0.25500000920E-02 0. -1.
        2   -1    0    0  501    0  0.00000000000E+00  0.00000000000E+00 -0.17191508366E+04  0.17191508366E+04  0.25500000920E-02 0.  1.
    10030    2    1    2    0    0  0.00000000000E+00  0.00000000000E+00 -0.41889422443E+03  0.30194074488E+04  0.29902088506E+04 0.  0.
        5    1    3    3  502    0  0.67616228271E+02 -0.14817967546E+04 -0.20479208918E+02  0.14834874668E+04  0.46999998093E+01 0. -1.
       -5    1    3    3    0  502 -0.67616228271E+02  0.14817967546E+04 -0.39841501551E+03  0.15359199819E+04  0.46999998093E+01 0.  1.
</event>
<event>
 5   0  0.2621825E-07  0.3005853E+04  0.7818609E-02  0.8242062E-01
       -1   -1    0    0    0  501  0.00000000000E+00  0.00000000000E+00  0.10772185227E+04  0.10772185227E+04  0.50400001928E-02 0.  1.
        1   -1    0    0  501    0  0.00000000000E+00  0.00000000000E+00 -0.20968704040E+04  0.20968704040E+04  0.50400001928E-02 0. -1.
    10030    2    1    2    0    0  0.00000000000E+00  0.00000000000E+00 -0.10196518813E+04  0.31740889267E+04  0.30058527169E+04 0.  0.
        3    1    3    3  502    0  0.28726435881E+03  0.12351790556E+04  0.34191644847E+03  0.13134287111E+04  0.10100000352E+00 0.  1.
       -3    1    3    3    0  502 -0.28726435881E+03 -0.12351790556E+04 -0.13615683298E+04  0.18606602156E+04  0.10100000352E+00 0. -1.
</event>
<event>
 5   0  0.2792361E-07  0.2996121E+04  0.7818609E-02  0.8244839E-01
       -1   -1    0    0    0  501  0.00000000000E+00  0.00000000000E+00  0.16913513277E+04  0.16913513277E+04  0.50400001928E-02 0.  1.
        1   -1    0    0  501    0  0.00000000000E+00  0.00000000000E+00 -0.13268593557E+04  0.13268593557E+04  0.50400001928E-02 0. -1.
    10030    2    1    2    0    0  0.00000000000E+00  0.00000000000E+00  0.36449197202E+03  0.30182106835E+04  0.29961210476E+04 0.  0.
        4    1    3    3  502    0  0.71672660392E+03  0.10896335943E+04  0.92469085609E+03  0.15987661452E+04  0.12699999809E+01 0.  1.
       -4    1    3    3    0  502 -0.71672660392E+03 -0.10896335943E+04 -0.56019888407E+03  0.14194445383E+04  0.12699999809E+01 0. -1.
</event>
<event>
 5   0  0.7208273E-07  0.2997551E+04  0.7818609E-02  0.8244431E-01
        2   -1    0    0  501    0  0.00000000000E+00  0.00000000000E+00  0.14267663715E+04  0.14267663715E+04  0.25500000920E-02 0.  1.
       -2   -1    0    0    0  501  0.00000000000E+00  0.00000000000E+00 -0.15744184900E+04  0.15744184900E+04  0.25500000920E-02 0. -1.
    10030    2    1    2    0    0  0.00000000000E+00  0.00000000000E+00 -0.14765211850E+03  0.30011848615E+04  0.29975505708E+04 0.  0.
        4    1    3    3  502    0  0.83195073607E+02  0.14150220353E+04  0.41371089525E+03  0.14766066160E+04  0.12699999809E+01 0.  1.
       -4    1    3    3    0  502 -0.83195073607E+02 -0.14150220353E+04 -0.56136301375E+03  0.15245782455E+04  0.12699999809E+01 0. -1.
</event>
<event>
 5   0  0.2621825E-07  0.2997524E+04  0.7818609E-02  0.8244438E-01
        1   -1    0    0  501    0  0.00000000000E+00  0.00000000000E+00  0.20220246844E+04  0.20220246845E+04  0.50400001928E-02 0.  1.
       -1   -1    0    0    0  501  0.00000000000E+00  0.00000000000E+00 -0.11109097193E+04  0.11109097193E+04  0.50400001928E-02 0. -1.
    10030    2    1    2    0    0  0.00000000000E+00  0.00000000000E+00  0.91111496517E+03  0.31329344037E+04  0.29975235609E+04 0.  0.
        3    1    3    3  502    0 -0.11378584810E+04 -0.92487740252E+03  0.77967397106E+03  0.16607262399E+04  0.10100000352E+00 0.  1.
       -3    1    3    3    0  502  0.11378584810E+04  0.92487740252E+03  0.13144099411E+03  0.14722081638E+04  0.10100000352E+00 0. -1.
</event>
<event>
 5   0  0.2679935E-07  0.2989927E+04  0.7818609E-02  0.8246613E-01
        1   -1    0    0  501    0  0.00000000000E+00  0.00000000000E+00  0.14791975999E+04  0.14791976000E+04  0.50400001928E-02 0. -1.
       -1   -1    0    0    0  501  0.00000000000E+00  0.00000000000E+00 -0.15108970943E+04  0.15108970943E+04  0.50400001928E-02 0.  1.
    10030    2    1    2    0    0  0.00000000000E+00  0.00000000000E+00 -0.31699494308E+02  0.29900946942E+04  0.29899266584E+04 0.  0.
        2    1    3    3  502    0  0.76785456488E+02 -0.16673521364E+02 -0.15088306122E+04  0.15108751864E+04  0.25500000920E-02 0.  1.
       -2    1    3    3    0  502 -0.76785456488E+02  0.16673521364E+02  0.14771311179E+04  0.14792195078E+04  0.25500000920E-02 0. -1.
</event>
<event>
 5   0  0.2602891E-07  0.2974730E+04  0.7818609E-02  0.8250984E-01
        1   -1    0    0  501    0  0.00000000000E+00  0.00000000000E+00  0.81353075400E+03  0.81353075401E+03  0.50400001928E-02 0. -1.
       -1   -1    0    0    0  501  0.00000000000E+00  0.00000000000E+00 -0.27193247523E+04  0.27193247523E+04  0.50400001928E-02 0.  1.
    10030    2    1    2    0    0  0.00000000000E+00  0.00000000000E+00 -0.19057939983E+04  0.35328555063E+04  0.29747297801E+04 0.  0.
        5    1    3    3  502    0 -0.50093068087E+03  0.10514164153E+04 -0.20515755235E+04  0.23591083578E+04  0.46999998093E+01 0.  1.
       -5    1    3    3    0  502  0.50093068087E+03 -0.10514164153E+04  0.14578152524E+03  0.11737471484E+04  0.46999998093E+01 0. -1.
</event>
<event>
 5   0  0.2621825E-07  0.3004239E+04  0.7818609E-02  0.8242521E-01
       -1   -1    0    0    0  501  0.00000000000E+00  0.00000000000E+00  0.16743642968E+04  0.16743642969E+04  0.50400001928E-02 0.  1.
        1   -1    0    0  501    0  0.00000000000E+00  0.00000000000E+00 -0.13475940162E+04  0.13475940162E+04  0.50400001928E-02 0. -1.
    10030    2    1    2    0    0  0.00000000000E+00  0.00000000000E+00  0.32677028063E+03  0.30219583131E+04  0.30042392098E+04 0.  0.
        3    1    3    3  502    0 -0.14440023548E+04 -0.32108850040E+03  0.42592774799E+03  0.15393684037E+04  0.10100000352E+00 0. -1.
       -3    1    3    3    0  502  0.14440023548E+04  0.32108850040E+03 -0.99157467354E+02  0.14825899093E+04  0.10100000352E+00 0.  1.
</event>
<event>
 5   0  0.2602891E-07  0.3000358E+04  0.7818609E-02  0.8243629E-01
        1   -1    0    0  501    0  0.00000000000E+00  0.00000000000E+00  0.15380032678E+04  0.15380032678E+04  0.50400001928E-02 0. -1.
       -1   -1    0    0    0  501  0.00000000000E+00  0.00000000000E+00 -0.14632845436E+04  0.14632845436E+04  0.50400001928E-02 0.  1.
    10030    2    1    2    0    0  0.00000000000E+00  0.00000000000E+00  0.74718724119E+02  0.30012878114E+04  0.30003575852E+04 0.  0.
        5    1    3    3  502    0  0.20477767865E+02  0.41606126244E+03 -0.14042633690E+04  0.14647539085E+04  0.46999998093E+01 0.  1.
       -5    1    3    3    0  502 -0.20477767865E+02 -0.41606126244E+03  0.14789820931E+04  0.15365339029E+04  0.46999998093E+01 0. -1.
</event>
<event>
 5   0  0.2679935E-07  0.2996085E+04  0.7818609E-02  0.8244850E-01
        1   -1    0    0  501    0  0.00000000000E+00  0.00000000000E+00  0.19600687620E+04  0.19600687620E+04  0.50400001928E-02 0. -1.
       -1   -1    0    0    0  501  0.00000000000E+00  0.00000000000E+00 -0.11449244707E+04  0.11449244707E+04  0.50400001928E-02 0.  1.
    10030    2    1    2    0    0  0.00000000000E+00  0.00000000000E+00  0.81514429123E+03  0.31049932327E+04  0.29960845715E+04 0.  0.
        2    1    3    3  502    0 -0.17432806228E+03 -0.12201362513E+04 -0.47485319780E+03  0.13208362141E+04  0.25500000920E-02 0.  1.
       -2    1    3    3    0  502  0.17432806228E+03  0.12201362513E+04  0.12899974890E+04  0.17841570186E+04  0.25500000920E-02 0. -1.
</event>
<event>
 5   0  0.2679935E-07  0.2994332E+04  0.7818609E-02  0.8245351E-01
        1   -1    0    0  501    0  0.00000000000E+00  0.00000000000E+00  0.74136086973E+03  0.74136086974E+03  0.50400001928E-02 0.  1.
       -1   -1    0    0    0  501  0.00000000000E+00  0.00000000000E+00 -0.30235028071E+04  0.30235028071E+04  0.50400001928E-02 0. -1.
    10030    2    1    2    0    0  0.00000000000E+00  0.00000000000E+00 -0.22821419373E+04  0.37648636768E+04  0.29943324269E+04 0.  0.
        2    1    3    3  502    0 -0.51463989814E+03  0.52827420118E+03  0.49711882230E+03  0.88941271628E+03  0.25500000920E-02 0.  1.
       -2    1    3    3    0  502  0.51463989814E+03 -0.52827420118E+03 -0.27792607596E+04  0.28754509605E+04  0.25500000920E-02 0. -1.
</event>
<event>
 5   0  0.7585823E-07  0.2999340E+04  0.7818609E-02  0.8243919E-01
        2   -1    0    0  501    0  0.00000000000E+00  0.00000000000E+00  0.27749518457E+04  0.27749518457E+04  0.25500000920E-02 0.  1.
       -2   -1    0    0    0  501  0.00000000000E+00  0.00000000000E+00 -0.81046835043E+03  0.81046835043E+03  0.25500000920E-02 0. -1.
    10030    2    1    2    0    0  0.00000000000E+00  0.00000000000E+00  0.19644834953E+04  0.35854201962E+04  0.29993403574E+04 0.  0.
        5    1    3    3  502    0  0.54696831604E+03 -0.73392280179E+02  0.26491443283E+04  0.27060207922E+04  0.46999998093E+01 0.  1.
       -5    1    3    3    0  502 -0.54696831604E+03  0.73392280179E+02 -0.68466083298E+03  0.87939940400E+03  0.46999998093E+01 0. -1.
</event>
<event>
 5   0  0.2621825E-07  0.2992917E+04  0.7818609E-02  0.8245756E-01
        1   -1    0    0  501    0  0.00000000000E+00  0.00000000000E+00  0.21035777524E+04  0.21035777524E+04  0.50400001928E-02 0.  1.
       -1   -1    0    0    0  501  0.00000000000E+00  0.00000000000E+00 -0.10645615393E+04  0.10645615393E+04  0.50400001928E-02 0. -1.
    10030    2    1    2    0    0  0.00000000000E+00  0.00000000000E+00  0.10390162131E+04  0.31681392917E+04  0.29929169518E+04 0.  0.
        3    1    3    3  502    0  0.11319206979E+04 -0.64128298306E+03 -0.26331460322E+03  0.13273367776E+04  0.10100000352E+00 0. -1.
       -3    1    3    3    0  502 -0.11319206979E+04  0.64128298306E+03  0.13023308163E+04  0.18408025141E+04  0.10100000352E+00 0.  1.
</event>
<event>
 5   0  0.7585823E-07  0.3005925E+04  0.7818609E-02  0.8242041E-01
       -2   -1    0    0    0  501  0.00000000000E+00  0.00000000000E+00  0.10677594600E+04  0.10677594600E+04  0.25500000920E-02 0.  1.
        2   -1    0    0  501    0  0.00000000000E+00  0.00000000000E+00 -0.21155473697E+04  0.21155473697E+04  0.25500000920E-02 0. -1.
    10030    2    1    2    0    0  0.00000000000E+00  0.00000000000E+00 -0.10477879097E+04  0.31833068298E+04  0.30059246279E+04 0.  0.
        5    1    3    3  502    0  0.84428283173E+03 -0.76002519289E+03 -0.15660498762E+04  0.19346798439E+04  0.46999998093E+01 0. -1.
       -5    1    3    3    0  502 -0.84428283173E+03  0.76002519289E+03  0.51826196650E+03  0.12486269858E+04  0.46999998093E+01 0.  1.
</event>
<event>
 5   0  0.2621825E-07  0.3000545E+04  0.7818609E-02  0.8243575E-01
       -1   -1    0    0    0  501  0.00000000000E+00  0.00000000000E+00  0.19688663527E+04  0.19688663527E+04  0.50400001928E-02 0.  1.
        1   -1    0    0  501    0  0.00000000000E+00  0.00000000000E+00 -0.11432051891E+04  0.11432051891E+04  0.50400001928E-02 0. -1.
    10030    2    1    2    0    0  0.00000000000E+00  0.00000000000E+00  0.82566116357E+03  0.31120715417E+04  0.30005454377E+04 0.  0.
        3    1    3    3  502    0 -0.14080551749E+04 -0.17159359011E+03  0.91961719406E+03  0.16904909138E+04  0.10100000352E+00 0.  1.
       -3    1    3    3    0  502  0.14080551749E+04  0.17159359011E+03 -0.93956030486E+02  0.14215806279E+04  0.10100000352E+00 0. -1.
</event>
<event>
 5   0  0.7208273E-07  0.2998229E+04  0.7818609E-02  0.8244237E-01
       -2   -1    0    0    0  501  0.00000000000E+00  0.00000000000E+00  0.22025963652E+04  0.22025963652E+04  0.25500000920E-02 0. -1.
        2   -1    0    0  501    0  0.00000000000E+00  0.00000000000E+00 -0.10203157754E+04  0.10203157754E+04  0.25500000920E-02 0.  1.
    10030    2    1    2    0    0  0.00000000000E+00  0.00000000000E+00  0.11822805898E+04  0.32229121407E+04  0.29982286893E+04 0.  0.
        4    1    3    3  502    0 -0.13232964112E+04 -0.26363374505E+01  0.13483595667E+04  0.18892314512E+04  0.12699999809E+01 0.  1.
       -4    1    3    3    0  502  0.13232964112E+04  0.26363374505E+01 -0.16607897688E+03  0.13336806895E+04  0.12699999809E+01 0. -1.
</event>
<event>
 5   0  0.2792361E-07  0.3006317E+04  0.7818609E-02  0.8241929E-01
        1   -1    0    0  501    0  0.00000000000E+00  0.00000000000E+00  0.20395522651E+04  0.20395522651E+04  0.50400001928E-02 0.  1.
       -1   -1    0    0    0  501  0.00000000000E+00  0.00000000000E+00 -0.11078344110E+04  0.11078344111E+04  0.50400001928E-02 0. -1.
    10030    2    1    2    0    0  0.00000000000E+00  0.00000000000E+00  0.93171785410E+03  0.31473866762E+04  0.30063174699E+04 0.  0.
        4    1    3    3  502    0 -0.20609528005E+03 -0.62204590046E+03  0.18821381990E+04  0.19929531304E+04  0.12699999809E+01 0.  1.
       -4    1    3    3    0  502  0.20609528005E+03  0.62204590046E+03 -0.95042034494E+03  0.11544335458E+04  0.12699999809E+01 0. -1.
</event>
<event>
 5   0  0.7208273E-07  0.2995371E+04  0.7818609E-02  0.8245054E-01
        2   -1    0    0  501    0  0.00000000000E+00  0.00000000000E+00  0.14704282928E+04  0.14704282928E+04  0.25500000920E-02 0.  1.
       -2   -1    0    0    0  501  0.00000000000E+00  0.00000000000E+00 -0.15254483974E+04  0.15254483974E+04  0.25500000920E-02 0. -1.
    10030    2    1    2    0    0  0.00000000000E+00  0.00000000000E+00 -0.55020104627E+02  0.29958766901E+04  0.29953714178E+04 0.  0.
        4    1    3    3  502    0 -0.60290055619E+03  0.95779379776E+03  0.95357479346E+03  0.14799204503E+04  0.12699999809E+01 0. -1.
       -4    1    3    3    0  502  0.60290055619E+03 -0.95779379776E+03 -0.10085948981E+04  0.15159562398E+04  0.12699999809E+01 0.  1.
</event>
<event>
 5   0  0.7278657E-07  0.3005159E+04  0.7818609E-02  0.8242259E-01
       -2   -1    0    0    0  501  0.00000000000E+00  0.00000000000E+00  0.13502533588E+04  0.13502533588E+04  0.25500000920E-02 0.  1.
        2   -1    0    0  501    0  0.00000000000E+00  0.00000000000E+00 -0.16720901346E+04  0.16720901346E+04  0.25500000920E-02 0. -1.
    10030    2    1    2    0    0  0.00000000000E+00  0.00000000000E+00 -0.32183677582E+03  0.30223434933E+04  0.30051591108E+04 0.  0.
        2    1    3    3  502    0  0.42868308955E+03  0.37980558592E+03 -0.15580069325E+04  0.16599418893E+04  0.25500000920E-02 0. -1.
       -2    1    3    3    0  502 -0.42868308955E+03 -0.37980558592E+03  0.12361701566E+04  0.13624016040E+04  0.25500000920E-02 0.  1.
</event>
<event>
 5   0  0.2640081E-07  0.2997813E+04  0.7818609E-02  0.8244356E-01
       -1   -1    0    0    0  501  0.00000000000E+00  0.00000000000E+00  0.27339361345E+04  0.27339361345E+04  0.50400001928E-02 0.  1.
        1   -1    0    0  501    0  0.00000000000E+00  0.00000000000E+00 -0.82178952993E+03  0.82178952995E+03  0.50400001928E-02 0. -1.
    10030    2    1    2    0    0  0.00000000000E+00  0.00000000000E+00  0.19121466046E+04  0.35557256644E+04  0.29978125965E+04 0.  0.
        1    1    3    3  502    0 -0.32793148811E+03 -0.53927350594E+02 -0.77753959353E+03  0.84558561930E+03  0.50400001928E-02 0. -1.
       -1    1    3    3    0  502  0.32793148811E+03  0.53927350594E+02  0.26896861981E+04  0.27101400451E+04  0.50400001928E-02 0.  1.
</event>
<event>
 5   0  0.2414250E-07  0.2999811E+04  0.7818609E-02  0.8243785E-01
        3   -1    0    0  501    0  0.00000000000E+00  0.00000000000E+00  0.13528320014E+04  0.13528320052E+04  0.10100000352E+00 0.  1.
       -3   -1    0    0    0  501  0.00000000000E+00  0.00000000000E+00 -0.16629685375E+04  0.16629685405E+04  0.10100000352E+00 0. -1.
    10030    2    1    2    0    0  0.00000000000E+00  0.00000000000E+00 -0.31013653608E+03  0.30158005457E+04  0.29998113708E+04 0.  0.
        5    1    3    3  502    0  0.81079684672E+03  0.91501633814E+03 -0.10286350418E+04  0.15977354490E+04  0.46999998093E+01 0. -1.
       -5    1    3    3    0  502 -0.81079684672E+03 -0.91501633814E+03  0.71849850576E+03  0.14180650967E+04  0.46999998093E+01 0.  1.
</event>
<event>
 5   0  0.2640081E-07  0.3000622E+04  0.7818609E-02  0.8243553E-01
       -1   -1    0    0    0  501  0.00000000000E+00  0.00000000000E+00  0.13961444459E+04  0.13961444459E+04  0.50400001928E-02 0.  1.
        1   -1    0    0  501    0  0.00000000000E+00  0.00000000000E+00 -0.16122494737E+04  0.16122494737E+04  0.50400001928E-02 0. -1.
    10030    2    1    2    0    0  0.00000000000E+00  0.00000000000E+00 -0.21610502788E+03  0.30083939196E+04  0.30006220343E+04 0.  0.
        1    1    3    3  502    0  0.30479214865E+03 -0.56901281271E+03  0.12498036703E+04  0.14066566920E+04  0.50400001928E-02 0.  1.
       -1    1    3    3    0  502 -0.30479214865E+03  0.56901281271E+03 -0.14659086982E+04  0.16017372276E+04  0.50400001928E-02 0. -1.
</event>
<event>
 5   0  0.7585823E-07  0.3015795E+04  0.7818609E-02  0.8239235E-01
        2   -1    0    0  501    0  0.00000000000E+00  0.00000000000E+00  0.14820680947E+04  0.14820680947E+04  0.25500000920E-02 0.  1.
       -2   -1    0    0    0  501  0.00000000000E+00  0.00000000000E+00 -0.15341774841E+04  0.15341774841E+04  0.25500000920E-02 0. -1.
    10030    2    1    2    0    0  0.00000000000E+00  0.00000000000E+00 -0.52109389454E+02  0.30162455788E+04  0.30157954180E+04 0.  0.
        5    1    3    3  502    0  0.11893616828E+04 -0.72966591440E+03  0.54564225506E+03  0.14982460144E+04  0.46999998093E+01 0.  1.
       -5    1    3    3    0  502 -0.11893616828E+04  0.72966591440E+03 -0.59775164452E+03  0.15179995644E+04  0.46999998093E+01 0. -1.
</event>
<event>
 5   0  0.7399409E-07  0.2998552E+04  0.7818609E-02  0.8244144E-01
        2   -1    0    0  501    0  0.00000000000E+00  0.00000000000E+00  0.19373040169E+04  0.19373040169E+04  0.25500000920E-02 0.  1.
       -2   -1    0    0    0  501  0.00000000000E+00  0.00000000000E+00 -0.11602868998E+04  0.11602868998E+04  0.25500000920E-02 0. -1.
    10030    2    1    2    0    0  0.00000000000E+00  0.00000000000E+00  0.77701711709E+03  0.30975909166E+04  0.29985519650E+04 0.  0.
        3    1    3    3  502    0  0.62324170477E+03 -0.12799735760E+04 -0.97197303207E+02  0.14269582698E+04  0.10100000352E+00 0. -1.
       -3    1    3    3    0  502 -0.62324170477E+03  0.12799735760E+04  0.87421442030E+03  0.16706326468E+04  0.10100000352E+00 0.  1.
</event>
<event>
 5   0  0.7399409E-07  0.3004895E+04  0.7818609E-02  0.8242334E-01
        2   -1    0    0  501    0  0.00000000000E+00  0.00000000000E+00  0.19861387741E+04  0.19861387741E+04  0.25500000920E-02 0. -1.
       -2   -1    0    0    0  501  0.00000000000E+00  0.00000000000E+00 -0.11365512745E+04  0.11365512745E+04  0.25500000920E-02 0.  1.
    10030    2    1    2    0    0  0.00000000000E+00  0.00000000000E+00  0.84958749964E+03  0.31226900486E+04  0.30048950431E+04 0.  0.
        3    1    3    3  502    0  0.16726930573E+01 -0.61862975677E+03 -0.99805539063E+03  0.11742317262E+04  0.10100000352E+00 0.  1.
       -3    1    3    3    0  502 -0.16726930573E+01  0.61862975677E+03  0.18476428903E+04  0.19484583224E+04  0.10100000352E+00 0. -1.
</event>
<event>
 5   0  0.2679935E-07  0.3000888E+04  0.7818609E-02  0.8243477E-01
       -1   -1    0    0    0  501  0.00000000000E+00  0.00000000000E+00  0.18198087051E+04  0.18198087051E+04  0.50400001928E-02 0. -1.
        1   -1    0    0  501    0  0.00000000000E+00  0.00000000000E+00 -0.12371260888E+04  0.12371260888E+04  0.50400001928E-02 0.  1.
    10030    2    1    2    0    0  0.00000000000E+00  0.00000000000E+00  0.58268261637E+03  0.30569347939E+04  0.30008884189E+04 0.  0.
        2    1    3    3  502    0 -0.10127561120E+04  0.54765836295E+03 -0.68877603612E+03  0.13416471417E+04  0.25500000920E-02 0.  1.
       -2    1    3    3    0  502  0.10127561120E+04 -0.54765836295E+03  0.12714586525E+04  0.17152876522E+04  0.25500000920E-02 0. -1.
</event>
<event>
 5   0  0.7208273E-07  0.2996180E+04  0.7818609E-02  0.8244823E-01
       -2   -1    0    0    0  501  0.00000000000E+00  0.00000000000E+00  0.14586299080E+04  0.14586299080E+04  0.25500000920E-02 0.  1.
        2   -1    0    0  501    0  0.00000000000E+00  0.00000000000E+00 -0.15386174629E+04  0.15386174629E+04  0.25500000920E-02 0. -1.
    10030    2    1    2    0    0  0.00000000000E+00  0.00000000000E+00 -0.79987554928E+02  0.29972473709E+04  0.29961798667E+04 0.  0.
        4    1    3    3  502    0  0.13156795299E+04 -0.66086394263E+03  0.23672375768E+03  0.14912389233E+04  0.12699999809E+01 0.  1.
       -4    1    3    3    0  502 -0.13156795299E+04  0.66086394263E+03 -0.31671131261E+03  0.15060084477E+04  0.12699999809E+01 0. -1.
</event>
<event>
 5   0  0.2621825E-07  0.2999328E+04  0.7818609E-02  0.8243923E-01
       -1   -1    0    0    0  501  0.00000000000E+00  0.00000000000E+00  0.11029098388E+04  0.11029098388E+04  0.50400001928E-02 0. -1.
        1   -1    0    0  501    0  0.00000000000E+00  0.00000000000E+00 -0.20391445099E+04  0.20391445099E+04  0.50400001928E-02 0.  1.
    10030    2    1    2    0    0  0.00000000000E+00  0.00000000000E+00 -0.93623467107E+03  0.31420543487E+04  0.29993282866E+04 0.  0.
        3    1    3    3  502    0 -0.74557047037E+03  0.94237077494E+03  0.47182743980E+03  0.12909528058E+04  0.10100000352E+00 0. -1.
       -3    1    3    3    0  502  0.74557047037E+03 -0.94237077494E+03 -0.14080621109E+04  0.18511015429E+04  0.10100000352E+00 0.  1.
</event>
<event>
 5   0  0.7399409E-07  0.2996544E+04  0.7818609E-02  0.8244718E-01
       -2   -1    0    0    0  501  0.00000000000E+00  0.00000000000E+00  0.24036852537E+04  0.24036852537E+04  0.25500000920E-02 0. -1.
        2   -1    0    0  501    0  0.00000000000E+00  0.00000000000E+00 -0.93390727542E+03  0.93390727542E+03  0.25500000920E-02 0.  1.
    10030    2    1    2    0    0  0.00000000000E+00  0.00000000000E+00  0.14697779783E+04  0.33375925292E+04  0.29965441070E+04 0.  0.
        3    1    3    3  502    0 -0.13929508290E+04  0.89309447291E+02  0.13414125166E+04  0.19358914585E+04  0.10100000352E+00 0.  1.
       -3    1    3    3    0  502  0.13929508290E+04 -0.89309447291E+02  0.12836546175E+03  0.14017010706E+04  0.10100000352E+00 0. -1.
</event>
<event>
 5   0  0.2640081E-07  0.2995673E+04  0.7818609E-02  0.8244967E-01
        1   -1    0    0  501    0  0.00000000000E+00  0.00000000000E+00  0.15523995902E+04  0.15523995902E+04  0.50400001928E-02 0. -1.
       -1   -1    0    0    0  501  0.00000000000E+00  0.00000000000E+00 -0.14451916157E+04  0.14451916158E+04  0.50400001928E-02 0.  1.
    10030    2    1    2    0    0  0.00000000000E+00  0.00000000000E+00  0.10720797446E+03  0.29975912060E+04  0.29956734616E+04 0.  0.
        1    1    3    3  502    0  0.61379034511E+03  0.47664087731E+03  0.13348883691E+04  0.15446203649E+04  0.50400001928E-02 0. -1.
       -1    1    3    3    0  502 -0.61379034511E+03 -0.47664087731E+03 -0.12276803946E+04  0.14529708411E+04  0.50400001928E-02 0.  1.
</event>
<event>
 5   0  0.7585823E-07  0.2993321E+04  0.7818609E-02  0.8245641E-01
        2   -1    0    0  501    0  0.00000000000E+00  0.00000000000E+00  0.20505642439E+04  0.20505642439E+04  0.25500000920E-02 0. -1.
       -2   -1    0    0    0  501  0.00000000000E+00  0.00000000000E+00 -0.10923788143E+04  0.10923788143E+04  0.25500000920E-02 0.  1.
    10030    2    1    2    0    0  0.00000000000E+00  0.00000000000E+00  0.95818542961E+03  0.31429430583E+04  0.29933211906E+04 0.  0.
        5    1    3    3  502    0  0.57737216221E+03  0.13122233768E+04  0.27865247940E+02  0.14339063311E+04  0.46999998093E+01 0.  1.
       -5    1    3    3    0  502 -0.57737216221E+03 -0.13122233768E+04  0.93032018167E+03  0.17090367272E+04  0.46999998093E+01 0. -1.
</event>
<event>
 5   0  0.2792361E-07  0.2997483E+04  0.7818609E-02  0.8244450E-01
        1   -1    0    0  501    0  0.00000000000E+00  0.00000000000E+00  0.23631382591E+04  0.23631382591E+04  0.50400001928E-02 0. -1.
       -1   -1    0    0    0  501  0.00000000000E+00  0.00000000000E+00 -0.95052694808E+03  0.95052694810E+03  0.50400001928E-02 0.  1.
    10030    2    1    2    0    0  0.00000000000E+00  0.00000000000E+00  0.14126113110E+04  0.33136652072E+04  0.29974833426E+04 0.  0.
        4    1    3    3  502    0  0.14647695407E+04  0.27933327143E+03  0.53993844222E+03  0.15859104698E+04  0.12699999809E+01 0. -1.
       -4    1    3    3    0  502 -0.14647695407E+04 -0.27933327143E+03  0.87267286880E+03  0.17277547374E+04  0.12699999809E+01 0.  1.
</event>
<event>
 5   0  0.7278657E-07  0.2995369E+04  0.7818609E-02  0.8245055E-01
       -2   -1    0    0    0  501  0.00000000000E+00  0.00000000000E+00  0.17185577208E+04  0.17185577208E+04  0.25500000920E-02 0.  1.
        2   -1    0    0  501    0  0.00000000000E+00  0.00000000000E+00 -0.13051984862E+04  0.13051984862E+04  0.25500000920E-02 0. -1.
    10030    2    1    2    0    0  0.00000000000E+00  0.00000000000E+00  0.41335923462E+03  0.30237562069E+04  0.29953690494E+04 0.  0.
        2    1    3    3  502    0 -0.73563877079E+03 -0.73419769256E+03  0.12952536313E+04  0.16606904053E+04  0.25500000920E-02 0.  1.
       -2    1    3    3    0  502  0.73563877079E+03  0.73419769256E+03 -0.88189439664E+03  0.13630658017E+04  0.25500000920E-02 0. -1.
</event>
<event>
 5   0  0.7399409E-07  0.2999226E+04  0.7818609E-02  0.8243952E-01
        2   -1    0    0  501    0  0.00000000000E+00  0.00000000000E+00  0.17298451052E+04  0.17298451052E+04  0.25500000920E-02 0.  1.
       -2   -1    0    0    0  501  0.00000000000E+00  0.00000000000E+00 -0.13000238161E+04  0.13000238161E+04  0.25500000920E-02 0. -1.
    10030    2    1    2    0    0  0.00000000000E+00  0.00000000000E+00  0.42982128908E+03  0.30298689213E+04  0.29992264569E+04 0.  0.
        3    1    3    3  502    0  0.14281916735E+04 -0.40237533465E+02 -0.24525314889E+03  0.14496550047E+04  0.10100000352E+00 0. -1.
       -3    1    3    3    0  502 -0.14281916735E+04  0.40237533465E+02  0.67507443797E+03  0.15802139166E+04  0.10100000352E+00 0.  1.
</event>
<event>
 5   0  0.2602891E-07  0.2985489E+04  0.7818609E-02  0.8247887E-01
        1   -1    0    0  501    0  0.00000000000E+00  0.00000000000E+00  0.20185923099E+04  0.20185923099E+04  0.50400001928E-02 0. -1.
       -1   -1    0    0    0  501  0.00000000000E+00  0.00000000000E+00 -0.11038815772E+04  0.11038815772E+04  0.50400001928E-02 0.  1.
    10030    2    1    2    0    0  0.00000000000E+00  0.00000000000E+00  0.91471073272E+03  0.31224738871E+04  0.29854894826E+04 0.  0.
        5    1    3    3  502    0 -0.18994917993E+03 -0.47259283041E+03 -0.10101797171E+04  0.11313309972E+04  0.46999998093E+01 0.  1.
       -5    1    3    3    0  502  0.18994917993E+03  0.47259283041E+03  0.19248904498E+04  0.19911428899E+04  0.46999998093E+01 0. -1.
</event>
<event>
 5   0  0.2414250E-07  0.3013895E+04  0.7818609E-02  0.8239774E-01
       -4   -1    0    0    0  501  0.00000000000E+00  0.00000000000E+00  0.10924937186E+04  0.10924944567E+04  0.12699999809E+01 0. -1.
        4   -1    0    0  501    0  0.00000000000E+00  0.00000000000E+00 -0.20786284728E+04  0.20786288608E+04  0.12699999809E+01 0.  1.
    10030    2    1    2    0    0  0.00000000000E+00  0.00000000000E+00 -0.98613475424E+03  0.31711233175E+04  0.30138947130E+04 0.  0.
        5    1    3    3  502    0 -0.10194580217E+04  0.99890076612E+03  0.15654283153E+02  0.14273627938E+04  0.46999998093E+01 0.  1.
       -5    1    3    3    0  502  0.10194580217E+04 -0.99890076612E+03 -0.10017890374E+04  0.17437605237E+04  0.46999998093E+01 0. -1.
</event>
<event>
 5   0  0.7208273E-07  0.3003752E+04  0.7818609E-02  0.8242660E-01
        2   -1    0    0  501    0  0.00000000000E+00  0.00000000000E+00  0.20960847825E+04  0.20960847825E+04  0.25500000920E-02 0.  1.
       -2   -1    0    0    0  501  0.00000000000E+00  0.00000000000E+00 -0.10761163934E+04  0.10761163934E+04  0.25500000920E-02 0. -1.
    10030    2    1    2    0    0  0.00000000000E+00  0.00000000000E+00  0.10199683891E+04  0.31722011759E+04  0.30037517850E+04 0.  0.
        4    1    3    3  502    0 -0.80044874476E+03 -0.81789497388E+03 -0.51716347010E+03  0.12558383849E+04  0.12699999809E+01 0. -1.
       -4    1    3    3    0  502  0.80044874476E+03  0.81789497388E+03  0.15371318592E+04  0.19163627910E+04  0.12699999809E+01 0.  1.
</event>
<event>
 5   0  0.7278657E-07  0.2994251E+04  0.7818609E-02  0.8245374E-01
       -2   -1    0    0    0  501  0.00000000000E+00  0.00000000000E+00  0.20478845590E+04  0.20478845590E+04  0.25500000920E-02 0.  1.
        2   -1    0    0  501    0  0.00000000000E+00  0.00000000000E+00 -0.10944877444E+04  0.10944877444E+04  0.25500000920E-02 0. -1.
    10030    2    1    2    0    0  0.00000000000E+00  0.00000000000E+00  0.95339681460E+03  0.31423723034E+04  0.29942508591E+04 0.  0.
        2    1    3    3  502    0  0.13019229115E+04 -0.12368127933E+03  0.12415041784E+04  0.18032284801E+04  0.25500000920E-02 0.  1.
       -2    1    3    3    0  502 -0.13019229115E+04  0.12368127933E+03 -0.28810736376E+03  0.13391438233E+04  0.25500000920E-02 0. -1.
</event>
<event>
 5   0  0.2679935E-07  0.2997615E+04  0.7818609E-02  0.8244412E-01
       -1   -1    0    0    0  501  0.00000000000E+00  0.00000000000E+00  0.10540910143E+04  0.10540910143E+04  0.50400001928E-02 0.  1.
        1   -1    0    0  501    0  0.00000000000E+00  0.00000000000E+00 -0.21311479972E+04  0.21311479972E+04  0.50400001928E-02 0. -1.
    10030    2    1    2    0    0  0.00000000000E+00  0.00000000000E+00 -0.10770569829E+04  0.31852390115E+04  0.29976150213E+04 0.  0.
        2    1    3    3  502    0  0.50762295510E+03 -0.13730091794E+04 -0.19653146928E+03  0.14769766044E+04  0.25500000920E-02 0.  1.
       -2    1    3    3    0  502 -0.50762295510E+03  0.13730091794E+04 -0.88052551365E+03  0.17082624071E+04  0.25500000920E-02 0. -1.
</event>
<event>
 5   0  0.7278657E-07  0.3002269E+04  0.7818609E-02  0.8243083E-01
       -2   -1    0    0    0  501  0.00000000000E+00  0.00000000000E+00  0.14188068339E+04  0.14188068339E+04  0.25500000920E-02 0. -1.
        2   -1    0    0  501    0  0.00000000000E+00  0.00000000000E+00 -0.15882389165E+04  0.15882389165E+04  0.25500000920E-02 0.  1.
    10030    2    1    2    0    0  0.00000000000E+00  0.00000000000E+00 -0.16943208256E+03  0.30070457504E+04  0.30022686280E+04 0.  0.
        2    1    3    3  502    0  0.12034702116E+04  0.70599032221E+02  0.81117882258E+03  0.14530436524E+04  0.25500000920E-02 0. -1.
       -2    1    3    3    0  502 -0.12034702116E+04 -0.70599032221E+02 -0.98061090515E+03  0.15540020981E+04  0.25500000920E-02 0.  1.
</event>
<event>
 5   0  0.7585823E-07  0.3001497E+04  0.7818609E-02  0.8243304E-01
       -2   -1    0    0    0  501  0.00000000000E+00  0.00000000000E+00  0.10284387593E+04  0.10284387593E+04  0.25500000920E-02 0.  1.
        2   -1    0    0  501    0  0.00000000000E+00  0.00000000000E+00 -0.21899662923E+04  0.21899662923E+04  0.25500000920E-02 0. -1.
    10030    2    1    2    0    0  0.00000000000E+00  0.00000000000E+00 -0.11615275330E+04  0.32184050516E+04  0.30014971041E+04 0.  0.
        5    1    3    3  502    0 -0.11297517385E+04  0.93466657237E+03 -0.92369388997E+03  0.17329665561E+04  0.46999998093E+01 0. -1.
       -5    1    3    3    0  502  0.11297517385E+04 -0.93466657237E+03 -0.23783364307E+03  0.14854384955E+04  0.46999998093E+01 0.  1.
</event>
<event>
 5   0  0.7208273E-07  0.2994920E+04  0.7818609E-02  0.8245183E-01
        2   -1    0    0  501    0  0.00000000000E+00  0.00000000000E+00  0.13937220314E+04  0.13937220314E+04  0.25500000920E-02 0.  1.
       -2   -1    0    0    0  501  0.00000000000E+00  0.00000000000E+00 -0.16089199032E+04  0.16089199032E+04  0.25500000920E-02 0. -1.
    10030    2    1    2    0    0  0.00000000000E+00  0.00000000000E+00 -0.21519787182E+03  0.30026419346E+04  0.29949204436E+04 0.  0.
        4    1    3    3  502    0 -0.13633528317E+04  0.18324872110E+03  0.48559741722E+03  0.14588068762E+04  0.12699999809E+01 0.  1.
       -4    1    3    3    0  502  0.13633528317E+04 -0.18324872110E+03 -0.70079528904E+03  0.15438350584E+04  0.12699999809E+01 0. -1.
</event>
<event>
 5   0  0.7278657E-07  0.3004237E+04  0.7818609E-02  0.8242522E-01
       -2   -1    0    0    0  501  0.00000000000E+00  0.00000000000E+00  0.10799611612E+04  0.10799611612E+04  0.25500000920E-02 0. -1.
        2   -1    0    0  501    0  0.00000000000E+00  0.00000000000E+00 -0.20892966646E+04  0.20892966646E+04  0.25500000920E-02 0.  1.
    10030    2    1    2    0    0  0.00000000000E+00  0.00000000000E+00 -0.10093355034E+04  0.31692578258E+04  0.30042365100E+04 0.  0.
        2    1    3    3  502    0  0.75043937607E+03 -0.66048200637E+03  0.67806000054E+03  0.12079574091E+04  0.25500000920E-02 0. -1.
       -2    1    3    3    0  502 -0.75043937607E+03  0.66048200637E+03 -0.16873955039E+04  0.19613004167E+04  0.25500000920E-02 0.  1.
</event>
<event>
 5   0  0.7585823E-07  0.3010778E+04  0.7818609E-02  0.8240660E-01
       -2   -1    0    0    0  501  0.00000000000E+00  0.00000000000E+00  0.17177933220E+04  0.17177933220E+04  0.25500000920E-02 0. -1.
        2   -1    0    0  501    0  0.00000000000E+00  0.00000000000E+00 -0.13192484371E+04  0.13192484371E+04  0.25500000920E-02 0.  1.
    10030    2    1    2    0    0  0.00000000000E+00  0.00000000000E+00  0.39854488488E+03  0.30370417591E+04  0.30107780757E+04 0.  0.
        5    1    3    3  502    0 -0.11426971417E+04  0.82748141713E+03 -0.33037143022E+03  0.14490167788E+04  0.46999998093E+01 0.  1.
       -5    1    3    3    0  502  0.11426971417E+04 -0.82748141713E+03  0.72891631511E+03  0.15880249802E+04  0.46999998093E+01 0. -1.
</event>
<event>
 5   0  0.2640081E-07  0.2992178E+04  0.7818609E-02  0.8245968E-01
        1   -1    0    0  501    0  0.00000000000E+00  0.00000000000E+00  0.11747061094E+04  0.11747061094E+04  0.50400001928E-02 0. -1.
       -1   -1    0    0    0  501  0.00000000000E+00  0.00000000000E+00 -0.19053977620E+04  0.19053977620E+04  0.50400001928E-02 0.  1.
    10030    2    1    2    0    0  0.00000000000E+00  0.00000000000E+00 -0.73069165258E+03  0.30801038715E+04  0.29921780642E+04 0.  0.
        1    1    3    3  502    0 -0.56604024451E+03  0.37307519465E+03  0.10075221016E+04  0.12143670962E+04  0.50400001928E-02 0. -1.
       -1    1    3    3    0  502  0.56604024451E+03 -0.37307519465E+03 -0.17382137542E+04  0.18657367752E+04  0.50400001928E-02 0.  1.
</event>
<event>
 5   0  0.7399409E-07  0.2990105E+04  0.7818609E-02  0.8246562E-01
       -2   -1    0    0    0  501  0.00000000000E+00  0.00000000000E+00  0.14038890340E+04  0.14038890340E+04  0.25500000920E-02 0.  1.
        2   -1    0    0  501    0  0.00000000000E+00  0.00000000000E+00 -0.15921359833E+04  0.15921359833E+04  0.25500000920E-02 0. -1.
    10030    2    1    2    0    0  0.00000000000E+00  0.00000000000E+00 -0.18824694936E+03  0.29960250173E+04  0.29901051805E+04 0.  0.
        3    1    3    3  502    0  0.10360996180E+03 -0.13886092424E+04  0.45120727892E+03  0.14637481583E+04  0.10100000352E+00 0.  1.
       -3    1    3    3    0  502 -0.10360996180E+03  0.13886092424E+04 -0.63945422828E+03  0.15322768590E+04  0.10100000352E+00 0. -1.
</event>
<event>
 5   0  0.2640081E-07  0.3072334E+04  0.7818609E-02  0.8223372E-01
       -1   -1    0    0    0  501  0.00000000000E+00  0.00000000000E+00  0.10526660717E+04  0.10526660717E+04  0.50400001928E-02 0.  1.
        1   -1    0    0  501    0  0.00000000000E+00  0.00000000000E+00 -0.22417455542E+04  0.22417455542E+04  0.50400001928E-02 0. -1.
    10030    2    1    2    0    0  0.00000000000E+00  0.00000000000E+00 -0.11890794825E+04  0.32944116259E+04  0.30723342828E+04 0.  0.
        1    1    3    3  502    0  0.45926458264E+03 -0.99209157736E+03 -0.17517311869E+04  0.20648805791E+04  0.50400001928E-02 0. -1.
       -1    1    3    3    0  502 -0.45926458264E+03  0.99209157736E+03  0.56265170439E+03  0.12295310469E+04  0.50400001928E-02 0.  1.
</event>
<event>
 5   0  0.7278657E-07  0.2999033E+04  0.7818609E-02  0.8244007E-01
        2   -1    0    0  501    0  0.00000000000E+00  0.00000000000E+00  0.13047522626E+04  0.13047522627E+04  0.25500000920E-02 0. -1.
       -2   -1    0    0    0  501  0.00000000000E+00  0.00000000000E+00 -0.17233532278E+04  0.17233532278E+04  0.25500000920E-02 0.  1.
    10030    2    1    2    0    0  0.00000000000E+00  0.00000000000E+00 -0.41860096512E+03  0.30281054904E+04  0.29990325262E+04 0.  0.
        2    1    3    3  502    0 -0.12475049105E+04 -0.35513985452E+03 -0.96902818129E+03  0.16190764139E+04  0.25500000920E-02 0.  1.
       -2    1    3    3    0  502  0.12475049105E+04  0.35513985452E+03  0.55042721618E+03  0.14090290765E+04  0.25500000920E-02 0. -1.
</event>
<event>
 5   0  0.7585823E-07  0.3004668E+04  0.7818609E-02  0.8242399E-01
       -2   -1    0    0    0  501  0.00000000000E+00  0.00000000000E+00  0.10445703613E+04  0.10445703613E+04  0.25500000920E-02 0.  1.
        2   -1    0    0  501    0  0.00000000000E+00  0.00000000000E+00 -0.21607035750E+04  0.21607035750E+04  0.25500000920E-02 0. -1.
    10030    2    1    2    0    0  0.00000000000E+00  0.00000000000E+00 -0.11161332136E+04  0.32052739363E+04  0.30046676449E+04 0.  0.
        5    1    3    3  502    0 -0.12661520527E+04  0.62295751330E+03 -0.81208652054E+01  0.14111361105E+04  0.46999998093E+01 0.  1.
       -5    1    3    3    0  502  0.12661520527E+04 -0.62295751330E+03 -0.11080123484E+04  0.17941378258E+04  0.46999998093E+01 0. -1.
</event>
<event>
 5   0  0.2621825E-07  0.3002270E+04  0.7818609E-02  0.8243083E-01
       -1   -1    0    0    0  501  0.00000000000E+00  0.00000000000E+00  0.21999957845E+04  0.21999957845E+04  0.50400001928E-02 0. -1.
        1   -1    0    0  501    0  0.00000000000E+00  0.00000000000E+00 -0.10242773777E+04  0.10242773777E+04  0.50400001928E-02 0.  1.
    10030    2    1    2    0    0  0.00000000000E+00  0.00000000000E+00  0.11757184068E+04  0.32242731622E+04  0.30022697501E+04 0.  0.
        3    1    3    3  502    0  0.38221155812E+03 -0.21635952570E+03 -0.95373245957E+03  0.10500013020E+04  0.10100000352E+00 0.  1.
       -3    1    3    3    0  502 -0.38221155812E+03  0.21635952570E+03  0.21294508664E+04  0.21742718602E+04  0.10100000352E+00 0. -1.
</event>
<event>
 5   0  0.2640081E-07  0.2986433E+04  0.7818609E-02  0.8247616E-01
       -1   -1    0    0    0  501  0.00000000000E+00  0.00000000000E+00  0.22272567049E+04  0.22272567049E+04  0.50400001928E-02 0.  1.
        1   -1    0    0  501    0  0.00000000000E+00  0.00000000000E+00 -0.10010951514E+04  0.10010951514E+04  0.50400001928E-02 0. -1.
    10030    2    1    2    0    0  0.00000000000E+00  0.00000000000E+00  0.12261615535E+04  0.32283518564E+04  0.29864332494E+04 0.  0.
        1    1    3    3  502    0  0.29431264278E+03  0.30299932852E+02 -0.96909156018E+03  0.10132504476E+04  0.50400001928E-02 0. -1.
       -1    1    3    3    0  502 -0.29431264278E+03 -0.30299932852E+02  0.21952531137E+04  0.22151014087E+04  0.50400001928E-02 0.  1.
</event>
<event>
 5   0  0.2602891E-07  0.2982585E+04  0.7818609E-02  0.8248721E-01
       -1   -1    0    0    0  501  0.00000000000E+00  0.00000000000E+00  0.13150556145E+04  0.13150556145E+04  0.50400001928E-02 0.  1.
        1   -1    0    0  501    0  0.00000000000E+00  0.00000000000E+00 -0.16911476578E+04  0.16911476578E+04  0.50400001928E-02 0. -1.
    10030    2    1    2    0    0  0.00000000000E+00  0.00000000000E+00 -0.37609204325E+03  0.30062032723E+04  0.29825849342E+04 0.  0.
        5    1    3    3  502    0 -0.96256143789E+03 -0.76725285146E+03  0.66048130133E+03  0.13969463480E+04  0.46999998093E+01 0.  1.
       -5    1    3    3    0  502  0.96256143789E+03  0.76725285146E+03 -0.10365733446E+04  0.16092569243E+04  0.46999998093E+01 0. -1.
</event>
<event>
 5   0  0.2414250E-07  0.3001977E+04  0.7818609E-02  0.8243167E-01
        3   -1    0    0  501    0  0.00000000000E+00  0.00000000000E+00  0.13388271699E+04  0.13388271737E+04  0.10100000352E+00 0.  1.
       -3   -1    0    0    0  501  0.00000000000E+00  0.00000000000E+00 -0.16827910418E+04  0.16827910448E+04  0.10100000352E+00 0. -1.
    10030    2    1    2    0    0  0.00000000000E+00  0.00000000000E+00 -0.34396387193E+03  0.30216182185E+04  0.30019769341E+04 0.  0.
        3    1    3    3  502    0  0.64746445300E+03 -0.10538833154E+04  0.68392638445E+03  0.14133773629E+04  0.10100000352E+00 0. -1.
       -3    1    3    3    0  502 -0.64746445300E+03  0.10538833154E+04 -0.10278902564E+04  0.16082408556E+04  0.10100000352E+00 0.  1.
</event>
<event>
 5   0  0.2621825E-07  0.2997264E+04  0.7818609E-02  0.8244512E-01
       -1   -1    0    0    0  501  0.00000000000E+00  0.00000000000E+00  0.15955075043E+04  0.15955075043E+04  0.50400001928E-02 0. -1.
        1   -1    0    0  501    0  0.00000000000E+00  0.00000000000E+00 -0.14076389977E+04  0.14076389977E+04  0.50400001928E-02 0.  1.
    10030    2    1    2    0    0  0.00000000000E+00  0.00000000000E+00  0.18786850652E+03  0.30031465020E+04  0.29972644756E+04 0.  0.
        3    1    3    3  502    0  0.26875600288E+03 -0.88439114937E+02  0.15685041729E+04  0.15938182508E+04  0.10100000352E+00 0. -1.
       -3    1    3    3    0  502 -0.26875600288E+03  0.88439114937E+02 -0.13806356664E+04  0.14093282512E+04  0.10100000352E+00 0.  1.
</event>
<event>
 5   0  0.7585823E-07  0.3017278E+04  0.7818609E-02  0.8238814E-01
        2   -1    0    0  501    0  0.00000000000E+00  0.00000000000E+00  0.24469831249E+04  0.24469831249E+04  0.25500000920E-02 0. -1.
       -2   -1    0    0    0  501  0.00000000000E+00  0.00000000000E+00 -0.93012179171E+03  0.93012179171E+03  0.25500000920E-02 0.  1.
    10030    2    1    2    0    0  0.00000000000E+00  0.00000000000E+00  0.15168613331E+04  0.33771049166E+04  0.30172784614E+04 0.  0.
        5    1    3    3  502    0 -0.63157865387E+03  0.13085199484E+04  0.30398794570E+03  0.14844348462E+04  0.46999998093E+01 0. -1.
       -5    1    3    3    0  502  0.63157865387E+03 -0.13085199484E+04  0.12128733874E+04  0.18926700704E+04  0.46999998093E+01 0.  1.
</event>
<event>
 5   0  0.2414250E-07  0.2968547E+04  0.7818609E-02  0.8252770E-01
       -3   -1    0    0    0  501  0.00000000000E+00  0.00000000000E+00  0.87676724285E+03  0.87676724867E+03  0.10100000352E+00 0.  1.
        3   -1    0    0  501    0  0.00000000000E+00  0.00000000000E+00 -0.25127165229E+04  0.25127165250E+04  0.10100000352E+00 0. -1.
    10030    2    1    2    0    0  0.00000000000E+00  0.00000000000E+00 -0.16359492801E+04  0.33894837736E+04  0.29685468170E+04 0.  0.
        3    1    3    3  502    0  0.47830630174E+03 -0.14050943970E+04 -0.81865799916E+03  0.16950717131E+04  0.10100000352E+00 0.  1.
       -3    1    3    3    0  502 -0.47830630174E+03  0.14050943970E+04 -0.81729128093E+03  0.16944120605E+04  0.10100000352E+00 0. -1.
</event>
<event>
 5   0  0.7585823E-07  0.3001127E+04  0.7818609E-02  0.8243409E-01
       -2   -1    0    0    0  501  0.00000000000E+00  0.00000000000E+00  0.17120955555E+04  0.17120955555E+04  0.25500000920E-02 0.  1.
        2   -1    0    0  501    0  0.00000000000E+00  0.00000000000E+00 -0.13151665360E+04  0.13151665360E+04  0.25500000920E-02 0. -1.
    10030    2    1    2    0    0  0.00000000000E+00  0.00000000000E+00  0.39692901951E+03  0.30272620916E+04  0.30011269757E+04 0.  0.
        5    1    3    3  502    0 -0.73528606823E+03 -0.13030051787E+04  0.82570130010E+02  0.14984351886E+04  0.46999998093E+01 0. -1.
       -5    1    3    3    0  502  0.73528606823E+03  0.13030051787E+04  0.31435888950E+03  0.15288269030E+04  0.46999998093E+01 0.  1.
</event>
<event>
 5   0  0.2640081E-07  0.2931607E+04  0.7818609E-02  0.8263535E-01
       -1   -1    0    0    0  501  0.00000000000E+00  0.00000000000E+00  0.20127136838E+04  0.20127136838E+04  0.50400001928E-02 0. -1.
        1   -1    0    0  501    0  0.00000000000E+00  0.00000000000E+00 -0.10675039254E+04  0.10675039254E+04  0.50400001928E-02 0.  1.
    10030    2    1    2    0    0  0.00000000000E+00  0.00000000000E+00  0.94520975836E+03  0.30802176092E+04  0.29316069029E+04 0.  0.
        1    1    3    3  502    0 -0.17547003376E+03  0.13587889570E+04 -0.74847894223E+02  0.13721149258E+04  0.50400001928E-02 0.  1.
       -1    1    3    3    0  502  0.17547003376E+03 -0.13587889570E+04  0.10200576526E+04  0.17081026834E+04  0.50400001928E-02 0. -1.
</event>
<event>
 5   0  0.2602891E-07  0.3002388E+04  0.7818609E-02  0.8243049E-01
       -1   -1    0    0    0  501  0.00000000000E+00  0.00000000000E+00  0.12693203069E+04  0.12693203069E+04  0.50400001928E-02 0.  1.
        1   -1    0    0  501    0  0.00000000000E+00  0.00000000000E+00 -0.17754249243E+04  0.17754249243E+04  0.50400001928E-02 0. -1.
    10030    2    1    2    0    0  0.00000000000E+00  0.00000000000E+00 -0.50610461733E+03  0.30447452312E+04  0.30023876564E+04 0.  0.
        5    1    3    3  502    0 -0.96779205264E+03 -0.60574359487E+03 -0.12414897991E+04  0.16866729888E+04  0.46999998093E+01 0. -1.
       -5    1    3    3    0  502  0.96779205264E+03  0.60574359487E+03  0.73538518181E+03  0.13580722424E+04  0.46999998093E+01 0.  1.
</event>
<event>
 5   0  0.7399409E-07  0.2995049E+04  0.7818609E-02  0.8245146E-01
       -2   -1    0    0    0  501  0.00000000000E+00  0.00000000000E+00  0.18415003972E+04  0.18415003972E+04  0.25500000920E-02 0.  1.
        2   -1    0    0  501    0  0.00000000000E+00  0.00000000000E+00 -0.12178000763E+04  0.12178000763E+04  0.25500000920E-02 0. -1.
    10030    2    1    2    0    0  0.00000000000E+00  0.00000000000E+00  0.62370032089E+03  0.30593004735E+04  0.29950487970E+04 0.  0.
        3    1    3    3  502    0  0.60084751778E+03 -0.41313349872E+03 -0.10242170210E+04  0.12572659002E+04  0.10100000352E+00 0. -1.
       -3    1    3    3    0  502 -0.60084751778E+03  0.41313349872E+03  0.16479173419E+04  0.18020345733E+04  0.10100000352E+00 0.  1.
</event>
<event>
 5   0  0.7585823E-07  0.2997854E+04  0.7818609E-02  0.8244344E-01
        2   -1    0    0  501    0  0.00000000000E+00  0.00000000000E+00  0.24041179128E+04  0.24041179128E+04  0.25500000920E-02 0.  1.
       -2   -1    0    0    0  501  0.00000000000E+00  0.00000000000E+00 -0.93455552212E+03  0.93455552212E+03  0.25500000920E-02 0. -1.
    10030    2    1    2    0    0  0.00000000000E+00  0.00000000000E+00  0.14695623907E+04  0.33386734350E+04  0.29978536797E+04 0.  0.
        5    1    3    3  502    0  0.15160977084E+03  0.82685558435E+03 -0.64730681764E+03  0.10609919350E+04  0.46999998093E+01 0. -1.
       -5    1    3    3    0  502 -0.15160977084E+03 -0.82685558435E+03  0.21168692084E+04  0.22776815000E+04  0.46999998093E+01 0.  1.
</event>
<event>
 5   0  0.2414250E-07  0.2966736E+04  0.7818609E-02  0.8253294E-01
        3   -1    0    0  501    0  0.00000000000E+00  0.00000000000E+00  0.14815749649E+04  0.14815749683E+04  0.10100000352E+00 0. -1.
       -3   -1    0    0    0  501  0.00000000000E+00  0.00000000000E+00 -0.14851636788E+04  0.14851636823E+04  0.10100000352E+00 0.  1.
    10030    2    1    2    0    0  0.00000000000E+00  0.00000000000E+00 -0.35887139469E+01  0.29667386506E+04  0.29667364801E+04 0.  0.
        5    1    3    3  502    0  0.13667608409E+04  0.55054357022E+03  0.16916139598E+03  0.14831625288E+04  0.46999998093E+01 0.  1.
       -5    1    3    3    0  502 -0.13667608409E+04 -0.55054357022E+03 -0.17275010993E+03  0.14835761218E+04  0.46999998093E+01 0. -1.
</event>
<event>
 5   0  0.7208273E-07  0.3001277E+04  0.7818609E-02  0.8243366E-01
        2   -1    0    0  501    0  0.00000000000E+00  0.00000000000E+00  0.25700085306E+04  0.25700085306E+04  0.25500000920E-02 0.  1.
       -2   -1    0    0    0  501  0.00000000000E+00  0.00000000000E+00 -0.87622919356E+03  0.87622919357E+03  0.25500000920E-02 0. -1.
    10030    2    1    2    0    0  0.00000000000E+00  0.00000000000E+00  0.16937793370E+04  0.34462377241E+04  0.30012773962E+04 0.  0.
        4    1    3    3  502    0 -0.66601834858E+02  0.91188689625E+03 -0.51945960640E+03  0.10515766313E+04  0.12699999809E+01 0. -1.
       -4    1    3    3    0  502  0.66601834858E+02 -0.91188689625E+03  0.22132389434E+04  0.23946610928E+04  0.12699999809E+01 0.  1.
</event>
<event>
 5   0  0.2621825E-07  0.2995177E+04  0.7818609E-02  0.8245109E-01
       -1   -1    0    0    0  501  0.00000000000E+00  0.00000000000E+00  0.11450137617E+04  0.11450137617E+04  0.50400001928E-02 0.  1.
        1   -1    0    0  501    0  0.00000000000E+00  0.00000000000E+00 -0.19587292074E+04  0.19587292074E+04  0.50400001928E-02 0. -1.
    10030    2    1    2    0    0  0.00000000000E+00  0.00000000000E+00 -0.81371544573E+03  0.31037429690E+04  0.29951773890E+04 0.  0.
        3    1    3    3  502    0 -0.44497025163E+03  0.59386695316E+03 -0.17548134344E+04  0.19052681393E+04  0.10100000352E+00 0. -1.
       -3    1    3    3    0  502  0.44497025163E+03 -0.59386695316E+03  0.94109798871E+03  0.11984748297E+04  0.10100000352E+00 0.  1.
</event>
<event>
 5   0  0.2792361E-07  0.3000306E+04  0.7818609E-02  0.8243643E-01
       -1   -1    0    0    0  501  0.00000000000E+00  0.00000000000E+00  0.14675503269E+04  0.14675503269E+04  0.50400001928E-02 0.  1.
        1   -1    0    0  501    0  0.00000000000E+00  0.00000000000E+00 -0.15334801412E+04  0.15334801412E+04  0.50400001928E-02 0. -1.
    10030    2    1    2    0    0  0.00000000000E+00  0.00000000000E+00 -0.65929814293E+02  0.30010304681E+04  0.30003061727E+04 0.  0.
        4    1    3    3  502    0 -0.67282964767E+03 -0.44115449836E+03 -0.12994224690E+04  0.15283381145E+04  0.12699999809E+01 0. -1.
       -4    1    3    3    0  502  0.67282964767E+03  0.44115449836E+03  0.12334926547E+04  0.14726923536E+04  0.12699999809E+01 0.  1.
</event>
<event>
 5   0  0.2792361E-07  0.2987929E+04  0.7818609E-02  0.8247186E-01
       -1   -1    0    0    0  501  0.00000000000E+00  0.00000000000E+00  0.12645834377E+04  0.12645834377E+04  0.50400001928E-02 0.  1.
        1   -1    0    0  501    0  0.00000000000E+00  0.00000000000E+00 -0.17649524024E+04  0.17649524024E+04  0.50400001928E-02 0. -1.
    10030    2    1    2    0    0  0.00000000000E+00  0.00000000000E+00 -0.50036896477E+03  0.30295358401E+04  0.29879287652E+04 0.  0.
        4    1    3    3  502    0 -0.65749905491E+03  0.86379319761E+03 -0.12908708909E+04  0.16866514060E+04  0.12699999809E+01 0. -1.
       -4    1    3    3    0  502  0.65749905491E+03 -0.86379319761E+03  0.79050192610E+03  0.13428844342E+04  0.12699999809E+01 0.  1.
</event>
<event>
 5   0  0.2792361E-07  0.3008493E+04  0.7818609E-02  0.8241310E-01
       -1   -1    0    0    0  501  0.00000000000E+00  0.00000000000E+00  0.11355439474E+04  0.11355439474E+04  0.50400001928E-02 0.  1.
        1   -1    0    0  501    0  0.00000000000E+00  0.00000000000E+00 -0.19926639222E+04  0.19926639222E+04  0.50400001928E-02 0. -1.
    10030    2    1    2    0    0  0.00000000000E+00  0.00000000000E+00 -0.85711997484E+03  0.31282078696E+04  0.30084929490E+04 0.  0.
        4    1    3    3  502    0  0.11418374034E+04  0.22553422848E+03 -0.14194212408E+04  0.18355970734E+04  0.12699999809E+01 0. -1.
       -4    1    3    3    0  502 -0.11418374034E+04 -0.22553422848E+03  0.56230126594E+03  0.12926107963E+04  0.12699999809E+01 0.  1.
</event>
<event>
 5   0  0.2640081E-07  0.3003967E+04  0.7818609E-02  0.8242599E-01
        1   -1    0    0  501    0  0.00000000000E+00  0.00000000000E+00  0.17371561679E+04  0.17371561679E+04  0.50400001928E-02 0.  1.
       -1   -1    0    0    0  501  0.00000000000E+00  0.00000000000E+00 -0.12986484348E+04  0.12986484348E+04  0.50400001928E-02 0. -1.
    10030    2    1    2    0    0  0.00000000000E+00  0.00000000000E+00  0.43850773306E+03  0.30358046027E+04  0.30039674688E+04 0.  0.
        1    1    3    3  502    0 -0.89794274166E+03 -0.17734996887E+03  0.14227576983E+04  0.16917427839E+04  0.50400001928E-02 0.  1.
       -1    1    3    3    0  502  0.89794274166E+03  0.17734996887E+03 -0.98424996521E+03  0.13440618188E+04  0.50400001928E-02 0. -1.
</event>
<event>
 5   0  0.2602891E-07  0.2999492E+04  0.7818609E-02  0.8243876E-01
       -1   -1    0    0    0  501  0.00000000000E+00  0.00000000000E+00  0.93052448077E+03  0.93052448078E+03  0.50400001928E-02 0. -1.
        1   -1    0    0  501    0  0.00000000000E+00  0.00000000000E+00 -0.24171717117E+04  0.24171717117E+04  0.50400001928E-02 0.  1.
    10030    2    1    2    0    0  0.00000000000E+00  0.00000000000E+00 -0.14866472310E+04  0.33476961925E+04  0.29994915916E+04 0.  0.
        5    1    3    3  502    0  0.13161934038E+04  0.71085692064E+03 -0.62346635690E+03  0.16206218023E+04  0.46999998093E+01 0. -1.
       -5    1    3    3    0  502 -0.13161934038E+04 -0.71085692064E+03 -0.86318087406E+03  0.17270743902E+04  0.46999998093E+01 0.  1.
</event>
<event>
 5   0  0.7208273E-07  0.3003433E+04  0.7818609E-02  0.8242751E-01
       -2   -1    0    0    0  501  0.00000000000E+00  0.00000000000E+00  0.18735032852E+04  0.18735032852E+04  0.25500000920E-02 0.  1.
        2   -1    0    0  501    0  0.00000000000E+00  0.00000000000E+00 -0.12037088252E+04  0.12037088252E+04  0.25500000920E-02 0. -1.
    10030    2    1    2    0    0  0.00000000000E+00  0.00000000000E+00  0.66979446000E+03  0.30772121105E+04  0.30034329948E+04 0.  0.
        4    1    3    3  502    0 -0.10158814314E+03  0.13312197302E+04  0.10393068205E+04  0.16919297861E+04  0.12699999809E+01 0.  1.
       -4    1    3    3    0  502  0.10158814314E+03 -0.13312197302E+04 -0.36951236051E+03  0.13852823244E+04  0.12699999809E+01 0. -1.
</event>
<event>
 5   0  0.2602891E-07  0.2997696E+04  0.7818609E-02  0.8244389E-01
       -1   -1    0    0    0  501  0.00000000000E+00  0.00000000000E+00  0.98529188927E+03  0.98529188928E+03  0.50400001928E-02 0. -1.
        1   -1    0    0  501    0  0.00000000000E+00  0.00000000000E+00 -0.22800807473E+04  0.22800807473E+04  0.50400001928E-02 0.  1.
    10030    2    1    2    0    0  0.00000000000E+00  0.00000000000E+00 -0.12947888580E+04  0.32653726366E+04  0.29976958266E+04 0.  0.
        5    1    3    3  502    0  0.14921177023E+04  0.11881643576E+03 -0.73170322642E+03  0.16661165278E+04  0.46999998093E+01 0. -1.
       -5    1    3    3    0  502 -0.14921177023E+04 -0.11881643576E+03 -0.56308563160E+03  0.15992561087E+04  0.46999998093E+01 0.  1.
</event>
<event>
 5   0  0.7208273E-07  0.3004511E+04  0.7818609E-02  0.8242444E-01
       -2   -1    0    0    0  501  0.00000000000E+00  0.00000000000E+00  0.16503080688E+04  0.16503080688E+04  0.25500000920E-02 0. -1.
        2   -1    0    0  501    0  0.00000000000E+00  0.00000000000E+00 -0.13674849093E+04  0.13674849093E+04  0.25500000920E-02 0.  1.
    10030    2    1    2    0    0  0.00000000000E+00  0.00000000000E+00  0.28282315955E+03  0.30177929781E+04  0.30045108619E+04 0.  0.
        4    1    3    3  502    0  0.89584191449E+03  0.67102173257E+03 -0.86499937440E+03  0.14145771212E+04  0.12699999809E+01 0.  1.
       -4    1    3    3    0  502 -0.89584191449E+03 -0.67102173257E+03  0.11478225339E+04  0.16032158569E+04  0.12699999809E+01 0. -1.
</event>
<event>
 5   0  0.2640081E-07  0.3009946E+04  0.7818609E-02  0.8240896E-01
       -1   -1    0    0    0  501  0.00000000000E+00  0.00000000000E+00  0.16853186336E+04  0.16853186336E+04  0.50400001928E-02 0. -1.
        1   -1    0    0  501    0  0.00000000000E+00  0.00000000000E+00 -0.13439259591E+04  0.13439259591E+04  0.50400001928E-02 0.  1.
    10030    2    1    2    0    0  0.00000000000E+00  0.00000000000E+00  0.34139267452E+03  0.30292445928E+04  0.30099458209E+04 0.  0.
        1    1    3    3  502    0  0.25164001331E+03 -0.12078842051E+04 -0.69659260998E+03  0.14168797457E+04  0.50400001928E-02 0.  1.
       -1    1    3    3    0  502 -0.25164001331E+03  0.12078842051E+04  0.10379852845E+04  0.16123648471E+04  0.50400001928E-02 0. -1.
</event>
<event>
 5   0  0.7307508E-07  0.3000359E+04  0.7818609E-02  0.8243628E-01
       -2   -1    0    0    0  501  0.00000000000E+00  0.00000000000E+00  0.16960002019E+04  0.16960002019E+04  0.25500000920E-02 0. -1.
        2   -1    0    0  501    0  0.00000000000E+00  0.00000000000E+00 -0.13269679471E+04  0.13269679471E+04  0.25500000920E-02 0.  1.
    10030    2    1    2    0    0  0.00000000000E+00  0.00000000000E+00  0.36903225478E+03  0.30229681490E+04  0.30003585827E+04 0.  0.
        1    1    3    3  502    0 -0.11473028552E+04 -0.72183289025E+03  0.83215963540E+03  0.15905458880E+04  0.50400001928E-02 0. -1.
       -1    1    3    3    0  502  0.11473028552E+04  0.72183289025E+03 -0.46312738062E+03  0.14324222610E+04  0.50400001928E-02 0.  1.
</event>
<event>
 5   0  0.2621825E-07  0.3005541E+04  0.7818609E-02  0.8242150E-01
       -1   -1    0    0    0  501  0.00000000000E+00  0.00000000000E+00  0.14780266704E+04  0.14780266704E+04  0.50400001928E-02 0.  1.
        1   -1    0    0  501    0  0.00000000000E+00  0.00000000000E+00 -0.15279281874E+04  0.15279281874E+04  0.50400001928E-02 0. -1.
    10030    2    1    2    0    0  0.00000000000E+00  0.00000000000E+00 -0.49901516989E+02  0.30059548579E+04  0.30055406246E+04 0.  0.
        3    1    3    3  502    0  0.63338374387E+03 -0.12239792016E+04  0.57431338816E+03  0.14930291125E+04  0.10100000352E+00 0.  1.
       -3    1    3    3    0  502 -0.63338374387E+03  0.12239792016E+04 -0.62421490515E+03  0.15129257453E+04  0.10100000352E+00 0. -1.
</event>
<event>
 5   0  0.7278657E-07  0.3005639E+04  0.7818609E-02  0.8242122E-01
        2   -1    0    0  501    0  0.00000000000E+00  0.00000000000E+00  0.20116057255E+04  0.20116057255E+04  0.25500000920E-02 0. -1.
       -2   -1    0    0    0  501  0.00000000000E+00  0.00000000000E+00 -0.11227184435E+04  0.11227184435E+04  0.25500000920E-02 0.  1.
    10030    2    1    2    0    0  0.00000000000E+00  0.00000000000E+00  0.88888728201E+03  0.31343241690E+04  0.30056392658E+04 0.  0.
        2    1    3    3  502    0  0.14260769565E+04 -0.21492174506E+03  0.37635066071E+01  0.14421861899E+04  0.25500000920E-02 0.  1.
       -2    1    3    3    0  502 -0.14260769565E+04  0.21492174506E+03  0.88512377540E+03  0.16921379791E+04  0.25500000920E-02 0. -1.
</event>
<event>
 5   0  0.2640081E-07  0.3002011E+04  0.7818609E-02  0.8243157E-01
       -1   -1    0    0    0  501  0.00000000000E+00  0.00000000000E+00  0.16108301575E+04  0.16108301575E+04  0.50400001928E-02 0.  1.
        1   -1    0    0  501    0  0.00000000000E+00  0.00000000000E+00 -0.13986686572E+04  0.13986686572E+04  0.50400001928E-02 0. -1.
    10030    2    1    2    0    0  0.00000000000E+00  0.00000000000E+00  0.21216150035E+03  0.30094988147E+04  0.30020110948E+04 0.  0.
        1    1    3    3  502    0 -0.12400424891E+04  0.32270635711E+03 -0.67764465133E+03  0.14494988931E+04  0.50400001928E-02 0. -1.
       -1    1    3    3    0  502  0.12400424891E+04 -0.32270635711E+03  0.88980615168E+03  0.15599999216E+04  0.50400001928E-02 0.  1.
</event>
<event>
 5   0  0.2621825E-07  0.3002273E+04  0.7818609E-02  0.8243082E-01
        1   -1    0    0  501    0  0.00000000000E+00  0.00000000000E+00  0.18898752218E+04  0.18898752218E+04  0.50400001928E-02 0. -1.
       -1   -1    0    0    0  501  0.00000000000E+00  0.00000000000E+00 -0.11923595933E+04  0.11923595933E+04  0.50400001928E-02 0.  1.
    10030    2    1    2    0    0  0.00000000000E+00  0.00000000000E+00  0.69751562848E+03  0.30822348151E+04  0.30022730394E+04 0.  0.
        3    1    3    3  502    0 -0.72177712795E+03 -0.75467952954E+03 -0.75834538880E+03  0.12905778371E+04  0.10100000352E+00 0.  1.
       -3    1    3    3    0  502  0.72177712795E+03  0.75467952954E+03  0.14558610173E+04  0.17916569779E+04  0.10100000352E+00 0. -1.
</event>
<event>
 5   0  0.2640081E-07  0.2996025E+04  0.7818609E-02  0.8244867E-01
       -1   -1    0    0    0  501  0.00000000000E+00  0.00000000000E+00  0.12252283793E+04  0.12252283793E+04  0.50400001928E-02 0. -1.
        1   -1    0    0  501    0  0.00000000000E+00  0.00000000000E+00 -0.18315285194E+04  0.18315285194E+04  0.50400001928E-02 0.  1.
    10030    2    1    2    0    0  0.00000000000E+00  0.00000000000E+00 -0.60630014011E+03  0.30567568987E+04  0.29960245123E+04 0.  0.
        1    1    3    3  502    0  0.13480030773E+04  0.45544579749E+03  0.17485265874E+03  0.14335677951E+04  0.50400001928E-02 0. -1.
       -1    1    3    3    0  502 -0.13480030773E+04 -0.45544579749E+03 -0.78115279885E+03  0.16231891036E+04  0.50400001928E-02 0.  1.
</event>
<event>
 5   0  0.7585823E-07  0.2994221E+04  0.7818609E-02  0.8245383E-01
        2   -1    0    0  501    0  0.00000000000E+00  0.00000000000E+00  0.23927967547E+04  0.23927967547E+04  0.25500000920E-02 0.  1.
       -2   -1    0    0    0  501  0.00000000000E+00  0.00000000000E+00 -0.93670325162E+03  0.93670325163E+03  0.25500000920E-02 0. -1.
    10030    2    1    2    0    0  0.00000000000E+00  0.00000000000E+00  0.14560935031E+04  0.33295000063E+04  0.29942214351E+04 0.  0.
        5    1    3    3  502    0  0.94197307831E+03  0.46671617296E+03 -0.45722761931E+03  0.11463928001E+04  0.46999998093E+01 0. -1.
       -5    1    3    3    0  502 -0.94197307831E+03 -0.46671617296E+03  0.19133211224E+04  0.21831072062E+04  0.46999998093E+01 0.  1.
</event>
<event>
 5   0  0.7399409E-07  0.2998131E+04  0.7818609E-02  0.8244265E-01
        2   -1    0    0  501    0  0.00000000000E+00  0.00000000000E+00  0.21823976786E+04  0.21823976786E+04  0.25500000920E-02 0. -1.
       -2   -1    0    0    0  501  0.00000000000E+00  0.00000000000E+00 -0.10296916641E+04  0.10296916641E+04  0.25500000920E-02 0.  1.
    10030    2    1    2    0    0  0.00000000000E+00  0.00000000000E+00  0.11527060145E+04  0.32120893426E+04  0.29981305490E+04 0.  0.
        3    1    3    3  502    0  0.13261760532E+04  0.24971851967E+03  0.12756956370E+04  0.18570141711E+04  0.10100000352E+00 0.  1.
       -3    1    3    3    0  502 -0.13261760532E+04 -0.24971851967E+03 -0.12298962251E+03  0.13550751715E+04  0.10100000352E+00 0. -1.
</event>
<event>
 5   0  0.7307508E-07  0.2995184E+04  0.7818609E-02  0.8245107E-01
        2   -1    0    0  501    0  0.00000000000E+00  0.00000000000E+00  0.20463864029E+04  0.20463864029E+04  0.25500000920E-02 0. -1.
       -2   -1    0    0    0  501  0.00000000000E+00  0.00000000000E+00 -0.10959717945E+04  0.10959717945E+04  0.25500000920E-02 0.  1.
    10030    2    1    2    0    0  0.00000000000E+00  0.00000000000E+00  0.95041460835E+03  0.31423581974E+04  0.29951839865E+04 0.  0.
        1    1    3    3  502    0 -0.28727417145E+03 -0.45804404311E+02  0.20164595766E+04  0.20373349545E+04  0.50400001928E-02 0. -1.
       -1    1    3    3    0  502  0.28727417145E+03  0.45804404311E+02 -0.10660449682E+04  0.11050232429E+04  0.50400001928E-02 0.  1.
</event>
<event>
 5   0  0.2679935E-07  0.3006015E+04  0.7818609E-02  0.8242015E-01
       -1   -1    0    0    0  501  0.00000000000E+00  0.00000000000E+00  0.13706583870E+04  0.13706583870E+04  0.50400001928E-02 0. -1.
        1   -1    0    0  501    0  0.00000000000E+00  0.00000000000E+00 -0.16481362609E+04  0.16481362609E+04  0.50400001928E-02 0.  1.
    10030    2    1    2    0    0  0.00000000000E+00  0.00000000000E+00 -0.27747787388E+03  0.30187946479E+04  0.30060151623E+04 0.  0.
        2    1    3    3  502    0  0.37700191709E+03 -0.13003086006E+04 -0.79427653316E+03  0.15696522269E+04  0.25500000920E-02 0.  1.
       -2    1    3    3    0  502 -0.37700191709E+03  0.13003086006E+04  0.51679865928E+03  0.14491424211E+04  0.25500000920E-02 0. -1.
</event>
<event>
 5   0  0.2640081E-07  0.3006187E+04  0.7818609E-02  0.8241966E-01
       -1   -1    0    0    0  501  0.00000000000E+00  0.00000000000E+00  0.10179001092E+04  0.10179001092E+04  0.50400001928E-02 0. -1.
        1   -1    0    0  501    0  0.00000000000E+00  0.00000000000E+00 -0.22195602234E+04  0.22195602234E+04  0.50400001928E-02 0.  1.
    10030    2    1    2    0    0  0.00000000000E+00  0.00000000000E+00 -0.12016601142E+04  0.32374603326E+04  0.30061873487E+04 0.  0.
        1    1    3    3  502    0 -0.13635109784E+04  0.30364007812E+02  0.79605779266E+02  0.13661702827E+04  0.50400001928E-02 0.  1.
       -1    1    3    3    0  502  0.13635109784E+04 -0.30364007812E+02 -0.12812658934E+04  0.18712900499E+04  0.50400001928E-02 0. -1.
</event>
<event>
 5   0  0.7585823E-07  0.3000385E+04  0.7818609E-02  0.8243621E-01
       -2   -1    0    0    0  501  0.00000000000E+00  0.00000000000E+00  0.85337319236E+03  0.85337319236E+03  0.25500000920E-02 0.  1.
        2   -1    0    0  501    0  0.00000000000E+00  0.00000000000E+00 -0.26372720580E+04  0.26372720580E+04  0.25500000920E-02 0. -1.
    10030    2    1    2    0    0  0.00000000000E+00  0.00000000000E+00 -0.17838988656E+04  0.34906452503E+04  0.30003848255E+04 0.  0.
        5    1    3    3  502    0 -0.12192939178E+04 -0.84954258106E+03 -0.65308420059E+03  0.16232502327E+04  0.46999998093E+01 0.  1.
       -5    1    3    3    0  502  0.12192939178E+04  0.84954258106E+03 -0.11308146650E+04  0.18673950176E+04  0.46999998093E+01 0. -1.
</event>
<event>
 5   0  0.2602891E-07  0.2996703E+04  0.7818609E-02  0.8244673E-01
        1   -1    0    0  501    0  0.00000000000E+00  0.00000000000E+00  0.16477491918E+04  0.16477491918E+04  0.50400001928E-02 0.  1.
       -1   -1    0    0    0  501  0.00000000000E+00  0.00000000000E+00 -0.13624992836E+04  0.13624992836E+04  0.50400001928E-02 0. -1.
    10030    2    1    2    0    0  0.00000000000E+00  0.00000000000E+00  0.28524990818E+03  0.30102484754E+04  0.29967029171E+04 0.  0.
        5    1    3    3  502    0  0.13503130801E+04 -0.36596254136E+02  0.79389984845E+03  0.15668387790E+04  0.46999998093E+01 0.  1.
       -5    1    3    3    0  502 -0.13503130801E+04  0.36596254136E+02 -0.50864994027E+03  0.14434096964E+04  0.46999998093E+01 0. -1.
</event>
<event>
 5   0  0.2792361E-07  0.2997926E+04  0.7818609E-02  0.8244323E-01
        1   -1    0    0  501    0  0.00000000000E+00  0.00000000000E+00  0.22937279250E+04  0.22937279250E+04  0.50400001928E-02 0. -1.
       -1   -1    0    0    0  501  0.00000000000E+00  0.00000000000E+00 -0.97958003147E+03  0.97958003148E+03  0.50400001928E-02 0.  1.
    10030    2    1    2    0    0  0.00000000000E+00  0.00000000000E+00  0.13141478935E+04  0.32733079565E+04  0.29979259984E+04 0.  0.
        4    1    3    3  502    0 -0.37325298856E+03  0.36780461108E+03  0.21904595873E+04  0.22522683770E+04  0.12699999809E+01 0. -1.
       -4    1    3    3    0  502  0.37325298856E+03 -0.36780461108E+03 -0.87631169377E+03  0.10210395795E+04  0.12699999809E+01 0.  1.
</event>
<event>
 5   0  0.7585823E-07  0.2998810E+04  0.7818609E-02  0.8244071E-01
        2   -1    0    0  501    0  0.00000000000E+00  0.00000000000E+00  0.27306458879E+04  0.27306458879E+04  0.25500000920E-02 0.  1.
       -2   -1    0    0    0  501  0.00000000000E+00  0.00000000000E+00 -0.82332732253E+03  0.82332732253E+03  0.25500000920E-02 0. -1.
    10030    2    1    2    0    0  0.00000000000E+00  0.00000000000E+00  0.19073185654E+04  0.35539732105E+04  0.29988100091E+04 0.  0.
        5    1    3    3  502    0 -0.26155644598E+03  0.44273626385E+03  0.26228671799E+04  0.26728040533E+04  0.46999998093E+01 0.  1.
       -5    1    3    3    0  502  0.26155644598E+03 -0.44273626385E+03 -0.71554861454E+03  0.88116915716E+03  0.46999998093E+01 0. -1.
</event>
<event>
 5   0  0.2414250E-07  0.3016160E+04  0.7818609E-02  0.8239131E-01
        3   -1    0    0  501    0  0.00000000000E+00  0.00000000000E+00  0.99213337796E+03  0.99213338310E+03  0.10100000352E+00 0.  1.
       -3   -1    0    0    0  501  0.00000000000E+00  0.00000000000E+00 -0.22923380963E+04  0.22923380985E+04  0.10100000352E+00 0. -1.
    10030    2    1    2    0    0  0.00000000000E+00  0.00000000000E+00 -0.13002047183E+04  0.32844714816E+04  0.30161599102E+04 0.  0.
        4    1    3    3  502    0 -0.11311725026E+04  0.52155765958E+03  0.27565920947E+03  0.12757598660E+04  0.12699999809E+01 0.  1.
       -4    1    3    3    0  502  0.11311725026E+04 -0.52155765958E+03 -0.15758639278E+04  0.20087116156E+04  0.12699999809E+01 0. -1.
</event>
<event>
 5   0  0.7585823E-07  0.2996996E+04  0.7818609E-02  0.8244589E-01
        2   -1    0    0  501    0  0.00000000000E+00  0.00000000000E+00  0.18527510274E+04  0.18527510274E+04  0.25500000920E-02 0. -1.
       -2   -1    0    0    0  501  0.00000000000E+00  0.00000000000E+00 -0.12119793062E+04  0.12119793062E+04  0.25500000920E-02 0.  1.
    10030    2    1    2    0    0  0.00000000000E+00  0.00000000000E+00  0.64077172125E+03  0.30647303336E+04  0.29969957655E+04 0.  0.
        5    1    3    3  502    0  0.10016037450E+04 -0.20592939201E+03 -0.79975039152E+03  0.12981678456E+04  0.46999998093E+01 0.  1.
       -5    1    3    3    0  502 -0.10016037450E+04  0.20592939201E+03  0.14405221128E+04  0.17665624880E+04  0.46999998093E+01 0. -1.
</event>
<event>
 5   0  0.7208273E-07  0.2997750E+04  0.7818609E-02  0.8244374E-01
        2   -1    0    0  501    0  0.00000000000E+00  0.00000000000E+00  0.18639179696E+04  0.18639179696E+04  0.25500000920E-02 0.  1.
       -2   -1    0    0    0  501  0.00000000000E+00  0.00000000000E+00 -0.12053247632E+04  0.12053247632E+04  0.25500000920E-02 0. -1.
    10030    2    1    2    0    0  0.00000000000E+00  0.00000000000E+00  0.65859320637E+03  0.30692427329E+04  0.29977501466E+04 0.  0.
        4    1    3    3  502    0 -0.34989106711E+03  0.54662251893E+03 -0.10540003282E+04  0.12377957190E+04  0.12699999809E+01 0. -1.
       -4    1    3    3    0  502  0.34989106711E+03 -0.54662251893E+03  0.17125935346E+04  0.18314470139E+04  0.12699999809E+01 0.  1.
</event>
<event>
 5   0  0.7307508E-07  0.2995858E+04  0.7818609E-02  0.8244915E-01
        2   -1    0    0  501    0  0.00000000000E+00  0.00000000000E+00  0.12645640803E+04  0.12645640803E+04  0.25500000920E-02 0. -1.
       -2   -1    0    0    0  501  0.00000000000E+00  0.00000000000E+00 -0.17743599440E+04  0.17743599440E+04  0.25500000920E-02 0.  1.
    10030    2    1    2    0    0  0.00000000000E+00  0.00000000000E+00 -0.50979586364E+03  0.30389240243E+04  0.29958583750E+04 0.  0.
        1    1    3    3  502    0  0.75902716820E+03 -0.32535736865E+03 -0.15225876500E+04  0.17321237864E+04  0.50400001928E-02 0.  1.
       -1    1    3    3    0  502 -0.75902716820E+03  0.32535736865E+03  0.10127917864E+04  0.13068002380E+04  0.50400001928E-02 0. -1.
</event>
<event>
 5   0  0.7307508E-07  0.2998272E+04  0.7818609E-02  0.8244225E-01
        2   -1    0    0  501    0  0.00000000000E+00  0.00000000000E+00  0.13797844124E+04  0.13797844124E+04  0.25500000920E-02 0.  1.
       -2   -1    0    0    0  501  0.00000000000E+00  0.00000000000E+00 -0.16288113865E+04  0.16288113865E+04  0.25500000920E-02 0. -1.
    10030    2    1    2    0    0  0.00000000000E+00  0.00000000000E+00 -0.24902697412E+03  0.30085957988E+04  0.29982718768E+04 0.  0.
        1    1    3    3  502    0 -0.77881984665E+03  0.78821329944E+03  0.88869993041E+03  0.14204323727E+04  0.50400001928E-02 0.  1.
       -1    1    3    3    0  502  0.77881984665E+03 -0.78821329944E+03 -0.11377269045E+04  0.15881634262E+04  0.50400001928E-02 0. -1.
</event>
<event>
 5   0  0.2679935E-07  0.2997641E+04  0.7818609E-02  0.8244405E-01
       -1   -1    0    0    0  501  0.00000000000E+00  0.00000000000E+00  0.21800435483E+04  0.21800435483E+04  0.50400001928E-02 0. -1.
        1   -1    0    0  501    0  0.00000000000E+00  0.00000000000E+00 -0.10304668442E+04  0.10304668442E+04  0.50400001928E-02 0.  1.
    10030    2    1    2    0    0  0.00000000000E+00  0.00000000000E+00  0.11495767041E+04  0.32105103925E+04  0.29976408026E+04 0.  0.
        2    1    3    3  502    0 -0.38424720453E+01  0.43000495126E+03  0.21125560988E+04  0.21558785433E+04  0.25500000920E-02 0. -1.
       -2    1    3    3    0  502  0.38424720453E+01 -0.43000495126E+03 -0.96297939473E+03  0.10546318492E+04  0.25500000920E-02 0.  1.
</event>
<event>
 5   0  0.7307508E-07  0.3000749E+04  0.7818609E-02  0.8243517E-01
       -2   -1    0    0    0  501  0.00000000000E+00  0.00000000000E+00  0.19619901280E+04  0.19619901280E+04  0.25500000920E-02 0.  1.
        2   -1    0    0  501    0  0.00000000000E+00  0.00000000000E+00 -0.11473672248E+04  0.11473672248E+04  0.25500000920E-02 0. -1.
    10030    2    1    2    0    0  0.00000000000E+00  0.00000000000E+00  0.81462290318E+03  0.31093573529E+04  0.30007486855E+04 0.  0.
        1    1    3    3  502    0 -0.33904609268E+03 -0.74073774209E+03 -0.89824285260E+03  0.12126355090E+04  0.50400001928E-02 0. -1.
       -1    1    3    3    0  502  0.33904609268E+03  0.74073774209E+03  0.17128657558E+04  0.18967218438E+04  0.50400001928E-02 0.  1.
</event>
<event>
 5   0  0.2602891E-07  0.3003040E+04  0.7818609E-02  0.8242863E-01
       -1   -1    0    0    0  501  0.00000000000E+00  0.00000000000E+00  0.13705250627E+04  0.13705250627E+04  0.50400001928E-02 0. -1.
        1   -1    0    0  501    0  0.00000000000E+00  0.00000000000E+00 -0.16450357576E+04  0.16450357576E+04  0.50400001928E-02 0.  1.
    10030    2    1    2    0    0  0.00000000000E+00  0.00000000000E+00 -0.27451069488E+03  0.30155608203E+04  0.30030402827E+04 0.  0.
        5    1    3    3  502    0 -0.54116238192E+03 -0.12579751695E+04  0.48108988480E+03  0.14514915838E+04  0.46999998093E+01 0. -1.
       -5    1    3    3    0  502  0.54116238192E+03  0.12579751695E+04 -0.75560057968E+03  0.15640692365E+04  0.46999998093E+01 0.  1.
</event>
<event>
 5   0  0.2621825E-07  0.2999672E+04  0.7818609E-02  0.8243825E-01
        1   -1    0    0  501    0  0.00000000000E+00  0.00000000000E+00  0.19674344791E+04  0.19674344791E+04  0.50400001928E-02 0. -1.
       -1   -1    0    0    0  501  0.00000000000E+00  0.00000000000E+00 -0.11433710370E+04  0.11433710370E+04  0.50400001928E-02 0.  1.
    10030    2    1    2    0    0  0.00000000000E+00  0.00000000000E+00  0.82406344206E+03  0.31108055161E+04  0.29996717158E+04 0.  0.
        3    1    3    3  502    0 -0.32180961908E+02 -0.98055854543E+03 -0.76444817627E+03  0.12437490501E+04  0.10100000352E+00 0.  1.
       -3    1    3    3    0  502  0.32180961908E+02  0.98055854543E+03  0.15885116183E+04  0.18670564660E+04  0.10100000352E+00 0. -1.
</event>
<event>
 5   0  0.7208273E-07  0.2996922E+04  0.7818609E-02  0.8244610E-01
       -2   -1    0    0    0  501  0.00000000000E+00  0.00000000000E+00  0.27832517212E+04  0.27832517212E+04  0.25500000920E-02 0. -1.
        2   -1    0    0  501    0  0.00000000000E+00  0.00000000000E+00 -0.80674870147E+03  0.80674870148E+03  0.25500000920E-02 0.  1.
    10030    2    1    2    0    0  0.00000000000E+00  0.00000000000E+00  0.19765030197E+04  0.35900004227E+04  0.29969215619E+04 0.  0.
        4    1    3    3  502    0 -0.10668596309E+04  0.33817119211E+03  0.21818476783E+04  0.24521439867E+04  0.12699999809E+01 0. -1.
       -4    1    3    3    0  502  0.10668596309E+04 -0.33817119211E+03 -0.20534465856E+03  0.11378564360E+04  0.12699999809E+01 0.  1.
</event>
<event>
 5   0  0.2640081E-07  0.2999007E+04  0.7818609E-02  0.8244014E-01
        1   -1    0    0  501    0  0.00000000000E+00  0.00000000000E+00  0.21987093660E+04  0.21987093661E+04  0.50400001928E-02 0. -1.
       -1   -1    0    0    0  501  0.00000000000E+00  0.00000000000E+00 -0.10226505301E+04  0.10226505301E+04  0.50400001928E-02 0.  1.
    10030    2    1    2    0    0  0.00000000000E+00  0.00000000000E+00  0.11760588359E+04  0.32213598962E+04  0.29990073683E+04 0.  0.
        1    1    3    3  502    0 -0.70552602921E+03  0.41110079654E+03 -0.76288963299E+03  0.11174844227E+04  0.50400001928E-02 0.  1.
       -1    1    3    3    0  502  0.70552602921E+03 -0.41110079654E+03  0.19389484689E+04  0.21038754735E+04  0.50400001928E-02 0. -1.
</event>
<event>
 5   0  0.7399409E-07  0.2998695E+04  0.7818609E-02  0.8244104E-01
        2   -1    0    0  501    0  0.00000000000E+00  0.00000000000E+00  0.18538855905E+04  0.18538855905E+04  0.25500000920E-02 0.  1.
       -2   -1    0    0    0  501  0.00000000000E+00  0.00000000000E+00 -0.12126117886E+04  0.12126117886E+04  0.25500000920E-02 0. -1.
    10030    2    1    2    0    0  0.00000000000E+00  0.00000000000E+00  0.64127380188E+03  0.30664973790E+04  0.29986953974E+04 0.  0.
        3    1    3    3  502    0  0.99359898691E+03  0.29040747676E+03  0.14298125223E+04  0.17652023421E+04  0.10100000352E+00 0.  1.
       -3    1    3    3    0  502 -0.99359898691E+03 -0.29040747676E+03 -0.78853872043E+03  0.13012950369E+04  0.10100000352E+00 0. -1.
</event>
<event>
 5   0  0.7399409E-07  0.2995119E+04  0.7818609E-02  0.8245126E-01
       -2   -1    0    0    0  501  0.00000000000E+00  0.00000000000E+00  0.12597947509E+04  0.12597947509E+04  0.25500000920E-02 0.  1.
        2   -1    0    0  501    0  0.00000000000E+00  0.00000000000E+00 -0.17801978930E+04  0.17801978930E+04  0.25500000920E-02 0. -1.
    10030    2    1    2    0    0  0.00000000000E+00  0.00000000000E+00 -0.52040314210E+03  0.30399926439E+04  0.29951186695E+04 0.  0.
        3    1    3    3  502    0 -0.96487541238E+03  0.20679095736E+03 -0.14035497647E+04  0.17157211352E+04  0.10100000352E+00 0. -1.
       -3    1    3    3    0  502  0.96487541238E+03 -0.20679095736E+03  0.88314662264E+03  0.13242715087E+04  0.10100000352E+00 0.  1.
</event>
<event>
 5   0  0.7399409E-07  0.3000162E+04  0.7818609E-02  0.8243685E-01
       -2   -1    0    0    0  501  0.00000000000E+00  0.00000000000E+00  0.11507725754E+04  0.11507725754E+04  0.25500000920E-02 0.  1.
        2   -1    0    0  501    0  0.00000000000E+00  0.00000000000E+00 -0.19554197028E+04  0.19554197028E+04  0.25500000920E-02 0. -1.
    10030    2    1    2    0    0  0.00000000000E+00  0.00000000000E+00 -0.80464712740E+03  0.31061922782E+04  0.30001622406E+04 0.  0.
        3    1    3    3  502    0 -0.43761227630E+03  0.61344900932E+03 -0.17452452851E+04  0.19009748307E+04  0.10100000352E+00 0. -1.
       -3    1    3    3    0  502  0.43761227630E+03 -0.61344900932E+03  0.94059815772E+03  0.12052174476E+04  0.10100000352E+00 0.  1.
</event>
<event>
 5   0  0.2679935E-07  0.3000970E+04  0.7818609E-02  0.8243454E-01
       -1   -1    0    0    0  501  0.00000000000E+00  0.00000000000E+00  0.12920063104E+04  0.12920063105E+04  0.50400001928E-02 0. -1.
        1   -1    0    0  501    0  0.00000000000E+00  0.00000000000E+00 -0.17426040459E+04  0.17426040459E+04  0.50400001928E-02 0.  1.
    10030    2    1    2    0    0  0.00000000000E+00  0.00000000000E+00 -0.45059773547E+03  0.30346103564E+04  0.30009701258E+04 0.  0.
        2    1    3    3  502    0 -0.87272236335E+03  0.30529776378E+03 -0.14203265421E+04  0.16947502867E+04  0.25500000920E-02 0.  1.
       -2    1    3    3    0  502  0.87272236335E+03 -0.30529776378E+03  0.96972880660E+03  0.13398600697E+04  0.25500000920E-02 0. -1.
</event>
<event>
 5   0  0.7585823E-07  0.3000227E+04  0.7818609E-02  0.8243666E-01
        2   -1    0    0  501    0  0.00000000000E+00  0.00000000000E+00  0.22022610969E+04  0.22022610969E+04  0.25500000920E-02 0. -1.
       -2   -1    0    0    0  501  0.00000000000E+00  0.00000000000E+00 -0.10218319652E+04  0.10218319652E+04  0.25500000920E-02 0.  1.
    10030    2    1    2    0    0  0.00000000000E+00  0.00000000000E+00  0.11804291317E+04  0.32240930621E+04  0.30002271811E+04 0.  0.
        5    1    3    3  502    0 -0.31768176538E+03 -0.10508066519E+04  0.16888500472E+04  0.20142871929E+04  0.46999998093E+01 0. -1.
       -5    1    3    3    0  502  0.31768176538E+03  0.10508066519E+04 -0.50842091549E+03  0.12098058692E+04  0.46999998093E+01 0.  1.
</event>
<event>
 5   0  0.7585823E-07  0.2999771E+04  0.7818609E-02  0.8243796E-01
        2   -1    0    0  501    0  0.00000000000E+00  0.00000000000E+00  0.17970030922E+04  0.17970030922E+04  0.25500000920E-02 0. -1.
       -2   -1    0    0    0  501  0.00000000000E+00  0.00000000000E+00 -0.12518933134E+04  0.12518933134E+04  0.25500000920E-02 0.  1.
    10030    2    1    2    0    0  0.00000000000E+00  0.00000000000E+00  0.54510977879E+03  0.30488964057E+04  0.29997707615E+04 0.  0.
        5    1    3    3  502    0 -0.14525345958E+04  0.35425016716E+03  0.39402838684E+03  0.15461663534E+04  0.46999998093E+01 0.  1.
       -5    1    3    3    0  502  0.14525345958E+04 -0.35425016716E+03  0.15108139195E+03  0.15027300522E+04  0.46999998093E+01 0. -1.
</event>
<event>
 5   0  0.7208273E-07  0.2998638E+04  0.7818609E-02  0.8244120E-01
        2   -1    0    0  501    0  0.00000000000E+00  0.00000000000E+00  0.14257853232E+04  0.14257853232E+04  0.25500000920E-02 0.  1.
       -2   -1    0    0    0  501  0.00000000000E+00  0.00000000000E+00 -0.15766449944E+04  0.15766449944E+04  0.25500000920E-02 0. -1.
    10030    2    1    2    0    0  0.00000000000E+00  0.00000000000E+00 -0.15085967124E+03  0.30024303176E+04  0.29986378860E+04 0.  0.
        4    1    3    3  502    0  0.26628663112E+03  0.87341140068E+03  0.11152754281E+04  0.14413871576E+04  0.12699999809E+01 0.  1.
       -4    1    3    3    0  502 -0.26628663112E+03 -0.87341140068E+03 -0.12661350993E+04  0.15610431600E+04  0.12699999809E+01 0. -1.
</event>
<event>
 5   0  0.7208273E-07  0.2980950E+04  0.7818609E-02  0.8249192E-01
        2   -1    0    0  501    0  0.00000000000E+00  0.00000000000E+00  0.21705931214E+04  0.21705931214E+04  0.25500000920E-02 0. -1.
       -2   -1    0    0    0  501  0.00000000000E+00  0.00000000000E+00 -0.10234602504E+04  0.10234602504E+04  0.25500000920E-02 0.  1.
    10030    2    1    2    0    0  0.00000000000E+00  0.00000000000E+00  0.11471328710E+04  0.31940533718E+04  0.29809500361E+04 0.  0.
        4    1    3    3  502    0  0.31218444437E+02  0.14614177759E+04  0.88558426048E+03  0.17090867743E+04  0.12699999809E+01 0. -1.
       -4    1    3    3    0  502 -0.31218444437E+02 -0.14614177759E+04  0.26154861048E+03  0.14849665974E+04  0.12699999809E+01 0.  1.
</event>
<event>
 5   0  0.2792361E-07  0.3000081E+04  0.7818609E-02  0.8243708E-01
        1   -1    0    0  501    0  0.00000000000E+00  0.00000000000E+00  0.83190898285E+03  0.83190898286E+03  0.50400001928E-02 0.  1.
       -1   -1    0    0    0  501  0.00000000000E+00  0.00000000000E+00 -0.27047683802E+04  0.27047683802E+04  0.50400001928E-02 0. -1.
    10030    2    1    2    0    0  0.00000000000E+00  0.00000000000E+00 -0.18728593973E+04  0.35366773630E+04  0.30000807403E+04 0.  0.
        4    1    3    3  502    0  0.70518273030E+03 -0.52333516536E+03 -0.23700702974E+04  0.25275278843E+04  0.12699999809E+01 0. -1.
       -4    1    3    3    0  502 -0.70518273030E+03  0.52333516536E+03  0.49721090006E+03  0.10091494787E+04  0.12699999809E+01 0.  1.
</event>
<event>
 5   0  0.7399409E-07  0.3005082E+04  0.7818609E-02  0.8242281E-01
        2   -1    0    0  501    0  0.00000000000E+00  0.00000000000E+00  0.15259613231E+04  0.15259613231E+04  0.25500000920E-02 0.  1.
       -2   -1    0    0    0  501  0.00000000000E+00  0.00000000000E+00 -0.14794805940E+04  0.14794805940E+04  0.25500000920E-02 0. -1.
    10030    2    1    2    0    0  0.00000000000E+00  0.00000000000E+00  0.46480729102E+02  0.30054419171E+04  0.30050824712E+04 0.  0.
        3    1    3    3  502    0  0.10029168234E+04 -0.64676334384E+03 -0.88982292981E+03  0.14885999578E+04  0.10100000352E+00 0. -1.
       -3    1    3    3    0  502 -0.10029168234E+04  0.64676334384E+03  0.93630365891E+03  0.15168419593E+04  0.10100000352E+00 0.  1.
</event>
<event>
 5   0  0.2792361E-07  0.3004688E+04  0.7818609E-02  0.8242393E-01
        1   -1    0    0  501    0  0.00000000000E+00  0.00000000000E+00  0.23831969601E+04  0.23831969601E+04  0.50400001928E-02 0. -1.
       -1   -1    0    0    0  501  0.00000000000E+00  0.00000000000E+00 -0.94706313821E+03  0.94706313822E+03  0.50400001928E-02 0.  1.
    10030    2    1    2    0    0  0.00000000000E+00  0.00000000000E+00  0.14361338219E+04  0.33302600983E+04  0.30046883313E+04 0.  0.
        4    1    3    3  502    0  0.13319986319E+04 -0.15982686933E+03 -0.31422913654E+02  0.13419217548E+04  0.12699999809E+01 0.  1.
       -4    1    3    3    0  502 -0.13319986319E+04  0.15982686933E+03  0.14675567356E+04  0.19883383436E+04  0.12699999809E+01 0. -1.
</event>
<event>
 5   0  0.7307508E-07  0.2963060E+04  0.7818609E-02  0.8254359E-01
       -2   -1    0    0    0  501  0.00000000000E+00  0.00000000000E+00  0.10851431734E+04  0.10851431734E+04  0.25500000920E-02 0.  1.
        2   -1    0    0  501    0  0.00000000000E+00  0.00000000000E+00 -0.20227107240E+04  0.20227107240E+04  0.25500000920E-02 0. -1.
    10030    2    1    2    0    0  0.00000000000E+00  0.00000000000E+00 -0.93756755062E+03  0.31078538975E+04  0.29630597253E+04 0.  0.
        1    1    3    3  502    0  0.93546020789E+03 -0.55245236379E+02  0.73480720994E+03  0.11908314207E+04  0.50400001928E-02 0.  1.
       -1    1    3    3    0  502 -0.93546020789E+03  0.55245236379E+02 -0.16723747606E+04  0.19170224768E+04  0.50400001928E-02 0. -1.
</event>
<event>
 5   0  0.7278657E-07  0.2996992E+04  0.7818609E-02  0.8244590E-01
        2   -1    0    0  501    0  0.00000000000E+00  0.00000000000E+00  0.15628432279E+04  0.15628432279E+04  0.25500000920E-02 0.  1.
       -2   -1    0    0    0  501  0.00000000000E+00  0.00000000000E+00 -0.14367983406E+04  0.14367983406E+04  0.25500000920E-02 0. -1.
    10030    2    1    2    0    0  0.00000000000E+00  0.00000000000E+00  0.12604488730E+03  0.29996415686E+04  0.29969921966E+04 0.  0.
        2    1    3    3  502    0 -0.12888805516E+04  0.43881462071E+03  0.68945047833E+03  0.15261432796E+04  0.25500000920E-02 0.  1.
       -2    1    3    3    0  502  0.12888805516E+04 -0.43881462071E+03 -0.56340559103E+03  0.14734982890E+04  0.25500000920E-02 0. -1.
</event>
<event>
 5   0  0.2640081E-07  0.3005946E+04  0.7818609E-02  0.8242035E-01
       -1   -1    0    0    0  501  0.00000000000E+00  0.00000000000E+00  0.12428980040E+04  0.12428980040E+04  0.50400001928E-02 0.  1.
        1   -1    0    0  501    0  0.00000000000E+00  0.00000000000E+00 -0.18174687099E+04  0.18174687099E+04  0.50400001928E-02 0. -1.
    10030    2    1    2    0    0  0.00000000000E+00  0.00000000000E+00 -0.57457070588E+03  0.30603667139E+04  0.30059462616E+04 0.  0.
        1    1    3    3  502    0  0.68545142434E+03 -0.80216067291E+03  0.80243004490E+03  0.13255939715E+04  0.50400001928E-02 0.  1.
       -1    1    3    3    0  502 -0.68545142434E+03  0.80216067291E+03 -0.13770007508E+04  0.17347727425E+04  0.50400001928E-02 0. -1.
</event>
<event>
 5   0  0.2679935E-07  0.2995182E+04  0.7818609E-02  0.8245108E-01
        1   -1    0    0  501    0  0.00000000000E+00  0.00000000000E+00  0.17360930624E+04  0.17360930624E+04  0.50400001928E-02 0. -1.
       -1   -1    0    0    0  501  0.00000000000E+00  0.00000000000E+00 -0.12918536704E+04  0.12918536704E+04  0.50400001928E-02 0.  1.
    10030    2    1    2    0    0  0.00000000000E+00  0.00000000000E+00  0.44423939196E+03  0.30279467328E+04  0.29951815937E+04 0.  0.
        2    1    3    3  502    0  0.48131580477E+03 -0.10414257539E+04  0.11952219819E+04  0.16567402002E+04  0.25500000920E-02 0. -1.
       -2    1    3    3    0  502 -0.48131580477E+03  0.10414257539E+04 -0.75098258992E+03  0.13712065326E+04  0.25500000920E-02 0.  1.
</event>
<event>
 5   0  0.7208273E-07  0.3002267E+04  0.7818609E-02  0.8243084E-01
       -2   -1    0    0    0  501  0.00000000000E+00  0.00000000000E+00  0.87970552627E+03  0.87970552627E+03  0.25500000920E-02 0.  1.
        2   -1    0    0  501    0  0.00000000000E+00  0.00000000000E+00 -0.25615417771E+04  0.25615417771E+04  0.25500000920E-02 0. -1.
    10030    2    1    2    0    0  0.00000000000E+00  0.00000000000E+00 -0.16818362508E+04  0.34412473033E+04  0.30022674478E+04 0.  0.
        4    1    3    3  502    0  0.17332232861E+03 -0.10455298385E+03 -0.25458269823E+04  0.25538615062E+04  0.12699999809E+01 0. -1.
       -4    1    3    3    0  502 -0.17332232861E+03  0.10455298385E+03  0.86399073149E+03  0.88738579718E+03  0.12699999809E+01 0.  1.
</event>
<event>
 5   0  0.7208273E-07  0.3004727E+04  0.7818609E-02  0.8242382E-01
        2   -1    0    0  501    0  0.00000000000E+00  0.00000000000E+00  0.23356493808E+04  0.23356493808E+04  0.25500000920E-02 0. -1.
       -2   -1    0    0    0  501  0.00000000000E+00  0.00000000000E+00 -0.96636745524E+03  0.96636745524E+03  0.25500000920E-02 0.  1.
    10030    2    1    2    0    0  0.00000000000E+00  0.00000000000E+00  0.13692819256E+04  0.33020168361E+04  0.30047266421E+04 0.  0.
        4    1    3    3  502    0 -0.57786085582E+03 -0.59215559321E+03 -0.69343371428E+03  0.10795477499E+04  0.12699999809E+01 0.  1.
       -4    1    3    3    0  502  0.57786085582E+03  0.59215559321E+03  0.20627156399E+04  0.22224690862E+04  0.12699999809E+01 0. -1.
</event>
<event>
 5   0  0.2792361E-07  0.3007166E+04  0.7818609E-02  0.8241688E-01
        1   -1    0    0  501    0  0.00000000000E+00  0.00000000000E+00  0.22435032998E+04  0.22435032998E+04  0.50400001928E-02 0.  1.
       -1   -1    0    0    0  501  0.00000000000E+00  0.00000000000E+00 -0.10076925705E+04  0.10076925705E+04  0.50400001928E-02 0. -1.
    10030    2    1    2    0    0  0.00000000000E+00  0.00000000000E+00  0.12358107293E+04  0.32511958703E+04  0.30071658465E+04 0.  0.
        4    1    3    3  502    0 -0.35689753292E+03  0.33401771266E+02  0.21966311287E+04  0.22256867381E+04  0.12699999809E+01 0.  1.
       -4    1    3    3    0  502  0.35689753292E+03 -0.33401771266E+02 -0.96082039948E+03  0.10255091322E+04  0.12699999809E+01 0. -1.
</event>
<event>
 5   0  0.2679935E-07  0.3000008E+04  0.7818609E-02  0.8243729E-01
        1   -1    0    0  501    0  0.00000000000E+00  0.00000000000E+00  0.17563748687E+04  0.17563748688E+04  0.50400001928E-02 0. -1.
       -1   -1    0    0    0  501  0.00000000000E+00  0.00000000000E+00 -0.12810546075E+04  0.12810546075E+04  0.50400001928E-02 0.  1.
    10030    2    1    2    0    0  0.00000000000E+00  0.00000000000E+00  0.47532026121E+03  0.30374294763E+04  0.30000080788E+04 0.  0.
        2    1    3    3  502    0 -0.56540350597E+03 -0.37013257585E+03  0.15935182098E+04  0.17308898097E+04  0.25500000920E-02 0. -1.
       -2    1    3    3    0  502  0.56540350597E+03  0.37013257585E+03 -0.11181979486E+04  0.13065396666E+04  0.25500000920E-02 0.  1.
</event>
<event>
 5   0  0.7585823E-07  0.2996161E+04  0.7818609E-02  0.8244828E-01
       -2   -1    0    0    0  501  0.00000000000E+00  0.00000000000E+00  0.20107432877E+04  0.20107432877E+04  0.25500000920E-02 0.  1.
        2   -1    0    0  501    0  0.00000000000E+00  0.00000000000E+00 -0.11161270960E+04  0.11161270960E+04  0.25500000920E-02 0. -1.
    10030    2    1    2    0    0  0.00000000000E+00  0.00000000000E+00  0.89461619166E+03  0.31268703837E+04  0.29961609213E+04 0.  0.
        5    1    3    3  502    0  0.70056951728E+03 -0.75613742092E+03 -0.68716700178E+03  0.12388551272E+04  0.46999998093E+01 0. -1.
       -5    1    3    3    0  502 -0.70056951728E+03  0.75613742092E+03  0.15817831934E+04  0.18880152565E+04  0.46999998093E+01 0.  1.
</event>
<event>
 5   0  0.7585823E-07  0.2993485E+04  0.7818609E-02  0.8245594E-01
        2   -1    0    0  501    0  0.00000000000E+00  0.00000000000E+00  0.12061616336E+04  0.12061616336E+04  0.25500000920E-02 0.  1.
       -2   -1    0    0    0  501  0.00000000000E+00  0.00000000000E+00 -0.18573287251E+04  0.18573287251E+04  0.25500000920E-02 0. -1.
    10030    2    1    2    0    0  0.00000000000E+00  0.00000000000E+00 -0.65116709158E+03  0.30634903587E+04  0.29934853594E+04 0.  0.
        5    1    3    3  502    0 -0.11273414500E+04 -0.15841425903E+02 -0.13330167278E+04  0.17458824079E+04  0.46999998093E+01 0. -1.
       -5    1    3    3    0  502  0.11273414500E+04  0.15841425903E+02  0.68184963621E+03  0.13176079508E+04  0.46999998093E+01 0.  1.
</event>
<event>
 5   0  0.2602891E-07  0.2992011E+04  0.7818609E-02  0.8246016E-01
       -1   -1    0    0    0  501  0.00000000000E+00  0.00000000000E+00  0.17736490595E+04  0.17736490595E+04  0.50400001928E-02 0.  1.
        1   -1    0    0  501    0  0.00000000000E+00  0.00000000000E+00 -0.12618236109E+04  0.12618236109E+04  0.50400001928E-02 0. -1.
    10030    2    1    2    0    0  0.00000000000E+00  0.00000000000E+00  0.51182544856E+03  0.30354726704E+04  0.29920108694E+04 0.  0.
        5    1    3    3  502    0  0.14954108723E+04  0.39831924905E+02  0.26913707817E+03  0.15199661562E+04  0.46999998093E+01 0. -1.
       -5    1    3    3    0  502 -0.14954108723E+04 -0.39831924905E+02  0.24268837039E+03  0.15155065141E+04  0.46999998093E+01 0.  1.
</event>
<event>
 5   0  0.7278657E-07  0.2999014E+04  0.7818609E-02  0.8244012E-01
        2   -1    0    0  501    0  0.00000000000E+00  0.00000000000E+00  0.12272411453E+04  0.12272411453E+04  0.25500000920E-02 0.  1.
       -2   -1    0    0    0  501  0.00000000000E+00  0.00000000000E+00 -0.18321760652E+04  0.18321760652E+04  0.25500000920E-02 0. -1.
    10030    2    1    2    0    0  0.00000000000E+00  0.00000000000E+00 -0.60493491997E+03  0.30594172105E+04  0.29990144065E+04 0.  0.
        2    1    3    3  502    0  0.50154513840E+03 -0.10675502622E+04  0.64209197801E+03  0.13429419929E+04  0.25500000920E-02 0.  1.
       -2    1    3    3    0  502 -0.50154513840E+03  0.10675502622E+04 -0.12470268980E+04  0.17164752176E+04  0.25500000920E-02 0. -1.
</event>
<event>
 5   0  0.2792361E-07  0.3004178E+04  0.7818609E-02  0.8242539E-01
        1   -1    0    0  501    0  0.00000000000E+00  0.00000000000E+00  0.25487699803E+04  0.25487699803E+04  0.50400001928E-02 0. -1.
       -1   -1    0    0    0  501  0.00000000000E+00  0.00000000000E+00 -0.88523953266E+03  0.88523953268E+03  0.50400001928E-02 0.  1.
    10030    2    1    2    0    0  0.00000000000E+00  0.00000000000E+00  0.16635304476E+04  0.34340095129E+04  0.30041783877E+04 0.  0.
        4    1    3    3  502    0  0.33831279583E+03 -0.14285158206E+03 -0.83313380212E+03  0.91048100883E+03  0.12699999809E+01 0.  1.
       -4    1    3    3    0  502 -0.33831279583E+03  0.14285158206E+03  0.24966642497E+04  0.25235285041E+04  0.12699999809E+01 0. -1.
</event>
<event>
 5   0  0.7399409E-07  0.2996877E+04  0.7818609E-02  0.8244623E-01
       -2   -1    0    0    0  501  0.00000000000E+00  0.00000000000E+00  0.88516405168E+03  0.88516405168E+03  0.25500000920E-02 0. -1.
        2   -1    0    0  501    0  0.00000000000E+00  0.00000000000E+00 -0.25366125377E+04  0.25366125377E+04  0.25500000920E-02 0.  1.
    10030    2    1    2    0    0  0.00000000000E+00  0.00000000000E+00 -0.16514484860E+04  0.34217765894E+04  0.29968771956E+04 0.  0.
        3    1    3    3  502    0  0.99875106760E+02  0.29196454041E+03  0.84849381651E+03  0.90286216925E+03  0.10100000352E+00 0. -1.
       -3    1    3    3    0  502 -0.99875106760E+02 -0.29196454041E+03 -0.24999423025E+04  0.25189144201E+04  0.10100000352E+00 0.  1.
</event>
<event>
 5   0  0.2414250E-07  0.2998314E+04  0.7818609E-02  0.8244213E-01
       -4   -1    0    0    0  501  0.00000000000E+00  0.00000000000E+00  0.11212187111E+04  0.11212194304E+04  0.12699999809E+01 0. -1.
        4   -1    0    0  501    0  0.00000000000E+00  0.00000000000E+00 -0.20044880340E+04  0.20044884364E+04  0.12699999809E+01 0.  1.
    10030    2    1    2    0    0  0.00000000000E+00  0.00000000000E+00 -0.88326932289E+03  0.31257078668E+04  0.29983136880E+04 0.  0.
        4    1    3    3  502    0  0.10515807458E+04 -0.14899777249E+03 -0.15446286137E+04  0.18745403618E+04  0.12699999809E+01 0.  1.
       -4    1    3    3    0  502 -0.10515807458E+04  0.14899777249E+03  0.66135929078E+03  0.12511675049E+04  0.12699999809E+01 0. -1.
</event>
<event>
 5   0  0.7278657E-07  0.2972666E+04  0.7818609E-02  0.8251579E-01
        2   -1    0    0  501    0  0.00000000000E+00  0.00000000000E+00  0.14230286053E+04  0.14230286053E+04  0.25500000920E-02 0.  1.
       -2   -1    0    0    0  501  0.00000000000E+00  0.00000000000E+00 -0.15524540156E+04  0.15524540156E+04  0.25500000920E-02 0. -1.
    10030    2    1    2    0    0  0.00000000000E+00  0.00000000000E+00 -0.12942541034E+03  0.29754826209E+04  0.29726664613E+04 0.  0.
        2    1    3    3  502    0 -0.14664183137E+04  0.20863357095E+02 -0.30653736377E+03  0.14982600261E+04  0.25500000920E-02 0.  1.
       -2    1    3    3    0  502  0.14664183137E+04 -0.20863357095E+02  0.17711195343E+03  0.14772225948E+04  0.25500000920E-02 0. -1.
</event>
<event>
 5   0  0.2621825E-07  0.3004439E+04  0.7818609E-02  0.8242464E-01
       -1   -1    0    0    0  501  0.00000000000E+00  0.00000000000E+00  0.14730320063E+04  0.14730320063E+04  0.50400001928E-02 0.  1.
        1   -1    0    0  501    0  0.00000000000E+00  0.00000000000E+00 -0.15319851445E+04  0.15319851445E+04  0.50400001928E-02 0. -1.
    10030    2    1    2    0    0  0.00000000000E+00  0.00000000000E+00 -0.58953138131E+02  0.30050171508E+04  0.30044388168E+04 0.  0.
        3    1    3    3  502    0  0.54628999106E+03 -0.34277029997E+02  0.13697407064E+04  0.14750583995E+04  0.10100000352E+00 0.  1.
       -3    1    3    3    0  502 -0.54628999106E+03  0.34277029997E+02 -0.14286938445E+04  0.15299587513E+04  0.10100000352E+00 0. -1.
</event>
<event>
 5   0  0.7278657E-07  0.2997763E+04  0.7818609E-02  0.8244370E-01
        2   -1    0    0  501    0  0.00000000000E+00  0.00000000000E+00  0.21091671337E+04  0.21091671337E+04  0.25500000920E-02 0. -1.
       -2   -1    0    0    0  501  0.00000000000E+00  0.00000000000E+00 -0.10651811390E+04  0.10651811390E+04  0.25500000920E-02 0.  1.
    10030    2    1    2    0    0  0.00000000000E+00  0.00000000000E+00  0.10439859947E+04  0.31743482727E+04  0.29977625322E+04 0.  0.
        2    1    3    3  502    0 -0.79224421933E+03  0.12670463423E+04  0.64542578427E+03  0.16277689577E+04  0.25500000920E-02 0. -1.
       -2    1    3    3    0  502  0.79224421933E+03 -0.12670463423E+04  0.39856021041E+03  0.15465793151E+04  0.25500000920E-02 0.  1.
</event>
<event>
 5   0  0.2602891E-07  0.3001788E+04  0.7818609E-02  0.8243220E-01
       -1   -1    0    0    0  501  0.00000000000E+00  0.00000000000E+00  0.90101267966E+03  0.90101267967E+03  0.50400001928E-02 0.  1.
        1   -1    0    0  501    0  0.00000000000E+00  0.00000000000E+00 -0.25001683850E+04  0.25001683851E+04  0.50400001928E-02 0. -1.
    10030    2    1    2    0    0  0.00000000000E+00  0.00000000000E+00 -0.15991557054E+04  0.34011810647E+04  0.30017884111E+04 0.  0.
        5    1    3    3  502    0  0.11033890934E+04 -0.41169292050E+03 -0.18538047209E+04  0.21962633234E+04  0.46999998093E+01 0. -1.
       -5    1    3    3    0  502 -0.11033890934E+04  0.41169292050E+03  0.25464901552E+03  0.12049177414E+04  0.46999998093E+01 0.  1.
</event>
<event>
 5   0  0.2792361E-07  0.3002190E+04  0.7818609E-02  0.8243106E-01
        1   -1    0    0  501    0  0.00000000000E+00  0.00000000000E+00  0.20059182306E+04  0.20059182306E+04  0.50400001928E-02 0. -1.
       -1   -1    0    0    0  501  0.00000000000E+00  0.00000000000E+00 -0.11233187803E+04  0.11233187803E+04  0.50400001928E-02 0.  1.
    10030    2    1    2    0    0  0.00000000000E+00  0.00000000000E+00  0.88259945036E+03  0.31292370109E+04  0.30021896144E+04 0.  0.
        4    1    3    3  502    0  0.12407676423E+04 -0.81958365436E+03  0.65506976674E+03  0.16249122194E+04  0.12699999809E+01 0. -1.
       -4    1    3    3    0  502 -0.12407676423E+04  0.81958365436E+03  0.22752968362E+03  0.15043247915E+04  0.12699999809E+01 0.  1.
</event>
<event>
 5   0  0.7399409E-07  0.2998360E+04  0.7818609E-02  0.8244199E-01
       -2   -1    0    0    0  501  0.00000000000E+00  0.00000000000E+00  0.10226223466E+04  0.10226223466E+04  0.25500000920E-02 0.  1.
        2   -1    0    0  501    0  0.00000000000E+00  0.00000000000E+00 -0.21978213075E+04  0.21978213075E+04  0.25500000920E-02 0. -1.
    10030    2    1    2    0    0  0.00000000000E+00  0.00000000000E+00 -0.11751989609E+04  0.32204436542E+04  0.29983603406E+04 0.  0.
        3    1    3    3  502    0  0.58497202255E+03 -0.23792327709E+02  0.89476368235E+03  0.10692803185E+04  0.10100000352E+00 0.  1.
       -3    1    3    3    0  502 -0.58497202255E+03  0.23792327709E+02 -0.20699626433E+04  0.21511633357E+04  0.10100000352E+00 0. -1.
</event>
<event>
 5   0  0.2621825E-07  0.3001545E+04  0.7818609E-02  0.8243290E-01
       -1   -1    0    0    0  501  0.00000000000E+00  0.00000000000E+00  0.12969903140E+04  0.12969903140E+04  0.50400001928E-02 0.  1.
        1   -1    0    0  501    0  0.00000000000E+00  0.00000000000E+00 -0.17365731620E+04  0.17365731620E+04  0.50400001928E-02 0. -1.
    10030    2    1    2    0    0  0.00000000000E+00  0.00000000000E+00 -0.43958284795E+03  0.30335634760E+04  0.30015453158E+04 0.  0.
        3    1    3    3  502    0  0.84836266269E+03  0.12074803385E+04  0.56234701397E+02  0.14767837781E+04  0.10100000352E+00 0.  1.
       -3    1    3    3    0  502 -0.84836266269E+03 -0.12074803385E+04 -0.49581754935E+03  0.15567796979E+04  0.10100000352E+00 0. -1.
</event>
<event>
 5   0  0.2679935E-07  0.2999207E+04  0.7818609E-02  0.8243957E-01
        1   -1    0    0  501    0  0.00000000000E+00  0.00000000000E+00  0.16788420907E+04  0.16788420907E+04  0.50400001928E-02 0. -1.
       -1   -1    0    0    0  501  0.00000000000E+00  0.00000000000E+00 -0.13395007966E+04  0.13395007966E+04  0.50400001928E-02 0.  1.
    10030    2    1    2    0    0  0.00000000000E+00  0.00000000000E+00  0.33934129407E+03  0.30183428873E+04  0.29992067737E+04 0.  0.
        2    1    3    3  502    0  0.10969135290E+03 -0.50447195297E+03  0.15865906854E+04  0.16684706013E+04  0.25500000920E-02 0. -1.
       -2    1    3    3    0  502 -0.10969135290E+03  0.50447195297E+03 -0.12472493914E+04  0.13498722860E+04  0.25500000920E-02 0.  1.
</event>
<event>
 5   0  0.2679935E-07  0.2999880E+04  0.7818609E-02  0.8243765E-01
       -1   -1    0    0    0  501  0.00000000000E+00  0.00000000000E+00  0.14978114797E+04  0.14978114797E+04  0.50400001928E-02 0. -1.
        1   -1    0    0  501    0  0.00000000000E+00  0.00000000000E+00 -0.15020711028E+04  0.15020711029E+04  0.50400001928E-02 0.  1.
    10030    2    1    2    0    0  0.00000000000E+00  0.00000000000E+00 -0.42596231715E+01  0.29998825825E+04  0.29998795583E+04 0.  0.
        2    1    3    3  502    0 -0.95662290784E+03  0.10386305973E+04 -0.50803390495E+03  0.15006596396E+04  0.25500000920E-02 0.  1.
       -2    1    3    3    0  502  0.95662290784E+03 -0.10386305973E+04  0.50377428178E+03  0.14992229429E+04  0.25500000920E-02 0. -1.
</event>
<event>
 5   0  0.7208273E-07  0.2992457E+04  0.7818609E-02  0.8245888E-01
       -2   -1    0    0    0  501  0.00000000000E+00  0.00000000000E+00  0.14814354985E+04  0.14814354985E+04  0.25500000920E-02 0.  1.
        2   -1    0    0  501    0  0.00000000000E+00  0.00000000000E+00 -0.15111696336E+04  0.15111696336E+04  0.25500000920E-02 0. -1.
    10030    2    1    2    0    0  0.00000000000E+00  0.00000000000E+00 -0.29734135157E+02  0.29926051321E+04  0.29924574112E+04 0.  0.
        4    1    3    3  502    0  0.12422257006E+04  0.50803532526E+03  0.64658386479E+03  0.14897304756E+04  0.12699999809E+01 0.  1.
       -4    1    3    3    0  502 -0.12422257006E+04 -0.50803532526E+03 -0.67631799995E+03  0.15028746564E+04  0.12699999809E+01 0. -1.
</event>
<event>
 5   0  0.2640081E-07  0.3015460E+04  0.7818609E-02  0.8239330E-01
       -1   -1    0    0    0  501  0.00000000000E+00  0.00000000000E+00  0.17721124919E+04  0.17721124919E+04  0.50400001928E-02 0. -1.
        1   -1    0    0  501    0  0.00000000000E+00  0.00000000000E+00 -0.12827911666E+04  0.12827911667E+04  0.50400001928E-02 0.  1.
    10030    2    1    2    0    0  0.00000000000E+00  0.00000000000E+00  0.48932132524E+03  0.30549036585E+04  0.30154603303E+04 0.  0.
        1    1    3    3  502    0 -0.12286342116E+04 -0.48733196070E+03  0.97955658033E+03  0.16451642957E+04  0.50400001928E-02 0. -1.
       -1    1    3    3    0  502  0.12286342116E+04  0.48733196070E+03 -0.49023525509E+03  0.14097393628E+04  0.50400001928E-02 0.  1.
</event>
<event>
 5   0  0.2640081E-07  0.3039714E+04  0.7818609E-02  0.8232480E-01
        1   -1    0    0  501    0  0.00000000000E+00  0.00000000000E+00  0.23429046747E+04  0.23429046747E+04  0.50400001928E-02 0. -1.
       -1   -1    0    0    0  501  0.00000000000E+00  0.00000000000E+00 -0.98594079660E+03  0.98594079661E+03  0.50400001928E-02 0.  1.
    10030    2    1    2    0    0  0.00000000000E+00  0.00000000000E+00  0.13569638781E+04  0.33288454714E+04  0.30397140006E+04 0.  0.
        1    1    3    3  502    0 -0.69257880317E+03 -0.46838537562E+03  0.20684257046E+04  0.22310166189E+04  0.50400001928E-02 0. -1.
       -1    1    3    3    0  502  0.69257880317E+03  0.46838537562E+03 -0.71146182642E+03  0.10978288524E+04  0.50400001928E-02 0.  1.
</event>
<event>
 5   0  0.7585823E-07  0.2994632E+04  0.7818609E-02  0.8245265E-01
       -2   -1    0    0    0  501  0.00000000000E+00  0.00000000000E+00  0.14499108037E+04  0.14499108037E+04  0.25500000920E-02 0.  1.
        2   -1    0    0  501    0  0.00000000000E+00  0.00000000000E+00 -0.15462715992E+04  0.15462715992E+04  0.25500000920E-02 0. -1.
    10030    2    1    2    0    0  0.00000000000E+00  0.00000000000E+00 -0.96360795503E+02  0.29961824029E+04  0.29946324630E+04 0.  0.
        5    1    3    3  502    0 -0.74940330848E+03  0.11606734732E+04  0.52932331733E+03  0.14795179940E+04  0.46999998093E+01 0.  1.
       -5    1    3    3    0  502  0.74940330848E+03 -0.11606734732E+04 -0.62568411283E+03  0.15166644089E+04  0.46999998093E+01 0. -1.
</event>
<event>
 5   0  0.7307508E-07  0.2998023E+04  0.7818609E-02  0.8244296E-01
        2   -1    0    0  501    0  0.00000000000E+00  0.00000000000E+00  0.15617230118E+04  0.15617230118E+04  0.25500000920E-02 0.  1.
       -2   -1    0    0    0  501  0.00000000000E+00  0.00000000000E+00 -0.14388178019E+04  0.14388178019E+04  0.25500000920E-02 0. -1.
    10030    2    1    2    0    0  0.00000000000E+00  0.00000000000E+00  0.12290520990E+03  0.30005408136E+04  0.29980225956E+04 0.  0.
        1    1    3    3  502    0  0.73967158457E+02 -0.19480205778E+03  0.15471576027E+04  0.15611263978E+04  0.50400001928E-02 0.  1.
       -1    1    3    3    0  502 -0.73967158457E+02  0.19480205778E+03 -0.14242523928E+04  0.14394144159E+04  0.50400001928E-02 0. -1.
</event>
<event>
 5   0  0.7307508E-07  0.2994008E+04  0.7818609E-02  0.8245444E-01
        2   -1    0    0  501    0  0.00000000000E+00  0.00000000000E+00  0.12814153779E+04  0.12814153779E+04  0.25500000920E-02 0.  1.
       -2   -1    0    0    0  501  0.00000000000E+00  0.00000000000E+00 -0.17488640647E+04  0.17488640647E+04  0.25500000920E-02 0. -1.
    10030    2    1    2    0    0  0.00000000000E+00  0.00000000000E+00 -0.46744868674E+03  0.30302794426E+04  0.29940082207E+04 0.  0.
        1    1    3    3  502    0 -0.53944871193E+03 -0.20886178477E+03  0.11637245219E+04  0.12995702832E+04  0.50400001928E-02 0.  1.
       -1    1    3    3    0  502  0.53944871193E+03  0.20886178477E+03 -0.16311732086E+04  0.17307091594E+04  0.50400001928E-02 0. -1.
</event>
<event>
 5   0  0.2621825E-07  0.3001972E+04  0.7818609E-02  0.8243168E-01
       -1   -1    0    0    0  501  0.00000000000E+00  0.00000000000E+00  0.16572096302E+04  0.16572096302E+04  0.50400001928E-02 0. -1.
        1   -1    0    0  501    0  0.00000000000E+00  0.00000000000E+00 -0.13594892510E+04  0.13594892510E+04  0.50400001928E-02 0.  1.
    10030    2    1    2    0    0  0.00000000000E+00  0.00000000000E+00  0.29772037922E+03  0.30166988812E+04  0.30019718046E+04 0.  0.
        3    1    3    3  502    0 -0.22911555103E+03 -0.95051039806E+03 -0.99558357357E+03  0.13954033878E+04  0.10100000352E+00 0.  1.
       -3    1    3    3    0  502  0.22911555103E+03  0.95051039806E+03  0.12933039528E+04  0.16212954934E+04  0.10100000352E+00 0. -1.
</event>
<event>
 5   0  0.7585823E-07  0.2990577E+04  0.7818609E-02  0.8246427E-01
       -2   -1    0    0    0  501  0.00000000000E+00  0.00000000000E+00  0.12708960998E+04  0.12708960998E+04  0.25500000920E-02 0.  1.
        2   -1    0    0  501    0  0.00000000000E+00  0.00000000000E+00 -0.17592997932E+04  0.17592997932E+04  0.25500000920E-02 0. -1.
    10030    2    1    2    0    0  0.00000000000E+00  0.00000000000E+00 -0.48840369338E+03  0.30301958930E+04  0.29905766973E+04 0.  0.
        5    1    3    3  502    0 -0.14299703136E+04 -0.42197308975E+03 -0.35967998131E+03  0.15337105872E+04  0.46999998093E+01 0. -1.
       -5    1    3    3    0  502  0.14299703136E+04  0.42197308975E+03 -0.12872371207E+03  0.14964853058E+04  0.46999998093E+01 0.  1.
</event>
<event>
 5   0  0.7278657E-07  0.3002064E+04  0.7818609E-02  0.8243142E-01
        2   -1    0    0  501    0  0.00000000000E+00  0.00000000000E+00  0.18091603010E+04  0.18091603010E+04  0.25500000920E-02 0. -1.
       -2   -1    0    0    0  501  0.00000000000E+00  0.00000000000E+00 -0.12453827212E+04  0.12453827212E+04  0.25500000920E-02 0.  1.
    10030    2    1    2    0    0  0.00000000000E+00  0.00000000000E+00  0.56377757980E+03  0.30545430223E+04  0.30020639426E+04 0.  0.
        2    1    3    3  502    0  0.15952241099E+03  0.30125178926E+03  0.17692556356E+04  0.18017950894E+04  0.25500000920E-02 0. -1.
       -2    1    3    3    0  502 -0.15952241099E+03 -0.30125178926E+03 -0.12054780558E+04  0.12527479328E+04  0.25500000920E-02 0.  1.
</event>
<event>
 5   0  0.2602891E-07  0.3013445E+04  0.7818609E-02  0.8239902E-01
        1   -1    0    0  501    0  0.00000000000E+00  0.00000000000E+00  0.10261582783E+04  0.10261582783E+04  0.50400001928E-02 0. -1.
       -1   -1    0    0    0  501  0.00000000000E+00  0.00000000000E+00 -0.22123410654E+04  0.22123410654E+04  0.50400001928E-02 0.  1.
    10030    2    1    2    0    0  0.00000000000E+00  0.00000000000E+00 -0.11861827871E+04  0.32384993437E+04  0.30134446062E+04 0.  0.
        5    1    3    3  502    0  0.76512184075E+02 -0.12710001327E+04 -0.14587918898E+04  0.19363345060E+04  0.46999998093E+01 0.  1.
       -5    1    3    3    0  502 -0.76512184075E+02  0.12710001327E+04  0.27260910267E+03  0.13021648377E+04  0.46999998093E+01 0. -1.
</event>
<event>
 5   0  0.7307508E-07  0.2936061E+04  0.7818609E-02  0.8262228E-01
        2   -1    0    0  501    0  0.00000000000E+00  0.00000000000E+00  0.15576017569E+04  0.15576017569E+04  0.25500000920E-02 0.  1.
       -2   -1    0    0    0  501  0.00000000000E+00  0.00000000000E+00 -0.13836105504E+04  0.13836105504E+04  0.25500000920E-02 0. -1.
    10030    2    1    2    0    0  0.00000000000E+00  0.00000000000E+00  0.17399120654E+03  0.29412123073E+04  0.29360614600E+04 0.  0.
        1    1    3    3  502    0  0.60121282864E+03 -0.41899718729E+03 -0.11872810871E+04  0.13952246729E+04  0.50400001928E-02 0. -1.
       -1    1    3    3    0  502 -0.60121282864E+03  0.41899718729E+03  0.13612722936E+04  0.15459876344E+04  0.50400001928E-02 0.  1.
</event>
<event>
 5   0  0.7208273E-07  0.2994284E+04  0.7818609E-02  0.8245365E-01
       -2   -1    0    0    0  501  0.00000000000E+00  0.00000000000E+00  0.15473934941E+04  0.15473934941E+04  0.25500000920E-02 0. -1.
        2   -1    0    0  501    0  0.00000000000E+00  0.00000000000E+00 -0.14485219398E+04  0.14485219398E+04  0.25500000920E-02 0.  1.
    10030    2    1    2    0    0  0.00000000000E+00  0.00000000000E+00  0.98871554293E+02  0.29959154339E+04  0.29942835041E+04 0.  0.
        4    1    3    3  502    0  0.10315710297E+04 -0.81760395689E+03  0.76313849534E+03  0.15215114182E+04  0.12699999809E+01 0.  1.
       -4    1    3    3    0  502 -0.10315710297E+04  0.81760395689E+03 -0.66426694105E+03  0.14744040157E+04  0.12699999809E+01 0. -1.
</event>
<event>
 5   0  0.7307508E-07  0.3003600E+04  0.7818609E-02  0.8242704E-01
       -2   -1    0    0    0  501  0.00000000000E+00  0.00000000000E+00  0.16660648816E+04  0.16660648816E+04  0.25500000920E-02 0. -1.
        2   -1    0    0  501    0  0.00000000000E+00  0.00000000000E+00 -0.13537306820E+04  0.13537306820E+04  0.25500000920E-02 0.  1.
    10030    2    1    2    0    0  0.00000000000E+00  0.00000000000E+00  0.31233419958E+03  0.30197955636E+04  0.30035999390E+04 0.  0.
        1    1    3    3  502    0 -0.21500975702E+03 -0.12340103127E+04 -0.67678824824E+03  0.14237461082E+04  0.50400001928E-02 0.  1.
       -1    1    3    3    0  502  0.21500975702E+03  0.12340103127E+04  0.98912244782E+03  0.15960494555E+04  0.50400001928E-02 0. -1.
</event>
<event>
 5   0  0.7278657E-07  0.2999462E+04  0.7818609E-02  0.8243884E-01
       -2   -1    0    0    0  501  0.00000000000E+00  0.00000000000E+00  0.20584507179E+04  0.20584507179E+04  0.25500000920E-02 0.  1.
        2   -1    0    0  501    0  0.00000000000E+00  0.00000000000E+00 -0.10926633179E+04  0.10926633179E+04  0.25500000920E-02 0. -1.
    10030    2    1    2    0    0  0.00000000000E+00  0.00000000000E+00  0.96578740008E+03  0.31511140358E+04  0.29994623459E+04 0.  0.
        2    1    3    3  502    0 -0.90270038190E+02  0.48543021678E+03  0.19706146293E+04  0.20315297666E+04  0.25500000920E-02 0.  1.
       -2    1    3    3    0  502  0.90270038190E+02 -0.48543021678E+03 -0.10048272293E+04  0.11195842692E+04  0.25500000920E-02 0. -1.
</event>
<event>
 5   0  0.2679935E-07  0.2959094E+04  0.7818609E-02  0.8255509E-01
       -1   -1    0    0    0  501  0.00000000000E+00  0.00000000000E+00  0.14555433082E+04  0.14555433082E+04  0.50400001928E-02 0.  1.
        1   -1    0    0  501    0  0.00000000000E+00  0.00000000000E+00 -0.15039462229E+04  0.15039462229E+04  0.50400001928E-02 0. -1.
    10030    2    1    2    0    0  0.00000000000E+00  0.00000000000E+00 -0.48402914704E+02  0.29594895312E+04  0.29590936861E+04 0.  0.
        2    1    3    3  502    0 -0.54039260756E+03  0.50701768198E+03  0.12565821133E+04  0.14587973497E+04  0.25500000920E-02 0.  1.
       -2    1    3    3    0  502  0.54039260756E+03 -0.50701768198E+03 -0.13049850280E+04  0.15006921814E+04  0.25500000920E-02 0. -1.
</event>
<event>
 5   0  0.2679935E-07  0.3001618E+04  0.7818609E-02  0.8243269E-01
       -1   -1    0    0    0  501  0.00000000000E+00  0.00000000000E+00  0.12010963266E+04  0.12010963267E+04  0.50400001928E-02 0. -1.
        1   -1    0    0  501    0  0.00000000000E+00  0.00000000000E+00 -0.18753097313E+04  0.18753097313E+04  0.50400001928E-02 0.  1.
    10030    2    1    2    0    0  0.00000000000E+00  0.00000000000E+00 -0.67421340469E+03  0.30764060580E+04  0.30016179835E+04 0.  0.
        2    1    3    3  502    0 -0.39782137770E+03  0.12339566476E+04  0.43771670022E+03  0.13683956907E+04  0.25500000920E-02 0. -1.
       -2    1    3    3    0  502  0.39782137770E+03 -0.12339566476E+04 -0.11119301049E+04  0.17080103673E+04  0.25500000920E-02 0.  1.
</event>
<event>
 5   0  0.7307508E-07  0.3000183E+04  0.7818609E-02  0.8243679E-01
       -2   -1    0    0    0  501  0.00000000000E+00  0.00000000000E+00  0.12733466246E+04  0.12733466246E+04  0.25500000920E-02 0. -1.
        2   -1    0    0  501    0  0.00000000000E+00  0.00000000000E+00 -0.17672126033E+04  0.17672126033E+04  0.25500000920E-02 0.  1.
    10030    2    1    2    0    0  0.00000000000E+00  0.00000000000E+00 -0.49386597864E+03  0.30405592279E+04  0.30001827967E+04 0.  0.
        1    1    3    3  502    0  0.10180880085E+04  0.89427825567E+03 -0.89905002181E+03  0.16262003977E+04  0.50400001928E-02 0.  1.
       -1    1    3    3    0  502 -0.10180880085E+04 -0.89427825567E+03  0.40518404317E+03  0.14143588302E+04  0.50400001928E-02 0. -1.
</event>
<event>
 5   0  0.2640081E-07  0.3002534E+04  0.7818609E-02  0.8243008E-01
        1   -1    0    0  501    0  0.00000000000E+00  0.00000000000E+00  0.10104506329E+04  0.10104506329E+04  0.50400001928E-02 0.  1.
       -1   -1    0    0    0  501  0.00000000000E+00  0.00000000000E+00 -0.22304932406E+04  0.22304932406E+04  0.50400001928E-02 0. -1.
    10030    2    1    2    0    0  0.00000000000E+00  0.00000000000E+00 -0.12200426077E+04  0.32409438735E+04  0.30025344672E+04 0.  0.
        1    1    3    3  502    0 -0.48701237402E+03  0.11546820801E+04 -0.15022973709E+04  0.19563663126E+04  0.50400001928E-02 0. -1.
       -1    1    3    3    0  502  0.48701237402E+03 -0.11546820801E+04  0.28225476317E+03  0.12845775609E+04  0.50400001928E-02 0.  1.
</event>
<event>
 5   0  0.2602891E-07  0.3008879E+04  0.7818609E-02  0.8241200E-01
        1   -1    0    0  501    0  0.00000000000E+00  0.00000000000E+00  0.21071794690E+04  0.21071794690E+04  0.50400001928E-02 0. -1.
       -1   -1    0    0    0  501  0.00000000000E+00  0.00000000000E+00 -0.10741080339E+04  0.10741080339E+04  0.50400001928E-02 0.  1.
    10030    2    1    2    0    0  0.00000000000E+00  0.00000000000E+00  0.10330714351E+04  0.31812875029E+04  0.30088791245E+04 0.  0.
        5    1    3    3  502    0 -0.13162859100E+04  0.97158344214E+01  0.12867068724E+04  0.18407443222E+04  0.46999998093E+01 0. -1.
       -5    1    3    3    0  502  0.13162859100E+04 -0.97158344214E+01 -0.25363543732E+03  0.13405431807E+04  0.46999998093E+01 0.  1.
</event>
<event>
 5   0  0.7307508E-07  0.3008832E+04  0.7818609E-02  0.8241213E-01
        2   -1    0    0  501    0  0.00000000000E+00  0.00000000000E+00  0.15880054908E+04  0.15880054908E+04  0.25500000920E-02 0. -1.
       -2   -1    0    0    0  501  0.00000000000E+00  0.00000000000E+00 -0.14252264374E+04  0.14252264374E+04  0.25500000920E-02 0.  1.
    10030    2    1    2    0    0  0.00000000000E+00  0.00000000000E+00  0.16277905343E+03  0.30132319282E+04  0.30088319383E+04 0.  0.
        1    1    3    3  502    0  0.32481211452E+03 -0.57655727906E+02  0.15513371616E+04  0.15860246158E+04  0.50400001928E-02 0. -1.
       -1    1    3    3    0  502 -0.32481211452E+03  0.57655727906E+02 -0.13885581082E+04  0.14272073124E+04  0.50400001928E-02 0.  1.
</event>
<event>
 5   0  0.2792361E-07  0.2994553E+04  0.7818609E-02  0.8245288E-01
       -1   -1    0    0    0  501  0.00000000000E+00  0.00000000000E+00  0.19418388676E+04  0.19418388676E+04  0.50400001928E-02 0.  1.
        1   -1    0    0  501    0  0.00000000000E+00  0.00000000000E+00 -0.11544916019E+04  0.11544916019E+04  0.50400001928E-02 0. -1.
    10030    2    1    2    0    0  0.00000000000E+00  0.00000000000E+00  0.78734726565E+03  0.30963304695E+04  0.29945528313E+04 0.  0.
        4    1    3    3  502    0 -0.23931838482E+03  0.13261288220E+04 -0.28115210100E+03  0.13765678547E+04  0.12699999809E+01 0. -1.
       -4    1    3    3    0  502  0.23931838482E+03 -0.13261288220E+04  0.10684993667E+04  0.17197626148E+04  0.12699999809E+01 0.  1.
</event>
<event>
 5   0  0.7278657E-07  0.3015383E+04  0.7818609E-02  0.8239352E-01
       -2   -1    0    0    0  501  0.00000000000E+00  0.00000000000E+00  0.14126546863E+04  0.14126546863E+04  0.25500000920E-02 0.  1.
        2   -1    0    0  501    0  0.00000000000E+00  0.00000000000E+00 -0.16091215373E+04  0.16091215373E+04  0.25500000920E-02 0. -1.
    10030    2    1    2    0    0  0.00000000000E+00  0.00000000000E+00 -0.19646685107E+03  0.30217762236E+04  0.30153826162E+04 0.  0.
        2    1    3    3  502    0  0.32943651138E+02 -0.17200104045E+03  0.14024274445E+04  0.14133196309E+04  0.25500000920E-02 0.  1.
       -2    1    3    3    0  502 -0.32943651138E+02  0.17200104045E+03 -0.15988942956E+04  0.16084565927E+04  0.25500000920E-02 0. -1.
</event>
<event>
 5   0  0.2640081E-07  0.3006436E+04  0.7818609E-02  0.8241895E-01
        1   -1    0    0  501    0  0.00000000000E+00  0.00000000000E+00  0.19549360720E+04  0.19549360720E+04  0.50400001928E-02 0. -1.
       -1   -1    0    0    0  501  0.00000000000E+00  0.00000000000E+00 -0.11558764086E+04  0.11558764087E+04  0.50400001928E-02 0.  1.
    10030    2    1    2    0    0  0.00000000000E+00  0.00000000000E+00  0.79905966332E+03  0.31108124806E+04  0.30064360868E+04 0.  0.
        1    1    3    3  502    0  0.69795419774E+03  0.12323372709E+04 -0.12181722732E+03  0.14214902913E+04  0.50400001928E-02 0.  1.
       -1    1    3    3    0  502 -0.69795419774E+03 -0.12323372709E+04  0.92087689063E+03  0.16893221893E+04  0.50400001928E-02 0. -1.
</event>
<event>
 5   0  0.2640081E-07  0.2999111E+04  0.7818609E-02  0.8243985E-01
        1   -1    0    0  501    0  0.00000000000E+00  0.00000000000E+00  0.14422054330E+04  0.14422054330E+04  0.50400001928E-02 0. -1.
       -1   -1    0    0    0  501  0.00000000000E+00  0.00000000000E+00 -0.15591863445E+04  0.15591863445E+04  0.50400001928E-02 0.  1.
    10030    2    1    2    0    0  0.00000000000E+00  0.00000000000E+00 -0.11698091152E+03  0.30013917775E+04  0.29991112131E+04 0.  0.
        1    1    3    3  502    0  0.55124984692E+03  0.12134702510E+04  0.62925884689E+03  0.14738904777E+04  0.50400001928E-02 0. -1.
       -1    1    3    3    0  502 -0.55124984692E+03 -0.12134702510E+04 -0.74623975842E+03  0.15275012998E+04  0.50400001928E-02 0.  1.
</event>
<event>
 5   0  0.7585823E-07  0.2999798E+04  0.7818609E-02  0.8243789E-01
       -2   -1    0    0    0  501  0.00000000000E+00  0.00000000000E+00  0.15685416734E+04  0.15685416734E+04  0.25500000920E-02 0.  1.
        2   -1    0    0  501    0  0.00000000000E+00  0.00000000000E+00 -0.14342598552E+04  0.14342598552E+04  0.25500000920E-02 0. -1.
    10030    2    1    2    0    0  0.00000000000E+00  0.00000000000E+00  0.13428181820E+03  0.30028015285E+04  0.29997975620E+04 0.  0.
        5    1    3    3  502    0  0.86043119766E+02 -0.76830800380E+03  0.13537192595E+04  0.15589350630E+04  0.46999998093E+01 0.  1.
       -5    1    3    3    0  502 -0.86043119766E+02  0.76830800380E+03 -0.12194374413E+04  0.14438664655E+04  0.46999998093E+01 0. -1.
</event>
<event>
 5   0  0.2621825E-07  0.2996910E+04  0.7818609E-02  0.8244614E-01
        1   -1    0    0  501    0  0.00000000000E+00  0.00000000000E+00  0.25978207770E+04  0.25978207770E+04  0.50400001928E-02 0.  1.
       -1   -1    0    0    0  501  0.00000000000E+00  0.00000000000E+00 -0.86432740677E+03  0.86432740679E+03  0.50400001928E-02 0. -1.
    10030    2    1    2    0    0  0.00000000000E+00  0.00000000000E+00  0.17334933702E+04  0.34621481837E+04  0.29969102058E+04 0.  0.
        3    1    3    3  502    0  0.10458226529E+04 -0.50421703370E+03 -0.22761785728E+03  0.11831271011E+04  0.10100000352E+00 0. -1.
       -3    1    3    3    0  502 -0.10458226529E+04  0.50421703370E+03  0.19611112275E+04  0.22790210826E+04  0.10100000352E+00 0.  1.
</event>
<event>
 5   0  0.2602891E-07  0.2997856E+04  0.7818609E-02  0.8244343E-01
        1   -1    0    0  501    0  0.00000000000E+00  0.00000000000E+00  0.28452423211E+04  0.28452423211E+04  0.50400001928E-02 0.  1.
       -1   -1    0    0    0  501  0.00000000000E+00  0.00000000000E+00 -0.78966388035E+03  0.78966388036E+03  0.50400001928E-02 0. -1.
    10030    2    1    2    0    0  0.00000000000E+00  0.00000000000E+00  0.20555784408E+04  0.36349062015E+04  0.29978559617E+04 0.  0.
        5    1    3    3  502    0 -0.10794960930E+04 -0.94970883946E+02 -0.22785693457E+03  0.11073717335E+04  0.46999998093E+01 0. -1.
       -5    1    3    3    0  502  0.10794960930E+04  0.94970883946E+02  0.22834353753E+04  0.25275344680E+04  0.46999998093E+01 0.  1.
</event>
<event>
 5   0  0.7278657E-07  0.2998693E+04  0.7818609E-02  0.8244104E-01
        2   -1    0    0  501    0  0.00000000000E+00  0.00000000000E+00  0.23262608770E+04  0.23262608770E+04  0.25500000920E-02 0.  1.
       -2   -1    0    0    0  501  0.00000000000E+00  0.00000000000E+00 -0.96637489558E+03  0.96637489558E+03  0.25500000920E-02 0. -1.
    10030    2    1    2    0    0  0.00000000000E+00  0.00000000000E+00  0.13598859814E+04  0.32926357726E+04  0.29986931234E+04 0.  0.
        2    1    3    3  502    0  0.18662889438E+02 -0.13432776930E+03 -0.95962642115E+03  0.96916207170E+03  0.25500000920E-02 0. -1.
       -2    1    3    3    0  502 -0.18662889438E+02  0.13432776930E+03  0.23195124026E+04  0.23234737009E+04  0.25500000920E-02 0.  1.
</event>
<event>
 5   0  0.7208273E-07  0.3003518E+04  0.7818609E-02  0.8242727E-01
        2   -1    0    0  501    0  0.00000000000E+00  0.00000000000E+00  0.10840687934E+04  0.10840687934E+04  0.25500000920E-02 0. -1.
       -2   -1    0    0    0  501  0.00000000000E+00  0.00000000000E+00 -0.20803846954E+04  0.20803846954E+04  0.25500000920E-02 0.  1.
    10030    2    1    2    0    0  0.00000000000E+00  0.00000000000E+00 -0.99631590206E+03  0.31644534888E+04  0.30035180216E+04 0.  0.
        4    1    3    3  502    0 -0.10657353916E+04  0.97017502782E+03 -0.94297312527E+03  0.17222750760E+04  0.12699999809E+01 0. -1.
       -4    1    3    3    0  502  0.10657353916E+04 -0.97017502782E+03 -0.53342776796E+02  0.14421784128E+04  0.12699999809E+01 0.  1.
</event>
<event>
 5   0  0.2621825E-07  0.2997089E+04  0.7818609E-02  0.8244563E-01
        1   -1    0    0  501    0  0.00000000000E+00  0.00000000000E+00  0.27660417402E+04  0.27660417402E+04  0.50400001928E-02 0.  1.
       -1   -1    0    0    0  501  0.00000000000E+00  0.00000000000E+00 -0.81185870813E+03  0.81185870814E+03  0.50400001928E-02 0. -1.
    10030    2    1    2    0    0  0.00000000000E+00  0.00000000000E+00  0.19541830321E+04  0.35779004483E+04  0.29970886366E+04 0.  0.
        3    1    3    3  502    0 -0.30652176690E+03 -0.11575853533E+04  0.20526150460E+04  0.23763812785E+04  0.10100000352E+00 0.  1.
       -3    1    3    3    0  502  0.30652176690E+03  0.11575853533E+04 -0.98432013892E+02  0.12015191698E+04  0.10100000352E+00 0. -1.
</event>
<event>
 5   0  0.7278657E-07  0.2994317E+04  0.7818609E-02  0.8245355E-01
       -2   -1    0    0    0  501  0.00000000000E+00  0.00000000000E+00  0.97559319870E+03  0.97559319870E+03  0.25500000920E-02 0.  1.
        2   -1    0    0  501    0  0.00000000000E+00  0.00000000000E+00 -0.22975600072E+04  0.22975600072E+04  0.25500000920E-02 0. -1.
    10030    2    1    2    0    0  0.00000000000E+00  0.00000000000E+00 -0.13219668085E+04  0.32731532059E+04  0.29943172288E+04 0.  0.
        2    1    3    3  502    0 -0.14053028041E+04 -0.31045024196E+03 -0.20997485007E+03  0.14544224838E+04  0.25500000920E-02 0.  1.
       -2    1    3    3    0  502  0.14053028041E+04  0.31045024196E+03 -0.11119919585E+04  0.18187307221E+04  0.25500000920E-02 0. -1.
</event>
<event>
 5   0  0.7208273E-07  0.2999422E+04  0.7818609E-02  0.8243896E-01
       -2   -1    0    0    0  501  0.00000000000E+00  0.00000000000E+00  0.10243997757E+04  0.10243997757E+04  0.25500000920E-02 0.  1.
        2   -1    0    0  501    0  0.00000000000E+00  0.00000000000E+00 -0.21955623914E+04  0.21955623914E+04  0.25500000920E-02 0. -1.
    10030    2    1    2    0    0  0.00000000000E+00  0.00000000000E+00 -0.11711626157E+04  0.32199621671E+04  0.29994223586E+04 0.  0.
        4    1    3    3  502    0 -0.50054714903E+02 -0.14938137586E+04 -0.45345895684E+03  0.15619256251E+04  0.12699999809E+01 0.  1.
       -4    1    3    3    0  502  0.50054714903E+02  0.14938137586E+04 -0.71770365884E+03  0.16580365420E+04  0.12699999809E+01 0. -1.
</event>
<event>
 5   0  0.7399409E-07  0.3003784E+04  0.7818609E-02  0.8242651E-01
        2   -1    0    0  501    0  0.00000000000E+00  0.00000000000E+00  0.18800884814E+04  0.18800884814E+04  0.25500000920E-02 0. -1.
       -2   -1    0    0    0  501  0.00000000000E+00  0.00000000000E+00 -0.11997733072E+04  0.11997733072E+04  0.25500000920E-02 0.  1.
    10030    2    1    2    0    0  0.00000000000E+00  0.00000000000E+00  0.68031517419E+03  0.30798617886E+04  0.30037842634E+04 0.  0.
        3    1    3    3  502    0  0.90876765947E+03 -0.26624932719E+03  0.15354150082E+04  0.18039530539E+04  0.10100000352E+00 0. -1.
       -3    1    3    3    0  502 -0.90876765947E+03  0.26624932719E+03 -0.85509983398E+03  0.12759087347E+04  0.10100000352E+00 0.  1.
</event>
<event>
 5   0  0.2602891E-07  0.2996907E+04  0.7818609E-02  0.8244615E-01
        1   -1    0    0  501    0  0.00000000000E+00  0.00000000000E+00  0.20737498010E+04  0.20737498010E+04  0.50400001928E-02 0.  1.
       -1   -1    0    0    0  501  0.00000000000E+00  0.00000000000E+00 -0.10827550374E+04  0.10827550374E+04  0.50400001928E-02 0. -1.
    10030    2    1    2    0    0  0.00000000000E+00  0.00000000000E+00  0.99099476364E+03  0.31565048384E+04  0.29969071012E+04 0.  0.
        5    1    3    3  502    0 -0.18131226018E+02 -0.14884952331E+04  0.31491987482E+03  0.15215595348E+04  0.46999998093E+01 0. -1.
       -5    1    3    3    0  502  0.18131226018E+02  0.14884952331E+04  0.67607488882E+03  0.16349453036E+04  0.46999998093E+01 0.  1.
</event>
<event>
 5   0  0.7278657E-07  0.3073393E+04  0.7818609E-02  0.8223078E-01
       -2   -1    0    0    0  501  0.00000000000E+00  0.00000000000E+00  0.11660868238E+04  0.11660868238E+04  0.25500000920E-02 0. -1.
        2   -1    0    0  501    0  0.00000000000E+00  0.00000000000E+00 -0.20250942064E+04  0.20250942064E+04  0.25500000920E-02 0.  1.
    10030    2    1    2    0    0  0.00000000000E+00  0.00000000000E+00 -0.85900738255E+03  0.31911810302E+04  0.30733926993E+04 0.  0.
        2    1    3    3  502    0  0.81400752722E+03  0.86765771220E+03  0.58039633450E+03  0.13237439575E+04  0.25500000920E-02 0. -1.
       -2    1    3    3    0  502 -0.81400752722E+03 -0.86765771220E+03 -0.14394037171E+04  0.18674370727E+04  0.25500000920E-02 0.  1.
</event>
<event>
 5   0  0.2414250E-07  0.2996931E+04  0.7818609E-02  0.8244608E-01
        3   -1    0    0  501    0  0.00000000000E+00  0.00000000000E+00  0.18287619159E+04  0.18287619187E+04  0.10100000352E+00 0. -1.
       -3   -1    0    0    0  501  0.00000000000E+00  0.00000000000E+00 -0.12278245372E+04  0.12278245413E+04  0.10100000352E+00 0.  1.
    10030    2    1    2    0    0  0.00000000000E+00  0.00000000000E+00  0.60093737879E+03  0.30565864600E+04  0.29969309392E+04 0.  0.
        1    1    3    3  502    0  0.53964463511E+03 -0.13892420144E+04  0.45909287898E+03  0.15594793934E+04  0.50400001928E-02 0. -1.
       -1    1    3    3    0  502 -0.53964463511E+03  0.13892420144E+04  0.14184449981E+03  0.14971070666E+04  0.50400001928E-02 0.  1.
</event>
<event>
 5   0  0.2792361E-07  0.3007276E+04  0.7818609E-02  0.8241656E-01
        1   -1    0    0  501    0  0.00000000000E+00  0.00000000000E+00  0.15420255863E+04  0.15420255863E+04  0.50400001928E-02 0.  1.
       -1   -1    0    0    0  501  0.00000000000E+00  0.00000000000E+00 -0.14662061634E+04  0.14662061634E+04  0.50400001928E-02 0. -1.
    10030    2    1    2    0    0  0.00000000000E+00  0.00000000000E+00  0.75819422929E+02  0.30082317498E+04  0.30072761222E+04 0.  0.
        4    1    3    3  502    0  0.59483446313E+03 -0.13480587901E+04 -0.26191085001E+03  0.14965592024E+04  0.12699999809E+01 0. -1.
       -4    1    3    3    0  502 -0.59483446313E+03  0.13480587901E+04  0.33773027294E+03  0.15116725473E+04  0.12699999809E+01 0.  1.
</event>
<event>
 5   0  0.7278657E-07  0.2995919E+04  0.7818609E-02  0.8244897E-01
        2   -1    0    0  501    0  0.00000000000E+00  0.00000000000E+00  0.15574349584E+04  0.15574349584E+04  0.25500000920E-02 0.  1.
       -2   -1    0    0    0  501  0.00000000000E+00  0.00000000000E+00 -0.14407556790E+04  0.14407556790E+04  0.25500000920E-02 0. -1.
    10030    2    1    2    0    0  0.00000000000E+00  0.00000000000E+00  0.11667927939E+03  0.29981906373E+04  0.29959193987E+04 0.  0.
        2    1    3    3  502    0 -0.51026217496E+01 -0.12263560385E+04  0.91917085462E+03  0.15325959122E+04  0.25500000920E-02 0.  1.
       -2    1    3    3    0  502  0.51026217496E+01  0.12263560385E+04 -0.80249157524E+03  0.14655947251E+04  0.25500000920E-02 0. -1.
</event>
<event>
 5   0  0.2602891E-07  0.2994314E+04  0.7818609E-02  0.8245356E-01
       -1   -1    0    0    0  501  0.00000000000E+00  0.00000000000E+00  0.12521064877E+04  0.12521064877E+04  0.50400001928E-02 0.  1.
        1   -1    0    0  501    0  0.00000000000E+00  0.00000000000E+00 -0.17901670723E+04  0.17901670723E+04  0.50400001928E-02 0. -1.
    10030    2    1    2    0    0  0.00000000000E+00  0.00000000000E+00 -0.53806058465E+03  0.30422735600E+04  0.29943144827E+04 0.  0.
        5    1    3    3  502    0  0.44989701641E+03  0.92689108305E+03 -0.13726710804E+04  0.17163281709E+04  0.46999998093E+01 0. -1.
       -5    1    3    3    0  502 -0.44989701641E+03 -0.92689108305E+03  0.83461049578E+03  0.13259453891E+04  0.46999998093E+01 0.  1.
</event>
<event>
 5   0  0.2602891E-07  0.3003786E+04  0.7818609E-02  0.8242651E-01
       -1   -1    0    0    0  501  0.00000000000E+00  0.00000000000E+00  0.86324949500E+03  0.86324949502E+03  0.50400001928E-02 0.  1.
        1   -1    0    0  501    0  0.00000000000E+00  0.00000000000E+00 -0.26130129906E+04  0.26130129907E+04  0.50400001928E-02 0. -1.
    10030    2    1    2    0    0  0.00000000000E+00  0.00000000000E+00 -0.17497634956E+04  0.34762624857E+04  0.30037857078E+04 0.  0.
        5    1    3    3  502    0 -0.64053321234E+02 -0.48218432000E+03 -0.25193206588E+04  0.25658533119E+04  0.46999998093E+01 0. -1.
       -5    1    3    3    0  502  0.64053321234E+02  0.48218432000E+03  0.76955716312E+03  0.91040917379E+03  0.46999998093E+01 0.  1.
</event>
<event>
 5   0  0.2621825E-07  0.3001370E+04  0.7818609E-02  0.8243340E-01
        1   -1    0    0  501    0  0.00000000000E+00  0.00000000000E+00  0.15979296401E+04  0.15979296401E+04  0.50400001928E-02 0.  1.
       -1   -1    0    0    0  501  0.00000000000E+00  0.00000000000E+00 -0.14093587701E+04  0.14093587701E+04  0.50400001928E-02 0. -1.
    10030    2    1    2    0    0  0.00000000000E+00  0.00000000000E+00  0.18857087000E+03  0.30072884102E+04  0.30013704551E+04 0.  0.
        3    1    3    3  502    0  0.44429035002E+03  0.82531589419E+03 -0.10799963473E+04  0.14300113149E+04  0.10100000352E+00 0. -1.
       -3    1    3    3    0  502 -0.44429035002E+03 -0.82531589419E+03  0.12685672173E+04  0.15772770953E+04  0.10100000352E+00 0.  1.
</event>
<event>
 5   0  0.2679935E-07  0.2980014E+04  0.7818609E-02  0.8249461E-01
       -1   -1    0    0    0  501  0.00000000000E+00  0.00000000000E+00  0.86976755873E+03  0.86976755874E+03  0.50400001928E-02 0. -1.
        1   -1    0    0  501    0  0.00000000000E+00  0.00000000000E+00 -0.25525446321E+04  0.25525446322E+04  0.50400001928E-02 0.  1.
    10030    2    1    2    0    0  0.00000000000E+00  0.00000000000E+00 -0.16827770734E+04  0.34223121909E+04  0.29800137673E+04 0.  0.
        2    1    3    3  502    0 -0.11639848818E+03 -0.96014841040E+03 -0.21430558751E+04  0.23511958791E+04  0.25500000920E-02 0.  1.
       -2    1    3    3    0  502  0.11639848818E+03  0.96014841040E+03  0.46027880171E+03  0.10711163118E+04  0.25500000920E-02 0. -1.
</event>
<event>
 5   0  0.7585823E-07  0.2998726E+04  0.7818609E-02  0.8244095E-01
       -2   -1    0    0    0  501  0.00000000000E+00  0.00000000000E+00  0.13058971580E+04  0.13058971580E+04  0.25500000920E-02 0.  1.
        2   -1    0    0  501    0  0.00000000000E+00  0.00000000000E+00 -0.17214904621E+04  0.17214904621E+04  0.25500000920E-02 0. -1.
    10030    2    1    2    0    0  0.00000000000E+00  0.00000000000E+00 -0.41559330405E+03  0.30273876201E+04  0.29987260642E+04 0.  0.
        5    1    3    3  502    0 -0.68933843506E+03 -0.20590603510E+03 -0.15358479770E+04  0.16960058584E+04  0.46999998093E+01 0. -1.
       -5    1    3    3    0  502  0.68933843506E+03  0.20590603510E+03  0.11202546729E+04  0.13313817617E+04  0.46999998093E+01 0.  1.
</event>
<event>
 5   0  0.2792361E-07  0.3014559E+04  0.7818609E-02  0.8239586E-01
        1   -1    0    0  501    0  0.00000000000E+00  0.00000000000E+00  0.27947735899E+04  0.27947735899E+04  0.50400001928E-02 0.  1.
       -1   -1    0    0    0  501  0.00000000000E+00  0.00000000000E+00 -0.81290740000E+03  0.81290740002E+03  0.50400001928E-02 0. -1.
    10030    2    1    2    0    0  0.00000000000E+00  0.00000000000E+00  0.19818661899E+04  0.36076809899E+04  0.30145594256E+04 0.  0.
        4    1    3    3  502    0 -0.12162962001E+04  0.71423502612E+03  0.35498291931E+03  0.14544836214E+04  0.12699999809E+01 0. -1.
       -4    1    3    3    0  502  0.12162962001E+04 -0.71423502612E+03  0.16268832706E+04  0.21531973685E+04  0.12699999809E+01 0.  1.
</event>
<event>
 5   0  0.2602891E-07  0.3000570E+04  0.7818609E-02  0.8243568E-01
        1   -1    0    0  501    0  0.00000000000E+00  0.00000000000E+00  0.16993446375E+04  0.16993446375E+04  0.50400001928E-02 0.  1.
       -1   -1    0    0    0  501  0.00000000000E+00  0.00000000000E+00 -0.13245433406E+04  0.13245433406E+04  0.50400001928E-02 0. -1.
    10030    2    1    2    0    0  0.00000000000E+00  0.00000000000E+00  0.37480129694E+03  0.30238879781E+04  0.30005703611E+04 0.  0.
        5    1    3    3  502    0 -0.92508754463E+03 -0.68008201158E+03  0.11605835268E+04  0.16325669115E+04  0.46999998093E+01 0.  1.
       -5    1    3    3    0  502  0.92508754463E+03  0.68008201158E+03 -0.78578222990E+03  0.13913210667E+04  0.46999998093E+01 0. -1.
</event>
<event>
 5   0  0.7278657E-07  0.3000621E+04  0.7818609E-02  0.8243554E-01
        2   -1    0    0  501    0  0.00000000000E+00  0.00000000000E+00  0.12118657030E+04  0.12118657030E+04  0.25500000920E-02 0.  1.
       -2   -1    0    0    0  501  0.00000000000E+00  0.00000000000E+00 -0.18574098344E+04  0.18574098344E+04  0.25500000920E-02 0. -1.
    10030    2    1    2    0    0  0.00000000000E+00  0.00000000000E+00 -0.64554413147E+03  0.30692755374E+04  0.30006207855E+04 0.  0.
        2    1    3    3  502    0  0.82826035944E+03  0.11805742004E+04 -0.74595356830E+03  0.16236432464E+04  0.25500000920E-02 0. -1.
       -2    1    3    3    0  502 -0.82826035944E+03 -0.11805742004E+04  0.10040943683E+03  0.14456322909E+04  0.25500000920E-02 0.  1.
</event>
<event>
 5   0  0.2679935E-07  0.3004977E+04  0.7818609E-02  0.8242311E-01
        1   -1    0    0  501    0  0.00000000000E+00  0.00000000000E+00  0.16636062893E+04  0.16636062893E+04  0.50400001928E-02 0.  1.
       -1   -1    0    0    0  501  0.00000000000E+00  0.00000000000E+00 -0.13569745624E+04  0.13569745624E+04  0.50400001928E-02 0. -1.
    10030    2    1    2    0    0  0.00000000000E+00  0.00000000000E+00  0.30663172692E+03  0.30205808517E+04  0.30049768161E+04 0.  0.
        2    1    3    3  502    0  0.68873309754E+03  0.89889525737E+03  0.11459178312E+04  0.16110535805E+04  0.25500000920E-02 0.  1.
       -2    1    3    3    0  502 -0.68873309754E+03 -0.89889525737E+03 -0.83928610426E+03  0.14095272712E+04  0.25500000920E-02 0. -1.
</event>
<event>
 5   0  0.7585823E-07  0.3002733E+04  0.7818609E-02  0.8242951E-01
       -2   -1    0    0    0  501  0.00000000000E+00  0.00000000000E+00  0.82503476695E+03  0.82503476696E+03  0.25500000920E-02 0. -1.
        2   -1    0    0  501    0  0.00000000000E+00  0.00000000000E+00 -0.27321296730E+04  0.27321296730E+04  0.25500000920E-02 0.  1.
    10030    2    1    2    0    0  0.00000000000E+00  0.00000000000E+00 -0.19070949061E+04  0.35571644400E+04  0.30027334001E+04 0.  0.
        5    1    3    3  502    0 -0.47216893388E+03  0.15265282196E+03 -0.26321621241E+04  0.26785342864E+04  0.46999998093E+01 0.  1.
       -5    1    3    3    0  502  0.47216893388E+03 -0.15265282196E+03  0.72506721798E+03  0.87863015357E+03  0.46999998093E+01 0. -1.
</event>
<event>
 5   0  0.2640081E-07  0.2991940E+04  0.7818609E-02  0.8246036E-01
        1   -1    0    0  501    0  0.00000000000E+00  0.00000000000E+00  0.20146250543E+04  0.20146250543E+04  0.50400001928E-02 0. -1.
       -1   -1    0    0    0  501  0.00000000000E+00  0.00000000000E+00 -0.11108402537E+04  0.11108402537E+04  0.50400001928E-02 0.  1.
    10030    2    1    2    0    0  0.00000000000E+00  0.00000000000E+00  0.90378480063E+03  0.31254653081E+04  0.29919402444E+04 0.  0.
        1    1    3    3  502    0  0.92858926319E+03 -0.11728371363E+04  0.46242391919E+03  0.15657780331E+04  0.50400001928E-02 0. -1.
       -1    1    3    3    0  502 -0.92858926319E+03  0.11728371363E+04  0.44136088143E+03  0.15596872749E+04  0.50400001928E-02 0.  1.
</event>
<event>
 5   0  0.7399409E-07  0.3001949E+04  0.7818609E-02  0.8243174E-01
       -2   -1    0    0    0  501  0.00000000000E+00  0.00000000000E+00  0.17872053581E+04  0.17872053581E+04  0.25500000920E-02 0.  1.
        2   -1    0    0  501    0  0.00000000000E+00  0.00000000000E+00 -0.12605853378E+04  0.12605853378E+04  0.25500000920E-02 0. -1.
    10030    2    1    2    0    0  0.00000000000E+00  0.00000000000E+00  0.52662002029E+03  0.30477906958E+04  0.30019492800E+04 0.  0.
        3    1    3    3  502    0 -0.88881111015E+03  0.67956227205E+03  0.12791564553E+04  0.16994208774E+04  0.10100000352E+00 0. -1.
       -3    1    3    3    0  502  0.88881111015E+03 -0.67956227205E+03 -0.75253643502E+03  0.13483698185E+04  0.10100000352E+00 0.  1.
</event>
<event>
 5   0  0.7585823E-07  0.2994544E+04  0.7818609E-02  0.8245291E-01
        2   -1    0    0  501    0  0.00000000000E+00  0.00000000000E+00  0.14888070468E+04  0.14888070469E+04  0.25500000920E-02 0.  1.
       -2   -1    0    0    0  501  0.00000000000E+00  0.00000000000E+00 -0.15057853354E+04  0.15057853354E+04  0.25500000920E-02 0. -1.
    10030    2    1    2    0    0  0.00000000000E+00  0.00000000000E+00 -0.16978288562E+02  0.29945923823E+04  0.29945442514E+04 0.  0.
        5    1    3    3  502    0  0.80428344471E+03  0.84877860917E+03  0.92667546871E+03  0.14919941358E+04  0.46999998093E+01 0.  1.
       -5    1    3    3    0  502 -0.80428344471E+03 -0.84877860917E+03 -0.94365375727E+03  0.15025982465E+04  0.46999998093E+01 0. -1.
</event>
<event>
 5   0  0.2640081E-07  0.3043678E+04  0.7818609E-02  0.8231367E-01
        1   -1    0    0  501    0  0.00000000000E+00  0.00000000000E+00  0.15181441301E+04  0.15181441301E+04  0.50400001928E-02 0.  1.
       -1   -1    0    0    0  501  0.00000000000E+00  0.00000000000E+00 -0.15255429396E+04  0.15255429396E+04  0.50400001928E-02 0. -1.
    10030    2    1    2    0    0  0.00000000000E+00  0.00000000000E+00 -0.73988095398E+01  0.30436870697E+04  0.30436780769E+04 0.  0.
        1    1    3    3  502    0 -0.38156192675E+03  0.12667680252E+04 -0.75583414546E+03  0.15236718771E+04  0.50400001928E-02 0. -1.
       -1    1    3    3    0  502  0.38156192675E+03 -0.12667680252E+04  0.74843533592E+03  0.15200151926E+04  0.50400001928E-02 0.  1.
</event>
<event>
 5   0  0.7278657E-07  0.3014750E+04  0.7818609E-02  0.8239531E-01
       -2   -1    0    0    0  501  0.00000000000E+00  0.00000000000E+00  0.93441578635E+03  0.93441578635E+03  0.25500000920E-02 0. -1.
        2   -1    0    0  501    0  0.00000000000E+00  0.00000000000E+00 -0.24316579013E+04  0.24316579013E+04  0.25500000920E-02 0.  1.
    10030    2    1    2    0    0  0.00000000000E+00  0.00000000000E+00 -0.14972421149E+04  0.33660736876E+04  0.30147500924E+04 0.  0.
        2    1    3    3  502    0  0.62436596187E+03 -0.29315197894E+02 -0.22801420246E+04  0.23642630749E+04  0.25500000920E-02 0.  1.
       -2    1    3    3    0  502 -0.62436596187E+03  0.29315197894E+02  0.78289990966E+03  0.10018106127E+04  0.25500000920E-02 0. -1.
</event>
<event>
 5   0  0.7585823E-07  0.2999795E+04  0.7818609E-02  0.8243789E-01
       -2   -1    0    0    0  501  0.00000000000E+00  0.00000000000E+00  0.87336723575E+03  0.87336723576E+03  0.25500000920E-02 0.  1.
        2   -1    0    0  501    0  0.00000000000E+00  0.00000000000E+00 -0.25758839497E+04  0.25758839497E+04  0.25500000920E-02 0. -1.
    10030    2    1    2    0    0  0.00000000000E+00  0.00000000000E+00 -0.17025167140E+04  0.34492511855E+04  0.29997950895E+04 0.  0.
        5    1    3    3  502    0  0.14921555068E+04 -0.15186611845E+03 -0.86148991456E+03  0.17296757897E+04  0.46999998093E+01 0.  1.
       -5    1    3    3    0  502 -0.14921555068E+04  0.15186611845E+03 -0.84102679942E+03  0.17195753958E+04  0.46999998093E+01 0. -1.
</event>
<event>
 5   0  0.2679935E-07  0.3010978E+04  0.7818609E-02  0.8240603E-01
       -1   -1    0    0    0  501  0.00000000000E+00  0.00000000000E+00  0.13245392474E+04  0.13245392474E+04  0.50400001928E-02 0. -1.
        1   -1    0    0  501    0  0.00000000000E+00  0.00000000000E+00 -0.17111592737E+04  0.17111592737E+04  0.50400001928E-02 0.  1.
    10030    2    1    2    0    0  0.00000000000E+00  0.00000000000E+00 -0.38662002631E+03  0.30356985210E+04  0.30109783237E+04 0.  0.
        2    1    3    3  502    0 -0.35709487487E+02 -0.10097055237E+04  0.93197035270E+03  0.13745359764E+04  0.25500000920E-02 0. -1.
       -2    1    3    3    0  502  0.35709487487E+02  0.10097055237E+04 -0.13185903790E+04  0.16611625446E+04  0.25500000920E-02 0.  1.
</event>
<event>
 5   0  0.7585823E-07  0.2994358E+04  0.7818609E-02  0.8245344E-01
       -2   -1    0    0    0  501  0.00000000000E+00  0.00000000000E+00  0.11450788205E+04  0.11450788205E+04  0.25500000920E-02 0.  1.
        2   -1    0    0  501    0  0.00000000000E+00  0.00000000000E+00 -0.19575458312E+04  0.19575458312E+04  0.25500000920E-02 0. -1.
    10030    2    1    2    0    0  0.00000000000E+00  0.00000000000E+00 -0.81246701071E+03  0.31026246518E+04  0.29943575415E+04 0.  0.
        5    1    3    3  502    0  0.10287545998E+03  0.11313753645E+04 -0.14166479328E+04  0.18159039158E+04  0.46999998093E+01 0. -1.
       -5    1    3    3    0  502 -0.10287545998E+03 -0.11313753645E+04  0.60418092213E+03  0.12867207360E+04  0.46999998093E+01 0.  1.
</event>
<event>
 5   0  0.2792361E-07  0.2998946E+04  0.7818609E-02  0.8244032E-01
        1   -1    0    0  501    0  0.00000000000E+00  0.00000000000E+00  0.11068226648E+04  0.11068226648E+04  0.50400001928E-02 0. -1.
       -1   -1    0    0    0  501  0.00000000000E+00  0.00000000000E+00 -0.20314172264E+04  0.20314172264E+04  0.50400001928E-02 0.  1.
    10030    2    1    2    0    0  0.00000000000E+00  0.00000000000E+00 -0.92459456157E+03  0.31382398912E+04  0.29989455666E+04 0.  0.
        4    1    3    3  502    0  0.15351469040E+03  0.13042923809E+04 -0.12195608828E+04  0.17922264742E+04  0.12699999809E+01 0.  1.
       -4    1    3    3    0  502 -0.15351469040E+03 -0.13042923809E+04  0.29496632122E+03  0.13460134170E+04  0.12699999809E+01 0. -1.
</event>
<event>
 5   0  0.2602891E-07  0.2998479E+04  0.7818609E-02  0.8244165E-01
        1   -1    0    0  501    0  0.00000000000E+00  0.00000000000E+00  0.16654367676E+04  0.16654367676E+04  0.50400001928E-02 0.  1.
       -1   -1    0    0    0  501  0.00000000000E+00  0.00000000000E+00 -0.13496275154E+04  0.13496275154E+04  0.50400001928E-02 0. -1.
    10030    2    1    2    0    0  0.00000000000E+00  0.00000000000E+00  0.31580925226E+03  0.30150642830E+04  0.29984791389E+04 0.  0.
        5    1    3    3  502    0 -0.52357670718E+03  0.78055943255E+03 -0.10165848967E+04  0.13845116606E+04  0.46999998093E+01 0. -1.
       -5    1    3    3    0  502  0.52357670718E+03 -0.78055943255E+03  0.13323941490E+04  0.16305526224E+04  0.46999998093E+01 0.  1.
</event>
<event>
 5   0  0.2602891E-07  0.2997699E+04  0.7818609E-02  0.8244388E-01
        1   -1    0    0  501    0  0.00000000000E+00  0.00000000000E+00  0.17235588298E+04  0.17235588298E+04  0.50400001928E-02 0.  1.
       -1   -1    0    0    0  501  0.00000000000E+00  0.00000000000E+00 -0.13034363809E+04  0.13034363809E+04  0.50400001928E-02 0. -1.
    10030    2    1    2    0    0  0.00000000000E+00  0.00000000000E+00  0.42012244887E+03  0.30269952107E+04  0.29976986395E+04 0.  0.
        5    1    3    3  502    0 -0.47246654168E+02 -0.17038057187E+03 -0.12928614821E+04  0.13049040913E+04  0.46999998093E+01 0. -1.
       -5    1    3    3    0  502  0.47246654168E+02  0.17038057187E+03  0.17129839310E+04  0.17220911194E+04  0.46999998093E+01 0.  1.
</event>
<event>
 5   0  0.2414250E-07  0.2999146E+04  0.7818609E-02  0.8243975E-01
       -3   -1    0    0    0  501  0.00000000000E+00  0.00000000000E+00  0.15917861181E+04  0.15917861213E+04  0.10100000352E+00 0. -1.
        3   -1    0    0  501    0  0.00000000000E+00  0.00000000000E+00 -0.14127015312E+04  0.14127015348E+04  0.10100000352E+00 0.  1.
    10030    2    1    2    0    0  0.00000000000E+00  0.00000000000E+00  0.17908458687E+03  0.30044876561E+04  0.29991456760E+04 0.  0.
        3    1    3    3  502    0 -0.19995858313E+03 -0.95626371591E+03  0.12292395229E+04  0.15701762780E+04  0.10100000352E+00 0. -1.
       -3    1    3    3    0  502  0.19995858313E+03  0.95626371591E+03 -0.10501549360E+04  0.14343113780E+04  0.10100000352E+00 0.  1.
</event>
<event>
 5   0  0.7399409E-07  0.2994663E+04  0.7818609E-02  0.8245257E-01
        2   -1    0    0  501    0  0.00000000000E+00  0.00000000000E+00  0.79854086283E+03  0.79854086284E+03  0.25500000920E-02 0.  1.
       -2   -1    0    0    0  501  0.00000000000E+00  0.00000000000E+00 -0.28076225842E+04  0.28076225842E+04  0.25500000920E-02 0. -1.
    10030    2    1    2    0    0  0.00000000000E+00  0.00000000000E+00 -0.20090817214E+04  0.36061634471E+04  0.29946628264E+04 0.  0.
        3    1    3    3  502    0  0.12071425197E+04 -0.62331829235E+03 -0.17625945646E+04  0.22254119542E+04  0.10100000352E+00 0.  1.
       -3    1    3    3    0  502 -0.12071425197E+04  0.62331829235E+03 -0.24648715685E+03  0.13807514929E+04  0.10100000352E+00 0. -1.
</event>
<event>
 5   0  0.2602891E-07  0.3005019E+04  0.7818609E-02  0.8242299E-01
       -1   -1    0    0    0  501  0.00000000000E+00  0.00000000000E+00  0.15344091066E+04  0.15344091066E+04  0.50400001928E-02 0.  1.
        1   -1    0    0  501    0  0.00000000000E+00  0.00000000000E+00 -0.14712731460E+04  0.14712731460E+04  0.50400001928E-02 0. -1.
    10030    2    1    2    0    0  0.00000000000E+00  0.00000000000E+00  0.63135960591E+02  0.30056822526E+04  0.30050190772E+04 0.  0.
        5    1    3    3  502    0 -0.20944901580E+03  0.95642137640E+03  0.11715133539E+04  0.15267862876E+04  0.46999998093E+01 0.  1.
       -5    1    3    3    0  502  0.20944901580E+03 -0.95642137640E+03 -0.11083773933E+04  0.14788959651E+04  0.46999998093E+01 0. -1.
</event>
<event>
 5   0  0.2602891E-07  0.2997139E+04  0.7818609E-02  0.8244548E-01
        1   -1    0    0  501    0  0.00000000000E+00  0.00000000000E+00  0.96466536903E+03  0.96466536905E+03  0.50400001928E-02 0. -1.
       -1   -1    0    0    0  501  0.00000000000E+00  0.00000000000E+00 -0.23279687152E+04  0.23279687152E+04  0.50400001928E-02 0.  1.
    10030    2    1    2    0    0  0.00000000000E+00  0.00000000000E+00 -0.13633033461E+04  0.32926340842E+04  0.29971391691E+04 0.  0.
        5    1    3    3  502    0 -0.70266081111E+03  0.29981157278E+03  0.73466755784E+03  0.10598951388E+04  0.46999998093E+01 0. -1.
       -5    1    3    3    0  502  0.70266081111E+03 -0.29981157278E+03 -0.20979709040E+04  0.22327389454E+04  0.46999998093E+01 0.  1.
</event>
<event>
 5   0  0.7399409E-07  0.3004511E+04  0.7818609E-02  0.8242444E-01
        2   -1    0    0  501    0  0.00000000000E+00  0.00000000000E+00  0.17308613398E+04  0.17308613398E+04  0.25500000920E-02 0. -1.
       -2   -1    0    0    0  501  0.00000000000E+00  0.00000000000E+00 -0.13038430834E+04  0.13038430834E+04  0.25500000920E-02 0.  1.
    10030    2    1    2    0    0  0.00000000000E+00  0.00000000000E+00  0.42701825644E+03  0.30347044232E+04  0.30045109993E+04 0.  0.
        3    1    3    3  502    0  0.85363447358E+03 -0.91255318599E+03  0.10557512797E+04  0.16358654916E+04  0.10100000352E+00 0. -1.
       -3    1    3    3    0  502 -0.85363447358E+03  0.91255318599E+03 -0.62873302329E+03  0.13988389316E+04  0.10100000352E+00 0.  1.
</event>
<event>
 5   0  0.7307508E-07  0.2998825E+04  0.7818609E-02  0.8244066E-01
       -2   -1    0    0    0  501  0.00000000000E+00  0.00000000000E+00  0.11675050003E+04  0.11675050003E+04  0.25500000920E-02 0.  1.
        2   -1    0    0  501    0  0.00000000000E+00  0.00000000000E+00 -0.19256777627E+04  0.19256777627E+04  0.25500000920E-02 0. -1.
    10030    2    1    2    0    0  0.00000000000E+00  0.00000000000E+00 -0.75817276234E+03  0.30931827630E+04  0.29988253813E+04 0.  0.
        1    1    3    3  502    0  0.10030346309E+04  0.10718470409E+04 -0.69415432996E+03  0.16238179650E+04  0.50400001928E-02 0.  1.
       -1    1    3    3    0  502 -0.10030346309E+04 -0.10718470409E+04 -0.64018432382E+02  0.14693647979E+04  0.50400001928E-02 0. -1.
</event>
<event>
 5   0  0.7208273E-07  0.3001475E+04  0.7818609E-02  0.8243310E-01
       -2   -1    0    0    0  501  0.00000000000E+00  0.00000000000E+00  0.13105788395E+04  0.13105788395E+04  0.25500000920E-02 0. -1.
        2   -1    0    0  501    0  0.00000000000E+00  0.00000000000E+00 -0.17184873254E+04  0.17184873254E+04  0.25500000920E-02 0.  1.
    10030    2    1    2    0    0  0.00000000000E+00  0.00000000000E+00 -0.40790848591E+03  0.30290661649E+04  0.30014750538E+04 0.  0.
        4    1    3    3  502    0 -0.10507793498E+04 -0.64978718359E+03  0.65584632431E+03  0.13987482404E+04  0.12699999809E+01 0. -1.
       -4    1    3    3    0  502  0.10507793498E+04  0.64978718359E+03 -0.10637548102E+04  0.16303179245E+04  0.12699999809E+01 0.  1.
</event>
<event>
 5   0  0.2679935E-07  0.3003792E+04  0.7818609E-02  0.8242649E-01
        1   -1    0    0  501    0  0.00000000000E+00  0.00000000000E+00  0.12901240475E+04  0.12901240475E+04  0.50400001928E-02 0.  1.
       -1   -1    0    0    0  501  0.00000000000E+00  0.00000000000E+00 -0.17484304905E+04  0.17484304905E+04  0.50400001928E-02 0. -1.
    10030    2    1    2    0    0  0.00000000000E+00  0.00000000000E+00 -0.45830644301E+03  0.30385545381E+04  0.30037924171E+04 0.  0.
        2    1    3    3  502    0  0.10161573546E+04  0.10082793861E+04  0.23051630994E+03  0.14499451227E+04  0.25500000920E-02 0. -1.
       -2    1    3    3    0  502 -0.10161573546E+04 -0.10082793861E+04 -0.68882275295E+03  0.15886094154E+04  0.25500000920E-02 0.  1.
</event>
<event>
 5   0  0.7585823E-07  0.3001541E+04  0.7818609E-02  0.8243291E-01
        2   -1    0    0  501    0  0.00000000000E+00  0.00000000000E+00  0.13860723542E+04  0.13860723542E+04  0.25500000920E-02 0. -1.
       -2   -1    0    0    0  501  0.00000000000E+00  0.00000000000E+00 -0.16249603148E+04  0.16249603148E+04  0.25500000920E-02 0.  1.
    10030    2    1    2    0    0  0.00000000000E+00  0.00000000000E+00 -0.23888796059E+03  0.30110326691E+04  0.30015413168E+04 0.  0.
        5    1    3    3  502    0 -0.92555414319E+02 -0.14644308520E+04 -0.43534650438E+03  0.15305792674E+04  0.46999998093E+01 0.  1.
       -5    1    3    3    0  502  0.92555414319E+02  0.14644308520E+04  0.19645854379E+03  0.14804534017E+04  0.46999998093E+01 0. -1.
</event>
<event>
 5   0  0.2792361E-07  0.2995684E+04  0.7818609E-02  0.8244964E-01
       -1   -1    0    0    0  501  0.00000000000E+00  0.00000000000E+00  0.13782722301E+04  0.13782722302E+04  0.50400001928E-02 0. -1.
        1   -1    0    0  501    0  0.00000000000E+00  0.00000000000E+00 -0.16277846335E+04  0.16277846335E+04  0.50400001928E-02 0.  1.
    10030    2    1    2    0    0  0.00000000000E+00  0.00000000000E+00 -0.24951240334E+03  0.30060568636E+04  0.29956837997E+04 0.  0.
        4    1    3    3  502    0 -0.86204552802E+03  0.11283208063E+04  0.35365288466E+03  0.14633189365E+04  0.12699999809E+01 0. -1.
       -4    1    3    3    0  502  0.86204552802E+03 -0.11283208063E+04 -0.60316528801E+03  0.15427379271E+04  0.12699999809E+01 0.  1.
</event>
<event>
 5   0  0.7307508E-07  0.2999340E+04  0.7818609E-02  0.8243920E-01
        2   -1    0    0  501    0  0.00000000000E+00  0.00000000000E+00  0.15526968884E+04  0.15526968884E+04  0.25500000920E-02 0.  1.
       -2   -1    0    0    0  501  0.00000000000E+00  0.00000000000E+00 -0.14484536287E+04  0.14484536287E+04  0.25500000920E-02 0. -1.
    10030    2    1    2    0    0  0.00000000000E+00  0.00000000000E+00  0.10424325968E+03  0.30011505171E+04  0.29993395555E+04 0.  0.
        1    1    3    3  502    0 -0.28534321411E+03  0.10629261971E+04  0.10714499193E+04  0.15359810481E+04  0.50400001928E-02 0.  1.
       -1    1    3    3    0  502  0.28534321411E+03 -0.10629261971E+04 -0.96720665964E+03  0.14651694690E+04  0.50400001928E-02 0. -1.
</event>
<event>
 5   0  0.7585823E-07  0.2997770E+04  0.7818609E-02  0.8244368E-01
       -2   -1    0    0    0  501  0.00000000000E+00  0.00000000000E+00  0.13948872544E+04  0.13948872544E+04  0.25500000920E-02 0.  1.
        2   -1    0    0  501    0  0.00000000000E+00  0.00000000000E+00 -0.16106359455E+04  0.16106359455E+04  0.25500000920E-02 0. -1.
    10030    2    1    2    0    0  0.00000000000E+00  0.00000000000E+00 -0.21574869108E+03  0.30055231999E+04  0.29977695388E+04 0.  0.
        5    1    3    3  502    0 -0.43559630687E+03 -0.14067843048E+04 -0.38760718256E+03  0.15228419618E+04  0.46999998093E+01 0. -1.
       -5    1    3    3    0  502  0.43559630687E+03  0.14067843048E+04  0.17185849148E+03  0.14826812381E+04  0.46999998093E+01 0.  1.
</event>
<event>
 5   0  0.7278657E-07  0.3025557E+04  0.7818609E-02  0.8236470E-01
        2   -1    0    0  501    0  0.00000000000E+00  0.00000000000E+00  0.17742453524E+04  0.17742453524E+04  0.25500000920E-02 0.  1.
       -2   -1    0    0    0  501  0.00000000000E+00  0.00000000000E+00 -0.12898438377E+04  0.12898438377E+04  0.25500000920E-02 0. -1.
    10030    2    1    2    0    0  0.00000000000E+00  0.00000000000E+00  0.48440151469E+03  0.30640891900E+04  0.30255574258E+04 0.  0.
        2    1    3    3  502    0 -0.91653328467E+02  0.72268529677E+03 -0.11005142053E+04  0.13197749379E+04  0.25500000920E-02 0. -1.
       -2    1    3    3    0  502  0.91653328467E+02 -0.72268529677E+03  0.15849157200E+04  0.17443142521E+04  0.25500000920E-02 0.  1.
</event>
<event>
 5   0  0.2640081E-07  0.2999172E+04  0.7818609E-02  0.8243967E-01
        1   -1    0    0  501    0  0.00000000000E+00  0.00000000000E+00  0.11338960418E+04  0.11338960418E+04  0.50400001928E-02 0.  1.
       -1   -1    0    0    0  501  0.00000000000E+00  0.00000000000E+00 -0.19832137904E+04  0.19832137904E+04  0.50400001928E-02 0. -1.
    10030    2    1    2    0    0  0.00000000000E+00  0.00000000000E+00 -0.84931774866E+03  0.31171098322E+04  0.29991720638E+04 0.  0.
        1    1    3    3  502    0 -0.14018051290E+04 -0.48329399595E+03 -0.65735492304E+03  0.16219575214E+04  0.50400001928E-02 0. -1.
       -1    1    3    3    0  502  0.14018051290E+04  0.48329399595E+03 -0.19196282562E+03  0.14951523109E+04  0.50400001928E-02 0.  1.
</event>
<event>
 5   0  0.2792361E-07  0.2983987E+04  0.7818609E-02  0.8248318E-01
       -1   -1    0    0    0  501  0.00000000000E+00  0.00000000000E+00  0.15853364156E+04  0.15853364156E+04  0.50400001928E-02 0. -1.
        1   -1    0    0  501    0  0.00000000000E+00  0.00000000000E+00 -0.14041461168E+04  0.14041461168E+04  0.50400001928E-02 0.  1.
    10030    2    1    2    0    0  0.00000000000E+00  0.00000000000E+00  0.18119029880E+03  0.29894825324E+04  0.29839865763E+04 0.  0.
        4    1    3    3  502    0 -0.46671747157E+03 -0.11262314708E+04 -0.77111684973E+03  0.14425135469E+04  0.12699999809E+01 0.  1.
       -4    1    3    3    0  502  0.46671747157E+03  0.11262314708E+04  0.95230714853E+03  0.15469689855E+04  0.12699999809E+01 0. -1.
</event>
<event>
 5   0  0.7278657E-07  0.3004935E+04  0.7818609E-02  0.8242323E-01
        2   -1    0    0  501    0  0.00000000000E+00  0.00000000000E+00  0.26218309690E+04  0.26218309690E+04  0.25500000920E-02 0.  1.
       -2   -1    0    0    0  501  0.00000000000E+00  0.00000000000E+00 -0.86100469686E+03  0.86100469686E+03  0.25500000920E-02 0. -1.
    10030    2    1    2    0    0  0.00000000000E+00  0.00000000000E+00  0.17608262721E+04  0.34828356659E+04  0.30049351265E+04 0.  0.
        2    1    3    3  502    0  0.66094577285E+03  0.26724949490E+03  0.24132989933E+04  0.25164029165E+04  0.25500000920E-02 0.  1.
       -2    1    3    3    0  502 -0.66094577285E+03 -0.26724949490E+03 -0.65247272115E+03  0.96643274936E+03  0.25500000920E-02 0. -1.
</event>
<event>
 5   0  0.7585823E-07  0.3002951E+04  0.7818609E-02  0.8242889E-01
       -2   -1    0    0    0  501  0.00000000000E+00  0.00000000000E+00  0.11466396471E+04  0.11466396471E+04  0.25500000920E-02 0. -1.
        2   -1    0    0  501    0  0.00000000000E+00  0.00000000000E+00 -0.19661176336E+04  0.19661176336E+04  0.25500000920E-02 0.  1.
    10030    2    1    2    0    0  0.00000000000E+00  0.00000000000E+00 -0.81947798658E+03  0.31127572807E+04  0.30029508351E+04 0.  0.
        5    1    3    3  502    0 -0.42618163353E+03 -0.68616465292E+02  0.10809236681E+04  0.11639403208E+04  0.46999998093E+01 0. -1.
       -5    1    3    3    0  502  0.42618163353E+03  0.68616465292E+02 -0.19004016547E+04  0.19488169599E+04  0.46999998093E+01 0.  1.
</event>
<event>
 5   0  0.2640081E-07  0.2985665E+04  0.7818609E-02  0.8247836E-01
        1   -1    0    0  501    0  0.00000000000E+00  0.00000000000E+00  0.13574357372E+04  0.13574357372E+04  0.50400001928E-02 0. -1.
       -1   -1    0    0    0  501  0.00000000000E+00  0.00000000000E+00 -0.16417344104E+04  0.16417344104E+04  0.50400001928E-02 0.  1.
    10030    2    1    2    0    0  0.00000000000E+00  0.00000000000E+00 -0.28429867312E+03  0.29991701476E+04  0.29856650580E+04 0.  0.
        1    1    3    3  502    0  0.44408490736E+03  0.51653920274E+03  0.11922133938E+04  0.13730975673E+04  0.50400001928E-02 0. -1.
       -1    1    3    3    0  502 -0.44408490736E+03 -0.51653920274E+03 -0.14765120669E+04  0.16260725804E+04  0.50400001928E-02 0.  1.
</event>
<event>
 5   0  0.2679935E-07  0.2991251E+04  0.7818609E-02  0.8246234E-01
       -1   -1    0    0    0  501  0.00000000000E+00  0.00000000000E+00  0.15216929408E+04  0.15216929408E+04  0.50400001928E-02 0.  1.
        1   -1    0    0  501    0  0.00000000000E+00  0.00000000000E+00 -0.14700044053E+04  0.14700044053E+04  0.50400001928E-02 0. -1.
    10030    2    1    2    0    0  0.00000000000E+00  0.00000000000E+00  0.51688535473E+02  0.29916973461E+04  0.29912507929E+04 0.  0.
        2    1    3    3  502    0  0.89111071784E+03 -0.76382756967E+03 -0.90132403785E+03  0.14798296824E+04  0.25500000920E-02 0. -1.
       -2    1    3    3    0  502 -0.89111071784E+03  0.76382756967E+03  0.95301257332E+03  0.15118676637E+04  0.25500000920E-02 0.  1.
</event>
<event>
 5   0  0.7208273E-07  0.3013029E+04  0.7818609E-02  0.8240020E-01
       -2   -1    0    0    0  501  0.00000000000E+00  0.00000000000E+00  0.95869158491E+03  0.95869158492E+03  0.25500000920E-02 0. -1.
        2   -1    0    0  501    0  0.00000000000E+00  0.00000000000E+00 -0.23673784310E+04  0.23673784310E+04  0.25500000920E-02 0.  1.
    10030    2    1    2    0    0  0.00000000000E+00  0.00000000000E+00 -0.14086868461E+04  0.33260700159E+04  0.30130288947E+04 0.  0.
        4    1    3    3  502    0  0.13260756863E+04 -0.35091797665E+03 -0.13919243374E+04  0.19542454109E+04  0.12699999809E+01 0.  1.
       -4    1    3    3    0  502 -0.13260756863E+04  0.35091797665E+03 -0.16762508618E+02  0.13718246049E+04  0.12699999809E+01 0. -1.
</event>
<event>
 5   0  0.2414250E-07  0.2994352E+04  0.7818609E-02  0.8245346E-01
        3   -1    0    0  501    0  0.00000000000E+00  0.00000000000E+00  0.25645991790E+04  0.25645991809E+04  0.10100000352E+00 0.  1.
       -3   -1    0    0    0  501  0.00000000000E+00  0.00000000000E+00 -0.87402963008E+03  0.87402963591E+03  0.10100000352E+00 0. -1.
    10030    2    1    2    0    0  0.00000000000E+00  0.00000000000E+00  0.16905695489E+04  0.34386288169E+04  0.29943518064E+04 0.  0.
        2    1    3    3  502    0  0.64212723550E+03 -0.12442733893E+04  0.14540214610E+04  0.20185940808E+04  0.25500000920E-02 0.  1.
       -2    1    3    3    0  502 -0.64212723550E+03  0.12442733893E+04  0.23654808790E+03  0.14200347361E+04  0.25500000920E-02 0. -1.
</event>
<event>
 5   0  0.7208273E-07  0.2990399E+04  0.7818609E-02  0.8246478E-01
        2   -1    0    0  501    0  0.00000000000E+00  0.00000000000E+00  0.19990108378E+04  0.19990108378E+04  0.25500000920E-02 0.  1.
       -2   -1    0    0    0  501  0.00000000000E+00  0.00000000000E+00 -0.11183641313E+04  0.11183641313E+04  0.25500000920E-02 0. -1.
    10030    2    1    2    0    0  0.00000000000E+00  0.00000000000E+00  0.88064670649E+03  0.31173749692E+04  0.29903993173E+04 0.  0.
        4    1    3    3  502    0 -0.11292891934E+04 -0.63499885728E+03 -0.33776250132E+03  0.13388811565E+04  0.12699999809E+01 0. -1.
       -4    1    3    3    0  502  0.11292891934E+04  0.63499885728E+03  0.12184092078E+04  0.17784938127E+04  0.12699999809E+01 0.  1.
</event>
<event>
 5   0  0.7208273E-07  0.2996927E+04  0.7818609E-02  0.8244609E-01
        2   -1    0    0  501    0  0.00000000000E+00  0.00000000000E+00  0.16699043369E+04  0.16699043369E+04  0.25500000920E-02 0.  1.
       -2   -1    0    0    0  501  0.00000000000E+00  0.00000000000E+00 -0.13446233930E+04  0.13446233930E+04  0.25500000920E-02 0. -1.
    10030    2    1    2    0    0  0.00000000000E+00  0.00000000000E+00  0.32528094389E+03  0.30145277299E+04  0.29969267161E+04 0.  0.
        4    1    3    3  502    0 -0.80919807390E+03 -0.47814247942E+03  0.13365287940E+04  0.16339316337E+04  0.12699999809E+01 0.  1.
       -4    1    3    3    0  502  0.80919807390E+03  0.47814247942E+03 -0.10112478501E+04  0.13805960962E+04  0.12699999809E+01 0. -1.
</event>
<event>
 5   0  0.7399409E-07  0.2994112E+04  0.7818609E-02  0.8245414E-01
       -2   -1    0    0    0  501  0.00000000000E+00  0.00000000000E+00  0.90778289568E+03  0.90778289568E+03  0.25500000920E-02 0. -1.
        2   -1    0    0  501    0  0.00000000000E+00  0.00000000000E+00 -0.24688459944E+04  0.24688459944E+04  0.25500000920E-02 0.  1.
    10030    2    1    2    0    0  0.00000000000E+00  0.00000000000E+00 -0.15610630987E+04  0.33766288901E+04  0.29941116651E+04 0.  0.
        3    1    3    3  502    0 -0.52595046670E+03  0.53533368526E+03 -0.22413876836E+04  0.23636888134E+04  0.10100000352E+00 0.  1.
       -3    1    3    3    0  502  0.52595046670E+03 -0.53533368526E+03  0.68032458489E+03  0.10129400767E+04  0.10100000352E+00 0. -1.
</event>
<event>
 5   0  0.2679935E-07  0.3007322E+04  0.7818609E-02  0.8241643E-01
       -1   -1    0    0    0  501  0.00000000000E+00  0.00000000000E+00  0.22076628789E+04  0.22076628789E+04  0.50400001928E-02 0. -1.
        1   -1    0    0  501    0  0.00000000000E+00  0.00000000000E+00 -0.10241582090E+04  0.10241582090E+04  0.50400001928E-02 0.  1.
    10030    2    1    2    0    0  0.00000000000E+00  0.00000000000E+00  0.11835046699E+04  0.32318210879E+04  0.30073217720E+04 0.  0.
        2    1    3    3  502    0 -0.14359916266E+04 -0.41337471148E+03  0.41178293509E+03  0.15500050933E+04  0.25500000920E-02 0. -1.
       -2    1    3    3    0  502  0.14359916266E+04  0.41337471148E+03  0.77172173478E+03  0.16818159946E+04  0.25500000920E-02 0.  1.
</event>
<event>
 5   0  0.2640081E-07  0.2999108E+04  0.7818609E-02  0.8243986E-01
        1   -1    0    0  501    0  0.00000000000E+00  0.00000000000E+00  0.18754744346E+04  0.18754744346E+04  0.50400001928E-02 0.  1.
       -1   -1    0    0    0  501  0.00000000000E+00  0.00000000000E+00 -0.11989832735E+04  0.11989832735E+04  0.50400001928E-02 0. -1.
    10030    2    1    2    0    0  0.00000000000E+00  0.00000000000E+00  0.67649116111E+03  0.30744577080E+04  0.29991081854E+04 0.  0.
        1    1    3    3  502    0 -0.34026169342E+03  0.16232962444E+03  0.18261004865E+04  0.18646103920E+04  0.50400001928E-02 0.  1.
       -1    1    3    3    0  502  0.34026169342E+03 -0.16232962444E+03 -0.11496093254E+04  0.12098473160E+04  0.50400001928E-02 0. -1.
</event>
<event>
 5   0  0.2602891E-07  0.3008694E+04  0.7818609E-02  0.8241253E-01
        1   -1    0    0  501    0  0.00000000000E+00  0.00000000000E+00  0.13944061536E+04  0.13944061536E+04  0.50400001928E-02 0. -1.
       -1   -1    0    0    0  501  0.00000000000E+00  0.00000000000E+00 -0.16229561219E+04  0.16229561219E+04  0.50400001928E-02 0.  1.
    10030    2    1    2    0    0  0.00000000000E+00  0.00000000000E+00 -0.22854996829E+03  0.30173622755E+04  0.30086940711E+04 0.  0.
        5    1    3    3  502    0 -0.30041350058E+03  0.20467466563E+03  0.13496902021E+04  0.13977931613E+04  0.46999998093E+01 0. -1.
       -5    1    3    3    0  502  0.30041350058E+03 -0.20467466563E+03 -0.15782401704E+04  0.16195691142E+04  0.46999998093E+01 0.  1.
</event>
<event>
 5   0  0.7307508E-07  0.2998426E+04  0.7818609E-02  0.8244180E-01
        2   -1    0    0  501    0  0.00000000000E+00  0.00000000000E+00  0.14762488599E+04  0.14762488600E+04  0.25500000920E-02 0.  1.
       -2   -1    0    0    0  501  0.00000000000E+00  0.00000000000E+00 -0.15225345341E+04  0.15225345341E+04  0.25500000920E-02 0. -1.
    10030    2    1    2    0    0  0.00000000000E+00  0.00000000000E+00 -0.46285674167E+02  0.29987833941E+04  0.29984261673E+04 0.  0.
        1    1    3    3  502    0  0.10541227568E+03 -0.12056340008E+04 -0.90810687803E+03  0.15130509554E+04  0.50400001928E-02 0. -1.
       -1    1    3    3    0  502 -0.10541227568E+03  0.12056340008E+04  0.86182120386E+03  0.14857324386E+04  0.50400001928E-02 0.  1.
</event>
<event>
 5   0  0.7585823E-07  0.2999426E+04  0.7818609E-02  0.8243895E-01
       -2   -1    0    0    0  501  0.00000000000E+00  0.00000000000E+00  0.88113314781E+03  0.88113314781E+03  0.25500000920E-02 0.  1.
        2   -1    0    0  501    0  0.00000000000E+00  0.00000000000E+00 -0.25525531178E+04  0.25525531178E+04  0.25500000920E-02 0. -1.
    10030    2    1    2    0    0  0.00000000000E+00  0.00000000000E+00 -0.16714199700E+04  0.34336862656E+04  0.29994260542E+04 0.  0.
        5    1    3    3  502    0  0.21108166659E+02  0.12481201461E+04  0.11581428678E+03  0.12536684142E+04  0.46999998093E+01 0.  1.
       -5    1    3    3    0  502 -0.21108166659E+02 -0.12481201461E+04 -0.17872342567E+04  0.21800178514E+04  0.46999998093E+01 0. -1.
</event>
<event>
 5   0  0.7208273E-07  0.3002197E+04  0.7818609E-02  0.8243104E-01
       -2   -1    0    0    0  501  0.00000000000E+00  0.00000000000E+00  0.16366875119E+04  0.16366875119E+04  0.25500000920E-02 0.  1.
        2   -1    0    0  501    0  0.00000000000E+00  0.00000000000E+00 -0.13767425307E+04  0.13767425307E+04  0.25500000920E-02 0. -1.
    10030    2    1    2    0    0  0.00000000000E+00  0.00000000000E+00  0.25994498122E+03  0.30134300427E+04  0.30021974000E+04 0.  0.
        4    1    3    3  502    0 -0.96921224095E+03 -0.89877689889E+03  0.84405777418E+03  0.15683135595E+04  0.12699999809E+01 0.  1.
       -4    1    3    3    0  502  0.96921224095E+03  0.89877689889E+03 -0.58411279296E+03  0.14451164831E+04  0.12699999809E+01 0. -1.
</event>
<event>
 5   0  0.2602891E-07  0.2999819E+04  0.7818609E-02  0.8243783E-01
        1   -1    0    0  501    0  0.00000000000E+00  0.00000000000E+00  0.22360831576E+04  0.22360831576E+04  0.50400001928E-02 0.  1.
       -1   -1    0    0    0  501  0.00000000000E+00  0.00000000000E+00 -0.10061022665E+04  0.10061022665E+04  0.50400001928E-02 0. -1.
    10030    2    1    2    0    0  0.00000000000E+00  0.00000000000E+00  0.12299808911E+04  0.32421854241E+04  0.29998188832E+04 0.  0.
        5    1    3    3  502    0  0.38276507910E+03 -0.77459570689E+03  0.19400976030E+04  0.21237957562E+04  0.46999998093E+01 0.  1.
       -5    1    3    3    0  502 -0.38276507910E+03  0.77459570689E+03 -0.71011671190E+03  0.11183896680E+04  0.46999998093E+01 0. -1.
</event>
<event>
 5   0  0.2621825E-07  0.2999653E+04  0.7818609E-02  0.8243830E-01
        1   -1    0    0  501    0  0.00000000000E+00  0.00000000000E+00  0.20472718355E+04  0.20472718355E+04  0.50400001928E-02 0. -1.
       -1   -1    0    0    0  501  0.00000000000E+00  0.00000000000E+00 -0.10987692136E+04  0.10987692136E+04  0.50400001928E-02 0.  1.
    10030    2    1    2    0    0  0.00000000000E+00  0.00000000000E+00  0.94850262198E+03  0.31460410491E+04  0.29996528230E+04 0.  0.
        3    1    3    3  502    0  0.10357161590E+02  0.14085883162E+04 -0.65907988266E+02  0.14101674328E+04  0.10100000352E+00 0.  1.
       -3    1    3    3    0  502 -0.10357161590E+02 -0.14085883162E+04  0.10144106102E+04  0.17358736163E+04  0.10100000352E+00 0. -1.
</event>
<event>
 5   0  0.2679935E-07  0.2990953E+04  0.7818609E-02  0.8246319E-01
       -1   -1    0    0    0  501  0.00000000000E+00  0.00000000000E+00  0.95573744777E+03  0.95573744779E+03  0.50400001928E-02 0. -1.
        1   -1    0    0  501    0  0.00000000000E+00  0.00000000000E+00 -0.23400253339E+04  0.23400253339E+04  0.50400001928E-02 0.  1.
    10030    2    1    2    0    0  0.00000000000E+00  0.00000000000E+00 -0.13842878861E+04  0.32957627817E+04  0.29909529186E+04 0.  0.
        2    1    3    3  502    0  0.80012561455E+03 -0.12634243219E+04 -0.69522616168E+03  0.16491759858E+04  0.25500000920E-02 0. -1.
       -2    1    3    3    0  502 -0.80012561455E+03  0.12634243219E+04 -0.68906172442E+03  0.16465867959E+04  0.25500000920E-02 0.  1.
</event>
<event>
 5   0  0.2679935E-07  0.2998535E+04  0.7818609E-02  0.8244149E-01
        1   -1    0    0  501    0  0.00000000000E+00  0.00000000000E+00  0.19500155029E+04  0.19500155029E+04  0.50400001928E-02 0. -1.
       -1   -1    0    0    0  501  0.00000000000E+00  0.00000000000E+00 -0.11527103958E+04  0.11527103958E+04  0.50400001928E-02 0.  1.
    10030    2    1    2    0    0  0.00000000000E+00  0.00000000000E+00  0.79730510704E+03  0.31027258987E+04  0.29985350704E+04 0.  0.
        2    1    3    3  502    0 -0.10854353566E+04  0.10342304934E+04  0.39790978275E+03  0.15511720801E+04  0.25500000920E-02 0. -1.
       -2    1    3    3    0  502  0.10854353566E+04 -0.10342304934E+04  0.39939532429E+03  0.15515538186E+04  0.25500000920E-02 0.  1.
</event>
<event>
 5   0  0.2602891E-07  0.3001581E+04  0.7818609E-02  0.8243280E-01
        1   -1    0    0  501    0  0.00000000000E+00  0.00000000000E+00  0.12212093616E+04  0.12212093616E+04  0.50400001928E-02 0. -1.
       -1   -1    0    0    0  501  0.00000000000E+00  0.00000000000E+00 -0.18443785250E+04  0.18443785250E+04  0.50400001928E-02 0.  1.
    10030    2    1    2    0    0  0.00000000000E+00  0.00000000000E+00 -0.62316916344E+03  0.30655878866E+04  0.30015811307E+04 0.  0.
        5    1    3    3  502    0  0.82474701856E+03  0.13652930734E+03  0.96138973035E+03  0.12740251960E+04  0.46999998093E+01 0. -1.
       -5    1    3    3    0  502 -0.82474701856E+03 -0.13652930734E+03 -0.15845588938E+04  0.17915626906E+04  0.46999998093E+01 0.  1.
</event>
<event>
 5   0  0.7307508E-07  0.2999776E+04  0.7818609E-02  0.8243795E-01
       -2   -1    0    0    0  501  0.00000000000E+00  0.00000000000E+00  0.14404950451E+04  0.14404950451E+04  0.25500000920E-02 0.  1.
        2   -1    0    0  501    0  0.00000000000E+00  0.00000000000E+00 -0.15617294886E+04  0.15617294886E+04  0.25500000920E-02 0. -1.
    10030    2    1    2    0    0  0.00000000000E+00  0.00000000000E+00 -0.12123444344E+03  0.30022245337E+04  0.29997757183E+04 0.  0.
        1    1    3    3  502    0  0.13315753372E+03  0.67766966455E+03 -0.13931305946E+04  0.15549212060E+04  0.50400001928E-02 0. -1.
       -1    1    3    3    0  502 -0.13315753372E+03 -0.67766966455E+03  0.12718961512E+04  0.14473033277E+04  0.50400001928E-02 0.  1.
</event>
<event>
 5   0  0.2792361E-07  0.3004580E+04  0.7818609E-02  0.8242424E-01
        1   -1    0    0  501    0  0.00000000000E+00  0.00000000000E+00  0.32688273643E+04  0.32688273644E+04  0.50400001928E-02 0. -1.
       -1   -1    0    0    0  501  0.00000000000E+00  0.00000000000E+00 -0.69042339195E+03  0.69042339197E+03  0.50400001928E-02 0.  1.
    10030    2    1    2    0    0  0.00000000000E+00  0.00000000000E+00  0.25784039724E+04  0.39592507563E+04  0.30045797554E+04 0.  0.
        4    1    3    3  502    0  0.87553379201E+02 -0.14746311234E+04  0.16492864961E+04  0.22141251327E+04  0.12699999809E+01 0. -1.
       -4    1    3    3    0  502 -0.87553379201E+02  0.14746311234E+04  0.92911747631E+03  0.17451256236E+04  0.12699999809E+01 0.  1.
</event>
<event>
 5   0  0.2640081E-07  0.3010637E+04  0.7818609E-02  0.8240700E-01
       -1   -1    0    0    0  501  0.00000000000E+00  0.00000000000E+00  0.82447296409E+03  0.82447296410E+03  0.50400001928E-02 0. -1.
        1   -1    0    0  501    0  0.00000000000E+00  0.00000000000E+00 -0.27484035156E+04  0.27484035156E+04  0.50400001928E-02 0.  1.
    10030    2    1    2    0    0  0.00000000000E+00  0.00000000000E+00 -0.19239305515E+04  0.35728764797E+04  0.30106374030E+04 0.  0.
        1    1    3    3  502    0  0.14625060675E+04  0.34624410239E+03 -0.10624923687E+04  0.18405702947E+04  0.50400001928E-02 0. -1.
       -1    1    3    3    0  502 -0.14625060675E+04 -0.34624410239E+03 -0.86143818284E+03  0.17323061851E+04  0.50400001928E-02 0.  1.
</event>
<event>
 5   0  0.7208273E-07  0.3002648E+04  0.7818609E-02  0.8242975E-01
        2   -1    0    0  501    0  0.00000000000E+00  0.00000000000E+00  0.17460660182E+04  0.17460660182E+04  0.25500000920E-02 0.  1.
       -2   -1    0    0    0  501  0.00000000000E+00  0.00000000000E+00 -0.12908867600E+04  0.12908867600E+04  0.25500000920E-02 0. -1.
    10030    2    1    2    0    0  0.00000000000E+00  0.00000000000E+00  0.45517925822E+03  0.30369527782E+04  0.30026478348E+04 0.  0.
        4    1    3    3  502    0  0.53313849884E+03  0.13370695736E+04 -0.20387549344E+03  0.14538082863E+04  0.12699999809E+01 0. -1.
       -4    1    3    3    0  502 -0.53313849884E+03 -0.13370695736E+04  0.65905475166E+03  0.15831444919E+04  0.12699999809E+01 0.  1.
</event>
<event>
 5   0  0.2602891E-07  0.3001755E+04  0.7818609E-02  0.8243230E-01
       -1   -1    0    0    0  501  0.00000000000E+00  0.00000000000E+00  0.11388324870E+04  0.11388324870E+04  0.50400001928E-02 0.  1.
        1   -1    0    0  501    0  0.00000000000E+00  0.00000000000E+00 -0.19780203023E+04  0.19780203024E+04  0.50400001928E-02 0. -1.
    10030    2    1    2    0    0  0.00000000000E+00  0.00000000000E+00 -0.83918781532E+03  0.31168527894E+04  0.30017553400E+04 0.  0.
        5    1    3    3  502    0 -0.14785756615E+03  0.10789463792E+04 -0.14919691644E+04  0.18471549006E+04  0.46999998093E+01 0. -1.
       -5    1    3    3    0  502  0.14785756615E+03 -0.10789463792E+04  0.65278134911E+03  0.12696978888E+04  0.46999998093E+01 0.  1.
</event>
<event>
 5   0  0.2602891E-07  0.2999592E+04  0.7818609E-02  0.8243848E-01
        1   -1    0    0  501    0  0.00000000000E+00  0.00000000000E+00  0.22968176250E+04  0.22968176250E+04  0.50400001928E-02 0. -1.
       -1   -1    0    0    0  501  0.00000000000E+00  0.00000000000E+00 -0.97934963044E+03  0.97934963046E+03  0.50400001928E-02 0.  1.
    10030    2    1    2    0    0  0.00000000000E+00  0.00000000000E+00  0.13174679946E+04  0.32761672555E+04  0.29995916337E+04 0.  0.
        5    1    3    3  502    0  0.65262966051E+03 -0.57716942108E+03 -0.67461250057E+03  0.11018956985E+04  0.46999998093E+01 0.  1.
       -5    1    3    3    0  502 -0.65262966051E+03  0.57716942108E+03  0.19920804952E+04  0.21742715570E+04  0.46999998093E+01 0. -1.
</event>
<event>
 5   0  0.2679935E-07  0.3003258E+04  0.7818609E-02  0.8242801E-01
       -1   -1    0    0    0  501  0.00000000000E+00  0.00000000000E+00  0.12569269709E+04  0.12569269709E+04  0.50400001928E-02 0.  1.
        1   -1    0    0  501    0  0.00000000000E+00  0.00000000000E+00 -0.17939698303E+04  0.17939698303E+04  0.50400001928E-02 0. -1.
    10030    2    1    2    0    0  0.00000000000E+00  0.00000000000E+00 -0.53704285937E+03  0.30508968012E+04  0.30032576078E+04 0.  0.
        2    1    3    3  502    0  0.47756219895E+03 -0.11299497254E+04  0.61126302520E+03  0.13705818187E+04  0.25500000920E-02 0.  1.
       -2    1    3    3    0  502 -0.47756219895E+03  0.11299497254E+04 -0.11483058846E+04  0.16803149825E+04  0.25500000920E-02 0. -1.
</event>
<event>
 5   0  0.7307508E-07  0.2999540E+04  0.7818609E-02  0.8243862E-01
       -2   -1    0    0    0  501  0.00000000000E+00  0.00000000000E+00  0.18139604307E+04  0.18139604307E+04  0.25500000920E-02 0.  1.
        2   -1    0    0  501    0  0.00000000000E+00  0.00000000000E+00 -0.12399995404E+04  0.12399995404E+04  0.25500000920E-02 0. -1.
    10030    2    1    2    0    0  0.00000000000E+00  0.00000000000E+00  0.57396089026E+03  0.30539599711E+04  0.29995400316E+04 0.  0.
        1    1    3    3  502    0 -0.75793654726E+03  0.84924636745E+03  0.12812336814E+04  0.17138398259E+04  0.50400001928E-02 0.  1.
       -1    1    3    3    0  502  0.75793654726E+03 -0.84924636745E+03 -0.70727279119E+03  0.13401201452E+04  0.50400001928E-02 0. -1.
</event>
<event>
 5   0  0.2792361E-07  0.2998990E+04  0.7818609E-02  0.8244019E-01
       -1   -1    0    0    0  501  0.00000000000E+00  0.00000000000E+00  0.11641639476E+04  0.11641639476E+04  0.50400001928E-02 0. -1.
        1   -1    0    0  501    0  0.00000000000E+00  0.00000000000E+00 -0.19314157709E+04  0.19314157709E+04  0.50400001928E-02 0.  1.
    10030    2    1    2    0    0  0.00000000000E+00  0.00000000000E+00 -0.76725182322E+03  0.30955797185E+04  0.29989895687E+04 0.  0.
        4    1    3    3  502    0  0.14120557455E+04  0.38708252235E+03 -0.71769887802E+03  0.16305911811E+04  0.12699999809E+01 0.  1.
       -4    1    3    3    0  502 -0.14120557455E+04 -0.38708252235E+03 -0.49552945201E+02  0.14649885374E+04  0.12699999809E+01 0. -1.
</event>
<event>
 5   0  0.7307508E-07  0.3019094E+04  0.7818609E-02  0.8238300E-01
       -2   -1    0    0    0  501  0.00000000000E+00  0.00000000000E+00  0.10925655864E+04  0.10925655864E+04  0.25500000920E-02 0.  1.
        2   -1    0    0  501    0  0.00000000000E+00  0.00000000000E+00 -0.20856702482E+04  0.20856702482E+04  0.25500000920E-02 0. -1.
    10030    2    1    2    0    0  0.00000000000E+00  0.00000000000E+00 -0.99310466181E+03  0.31782358345E+04  0.30190935975E+04 0.  0.
        1    1    3    3  502    0 -0.14463621320E+04  0.96615710083E+02 -0.93998469150E+03  0.17276774098E+04  0.50400001928E-02 0. -1.
       -1    1    3    3    0  502  0.14463621320E+04 -0.96615710083E+02 -0.53119970311E+02  0.14505584247E+04  0.50400001928E-02 0.  1.
</event>
<event>
 5   0  0.7399409E-07  0.2992589E+04  0.7818609E-02  0.8245850E-01
       -2   -1    0    0    0  501  0.00000000000E+00  0.00000000000E+00  0.10348028847E+04  0.10348028847E+04  0.25500000920E-02 0. -1.
        2   -1    0    0  501    0  0.00000000000E+00  0.00000000000E+00 -0.21635971942E+04  0.21635971942E+04  0.25500000920E-02 0.  1.
    10030    2    1    2    0    0  0.00000000000E+00  0.00000000000E+00 -0.11287943095E+04  0.31984000789E+04  0.29925885905E+04 0.  0.
        3    1    3    3  502    0 -0.11644864103E+04 -0.91356242829E+03 -0.32957879084E+03  0.15163268446E+04  0.10100000352E+00 0. -1.
       -3    1    3    3    0  502  0.11644864103E+04  0.91356242829E+03 -0.79921551868E+03  0.16820732343E+04  0.10100000352E+00 0.  1.
</event>
<event>
 5   0  0.7399409E-07  0.3009576E+04  0.7818609E-02  0.8241002E-01
       -2   -1    0    0    0  501  0.00000000000E+00  0.00000000000E+00  0.29928258104E+04  0.29928258104E+04  0.25500000920E-02 0.  1.
        2   -1    0    0  501    0  0.00000000000E+00  0.00000000000E+00 -0.75660500871E+03  0.75660500872E+03  0.25500000920E-02 0. -1.
    10030    2    1    2    0    0  0.00000000000E+00  0.00000000000E+00  0.22362208017E+04  0.37494308192E+04  0.30095760488E+04 0.  0.
        3    1    3    3  502    0 -0.92726298534E+03 -0.43775685369E+03  0.24901907782E+04  0.26930461988E+04  0.10100000352E+00 0.  1.
       -3    1    3    3    0  502  0.92726298534E+03  0.43775685369E+03 -0.25396997648E+03  0.10563846203E+04  0.10100000352E+00 0. -1.
</event>
<event>
 5   0  0.2640081E-07  0.2991951E+04  0.7818609E-02  0.8246033E-01
       -1   -1    0    0    0  501  0.00000000000E+00  0.00000000000E+00  0.14807351177E+04  0.14807351177E+04  0.50400001928E-02 0. -1.
        1   -1    0    0  501    0  0.00000000000E+00  0.00000000000E+00 -0.15113731995E+04  0.15113731995E+04  0.50400001928E-02 0.  1.
    10030    2    1    2    0    0  0.00000000000E+00  0.00000000000E+00 -0.30638081799E+02  0.29921083171E+04  0.29919514517E+04 0.  0.
        1    1    3    3  502    0 -0.64636429434E+03  0.13402298768E+04 -0.17005416662E+03  0.14976385890E+04  0.50400001928E-02 0.  1.
       -1    1    3    3    0  502  0.64636429434E+03 -0.13402298768E+04  0.13941608482E+03  0.14944697281E+04  0.50400001928E-02 0. -1.
</event>
<event>
 5   0  0.2602891E-07  0.3049405E+04  0.7818609E-02  0.8229762E-01
       -1   -1    0    0    0  501  0.00000000000E+00  0.00000000000E+00  0.13333869625E+04  0.13333869625E+04  0.50400001928E-02 0.  1.
        1   -1    0    0  501    0  0.00000000000E+00  0.00000000000E+00 -0.17434686023E+04  0.17434686023E+04  0.50400001928E-02 0. -1.
    10030    2    1    2    0    0  0.00000000000E+00  0.00000000000E+00 -0.41008163981E+03  0.30768555649E+04  0.30494053873E+04 0.  0.
        5    1    3    3  502    0  0.45041673178E+03  0.10120238019E+04 -0.12621496359E+04  0.16793186717E+04  0.46999998093E+01 0. -1.
       -5    1    3    3    0  502 -0.45041673178E+03 -0.10120238019E+04  0.85206799604E+03  0.13975368932E+04  0.46999998093E+01 0.  1.
</event>
<event>
 5   0  0.7399409E-07  0.2991036E+04  0.7818609E-02  0.8246295E-01
        2   -1    0    0  501    0  0.00000000000E+00  0.00000000000E+00  0.13044711242E+04  0.13044711242E+04  0.25500000920E-02 0.  1.
       -2   -1    0    0    0  501  0.00000000000E+00  0.00000000000E+00 -0.17145451676E+04  0.17145451676E+04  0.25500000920E-02 0. -1.
    10030    2    1    2    0    0  0.00000000000E+00  0.00000000000E+00 -0.41007404340E+03  0.30190162918E+04  0.29910363838E+04 0.  0.
        3    1    3    3  502    0  0.14285690908E+04  0.39792264036E+03 -0.97782257022E+01  0.14829860751E+04  0.10100000352E+00 0.  1.
       -3    1    3    3    0  502 -0.14285690908E+04 -0.39792264036E+03 -0.40029581769E+03  0.15360302168E+04  0.10100000352E+00 0. -1.
</event>
<event>
 5   0  0.2602891E-07  0.3017024E+04  0.7818609E-02  0.8238886E-01
       -1   -1    0    0    0  501  0.00000000000E+00  0.00000000000E+00  0.16385781952E+04  0.16385781952E+04  0.50400001928E-02 0.  1.
        1   -1    0    0  501    0  0.00000000000E+00  0.00000000000E+00 -0.13887701757E+04  0.13887701757E+04  0.50400001928E-02 0. -1.
    10030    2    1    2    0    0  0.00000000000E+00  0.00000000000E+00  0.24980801946E+03  0.30273483709E+04  0.30170240490E+04 0.  0.
        5    1    3    3  502    0  0.14806136951E+04  0.19755272971E+03 -0.86393041659E+02  0.14962385648E+04  0.46999998093E+01 0. -1.
       -5    1    3    3    0  502 -0.14806136951E+04 -0.19755272971E+03  0.33620106111E+03  0.15311098062E+04  0.46999998093E+01 0.  1.
</event>
<event>
 5   0  0.7278657E-07  0.2998133E+04  0.7818609E-02  0.8244264E-01
        2   -1    0    0  501    0  0.00000000000E+00  0.00000000000E+00  0.92053306537E+03  0.92053306538E+03  0.25500000920E-02 0.  1.
       -2   -1    0    0    0  501  0.00000000000E+00  0.00000000000E+00 -0.24411939818E+04  0.24411939818E+04  0.25500000920E-02 0. -1.
    10030    2    1    2    0    0  0.00000000000E+00  0.00000000000E+00 -0.15206609164E+04  0.33617270472E+04  0.29981326050E+04 0.  0.
        2    1    3    3  502    0  0.80208147878E+03  0.53726588507E+03  0.52557558180E+03  0.10991901665E+04  0.25500000920E-02 0.  1.
       -2    1    3    3    0  502 -0.80208147878E+03 -0.53726588507E+03 -0.20462364982E+04  0.22625368807E+04  0.25500000920E-02 0. -1.
</event>
<event>
 5   0  0.2621825E-07  0.3004747E+04  0.7818609E-02  0.8242377E-01
        1   -1    0    0  501    0  0.00000000000E+00  0.00000000000E+00  0.14727720447E+04  0.14727720447E+04  0.50400001928E-02 0. -1.
       -1   -1    0    0    0  501  0.00000000000E+00  0.00000000000E+00 -0.15325694499E+04  0.15325694499E+04  0.50400001928E-02 0.  1.
    10030    2    1    2    0    0  0.00000000000E+00  0.00000000000E+00 -0.59797405228E+02  0.30053414946E+04  0.30047465400E+04 0.  0.
        3    1    3    3  502    0  0.36034848027E+01  0.15882091219E+03 -0.15241451020E+04  0.15324018303E+04  0.10100000352E+00 0.  1.
       -3    1    3    3    0  502 -0.36034848027E+01 -0.15882091219E+03  0.14643476968E+04  0.14729396643E+04  0.10100000352E+00 0. -1.
</event>
<event>
 5   0  0.2640081E-07  0.2996688E+04  0.7818609E-02  0.8244677E-01
        1   -1    0    0  501    0  0.00000000000E+00  0.00000000000E+00  0.14256216188E+04  0.14256216188E+04  0.50400001928E-02 0.  1.
       -1   -1    0    0    0  501  0.00000000000E+00  0.00000000000E+00 -0.15747755817E+04  0.15747755817E+04  0.50400001928E-02 0. -1.
    10030    2    1    2    0    0  0.00000000000E+00  0.00000000000E+00 -0.14915396287E+03  0.30003972005E+04  0.29966875806E+04 0.  0.
        1    1    3    3  502    0 -0.14424310208E+04 -0.28200227386E+03 -0.36631644099E+03  0.15147013789E+04  0.50400001928E-02 0. -1.
       -1    1    3    3    0  502  0.14424310208E+04  0.28200227386E+03  0.21716247812E+03  0.14856958216E+04  0.50400001928E-02 0.  1.
</event>
<event>
 5   0  0.2792361E-07  0.3002272E+04  0.7818609E-02  0.8243082E-01
       -1   -1    0    0    0  501  0.00000000000E+00  0.00000000000E+00  0.13630827221E+04  0.13630827221E+04  0.50400001928E-02 0. -1.
        1   -1    0    0  501    0  0.00000000000E+00  0.00000000000E+00 -0.16531716178E+04  0.16531716178E+04  0.50400001928E-02 0.  1.
    10030    2    1    2    0    0  0.00000000000E+00  0.00000000000E+00 -0.29008889567E+03  0.30162543399E+04  0.30022722521E+04 0.  0.
        4    1    3    3  502    0 -0.31539925219E+03 -0.85483890686E+03  0.10534832631E+04  0.13928585152E+04  0.12699999809E+01 0. -1.
       -4    1    3    3    0  502  0.31539925219E+03  0.85483890686E+03 -0.13435721587E+04  0.16233958247E+04  0.12699999809E+01 0.  1.
</event>
<event>
 5   0  0.7208273E-07  0.2988321E+04  0.7818609E-02  0.8247074E-01
       -2   -1    0    0    0  501  0.00000000000E+00  0.00000000000E+00  0.10731865238E+04  0.10731865238E+04  0.25500000920E-02 0. -1.
        2   -1    0    0  501    0  0.00000000000E+00  0.00000000000E+00 -0.20802682757E+04  0.20802682757E+04  0.25500000920E-02 0.  1.
    10030    2    1    2    0    0  0.00000000000E+00  0.00000000000E+00 -0.10070817519E+04  0.31534547995E+04  0.29883211871E+04 0.  0.
        4    1    3    3  502    0  0.94695946159E+03  0.11555699604E+04 -0.48140276908E+03  0.15696574130E+04  0.12699999809E+01 0. -1.
       -4    1    3    3    0  502 -0.94695946159E+03 -0.11555699604E+04 -0.52567898286E+03  0.15837973864E+04  0.12699999809E+01 0.  1.
</event>
<event>
 5   0  0.2621825E-07  0.3003932E+04  0.7818609E-02  0.8242609E-01
       -1   -1    0    0    0  501  0.00000000000E+00  0.00000000000E+00  0.99687462583E+03  0.99687462584E+03  0.50400001928E-02 0.  1.
        1   -1    0    0  501    0  0.00000000000E+00  0.00000000000E+00 -0.22629747462E+04  0.22629747462E+04  0.50400001928E-02 0. -1.
    10030    2    1    2    0    0  0.00000000000E+00  0.00000000000E+00 -0.12661001204E+04  0.32598493720E+04  0.30039321586E+04 0.  0.
        3    1    3    3  502    0  0.11711846268E+02  0.71270786108E+02 -0.22610890807E+04  0.22622423684E+04  0.10100000352E+00 0. -1.
       -3    1    3    3    0  502 -0.11711846268E+02 -0.71270786108E+02  0.99498896034E+03  0.99760700363E+03  0.10100000352E+00 0.  1.
</event>
<event>
 5   0  0.2602891E-07  0.3003083E+04  0.7818609E-02  0.8242851E-01
        1   -1    0    0  501    0  0.00000000000E+00  0.00000000000E+00  0.16451867980E+04  0.16451867980E+04  0.50400001928E-02 0.  1.
       -1   -1    0    0    0  501  0.00000000000E+00  0.00000000000E+00 -0.13704386513E+04  0.13704386513E+04  0.50400001928E-02 0. -1.
    10030    2    1    2    0    0  0.00000000000E+00  0.00000000000E+00  0.27474814674E+03  0.30156254493E+04  0.30030834664E+04 0.  0.
        5    1    3    3  502    0  0.35950785854E+03 -0.13929414679E+04  0.56937263005E+03  0.15471713270E+04  0.46999998093E+01 0.  1.
       -5    1    3    3    0  502 -0.35950785854E+03  0.13929414679E+04 -0.29462448332E+03  0.14684541223E+04  0.46999998093E+01 0. -1.
</event>
<event>
 5   0  0.2792361E-07  0.3000084E+04  0.7818609E-02  0.8243707E-01
       -1   -1    0    0    0  501  0.00000000000E+00  0.00000000000E+00  0.94845589668E+03  0.94845589669E+03  0.50400001928E-02 0. -1.
        1   -1    0    0  501    0  0.00000000000E+00  0.00000000000E+00 -0.23724097816E+04  0.23724097816E+04  0.50400001928E-02 0.  1.
    10030    2    1    2    0    0  0.00000000000E+00  0.00000000000E+00 -0.14239538849E+04  0.33208656783E+04  0.30000840300E+04 0.  0.
        4    1    3    3  502    0  0.58078532336E+03  0.75352040873E+03  0.57177831476E+03  0.11099714646E+04  0.12699999809E+01 0. -1.
       -4    1    3    3    0  502 -0.58078532336E+03 -0.75352040873E+03 -0.19957321997E+04  0.22108942136E+04  0.12699999809E+01 0.  1.
</event>
<event>
 5   0  0.7278657E-07  0.3004372E+04  0.7818609E-02  0.8242483E-01
        2   -1    0    0  501    0  0.00000000000E+00  0.00000000000E+00  0.15020728528E+04  0.15020728528E+04  0.25500000920E-02 0.  1.
       -2   -1    0    0    0  501  0.00000000000E+00  0.00000000000E+00 -0.15022995822E+04  0.15022995822E+04  0.25500000920E-02 0. -1.
    10030    2    1    2    0    0  0.00000000000E+00  0.00000000000E+00 -0.22672932253E+00  0.30043724350E+04  0.30043724265E+04 0.  0.
        2    1    3    3  502    0  0.12289071989E+03  0.55193183807E+03 -0.13918146786E+04  0.15022912443E+04  0.25500000920E-02 0. -1.
       -2    1    3    3    0  502 -0.12289071989E+03 -0.55193183807E+03  0.13915879493E+04  0.15020811907E+04  0.25500000920E-02 0.  1.
</event>
<event>
 5   0  0.7208273E-07  0.2996516E+04  0.7818609E-02  0.8244726E-01
       -2   -1    0    0    0  501  0.00000000000E+00  0.00000000000E+00  0.10363724834E+04  0.10363724834E+04  0.25500000920E-02 0. -1.
        2   -1    0    0  501    0  0.00000000000E+00  0.00000000000E+00 -0.21659946623E+04  0.21659946623E+04  0.25500000920E-02 0.  1.
    10030    2    1    2    0    0  0.00000000000E+00  0.00000000000E+00 -0.11296221789E+04  0.32023671457E+04  0.29965161553E+04 0.  0.
        4    1    3    3  502    0  0.54062482603E+03 -0.11849604509E+04 -0.13562019269E+04  0.18803435197E+04  0.12699999809E+01 0.  1.
       -4    1    3    3    0  502 -0.54062482603E+03  0.11849604509E+04  0.22657974798E+03  0.13220236260E+04  0.12699999809E+01 0. -1.
</event>
<event>
 5   0  0.7208273E-07  0.3002376E+04  0.7818609E-02  0.8243053E-01
       -2   -1    0    0    0  501  0.00000000000E+00  0.00000000000E+00  0.17162454917E+04  0.17162454917E+04  0.25500000920E-02 0. -1.
        2   -1    0    0  501    0  0.00000000000E+00  0.00000000000E+00 -0.13130783939E+04  0.13130783939E+04  0.25500000920E-02 0.  1.
    10030    2    1    2    0    0  0.00000000000E+00  0.00000000000E+00  0.40316709777E+03  0.30293238857E+04  0.30023756420E+04 0.  0.
        4    1    3    3  502    0 -0.61102851085E+03 -0.25396728167E+03 -0.11579930769E+04  0.13337184112E+04  0.12699999809E+01 0.  1.
       -4    1    3    3    0  502  0.61102851085E+03  0.25396728167E+03  0.15611601747E+04  0.16956054745E+04  0.12699999809E+01 0. -1.
</event>
<event>
 5   0  0.2792361E-07  0.2996940E+04  0.7818609E-02  0.8244605E-01
        1   -1    0    0  501    0  0.00000000000E+00  0.00000000000E+00  0.19033188372E+04  0.19033188372E+04  0.50400001928E-02 0. -1.
       -1   -1    0    0    0  501  0.00000000000E+00  0.00000000000E+00 -0.11797350093E+04  0.11797350093E+04  0.50400001928E-02 0.  1.
    10030    2    1    2    0    0  0.00000000000E+00  0.00000000000E+00  0.72358382791E+03  0.30830538466E+04  0.29969396832E+04 0.  0.
        4    1    3    3  502    0 -0.51630386030E+03 -0.62809973949E+03 -0.93307790346E+03  0.12376247193E+04  0.12699999809E+01 0.  1.
       -4    1    3    3    0  502  0.51630386030E+03  0.62809973949E+03  0.16566617314E+04  0.18454291273E+04  0.12699999809E+01 0. -1.
</event>
<event>
 5   0  0.7278657E-07  0.3002057E+04  0.7818609E-02  0.8243144E-01
       -2   -1    0    0    0  501  0.00000000000E+00  0.00000000000E+00  0.11166235647E+04  0.11166235647E+04  0.25500000920E-02 0.  1.
        2   -1    0    0  501    0  0.00000000000E+00  0.00000000000E+00 -0.20177670579E+04  0.20177670579E+04  0.25500000920E-02 0. -1.
    10030    2    1    2    0    0  0.00000000000E+00  0.00000000000E+00 -0.90114349319E+03  0.31343906225E+04  0.30020567915E+04 0.  0.
        2    1    3    3  502    0 -0.47099743811E+03 -0.11385853524E+04  0.44446277414E+03  0.13098711192E+04  0.25500000920E-02 0.  1.
       -2    1    3    3    0  502  0.47099743811E+03  0.11385853524E+04 -0.13456062673E+04  0.18245195033E+04  0.25500000920E-02 0. -1.
</event>
<event>
 5   0  0.7208273E-07  0.2999044E+04  0.7818609E-02  0.8244004E-01
       -2   -1    0    0    0  501  0.00000000000E+00  0.00000000000E+00  0.18089828157E+04  0.18089828157E+04  0.25500000920E-02 0. -1.
        2   -1    0    0  501    0  0.00000000000E+00  0.00000000000E+00 -0.12430005032E+04  0.12430005032E+04  0.25500000920E-02 0.  1.
    10030    2    1    2    0    0  0.00000000000E+00  0.00000000000E+00  0.56598231258E+03  0.30519833189E+04  0.29990442145E+04 0.  0.
        4    1    3    3  502    0 -0.31606753405E+03 -0.14582159143E+04  0.13111670187E+03  0.14978269397E+04  0.12699999809E+01 0. -1.
       -4    1    3    3    0  502  0.31606753405E+03  0.14582159143E+04  0.43486561071E+03  0.15541563792E+04  0.12699999809E+01 0.  1.
</event>
<event>
 5   0  0.7585823E-07  0.3003341E+04  0.7818609E-02  0.8242777E-01
        2   -1    0    0  501    0  0.00000000000E+00  0.00000000000E+00  0.16805086132E+04  0.16805086132E+04  0.25500000920E-02 0.  1.
       -2   -1    0    0    0  501  0.00000000000E+00  0.00000000000E+00 -0.13418641723E+04  0.13418641723E+04  0.25500000920E-02 0. -1.
    10030    2    1    2    0    0  0.00000000000E+00  0.00000000000E+00  0.33864444094E+03  0.30223727855E+04  0.30033410059E+04 0.  0.
        5    1    3    3  502    0  0.75724031709E+02  0.11980468665E+04  0.10772264864E+04  0.16129133320E+04  0.46999998093E+01 0.  1.
       -5    1    3    3    0  502 -0.75724031709E+02 -0.11980468665E+04 -0.73858204548E+03  0.14094594536E+04  0.46999998093E+01 0. -1.
</event>
<event>
 5   0  0.2679935E-07  0.3001808E+04  0.7818609E-02  0.8243215E-01
       -1   -1    0    0    0  501  0.00000000000E+00  0.00000000000E+00  0.13798991403E+04  0.13798991403E+04  0.50400001928E-02 0. -1.
        1   -1    0    0  501    0  0.00000000000E+00  0.00000000000E+00 -0.16325197407E+04  0.16325197407E+04  0.50400001928E-02 0.  1.
    10030    2    1    2    0    0  0.00000000000E+00  0.00000000000E+00 -0.25262060043E+03  0.30124188810E+04  0.30018078465E+04 0.  0.
        2    1    3    3  502    0 -0.14183596900E+03 -0.14899618287E+04 -0.13624040019E+02  0.14967596024E+04  0.25500000920E-02 0.  1.
       -2    1    3    3    0  502  0.14183596900E+03  0.14899618287E+04 -0.23899656041E+03  0.15156592786E+04  0.25500000920E-02 0. -1.
</event>
<event>
 5   0  0.7585823E-07  0.3001032E+04  0.7818609E-02  0.8243436E-01
       -2   -1    0    0    0  501  0.00000000000E+00  0.00000000000E+00  0.10609775366E+04  0.10609775366E+04  0.25500000920E-02 0.  1.
        2   -1    0    0  501    0  0.00000000000E+00  0.00000000000E+00 -0.21221447846E+04  0.21221447846E+04  0.25500000920E-02 0. -1.
    10030    2    1    2    0    0  0.00000000000E+00  0.00000000000E+00 -0.10611672480E+04  0.31831223212E+04  0.30010317865E+04 0.  0.
        5    1    3    3  502    0  0.43432500278E+03  0.98218422440E+03  0.58095307886E+03  0.12210047619E+04  0.46999998093E+01 0.  1.
       -5    1    3    3    0  502 -0.43432500278E+03 -0.98218422440E+03 -0.16421203269E+04  0.19621175594E+04  0.46999998093E+01 0. -1.
</event>
<event>
 5   0  0.2602891E-07  0.2993777E+04  0.7818609E-02  0.8245510E-01
        1   -1    0    0  501    0  0.00000000000E+00  0.00000000000E+00  0.17680492673E+04  0.17680492673E+04  0.50400001928E-02 0.  1.
       -1   -1    0    0    0  501  0.00000000000E+00  0.00000000000E+00 -0.12673152436E+04  0.12673152436E+04  0.50400001928E-02 0. -1.
    10030    2    1    2    0    0  0.00000000000E+00  0.00000000000E+00  0.50073402367E+03  0.30353645110E+04  0.29937774052E+04 0.  0.
        5    1    3    3  502    0 -0.27840243263E+03 -0.65724215725E+03 -0.10836527848E+04  0.12976134308E+04  0.46999998093E+01 0. -1.
       -5    1    3    3    0  502  0.27840243263E+03  0.65724215725E+03  0.15843868085E+04  0.17377510802E+04  0.46999998093E+01 0.  1.
</event>
<event>
 5   0  0.2679935E-07  0.2978982E+04  0.7818609E-02  0.8249758E-01
        1   -1    0    0  501    0  0.00000000000E+00  0.00000000000E+00  0.20551000810E+04  0.20551000810E+04  0.50400001928E-02 0.  1.
       -1   -1    0    0    0  501  0.00000000000E+00  0.00000000000E+00 -0.10795499706E+04  0.10795499706E+04  0.50400001928E-02 0. -1.
    10030    2    1    2    0    0  0.00000000000E+00  0.00000000000E+00  0.97555011038E+03  0.31346500516E+04  0.29789818610E+04 0.  0.
        2    1    3    3  502    0 -0.53218273143E+03 -0.44846841350E+03  0.18734964153E+04  0.19985822965E+04  0.25500000920E-02 0.  1.
       -2    1    3    3    0  502  0.53218273143E+03  0.44846841350E+03 -0.89794630496E+03  0.11360677551E+04  0.25500000920E-02 0. -1.
</event>
<event>
 5   0  0.7307508E-07  0.2995351E+04  0.7818609E-02  0.8245060E-01
        2   -1    0    0  501    0  0.00000000000E+00  0.00000000000E+00  0.17944812230E+04  0.17944812230E+04  0.25500000920E-02 0. -1.
       -2   -1    0    0    0  501  0.00000000000E+00  0.00000000000E+00 -0.12499611547E+04  0.12499611547E+04  0.25500000920E-02 0.  1.
    10030    2    1    2    0    0  0.00000000000E+00  0.00000000000E+00  0.54452006825E+03  0.30444423777E+04  0.29953509455E+04 0.  0.
        1    1    3    3  502    0 -0.10886894813E+04 -0.93599373713E+03  0.70551226373E+03  0.15997114167E+04  0.50400001928E-02 0. -1.
       -1    1    3    3    0  502  0.10886894813E+04  0.93599373713E+03 -0.16099219547E+03  0.14447309610E+04  0.50400001928E-02 0.  1.
</event>
<event>
 5   0  0.2792361E-07  0.2989757E+04  0.7818609E-02  0.8246662E-01
        1   -1    0    0  501    0  0.00000000000E+00  0.00000000000E+00  0.14940328656E+04  0.14940328656E+04  0.50400001928E-02 0. -1.
       -1   -1    0    0    0  501  0.00000000000E+00  0.00000000000E+00 -0.14957241496E+04  0.14957241496E+04  0.50400001928E-02 0.  1.
    10030    2    1    2    0    0  0.00000000000E+00  0.00000000000E+00 -0.16912840010E+01  0.29897570153E+04  0.29897565369E+04 0.  0.
        4    1    3    3  502    0  0.14761522175E+04 -0.23301636716E+03 -0.37416509505E+02  0.14948991955E+04  0.12699999809E+01 0. -1.
       -4    1    3    3    0  502 -0.14761522175E+04  0.23301636716E+03  0.35725225504E+02  0.14948578198E+04  0.12699999809E+01 0.  1.
</event>
<event>
 5   0  0.7399409E-07  0.3013059E+04  0.7818609E-02  0.8240012E-01
       -2   -1    0    0    0  501  0.00000000000E+00  0.00000000000E+00  0.14907463274E+04  0.14907463274E+04  0.25500000920E-02 0.  1.
        2   -1    0    0  501    0  0.00000000000E+00  0.00000000000E+00 -0.15224794172E+04  0.15224794172E+04  0.25500000920E-02 0. -1.
    10030    2    1    2    0    0  0.00000000000E+00  0.00000000000E+00 -0.31733089805E+02  0.30132257447E+04  0.30130586452E+04 0.  0.
        3    1    3    3  502    0  0.10667589872E+04  0.50245193444E+03 -0.95357408297E+03  0.15164881223E+04  0.10100000352E+00 0. -1.
       -3    1    3    3    0  502 -0.10667589872E+04 -0.50245193444E+03  0.92184099316E+03  0.14967376223E+04  0.10100000352E+00 0.  1.
</event>
<event>
 5   0  0.2602891E-07  0.3004227E+04  0.7818609E-02  0.8242525E-01
        1   -1    0    0  501    0  0.00000000000E+00  0.00000000000E+00  0.20344047459E+04  0.20344047459E+04  0.50400001928E-02 0.  1.
       -1   -1    0    0    0  501  0.00000000000E+00  0.00000000000E+00 -0.11090933390E+04  0.11090933390E+04  0.50400001928E-02 0. -1.
    10030    2    1    2    0    0  0.00000000000E+00  0.00000000000E+00  0.92531140682E+03  0.31434980849E+04  0.30042268573E+04 0.  0.
        5    1    3    3  502    0 -0.11662232040E+04  0.61670477721E+03  0.12142305084E+04  0.17929805245E+04  0.46999998093E+01 0.  1.
       -5    1    3    3    0  502  0.11662232040E+04 -0.61670477721E+03 -0.28891910153E+03  0.13505175604E+04  0.46999998093E+01 0. -1.
</event>
<event>
 5   0  0.2621825E-07  0.3006986E+04  0.7818609E-02  0.8241739E-01
        1   -1    0    0  501    0  0.00000000000E+00  0.00000000000E+00  0.21539745994E+04  0.21539745994E+04  0.50400001928E-02 0. -1.
       -1   -1    0    0    0  501  0.00000000000E+00  0.00000000000E+00 -0.10494510493E+04  0.10494510493E+04  0.50400001928E-02 0.  1.
    10030    2    1    2    0    0  0.00000000000E+00  0.00000000000E+00  0.11045235502E+04  0.32034256487E+04  0.30069858021E+04 0.  0.
        3    1    3    3  502    0  0.46051525507E+03  0.83018208141E+03  0.17942779143E+04  0.20299531601E+04  0.10100000352E+00 0. -1.
       -3    1    3    3    0  502 -0.46051525507E+03 -0.83018208141E+03 -0.68975436414E+03  0.11734724886E+04  0.10100000352E+00 0.  1.
</event>
<event>
 5   0  0.2414250E-07  0.2993976E+04  0.7818609E-02  0.8245453E-01
        3   -1    0    0  501    0  0.00000000000E+00  0.00000000000E+00  0.10130884031E+04  0.10130884081E+04  0.10100000352E+00 0.  1.
       -3   -1    0    0    0  501  0.00000000000E+00  0.00000000000E+00 -0.22120214956E+04  0.22120214980E+04  0.10100000352E+00 0. -1.
    10030    2    1    2    0    0  0.00000000000E+00  0.00000000000E+00 -0.11989330926E+04  0.32251099061E+04  0.29939761766E+04 0.  0.
        3    1    3    3  502    0  0.14720613218E+04  0.26059767367E+03 -0.68358227206E+03  0.16438249346E+04  0.10100000352E+00 0. -1.
       -3    1    3    3    0  502 -0.14720613218E+04 -0.26059767367E+03 -0.51535082050E+03  0.15812849715E+04  0.10100000352E+00 0.  1.
</event>
<event>
 5   0  0.7278657E-07  0.2998414E+04  0.7818609E-02  0.8244184E-01
       -2   -1    0    0    0  501  0.00000000000E+00  0.00000000000E+00  0.12652901152E+04  0.12652901152E+04  0.25500000920E-02 0.  1.
        2   -1    0    0  501    0  0.00000000000E+00  0.00000000000E+00 -0.17763689686E+04  0.17763689686E+04  0.25500000920E-02 0. -1.
    10030    2    1    2    0    0  0.00000000000E+00  0.00000000000E+00 -0.51107885338E+03  0.30416590838E+04  0.29984143122E+04 0.  0.
        2    1    3    3  502    0  0.89760724402E+03  0.12000352787E+04 -0.21204136963E+03  0.15135207224E+04  0.25500000920E-02 0. -1.
       -2    1    3    3    0  502 -0.89760724402E+03 -0.12000352787E+04 -0.29903748375E+03  0.15281383614E+04  0.25500000920E-02 0.  1.
</event>
<event>
 5   0  0.7585823E-07  0.2996054E+04  0.7818609E-02  0.8244859E-01
        2   -1    0    0  501    0  0.00000000000E+00  0.00000000000E+00  0.16548637515E+04  0.16548637515E+04  0.25500000920E-02 0. -1.
       -2   -1    0    0    0  501  0.00000000000E+00  0.00000000000E+00 -0.13560541123E+04  0.13560541123E+04  0.25500000920E-02 0.  1.
    10030    2    1    2    0    0  0.00000000000E+00  0.00000000000E+00  0.29880963919E+03  0.30109178638E+04  0.29960539351E+04 0.  0.
        5    1    3    3  502    0  0.66219630060E+03  0.13418170598E+04  0.77736621101E+02  0.14983464335E+04  0.46999998093E+01 0.  1.
       -5    1    3    3    0  502 -0.66219630060E+03 -0.13418170598E+04  0.22107301809E+03  0.15125714303E+04  0.46999998093E+01 0. -1.
</event>
<event>
 5   0  0.2792361E-07  0.3002477E+04  0.7818609E-02  0.8243024E-01
       -1   -1    0    0    0  501  0.00000000000E+00  0.00000000000E+00  0.94835282193E+03  0.94835282194E+03  0.50400001928E-02 0. -1.
        1   -1    0    0  501    0  0.00000000000E+00  0.00000000000E+00 -0.23764545073E+04  0.23764545073E+04  0.50400001928E-02 0.  1.
    10030    2    1    2    0    0  0.00000000000E+00  0.00000000000E+00 -0.14281016853E+04  0.33248073292E+04  0.30024772027E+04 0.  0.
        4    1    3    3  502    0 -0.11862138525E+04 -0.19622542069E+03  0.28140378360E+03  0.12348268793E+04  0.12699999809E+01 0. -1.
       -4    1    3    3    0  502  0.11862138525E+04  0.19622542069E+03 -0.17095054689E+04  0.20899804499E+04  0.12699999809E+01 0.  1.
</event>
<event>
 5   0  0.7208273E-07  0.2979532E+04  0.7818609E-02  0.8249600E-01
       -2   -1    0    0    0  501  0.00000000000E+00  0.00000000000E+00  0.15849472443E+04  0.15849472443E+04  0.25500000920E-02 0. -1.
        2   -1    0    0  501    0  0.00000000000E+00  0.00000000000E+00 -0.14003008524E+04  0.14003008524E+04  0.25500000920E-02 0.  1.
    10030    2    1    2    0    0  0.00000000000E+00  0.00000000000E+00  0.18464639185E+03  0.29852480967E+04  0.29795321627E+04 0.  0.
        4    1    3    3  502    0 -0.57862999195E+03 -0.94956876753E+03  0.10856422234E+04  0.15540637574E+04  0.12699999809E+01 0. -1.
       -4    1    3    3    0  502  0.57862999195E+03  0.94956876753E+03 -0.90099583153E+03  0.14311843393E+04  0.12699999809E+01 0.  1.
</event>
<event>
 5   0  0.2602891E-07  0.2990766E+04  0.7818609E-02  0.8246373E-01
       -1   -1    0    0    0  501  0.00000000000E+00  0.00000000000E+00  0.13465687719E+04  0.13465687720E+04  0.50400001928E-02 0.  1.
        1   -1    0    0  501    0  0.00000000000E+00  0.00000000000E+00 -0.16606432452E+04  0.16606432452E+04  0.50400001928E-02 0. -1.
    10030    2    1    2    0    0  0.00000000000E+00  0.00000000000E+00 -0.31407447321E+03  0.30072120171E+04  0.29907660124E+04 0.  0.
        5    1    3    3  502    0  0.32320460015E+03  0.18021355535E+03  0.12997950769E+04  0.13514538361E+04  0.46999998093E+01 0.  1.
       -5    1    3    3    0  502 -0.32320460015E+03 -0.18021355535E+03 -0.16138695501E+04  0.16557581810E+04  0.46999998093E+01 0. -1.
</event>
<event>
 5   0  0.7278657E-07  0.2997894E+04  0.7818609E-02  0.8244332E-01
        2   -1    0    0  501    0  0.00000000000E+00  0.00000000000E+00  0.16943239304E+04  0.16943239304E+04  0.25500000920E-02 0. -1.
       -2   -1    0    0    0  501  0.00000000000E+00  0.00000000000E+00 -0.13260995968E+04  0.13260995968E+04  0.25500000920E-02 0.  1.
    10030    2    1    2    0    0  0.00000000000E+00  0.00000000000E+00  0.36822433364E+03  0.30204235272E+04  0.29978941148E+04 0.  0.
        2    1    3    3  502    0  0.26020772256E+03 -0.14761146879E+04  0.16918018544E+03  0.15083913835E+04  0.25500000920E-02 0. -1.
       -2    1    3    3    0  502 -0.26020772256E+03  0.14761146879E+04  0.19904414820E+03  0.15120321437E+04  0.25500000920E-02 0.  1.
</event>
<event>
 5   0  0.7399409E-07  0.3004618E+04  0.7818609E-02  0.8242413E-01
       -2   -1    0    0    0  501  0.00000000000E+00  0.00000000000E+00  0.11465249976E+04  0.11465249976E+04  0.25500000920E-02 0. -1.
        2   -1    0    0  501    0  0.00000000000E+00  0.00000000000E+00 -0.19684985719E+04  0.19684985719E+04  0.25500000920E-02 0.  1.
    10030    2    1    2    0    0  0.00000000000E+00  0.00000000000E+00 -0.82197357427E+03  0.31150235695E+04  0.30046183254E+04 0.  0.
        3    1    3    3  502    0  0.83006066427E+02  0.14310837297E+04 -0.87699441832E+03  0.16804790592E+04  0.10100000352E+00 0. -1.
       -3    1    3    3    0  502 -0.83006066427E+02 -0.14310837297E+04  0.55020844053E+02  0.14345445103E+04  0.10100000352E+00 0.  1.
</event>
<event>
 5   0  0.2679935E-07  0.2999270E+04  0.7818609E-02  0.8243939E-01
       -1   -1    0    0    0  501  0.00000000000E+00  0.00000000000E+00  0.17017748813E+04  0.17017748813E+04  0.50400001928E-02 0. -1.
        1   -1    0    0  501    0  0.00000000000E+00  0.00000000000E+00 -0.13215058929E+04  0.13215058930E+04  0.50400001928E-02 0.  1.
    10030    2    1    2    0    0  0.00000000000E+00  0.00000000000E+00  0.38026898834E+03  0.30232807742E+04  0.29992702673E+04 0.  0.
        2    1    3    3  502    0 -0.34014054089E+03  0.43351101403E+03 -0.12157632500E+04  0.13348062282E+04  0.25500000920E-02 0.  1.
       -2    1    3    3    0  502  0.34014054089E+03 -0.43351101403E+03  0.15960322383E+04  0.16884745460E+04  0.25500000920E-02 0. -1.
</event>
<event>
 5   0  0.2602891E-07  0.2996468E+04  0.7818609E-02  0.8244740E-01
       -1   -1    0    0    0  501  0.00000000000E+00  0.00000000000E+00  0.86451331421E+03  0.86451331422E+03  0.50400001928E-02 0. -1.
        1   -1    0    0  501    0  0.00000000000E+00  0.00000000000E+00 -0.25964949192E+04  0.25964949192E+04  0.50400001928E-02 0.  1.
    10030    2    1    2    0    0  0.00000000000E+00  0.00000000000E+00 -0.17319816050E+04  0.34610082334E+04  0.29964675389E+04 0.  0.
        5    1    3    3  502    0 -0.13030071498E+04 -0.58411656348E+03 -0.34218457313E+03  0.14683773916E+04  0.46999998093E+01 0.  1.
       -5    1    3    3    0  502  0.13030071498E+04  0.58411656348E+03 -0.13897970319E+04  0.19926308418E+04  0.46999998093E+01 0. -1.
</event>
<event>
 5   0  0.7399409E-07  0.3000196E+04  0.7818609E-02  0.8243675E-01
        2   -1    0    0  501    0  0.00000000000E+00  0.00000000000E+00  0.15978239016E+04  0.15978239016E+04  0.25500000920E-02 0. -1.
       -2   -1    0    0    0  501  0.00000000000E+00  0.00000000000E+00 -0.14083487994E+04  0.14083487994E+04  0.25500000920E-02 0.  1.
    10030    2    1    2    0    0  0.00000000000E+00  0.00000000000E+00  0.18947510212E+03  0.30061727010E+04  0.30001955759E+04 0.  0.
        3    1    3    3  502    0 -0.73642271988E+03 -0.15914749186E+02  0.14041392618E+04  0.15856162141E+04  0.10100000352E+00 0. -1.
       -3    1    3    3    0  502  0.73642271988E+03  0.15914749186E+02 -0.12146641597E+04  0.14205564869E+04  0.10100000352E+00 0.  1.
</event>
<event>
 5   0  0.7399409E-07  0.2972280E+04  0.7818609E-02  0.8251691E-01
        2   -1    0    0  501    0  0.00000000000E+00  0.00000000000E+00  0.14893851311E+04  0.14893851311E+04  0.25500000920E-02 0.  1.
       -2   -1    0    0    0  501  0.00000000000E+00  0.00000000000E+00 -0.14829018241E+04  0.14829018241E+04  0.25500000920E-02 0. -1.
    10030    2    1    2    0    0  0.00000000000E+00  0.00000000000E+00  0.64833070681E+01  0.29722869552E+04  0.29722798844E+04 0.  0.
        3    1    3    3  502    0 -0.59498470309E+03  0.99104033294E+03  0.93729107948E+03  0.14881808749E+04  0.10100000352E+00 0.  1.
       -3    1    3    3    0  502  0.59498470309E+03 -0.99104033294E+03 -0.93080777241E+03  0.14841060804E+04  0.10100000352E+00 0. -1.
</event>
<event>
 5   0  0.7278657E-07  0.3000029E+04  0.7818609E-02  0.8243723E-01
       -2   -1    0    0    0  501  0.00000000000E+00  0.00000000000E+00  0.17000986436E+04  0.17000986436E+04  0.25500000920E-02 0. -1.
        2   -1    0    0  501    0  0.00000000000E+00  0.00000000000E+00 -0.13234783718E+04  0.13234783718E+04  0.25500000920E-02 0.  1.
    10030    2    1    2    0    0  0.00000000000E+00  0.00000000000E+00  0.37662027188E+03  0.30235770154E+04  0.30000291897E+04 0.  0.
        2    1    3    3  502    0  0.71175028198E+03  0.91282270257E+03 -0.77322766968E+03  0.13920182396E+04  0.25500000920E-02 0.  1.
       -2    1    3    3    0  502 -0.71175028198E+03 -0.91282270257E+03  0.11498479416E+04  0.16315587758E+04  0.25500000920E-02 0. -1.
</event>
<event>
 5   0  0.2640081E-07  0.2995901E+04  0.7818609E-02  0.8244902E-01
       -1   -1    0    0    0  501  0.00000000000E+00  0.00000000000E+00  0.20244811134E+04  0.20244811134E+04  0.50400001928E-02 0.  1.
        1   -1    0    0  501    0  0.00000000000E+00  0.00000000000E+00 -0.11083608304E+04  0.11083608304E+04  0.50400001928E-02 0. -1.
    10030    2    1    2    0    0  0.00000000000E+00  0.00000000000E+00  0.91612028297E+03  0.31328419438E+04  0.29959009116E+04 0.  0.
        1    1    3    3  502    0 -0.12944299012E+04 -0.17729223276E+02 -0.33004167779E+03  0.13359605546E+04  0.50400001928E-02 0. -1.
       -1    1    3    3    0  502  0.12944299012E+04  0.17729223276E+02  0.12461619608E+04  0.17968813892E+04  0.50400001928E-02 0.  1.
</event>
<event>
 5   0  0.7208273E-07  0.3001934E+04  0.7818609E-02  0.8243179E-01
        2   -1    0    0  501    0  0.00000000000E+00  0.00000000000E+00  0.24732992977E+04  0.24732992977E+04  0.25500000920E-02 0.  1.
       -2   -1    0    0    0  501  0.00000000000E+00  0.00000000000E+00 -0.91088934777E+03  0.91088934777E+03  0.25500000920E-02 0. -1.
    10030    2    1    2    0    0  0.00000000000E+00  0.00000000000E+00  0.15624099499E+04  0.33841886455E+04  0.30019340327E+04 0.  0.
        4    1    3    3  502    0  0.33872209007E+03  0.14179411596E+04  0.11839190134E+04  0.18780190706E+04  0.12699999809E+01 0.  1.
       -4    1    3    3    0  502 -0.33872209007E+03 -0.14179411596E+04  0.37849093651E+03  0.15061695749E+04  0.12699999809E+01 0. -1.
</event>
<event>
 5   0  0.7399409E-07  0.2997049E+04  0.7818609E-02  0.8244574E-01
       -2   -1    0    0    0  501  0.00000000000E+00  0.00000000000E+00  0.13536369079E+04  0.13536369079E+04  0.25500000920E-02 0.  1.
        2   -1    0    0  501    0  0.00000000000E+00  0.00000000000E+00 -0.16589198477E+04  0.16589198477E+04  0.25500000920E-02 0. -1.
    10030    2    1    2    0    0  0.00000000000E+00  0.00000000000E+00 -0.30528293980E+03  0.30125567556E+04  0.29970486370E+04 0.  0.
        3    1    3    3  502    0  0.53776427715E+03  0.13980312103E+04 -0.10890263234E+03  0.15018460229E+04  0.10100000352E+00 0.  1.
       -3    1    3    3    0  502 -0.53776427715E+03 -0.13980312103E+04 -0.19638030746E+03  0.15107107328E+04  0.10100000352E+00 0. -1.
</event>
<event>
 5   0  0.2679935E-07  0.3007375E+04  0.7818609E-02  0.8241628E-01
       -1   -1    0    0    0  501  0.00000000000E+00  0.00000000000E+00  0.15600630255E+04  0.15600630255E+04  0.50400001928E-02 0.  1.
        1   -1    0    0  501    0  0.00000000000E+00  0.00000000000E+00 -0.14493491694E+04  0.14493491694E+04  0.50400001928E-02 0. -1.
    10030    2    1    2    0    0  0.00000000000E+00  0.00000000000E+00  0.11071385612E+03  0.30094121950E+04  0.30073749685E+04 0.  0.
        2    1    3    3  502    0 -0.41363030092E+02 -0.70061999243E+03  0.13861061844E+04  0.15536632932E+04  0.25500000920E-02 0.  1.
       -2    1    3    3    0  502  0.41363030092E+02  0.70061999243E+03 -0.12753923283E+04  0.14557489018E+04  0.25500000920E-02 0. -1.
</event>
<event>
 5   0  0.2640081E-07  0.3000310E+04  0.7818609E-02  0.8243642E-01
        1   -1    0    0  501    0  0.00000000000E+00  0.00000000000E+00  0.26339643181E+04  0.26339643181E+04  0.50400001928E-02 0.  1.
       -1   -1    0    0    0  501  0.00000000000E+00  0.00000000000E+00 -0.85440232586E+03  0.85440232587E+03  0.50400001928E-02 0. -1.
    10030    2    1    2    0    0  0.00000000000E+00  0.00000000000E+00  0.17795619922E+04  0.34883666440E+04  0.30003101437E+04 0.  0.
        1    1    3    3  502    0 -0.11256386134E+03 -0.10450024153E+04 -0.35474412912E+03  0.11092989084E+04  0.50400001928E-02 0. -1.
       -1    1    3    3    0  502  0.11256386134E+03  0.10450024153E+04  0.21343061214E+04  0.23790677356E+04  0.50400001928E-02 0.  1.
</event>
<event>
 5   0  0.7307508E-07  0.3001946E+04  0.7818609E-02  0.8243175E-01
       -2   -1    0    0    0  501  0.00000000000E+00  0.00000000000E+00  0.14884229875E+04  0.14884229875E+04  0.25500000920E-02 0.  1.
        2   -1    0    0  501    0  0.00000000000E+00  0.00000000000E+00 -0.15136285858E+04  0.15136285858E+04  0.25500000920E-02 0. -1.
    10030    2    1    2    0    0  0.00000000000E+00  0.00000000000E+00 -0.25205598304E+02  0.30020515733E+04  0.30019457568E+04 0.  0.
        1    1    3    3  502    0 -0.39852440928E+03  0.58824650559E+03  0.13095874912E+04  0.14899245126E+04  0.50400001928E-02 0.  1.
       -1    1    3    3    0  502  0.39852440928E+03 -0.58824650559E+03 -0.13347930895E+04  0.15121270607E+04  0.50400001928E-02 0. -1.
</event>
<event>
 5   0  0.2602891E-07  0.2999843E+04  0.7818609E-02  0.8243776E-01
       -1   -1    0    0    0  501  0.00000000000E+00  0.00000000000E+00  0.11244461060E+04  0.11244461060E+04  0.50400001928E-02 0. -1.
        1   -1    0    0  501    0  0.00000000000E+00  0.00000000000E+00 -0.20007753120E+04  0.20007753120E+04  0.50400001928E-02 0.  1.
    10030    2    1    2    0    0  0.00000000000E+00  0.00000000000E+00 -0.87632920603E+03  0.31252214180E+04  0.29998426683E+04 0.  0.
        5    1    3    3  502    0  0.36948117735E+03 -0.40957344378E+03 -0.18912634574E+04  0.19700675881E+04  0.46999998093E+01 0.  1.
       -5    1    3    3    0  502 -0.36948117735E+03  0.40957344378E+03  0.10149342514E+04  0.11551538300E+04  0.46999998093E+01 0. -1.
</event>
<event>
 5   0  0.2640081E-07  0.2998204E+04  0.7818609E-02  0.8244244E-01
        1   -1    0    0  501    0  0.00000000000E+00  0.00000000000E+00  0.25433454655E+04  0.25433454655E+04  0.50400001928E-02 0. -1.
       -1   -1    0    0    0  501  0.00000000000E+00  0.00000000000E+00 -0.88360268818E+03  0.88360268820E+03  0.50400001928E-02 0.  1.
    10030    2    1    2    0    0  0.00000000000E+00  0.00000000000E+00  0.16597427773E+04  0.34269481537E+04  0.29982040560E+04 0.  0.
        1    1    3    3  502    0 -0.10567905243E+04 -0.70731480044E+03 -0.77505616115E+02  0.12740123860E+04  0.50400001928E-02 0.  1.
       -1    1    3    3    0  502  0.10567905243E+04  0.70731480044E+03  0.17372483934E+04  0.21529357676E+04  0.50400001928E-02 0. -1.
</event>
<event>
 5   0  0.7399409E-07  0.2999982E+04  0.7818609E-02  0.8243736E-01
       -2   -1    0    0    0  501  0.00000000000E+00  0.00000000000E+00  0.18498530927E+04  0.18498530927E+04  0.25500000920E-02 0.  1.
        2   -1    0    0  501    0  0.00000000000E+00  0.00000000000E+00 -0.12162986119E+04  0.12162986120E+04  0.25500000920E-02 0. -1.
    10030    2    1    2    0    0  0.00000000000E+00  0.00000000000E+00  0.63355448073E+03  0.30661517046E+04  0.29999824992E+04 0.  0.
        3    1    3    3  502    0  0.10984185913E+04  0.90014431716E+03  0.81032636567E+03  0.16350571924E+04  0.10100000352E+00 0.  1.
       -3    1    3    3    0  502 -0.10984185913E+04 -0.90014431716E+03 -0.17677188495E+03  0.14310945122E+04  0.10100000352E+00 0. -1.
</event>
<event>
 5   0  0.2640081E-07  0.2987866E+04  0.7818609E-02  0.8247204E-01
       -1   -1    0    0    0  501  0.00000000000E+00  0.00000000000E+00  0.11365842862E+04  0.11365842863E+04  0.50400001928E-02 0.  1.
        1   -1    0    0  501    0  0.00000000000E+00  0.00000000000E+00 -0.19636344229E+04  0.19636344229E+04  0.50400001928E-02 0. -1.
    10030    2    1    2    0    0  0.00000000000E+00  0.00000000000E+00 -0.82705013667E+03  0.31002187092E+04  0.29878661476E+04 0.  0.
        1    1    3    3  502    0  0.65152775930E+03 -0.91153326347E+02 -0.18052437128E+04  0.19213802884E+04  0.50400001928E-02 0. -1.
       -1    1    3    3    0  502 -0.65152775930E+03  0.91153326347E+02  0.97819357609E+03  0.11788384208E+04  0.50400001928E-02 0.  1.
</event>
<event>
 5   0  0.2640081E-07  0.3003433E+04  0.7818609E-02  0.8242751E-01
        1   -1    0    0  501    0  0.00000000000E+00  0.00000000000E+00  0.17848466526E+04  0.17848466526E+04  0.50400001928E-02 0.  1.
       -1   -1    0    0    0  501  0.00000000000E+00  0.00000000000E+00 -0.12634993951E+04  0.12634993951E+04  0.50400001928E-02 0. -1.
    10030    2    1    2    0    0  0.00000000000E+00  0.00000000000E+00  0.52134725751E+03  0.30483460478E+04  0.30034331462E+04 0.  0.
        1    1    3    3  502    0  0.12849184142E+04  0.57267093438E+03  0.79406576057E+03  0.16153970912E+04  0.50400001928E-02 0.  1.
       -1    1    3    3    0  502 -0.12849184142E+04 -0.57267093438E+03 -0.27271850305E+03  0.14329489565E+04  0.50400001928E-02 0. -1.
</event>
<event>
 5   0  0.2679935E-07  0.2998984E+04  0.7818609E-02  0.8244021E-01
       -1   -1    0    0    0  501  0.00000000000E+00  0.00000000000E+00  0.10386683354E+04  0.10386683354E+04  0.50400001928E-02 0. -1.
        1   -1    0    0  501    0  0.00000000000E+00  0.00000000000E+00 -0.21647680317E+04  0.21647680317E+04  0.50400001928E-02 0.  1.
    10030    2    1    2    0    0  0.00000000000E+00  0.00000000000E+00 -0.11260996963E+04  0.32034363671E+04  0.29989838332E+04 0.  0.
        2    1    3    3  502    0 -0.80229866467E+03 -0.38456004895E+03  0.72626150514E+03  0.11484882901E+04  0.25500000920E-02 0. -1.
       -2    1    3    3    0  502  0.80229866467E+03  0.38456004895E+03 -0.18523612014E+04  0.20549480770E+04  0.25500000920E-02 0.  1.
</event>
<event>
 5   0  0.7307508E-07  0.2943826E+04  0.7818609E-02  0.8259956E-01
        2   -1    0    0  501    0  0.00000000000E+00  0.00000000000E+00  0.15694899197E+04  0.15694899197E+04  0.25500000920E-02 0.  1.
       -2   -1    0    0    0  501  0.00000000000E+00  0.00000000000E+00 -0.13804021620E+04  0.13804021620E+04  0.25500000920E-02 0. -1.
    10030    2    1    2    0    0  0.00000000000E+00  0.00000000000E+00  0.18908775776E+03  0.29498920817E+04  0.29438255916E+04 0.  0.
        1    1    3    3  502    0 -0.12169598312E+04 -0.14240002103E+03  0.91185836525E+03  0.15273358095E+04  0.50400001928E-02 0. -1.
       -1    1    3    3    0  502  0.12169598312E+04  0.14240002103E+03 -0.72277060750E+03  0.14225562723E+04  0.50400001928E-02 0.  1.
</event>
<event>
 5   0  0.2414250E-07  0.2997906E+04  0.7818609E-02  0.8244329E-01
       -3   -1    0    0    0  501  0.00000000000E+00  0.00000000000E+00  0.14238348993E+04  0.14238349029E+04  0.10100000352E+00 0. -1.
        3   -1    0    0  501    0  0.00000000000E+00  0.00000000000E+00 -0.15780341145E+04  0.15780341177E+04  0.10100000352E+00 0.  1.
    10030    2    1    2    0    0  0.00000000000E+00  0.00000000000E+00 -0.15419921512E+03  0.30018690206E+04  0.29979059723E+04 0.  0.
        3    1    3    3  502    0  0.13233270249E+04  0.69605671876E+03 -0.18293073440E+03  0.15063708157E+04  0.10100000352E+00 0.  1.
       -3    1    3    3    0  502 -0.13233270249E+04 -0.69605671876E+03  0.28731519276E+02  0.14954982049E+04  0.10100000352E+00 0. -1.
</event>
<event>
 5   0  0.7399409E-07  0.2998612E+04  0.7818609E-02  0.8244127E-01
        2   -1    0    0  501    0  0.00000000000E+00  0.00000000000E+00  0.21317029705E+04  0.21317029705E+04  0.25500000920E-02 0.  1.
       -2   -1    0    0    0  501  0.00000000000E+00  0.00000000000E+00 -0.10545177031E+04  0.10545177031E+04  0.25500000920E-02 0. -1.
    10030    2    1    2    0    0  0.00000000000E+00  0.00000000000E+00  0.10771852674E+04  0.31862206737E+04  0.29986120258E+04 0.  0.
        3    1    3    3  502    0 -0.81693793077E+03  0.78857930674E+03 -0.50178488192E+03  0.12413834958E+04  0.10100000352E+00 0. -1.
       -3    1    3    3    0  502  0.81693793077E+03 -0.78857930674E+03  0.15789701493E+04  0.19448371779E+04  0.10100000352E+00 0.  1.
</event>
<event>
 5   0  0.7278657E-07  0.2992424E+04  0.7818609E-02  0.8245898E-01
       -2   -1    0    0    0  501  0.00000000000E+00  0.00000000000E+00  0.20228801344E+04  0.20228801344E+04  0.25500000920E-02 0. -1.
        2   -1    0    0  501    0  0.00000000000E+00  0.00000000000E+00 -0.11066650062E+04  0.11066650063E+04  0.25500000920E-02 0.  1.
    10030    2    1    2    0    0  0.00000000000E+00  0.00000000000E+00  0.91621512812E+03  0.31295451406E+04  0.29924242056E+04 0.  0.
        2    1    3    3  502    0 -0.73573929211E+03  0.10302817169E+04  0.12920539071E+04  0.18089212313E+04  0.25500000920E-02 0. -1.
       -2    1    3    3    0  502  0.73573929211E+03 -0.10302817169E+04 -0.37583877898E+03  0.13206239093E+04  0.25500000920E-02 0.  1.
</event>
<event>
 5   0  0.7208273E-07  0.2996879E+04  0.7818609E-02  0.8244623E-01
        2   -1    0    0  501    0  0.00000000000E+00  0.00000000000E+00  0.19711021586E+04  0.19711021586E+04  0.25500000920E-02 0.  1.
       -2   -1    0    0    0  501  0.00000000000E+00  0.00000000000E+00 -0.11391193616E+04  0.11391193616E+04  0.25500000920E-02 0. -1.
    10030    2    1    2    0    0  0.00000000000E+00  0.00000000000E+00  0.83198279700E+03  0.31102215201E+04  0.29968787980E+04 0.  0.
        4    1    3    3  502    0  0.13348886107E+04 -0.60243710650E+03  0.74493449905E+03  0.16431028851E+04  0.12699999809E+01 0.  1.
       -4    1    3    3    0  502 -0.13348886107E+04  0.60243710650E+03  0.87048297950E+02  0.14671186350E+04  0.12699999809E+01 0. -1.
</event>
<event>
 5   0  0.7399409E-07  0.2996777E+04  0.7818609E-02  0.8244652E-01
        2   -1    0    0  501    0  0.00000000000E+00  0.00000000000E+00  0.24617558538E+04  0.24617558538E+04  0.25500000920E-02 0. -1.
       -2   -1    0    0    0  501  0.00000000000E+00  0.00000000000E+00 -0.91201874357E+03  0.91201874357E+03  0.25500000920E-02 0.  1.
    10030    2    1    2    0    0  0.00000000000E+00  0.00000000000E+00  0.15497371103E+04  0.33737745974E+04  0.29967765888E+04 0.  0.
        3    1    3    3  502    0  0.11032857200E+04 -0.32103839950E+03 -0.30781182583E+03  0.11895600717E+04  0.10100000352E+00 0.  1.
       -3    1    3    3    0  502 -0.11032857200E+04  0.32103839950E+03  0.18575489361E+04  0.21842145257E+04  0.10100000352E+00 0. -1.
</event>
<event>
 5   0  0.2640081E-07  0.3043222E+04  0.7818609E-02  0.8231495E-01
        1   -1    0    0  501    0  0.00000000000E+00  0.00000000000E+00  0.24422818024E+04  0.24422818024E+04  0.50400001928E-02 0.  1.
       -1   -1    0    0    0  501  0.00000000000E+00  0.00000000000E+00 -0.94800686205E+03  0.94800686206E+03  0.50400001928E-02 0. -1.
    10030    2    1    2    0    0  0.00000000000E+00  0.00000000000E+00  0.14942749404E+04  0.33902886645E+04  0.30432219162E+04 0.  0.
        1    1    3    3  502    0 -0.34176707091E+03  0.11441809573E+04  0.17977394536E+04  0.21581987714E+04  0.50400001928E-02 0.  1.
       -1    1    3    3    0  502  0.34176707091E+03 -0.11441809573E+04 -0.30346451323E+03  0.12320898931E+04  0.50400001928E-02 0. -1.
</event>
<event>
 5   0  0.2414250E-07  0.2999836E+04  0.7818609E-02  0.8243778E-01
        3   -1    0    0  501    0  0.00000000000E+00  0.00000000000E+00  0.25363471971E+04  0.25363471991E+04  0.10100000352E+00 0. -1.
       -3   -1    0    0    0  501  0.00000000000E+00  0.00000000000E+00 -0.88700541304E+03  0.88700541879E+03  0.10100000352E+00 0.  1.
    10030    2    1    2    0    0  0.00000000000E+00  0.00000000000E+00  0.16493417840E+04  0.34233526179E+04  0.29998357998E+04 0.  0.
        1    1    3    3  502    0  0.78083532233E+03 -0.12659778710E+04  0.60412494406E+03  0.16054191722E+04  0.50400001928E-02 0.  1.
       -1    1    3    3    0  502 -0.78083532233E+03  0.12659778710E+04  0.10452168400E+04  0.18179334457E+04  0.50400001928E-02 0. -1.
</event>
<event>
 5   0  0.7208273E-07  0.2994476E+04  0.7818609E-02  0.8245310E-01
        2   -1    0    0  501    0  0.00000000000E+00  0.00000000000E+00  0.10203316327E+04  0.10203316327E+04  0.25500000920E-02 0. -1.
       -2   -1    0    0    0  501  0.00000000000E+00  0.00000000000E+00 -0.21970524584E+04  0.21970524584E+04  0.25500000920E-02 0.  1.
    10030    2    1    2    0    0  0.00000000000E+00  0.00000000000E+00 -0.11767208257E+04  0.32173840911E+04  0.29944763296E+04 0.  0.
        4    1    3    3  502    0 -0.16999993282E+03 -0.10730488458E+04 -0.16952870732E+04  0.20135376024E+04  0.12699999809E+01 0.  1.
       -4    1    3    3    0  502  0.16999993282E+03  0.10730488458E+04  0.51856624747E+03  0.12038464888E+04  0.12699999809E+01 0. -1.
</event>
<event>
 5   0  0.7278657E-07  0.2996987E+04  0.7818609E-02  0.8244592E-01
        2   -1    0    0  501    0  0.00000000000E+00  0.00000000000E+00  0.13901564528E+04  0.13901564528E+04  0.25500000920E-02 0.  1.
       -2   -1    0    0    0  501  0.00000000000E+00  0.00000000000E+00 -0.16152728930E+04  0.16152728930E+04  0.25500000920E-02 0. -1.
    10030    2    1    2    0    0  0.00000000000E+00  0.00000000000E+00 -0.22511644021E+03  0.30054293458E+04  0.29969865099E+04 0.  0.
        2    1    3    3  502    0 -0.97892335588E+03  0.89857154575E+03  0.58204033767E+03  0.14506869801E+04  0.25500000920E-02 0.  1.
       -2    1    3    3    0  502  0.97892335588E+03 -0.89857154575E+03 -0.80715677787E+03  0.15547423657E+04  0.25500000920E-02 0. -1.
</event>
<event>
 5   0  0.2679935E-07  0.3002395E+04  0.7818609E-02  0.8243047E-01
       -1   -1    0    0    0  501  0.00000000000E+00  0.00000000000E+00  0.17276468204E+04  0.17276468204E+04  0.50400001928E-02 0. -1.
        1   -1    0    0  501    0  0.00000000000E+00  0.00000000000E+00 -0.13044296423E+04  0.13044296423E+04  0.50400001928E-02 0.  1.
    10030    2    1    2    0    0  0.00000000000E+00  0.00000000000E+00  0.42321717812E+03  0.30320764627E+04  0.30023948601E+04 0.  0.
        2    1    3    3  502    0 -0.45132318210E+03 -0.75312835452E+03  0.14413075552E+04  0.16876795909E+04  0.25500000920E-02 0. -1.
       -2    1    3    3    0  502  0.45132318210E+03  0.75312835452E+03 -0.10180903770E+04  0.13443968718E+04  0.25500000920E-02 0.  1.
</event>
<event>
 5   0  0.2679935E-07  0.3003435E+04  0.7818609E-02  0.8242751E-01
       -1   -1    0    0    0  501  0.00000000000E+00  0.00000000000E+00  0.20686684601E+04  0.20686684601E+04  0.50400001928E-02 0.  1.
        1   -1    0    0  501    0  0.00000000000E+00  0.00000000000E+00 -0.10901485277E+04  0.10901485277E+04  0.50400001928E-02 0. -1.
    10030    2    1    2    0    0  0.00000000000E+00  0.00000000000E+00  0.97851993240E+03  0.31588169878E+04  0.30034352838E+04 0.  0.
        2    1    3    3  502    0  0.10705163166E+04 -0.61587030800E+03  0.13877728695E+04  0.18577445890E+04  0.25500000920E-02 0.  1.
       -2    1    3    3    0  502 -0.10705163166E+04  0.61587030800E+03 -0.40925293711E+03  0.13010723988E+04  0.25500000920E-02 0. -1.
</event>
<event>
 5   0  0.7307508E-07  0.3006341E+04  0.7818609E-02  0.8241923E-01
        2   -1    0    0  501    0  0.00000000000E+00  0.00000000000E+00  0.20129195309E+04  0.20129195309E+04  0.25500000920E-02 0. -1.
       -2   -1    0    0    0  501  0.00000000000E+00  0.00000000000E+00 -0.11225095791E+04  0.11225095791E+04  0.25500000920E-02 0.  1.
    10030    2    1    2    0    0  0.00000000000E+00  0.00000000000E+00  0.89040995183E+03  0.31354291100E+04  0.30063409357E+04 0.  0.
        1    1    3    3  502    0  0.46485807576E+03  0.13046115428E+04  0.10546035311E+04  0.17407736545E+04  0.50400001928E-02 0. -1.
       -1    1    3    3    0  502 -0.46485807576E+03 -0.13046115428E+04 -0.16419357924E+03  0.13946554556E+04  0.50400001928E-02 0.  1.
</event>
<event>
 5   0  0.2640081E-07  0.3007222E+04  0.7818609E-02  0.8241672E-01
        1   -1    0    0  501    0  0.00000000000E+00  0.00000000000E+00  0.99116272351E+03  0.99116272352E+03  0.50400001928E-02 0. -1.
       -1   -1    0    0    0  501  0.00000000000E+00  0.00000000000E+00 -0.22810038443E+04  0.22810038443E+04  0.50400001928E-02 0.  1.
    10030    2    1    2    0    0  0.00000000000E+00  0.00000000000E+00 -0.12898411207E+04  0.32721665678E+04  0.30072219623E+04 0.  0.
        1    1    3    3  502    0 -0.47549809690E+03 -0.64967368938E+03 -0.20267132570E+04  0.21807661426E+04  0.50400001928E-02 0.  1.
       -1    1    3    3    0  502  0.47549809690E+03  0.64967368938E+03  0.73687213623E+03  0.10914004251E+04  0.50400001928E-02 0. -1.
</event>
<event>
 5   0  0.2602891E-07  0.3000725E+04  0.7818609E-02  0.8243524E-01
       -1   -1    0    0    0  501  0.00000000000E+00  0.00000000000E+00  0.10616991091E+04  0.10616991091E+04  0.50400001928E-02 0.  1.
        1   -1    0    0  501    0  0.00000000000E+00  0.00000000000E+00 -0.21202683976E+04  0.21202683976E+04  0.50400001928E-02 0. -1.
    10030    2    1    2    0    0  0.00000000000E+00  0.00000000000E+00 -0.10585692885E+04  0.31819675067E+04  0.30007246250E+04 0.  0.
        5    1    3    3  502    0 -0.22854231505E+03  0.13560004272E+04 -0.11656094969E+04  0.18026747732E+04  0.46999998093E+01 0. -1.
       -5    1    3    3    0  502  0.22854231505E+03 -0.13560004272E+04  0.10704020845E+03  0.13792927335E+04  0.46999998093E+01 0.  1.
</event>
<event>
 5   0  0.2640081E-07  0.3000999E+04  0.7818609E-02  0.8243446E-01
        1   -1    0    0  501    0  0.00000000000E+00  0.00000000000E+00  0.14246513817E+04  0.14246513817E+04  0.50400001928E-02 0.  1.
       -1   -1    0    0    0  501  0.00000000000E+00  0.00000000000E+00 -0.15803858953E+04  0.15803858953E+04  0.50400001928E-02 0. -1.
    10030    2    1    2    0    0  0.00000000000E+00  0.00000000000E+00 -0.15573451360E+03  0.30050372771E+04  0.30009991333E+04 0.  0.
        1    1    3    3  502    0 -0.30497794162E+03 -0.97474962542E+03 -0.11785964118E+04  0.15595633617E+04  0.50400001928E-02 0. -1.
       -1    1    3    3    0  502  0.30497794162E+03  0.97474962542E+03  0.10228618982E+04  0.14454739154E+04  0.50400001928E-02 0.  1.
</event>
<event>
 5   0  0.2621825E-07  0.2997657E+04  0.7818609E-02  0.8244400E-01
       -1   -1    0    0    0  501  0.00000000000E+00  0.00000000000E+00  0.25079238997E+04  0.25079238997E+04  0.50400001928E-02 0. -1.
        1   -1    0    0  501    0  0.00000000000E+00  0.00000000000E+00 -0.89575567513E+03  0.89575567514E+03  0.50400001928E-02 0.  1.
    10030    2    1    2    0    0  0.00000000000E+00  0.00000000000E+00  0.16121682246E+04  0.34036795749E+04  0.29976571291E+04 0.  0.
        3    1    3    3  502    0 -0.30504303799E+02 -0.13137631798E+04 -0.12369586446E+02  0.13141754914E+04  0.10100000352E+00 0. -1.
       -3    1    3    3    0  502  0.30504303799E+02  0.13137631798E+04  0.16245378110E+04  0.20895040835E+04  0.10100000352E+00 0.  1.
</event>
<event>
 5   0  0.7307508E-07  0.2997674E+04  0.7818609E-02  0.8244395E-01
        2   -1    0    0  501    0  0.00000000000E+00  0.00000000000E+00  0.16686050225E+04  0.16686050225E+04  0.25500000920E-02 0. -1.
       -2   -1    0    0    0  501  0.00000000000E+00  0.00000000000E+00 -0.13463418437E+04  0.13463418437E+04  0.25500000920E-02 0.  1.
    10030    2    1    2    0    0  0.00000000000E+00  0.00000000000E+00  0.32226317877E+03  0.30149468662E+04  0.29976742734E+04 0.  0.
        1    1    3    3  502    0 -0.24171493323E+03  0.57606897220E+03  0.15314176986E+04  0.16539412738E+04  0.50400001928E-02 0. -1.
       -1    1    3    3    0  502  0.24171493323E+03 -0.57606897220E+03 -0.12091545198E+04  0.13610055924E+04  0.50400001928E-02 0.  1.
</event>
<event>
 5   0  0.7307508E-07  0.3000620E+04  0.7818609E-02  0.8243554E-01
        2   -1    0    0  501    0  0.00000000000E+00  0.00000000000E+00  0.23318682417E+04  0.23318682417E+04  0.25500000920E-02 0. -1.
       -2   -1    0    0    0  501  0.00000000000E+00  0.00000000000E+00 -0.96529058235E+03  0.96529058235E+03  0.25500000920E-02 0.  1.
    10030    2    1    2    0    0  0.00000000000E+00  0.00000000000E+00  0.13665776594E+04  0.32971588240E+04  0.30006202379E+04 0.  0.
        1    1    3    3  502    0 -0.50515156795E+03 -0.11645779073E+03 -0.86375089715E+03  0.10073758663E+04  0.50400001928E-02 0.  1.
       -1    1    3    3    0  502  0.50515156795E+03  0.11645779073E+03  0.22303285565E+04  0.22897829578E+04  0.50400001928E-02 0. -1.
</event>
<event>
 5   0  0.2414250E-07  0.3000748E+04  0.7818609E-02  0.8243517E-01
        3   -1    0    0  501    0  0.00000000000E+00  0.00000000000E+00  0.22062459130E+04  0.22062459153E+04  0.10100000352E+00 0. -1.
       -3   -1    0    0    0  501  0.00000000000E+00  0.00000000000E+00 -0.10203408150E+04  0.10203408200E+04  0.10100000352E+00 0.  1.
    10030    2    1    2    0    0  0.00000000000E+00  0.00000000000E+00  0.11859050980E+04  0.32265867354E+04  0.30007484165E+04 0.  0.
        5    1    3    3  502    0  0.27111959237E+03 -0.11929757197E+04 -0.34098037220E+03  0.12700340961E+04  0.46999998093E+01 0.  1.
       -5    1    3    3    0  502 -0.27111959237E+03  0.11929757197E+04  0.15268854702E+04  0.19565526392E+04  0.46999998093E+01 0. -1.
</event>
<event>
 5   0  0.7208273E-07  0.3006573E+04  0.7818609E-02  0.8241857E-01
        2   -1    0    0  501    0  0.00000000000E+00  0.00000000000E+00  0.14477159380E+04  0.14477159380E+04  0.25500000920E-02 0.  1.
       -2   -1    0    0    0  501  0.00000000000E+00  0.00000000000E+00 -0.15609896316E+04  0.15609896316E+04  0.25500000920E-02 0. -1.
    10030    2    1    2    0    0  0.00000000000E+00  0.00000000000E+00 -0.11327369360E+03  0.30087055696E+04  0.30065725128E+04 0.  0.
        4    1    3    3  502    0  0.53467889562E+03  0.10374630265E+04  0.89148290645E+03  0.14686573590E+04  0.12699999809E+01 0.  1.
       -4    1    3    3    0  502 -0.53467889562E+03 -0.10374630265E+04 -0.10047566001E+04  0.15400482106E+04  0.12699999809E+01 0. -1.
</event>
<event>
 5   0  0.2679935E-07  0.3012077E+04  0.7818609E-02  0.8240291E-01
        1   -1    0    0  501    0  0.00000000000E+00  0.00000000000E+00  0.18246029886E+04  0.18246029886E+04  0.50400001928E-02 0.  1.
       -1   -1    0    0    0  501  0.00000000000E+00  0.00000000000E+00 -0.12430934589E+04  0.12430934589E+04  0.50400001928E-02 0. -1.
    10030    2    1    2    0    0  0.00000000000E+00  0.00000000000E+00  0.58150952968E+03  0.30676964475E+04  0.30120770509E+04 0.  0.
        2    1    3    3  502    0  0.25147704975E+03  0.90983780304E+03 -0.90441630245E+03  0.13072927685E+04  0.25500000920E-02 0. -1.
       -2    1    3    3    0  502 -0.25147704975E+03 -0.90983780304E+03  0.14859258321E+04  0.17604036790E+04  0.25500000920E-02 0.  1.
</event>
<event>
 5   0  0.7585823E-07  0.2983698E+04  0.7818609E-02  0.8248401E-01
        2   -1    0    0  501    0  0.00000000000E+00  0.00000000000E+00  0.21123029775E+04  0.21123029775E+04  0.25500000920E-02 0.  1.
       -2   -1    0    0    0  501  0.00000000000E+00  0.00000000000E+00 -0.10536429281E+04  0.10536429281E+04  0.25500000920E-02 0. -1.
    10030    2    1    2    0    0  0.00000000000E+00  0.00000000000E+00  0.10586600494E+04  0.31659459056E+04  0.29836977691E+04 0.  0.
        5    1    3    3  502    0  0.14254201375E+03  0.10431716302E+04  0.16508009648E+04  0.19579814073E+04  0.46999998093E+01 0.  1.
       -5    1    3    3    0  502 -0.14254201375E+03 -0.10431716302E+04 -0.59214091540E+03  0.12079644984E+04  0.46999998093E+01 0. -1.
</event>
<event>
 5   0  0.7585823E-07  0.3000441E+04  0.7818609E-02  0.8243605E-01
       -2   -1    0    0    0  501  0.00000000000E+00  0.00000000000E+00  0.13416348064E+04  0.13416348064E+04  0.25500000920E-02 0.  1.
        2   -1    0    0  501    0  0.00000000000E+00  0.00000000000E+00 -0.16775515244E+04  0.16775515244E+04  0.25500000920E-02 0. -1.
    10030    2    1    2    0    0  0.00000000000E+00  0.00000000000E+00 -0.33591671809E+03  0.30191863308E+04  0.30004409774E+04 0.  0.
        5    1    3    3  502    0 -0.59531874178E+03 -0.73809023425E+03  0.10018267196E+04  0.13794420845E+04  0.46999998093E+01 0.  1.
       -5    1    3    3    0  502  0.59531874178E+03  0.73809023425E+03 -0.13377434377E+04  0.16397442463E+04  0.46999998093E+01 0. -1.
</event>
<event>
 5   0  0.7399409E-07  0.2998752E+04  0.7818609E-02  0.8244087E-01
       -2   -1    0    0    0  501  0.00000000000E+00  0.00000000000E+00  0.10745403867E+04  0.10745403867E+04  0.25500000920E-02 0. -1.
        2   -1    0    0  501    0  0.00000000000E+00  0.00000000000E+00 -0.20921773976E+04  0.20921773976E+04  0.25500000920E-02 0.  1.
    10030    2    1    2    0    0  0.00000000000E+00  0.00000000000E+00 -0.10176370110E+04  0.31667177843E+04  0.29987524805E+04 0.  0.
        3    1    3    3  502    0  0.14000273199E+04  0.53755959149E+02  0.55098578909E+02  0.14021419555E+04  0.10100000352E+00 0. -1.
       -3    1    3    3    0  502 -0.14000273199E+04 -0.53755959149E+02 -0.10727355899E+04  0.17645758288E+04  0.10100000352E+00 0.  1.
</event>
<event>
 5   0  0.7585823E-07  0.2993911E+04  0.7818609E-02  0.8245472E-01
       -2   -1    0    0    0  501  0.00000000000E+00  0.00000000000E+00  0.14726739883E+04  0.14726739883E+04  0.25500000920E-02 0. -1.
        2   -1    0    0  501    0  0.00000000000E+00  0.00000000000E+00 -0.15216377881E+04  0.15216377881E+04  0.25500000920E-02 0.  1.
    10030    2    1    2    0    0  0.00000000000E+00  0.00000000000E+00 -0.48963799803E+02  0.29943117764E+04  0.29939114150E+04 0.  0.
        5    1    3    3  502    0 -0.10592114487E+04 -0.83256321825E+03  0.62811121458E+03  0.14864845083E+04  0.46999998093E+01 0. -1.
       -5    1    3    3    0  502  0.10592114487E+04  0.83256321825E+03 -0.67707501439E+03  0.15078272682E+04  0.46999998093E+01 0.  1.
</event>
<event>
 5   0  0.7278657E-07  0.2998926E+04  0.7818609E-02  0.8244038E-01
        2   -1    0    0  501    0  0.00000000000E+00  0.00000000000E+00  0.17998528615E+04  0.17998528615E+04  0.25500000920E-02 0. -1.
       -2   -1    0    0    0  501  0.00000000000E+00  0.00000000000E+00 -0.12492070498E+04  0.12492070498E+04  0.25500000920E-02 0.  1.
    10030    2    1    2    0    0  0.00000000000E+00  0.00000000000E+00  0.55064581172E+03  0.30490599112E+04  0.29989257297E+04 0.  0.
        2    1    3    3  502    0  0.70122267352E+03  0.11930423246E+04  0.86231819977E+03  0.16305385319E+04  0.25500000920E-02 0. -1.
       -2    1    3    3    0  502 -0.70122267352E+03 -0.11930423246E+04 -0.31167238805E+03  0.14185213794E+04  0.25500000920E-02 0.  1.
</event>
<event>
 5   0  0.7585823E-07  0.3019608E+04  0.7818609E-02  0.8238154E-01
        2   -1    0    0  501    0  0.00000000000E+00  0.00000000000E+00  0.16918153996E+04  0.16918153996E+04  0.25500000920E-02 0.  1.
       -2   -1    0    0    0  501  0.00000000000E+00  0.00000000000E+00 -0.13473744125E+04  0.13473744125E+04  0.25500000920E-02 0. -1.
    10030    2    1    2    0    0  0.00000000000E+00  0.00000000000E+00  0.34444098716E+03  0.30391898121E+04  0.30196084382E+04 0.  0.
        5    1    3    3  502    0 -0.67286377061E+03  0.10174652462E+04 -0.72321471192E+03  0.14181124041E+04  0.46999998093E+01 0. -1.
       -5    1    3    3    0  502  0.67286377061E+03 -0.10174652462E+04  0.10676556991E+04  0.16210774080E+04  0.46999998093E+01 0.  1.
</event>
<event>
 5   0  0.7278657E-07  0.3001803E+04  0.7818609E-02  0.8243216E-01
       -2   -1    0    0    0  501  0.00000000000E+00  0.00000000000E+00  0.10178672227E+04  0.10178672227E+04  0.25500000920E-02 0. -1.
        2   -1    0    0  501    0  0.00000000000E+00  0.00000000000E+00 -0.22131626408E+04  0.22131626408E+04  0.25500000920E-02 0.  1.
    10030    2    1    2    0    0  0.00000000000E+00  0.00000000000E+00 -0.11952954180E+04  0.32310298635E+04  0.30018032651E+04 0.  0.
        2    1    3    3  502    0 -0.85852803519E+03 -0.10136535445E+04  0.15437638002E+03  0.13373092246E+04  0.25500000920E-02 0. -1.
       -2    1    3    3    0  502  0.85852803519E+03  0.10136535445E+04 -0.13496717980E+04  0.18937206389E+04  0.25500000920E-02 0.  1.
</event>
<event>
 5   0  0.7208273E-07  0.2991169E+04  0.7818609E-02  0.8246257E-01
        2   -1    0    0  501    0  0.00000000000E+00  0.00000000000E+00  0.15714045752E+04  0.15714045752E+04  0.25500000920E-02 0. -1.
       -2   -1    0    0    0  501  0.00000000000E+00  0.00000000000E+00 -0.14234225584E+04  0.14234225584E+04  0.25500000920E-02 0.  1.
    10030    2    1    2    0    0  0.00000000000E+00  0.00000000000E+00  0.14798201683E+03  0.29948271336E+04  0.29911688155E+04 0.  0.
        4    1    3    3  502    0 -0.11674901834E+04 -0.93318461410E+03  0.20033953051E+02  0.14947474116E+04  0.12699999809E+01 0.  1.
       -4    1    3    3    0  502  0.11674901834E+04  0.93318461410E+03  0.12794806378E+03  0.15000797220E+04  0.12699999809E+01 0. -1.
</event>
<event>
 5   0  0.7307508E-07  0.2995341E+04  0.7818609E-02  0.8245063E-01
        2   -1    0    0  501    0  0.00000000000E+00  0.00000000000E+00  0.17114540184E+04  0.17114540184E+04  0.25500000920E-02 0. -1.
       -2   -1    0    0    0  501  0.00000000000E+00  0.00000000000E+00 -0.13105914127E+04  0.13105914127E+04  0.25500000920E-02 0.  1.
    10030    2    1    2    0    0  0.00000000000E+00  0.00000000000E+00  0.40086260569E+03  0.30220454310E+04  0.29953410087E+04 0.  0.
        1    1    3    3  502    0  0.57699546192E+02  0.29637245499E+03  0.16804282573E+04  0.17073385715E+04  0.50400001928E-02 0. -1.
       -1    1    3    3    0  502 -0.57699546192E+02 -0.29637245499E+03 -0.12795656516E+04  0.13147068595E+04  0.50400001928E-02 0.  1.
</event>
<event>
 5   0  0.2640081E-07  0.2978850E+04  0.7818609E-02  0.8249796E-01
       -1   -1    0    0    0  501  0.00000000000E+00  0.00000000000E+00  0.15447923661E+04  0.15447923661E+04  0.50400001928E-02 0.  1.
        1   -1    0    0  501    0  0.00000000000E+00  0.00000000000E+00 -0.14360419215E+04  0.14360419215E+04  0.50400001928E-02 0. -1.
    10030    2    1    2    0    0  0.00000000000E+00  0.00000000000E+00  0.10875044458E+03  0.29808342876E+04  0.29788498437E+04 0.  0.
        1    1    3    3  502    0 -0.55681972875E+03  0.32557141247E+03 -0.12890323119E+04  0.14414053060E+04  0.50400001928E-02 0. -1.
       -1    1    3    3    0  502  0.55681972875E+03 -0.32557141247E+03  0.13977827565E+04  0.15394289816E+04  0.50400001928E-02 0.  1.
</event>
<event>
 5   0  0.2602891E-07  0.3004512E+04  0.7818609E-02  0.8242444E-01
        1   -1    0    0  501    0  0.00000000000E+00  0.00000000000E+00  0.80177336095E+03  0.80177336096E+03  0.50400001928E-02 0.  1.
       -1   -1    0    0    0  501  0.00000000000E+00  0.00000000000E+00 -0.28147264688E+04  0.28147264688E+04  0.50400001928E-02 0. -1.
    10030    2    1    2    0    0  0.00000000000E+00  0.00000000000E+00 -0.20129531079E+04  0.36164998298E+04  0.30045117414E+04 0.  0.
        5    1    3    3  502    0 -0.55335595667E+03  0.13888774977E+04 -0.11832472803E+04  0.19066409559E+04  0.46999998093E+01 0. -1.
       -5    1    3    3    0  502  0.55335595667E+03 -0.13888774977E+04 -0.82970582758E+03  0.17098588739E+04  0.46999998093E+01 0.  1.
</event>
<event>
 5   0  0.2679935E-07  0.3002203E+04  0.7818609E-02  0.8243102E-01
       -1   -1    0    0    0  501  0.00000000000E+00  0.00000000000E+00  0.17639946269E+04  0.17639946269E+04  0.50400001928E-02 0.  1.
        1   -1    0    0  501    0  0.00000000000E+00  0.00000000000E+00 -0.12773885031E+04  0.12773885031E+04  0.50400001928E-02 0. -1.
    10030    2    1    2    0    0  0.00000000000E+00  0.00000000000E+00  0.48660612375E+03  0.30413831300E+04  0.30022034947E+04 0.  0.
        2    1    3    3  502    0 -0.14278246779E+04  0.43279431736E+03  0.75882213239E+02  0.14939050647E+04  0.25500000920E-02 0. -1.
       -2    1    3    3    0  502  0.14278246779E+04 -0.43279431736E+03  0.41072391051E+03  0.15474780653E+04  0.25500000920E-02 0.  1.
</event>
<event>
 5   0  0.2602891E-07  0.3000374E+04  0.7818609E-02  0.8243624E-01
       -1   -1    0    0    0  501  0.00000000000E+00  0.00000000000E+00  0.10808817172E+04  0.10808817172E+04  0.50400001928E-02 0.  1.
        1   -1    0    0  501    0  0.00000000000E+00  0.00000000000E+00 -0.20821531185E+04  0.20821531185E+04  0.50400001928E-02 0. -1.
    10030    2    1    2    0    0  0.00000000000E+00  0.00000000000E+00 -0.10012714013E+04  0.31630348357E+04  0.30003741354E+04 0.  0.
        5    1    3    3  502    0 -0.11152430997E+04 -0.41776796262E+03  0.46109471680E+03  0.12770777854E+04  0.46999998093E+01 0.  1.
       -5    1    3    3    0  502  0.11152430997E+04  0.41776796262E+03 -0.14623661181E+04  0.18859570503E+04  0.46999998093E+01 0. -1.
</event>
<event>
 5   0  0.7307508E-07  0.2999638E+04  0.7818609E-02  0.8243834E-01
        2   -1    0    0  501    0  0.00000000000E+00  0.00000000000E+00  0.19259305161E+04  0.19259305161E+04  0.25500000920E-02 0.  1.
       -2   -1    0    0    0  501  0.00000000000E+00  0.00000000000E+00 -0.11679841575E+04  0.11679841575E+04  0.25500000920E-02 0. -1.
    10030    2    1    2    0    0  0.00000000000E+00  0.00000000000E+00  0.75794635861E+03  0.30939146737E+04  0.29996375323E+04 0.  0.
        1    1    3    3  502    0 -0.63381299669E+03  0.51396746094E+03 -0.91897948208E+03  0.12289852539E+04  0.50400001928E-02 0. -1.
       -1    1    3    3    0  502  0.63381299669E+03 -0.51396746094E+03  0.16769258407E+04  0.18649294198E+04  0.50400001928E-02 0.  1.
</event>
<event>
 5   0  0.7208273E-07  0.3008460E+04  0.7818609E-02  0.8241319E-01
        2   -1    0    0  501    0  0.00000000000E+00  0.00000000000E+00  0.19924895789E+04  0.19924895789E+04  0.25500000920E-02 0. -1.
       -2   -1    0    0    0  501  0.00000000000E+00  0.00000000000E+00 -0.11356187362E+04  0.11356187362E+04  0.25500000920E-02 0.  1.
    10030    2    1    2    0    0  0.00000000000E+00  0.00000000000E+00  0.85687084265E+03  0.31281083151E+04  0.30084604019E+04 0.  0.
        4    1    3    3  502    0  0.43443007083E+03 -0.86660847291E+03  0.16243826419E+04  0.18916554422E+04  0.12699999809E+01 0. -1.
       -4    1    3    3    0  502 -0.43443007083E+03  0.86660847291E+03 -0.76751179929E+03  0.12364528728E+04  0.12699999809E+01 0.  1.
</event>
<event>
 5   0  0.2792361E-07  0.3001669E+04  0.7818609E-02  0.8243254E-01
        1   -1    0    0  501    0  0.00000000000E+00  0.00000000000E+00  0.17149427095E+04  0.17149427095E+04  0.50400001928E-02 0.  1.
       -1   -1    0    0    0  501  0.00000000000E+00  0.00000000000E+00 -0.13134574047E+04  0.13134574047E+04  0.50400001928E-02 0. -1.
    10030    2    1    2    0    0  0.00000000000E+00  0.00000000000E+00  0.40148530483E+03  0.30284001143E+04  0.30016690027E+04 0.  0.
        4    1    3    3  502    0  0.24439459268E+03  0.58006026302E+03 -0.11738531053E+04  0.13319652216E+04  0.12699999809E+01 0. -1.
       -4    1    3    3    0  502 -0.24439459268E+03 -0.58006026302E+03  0.15753384102E+04  0.16964348927E+04  0.12699999809E+01 0.  1.
</event>
<event>
 5   0  0.2679935E-07  0.2997716E+04  0.7818609E-02  0.8244383E-01
        1   -1    0    0  501    0  0.00000000000E+00  0.00000000000E+00  0.19207224290E+04  0.19207224290E+04  0.50400001928E-02 0.  1.
       -1   -1    0    0    0  501  0.00000000000E+00  0.00000000000E+00 -0.11696515325E+04  0.11696515325E+04  0.50400001928E-02 0. -1.
    10030    2    1    2    0    0  0.00000000000E+00  0.00000000000E+00  0.75107089651E+03  0.30903739615E+04  0.29977164193E+04 0.  0.
        2    1    3    3  502    0 -0.14751205659E+04 -0.15778429231E+02  0.10210864348E+03  0.14787345326E+04  0.25500000920E-02 0.  1.
       -2    1    3    3    0  502  0.14751205659E+04  0.15778429231E+02  0.64896225302E+03  0.16116394289E+04  0.25500000920E-02 0. -1.
</event>
<event>
 5   0  0.2679935E-07  0.2986260E+04  0.7818609E-02  0.8247665E-01
       -1   -1    0    0    0  501  0.00000000000E+00  0.00000000000E+00  0.10726187935E+04  0.10726187935E+04  0.50400001928E-02 0.  1.
        1   -1    0    0  501    0  0.00000000000E+00  0.00000000000E+00 -0.20784990208E+04  0.20784990208E+04  0.50400001928E-02 0. -1.
    10030    2    1    2    0    0  0.00000000000E+00  0.00000000000E+00 -0.10058802273E+04  0.31511178143E+04  0.29862599431E+04 0.  0.
        2    1    3    3  502    0  0.41712385926E+03 -0.87772609121E+03  0.69323742659E+03  0.11937225535E+04  0.25500000920E-02 0.  1.
       -2    1    3    3    0  502 -0.41712385926E+03  0.87772609121E+03 -0.16991176539E+04  0.19573952607E+04  0.25500000920E-02 0. -1.
</event>
<event>
 5   0  0.7278657E-07  0.2998601E+04  0.7818609E-02  0.8244131E-01
        2   -1    0    0  501    0  0.00000000000E+00  0.00000000000E+00  0.18873036567E+04  0.18873036567E+04  0.25500000920E-02 0.  1.
       -2   -1    0    0    0  501  0.00000000000E+00  0.00000000000E+00 -0.11910650091E+04  0.11910650091E+04  0.25500000920E-02 0. -1.
    10030    2    1    2    0    0  0.00000000000E+00  0.00000000000E+00  0.69623864760E+03  0.30783686657E+04  0.29986005716E+04 0.  0.
        2    1    3    3  502    0  0.99454177763E+03 -0.74688671933E+03 -0.51137889581E+03  0.13447905019E+04  0.25500000920E-02 0. -1.
       -2    1    3    3    0  502 -0.99454177763E+03  0.74688671933E+03  0.12076175434E+04  0.17335781638E+04  0.25500000920E-02 0.  1.
</event>
<event>
 5   0  0.2640081E-07  0.3027642E+04  0.7818609E-02  0.8235881E-01
       -1   -1    0    0    0  501  0.00000000000E+00  0.00000000000E+00  0.14600738656E+04  0.14600738656E+04  0.50400001928E-02 0. -1.
        1   -1    0    0  501    0  0.00000000000E+00  0.00000000000E+00 -0.15695465981E+04  0.15695465981E+04  0.50400001928E-02 0.  1.
    10030    2    1    2    0    0  0.00000000000E+00  0.00000000000E+00 -0.10947273251E+03  0.30296204636E+04  0.30276419660E+04 0.  0.
        1    1    3    3  502    0 -0.95603532238E+03  0.11474296707E+04 -0.30199211408E+03  0.15237446058E+04  0.50400001928E-02 0.  1.
       -1    1    3    3    0  502  0.95603532238E+03 -0.11474296707E+04  0.19251938158E+03  0.15058758578E+04  0.50400001928E-02 0. -1.
</event>
<event>
 5   0  0.2792361E-07  0.3002805E+04  0.7818609E-02  0.8242930E-01
        1   -1    0    0  501    0  0.00000000000E+00  0.00000000000E+00  0.18871820922E+04  0.18871820922E+04  0.50400001928E-02 0.  1.
       -1   -1    0    0    0  501  0.00000000000E+00  0.00000000000E+00 -0.11944842977E+04  0.11944842977E+04  0.50400001928E-02 0. -1.
    10030    2    1    2    0    0  0.00000000000E+00  0.00000000000E+00  0.69269779445E+03  0.30816663899E+04  0.30028049394E+04 0.  0.
        4    1    3    3  502    0  0.10228965234E+04 -0.33130754738E+03 -0.72908703464E+03  0.12990964188E+04  0.12699999809E+01 0. -1.
       -4    1    3    3    0  502 -0.10228965234E+04  0.33130754738E+03  0.14217848291E+04  0.17825699710E+04  0.12699999809E+01 0.  1.
</event>
<event>
 5   0  0.2621825E-07  0.2991524E+04  0.7818609E-02  0.8246155E-01
        1   -1    0    0  501    0  0.00000000000E+00  0.00000000000E+00  0.18975641361E+04  0.18975641361E+04  0.50400001928E-02 0.  1.
       -1   -1    0    0    0  501  0.00000000000E+00  0.00000000000E+00 -0.11790403087E+04  0.11790403087E+04  0.50400001928E-02 0. -1.
    10030    2    1    2    0    0  0.00000000000E+00  0.00000000000E+00  0.71852382734E+03  0.30766044448E+04  0.29915244307E+04 0.  0.
        3    1    3    3  502    0  0.14634933654E+04 -0.24147912658E+01  0.67705819211E+03  0.16125217727E+04  0.10100000352E+00 0.  1.
       -3    1    3    3    0  502 -0.14634933654E+04  0.24147912658E+01  0.41465635226E+02  0.14640826721E+04  0.10100000352E+00 0. -1.
</event>
<event>
 5   0  0.2792361E-07  0.3002353E+04  0.7818609E-02  0.8243059E-01
       -1   -1    0    0    0  501  0.00000000000E+00  0.00000000000E+00  0.16531352993E+04  0.16531352993E+04  0.50400001928E-02 0.  1.
        1   -1    0    0  501    0  0.00000000000E+00  0.00000000000E+00 -0.13631857929E+04  0.13631857929E+04  0.50400001928E-02 0. -1.
    10030    2    1    2    0    0  0.00000000000E+00  0.00000000000E+00  0.28994950642E+03  0.30163210922E+04  0.30023527799E+04 0.  0.
        4    1    3    3  502    0  0.61914235352E+03  0.13026933847E+04  0.56306185013E+03  0.15483499502E+04  0.12699999809E+01 0.  1.
       -4    1    3    3    0  502 -0.61914235352E+03 -0.13026933847E+04 -0.27311234371E+03  0.14679711420E+04  0.12699999809E+01 0. -1.
</event>
<event>
 5   0  0.7208273E-07  0.3007009E+04  0.7818609E-02  0.8241732E-01
        2   -1    0    0  501    0  0.00000000000E+00  0.00000000000E+00  0.18222324453E+04  0.18222324453E+04  0.25500000920E-02 0. -1.
       -2   -1    0    0    0  501  0.00000000000E+00  0.00000000000E+00 -0.12405257865E+04  0.12405257865E+04  0.25500000920E-02 0.  1.
    10030    2    1    2    0    0  0.00000000000E+00  0.00000000000E+00  0.58170665878E+03  0.30627582318E+04  0.30070093697E+04 0.  0.
        4    1    3    3  502    0 -0.10972740091E+04 -0.39747741805E+02 -0.75528882120E+03  0.13326863661E+04  0.12699999809E+01 0.  1.
       -4    1    3    3    0  502  0.10972740091E+04  0.39747741805E+02  0.13369954800E+04  0.17300718657E+04  0.12699999809E+01 0. -1.
</event>
<event>
 5   0  0.7278657E-07  0.2996838E+04  0.7818609E-02  0.8244634E-01
       -2   -1    0    0    0  501  0.00000000000E+00  0.00000000000E+00  0.10949624088E+04  0.10949624088E+04  0.25500000920E-02 0.  1.
        2   -1    0    0  501    0  0.00000000000E+00  0.00000000000E+00 -0.20505357149E+04  0.20505357149E+04  0.25500000920E-02 0. -1.
    10030    2    1    2    0    0  0.00000000000E+00  0.00000000000E+00 -0.95557330611E+03  0.31454981238E+04  0.29968380175E+04 0.  0.
        2    1    3    3  502    0 -0.33712444244E+02  0.13349605618E+04  0.23563896085E+03  0.13560169433E+04  0.25500000920E-02 0.  1.
       -2    1    3    3    0  502  0.33712444244E+02 -0.13349605618E+04 -0.11912122670E+04  0.17894811805E+04  0.25500000920E-02 0. -1.
</event>
<event>
 5   0  0.7585823E-07  0.3000713E+04  0.7818609E-02  0.8243527E-01
       -2   -1    0    0    0  501  0.00000000000E+00  0.00000000000E+00  0.10459715660E+04  0.10459715660E+04  0.25500000920E-02 0.  1.
        2   -1    0    0  501    0  0.00000000000E+00  0.00000000000E+00 -0.21521329421E+04  0.21521329421E+04  0.25500000920E-02 0. -1.
    10030    2    1    2    0    0  0.00000000000E+00  0.00000000000E+00 -0.11061613761E+04  0.31981045081E+04  0.30007131577E+04 0.  0.
        5    1    3    3  502    0  0.68913437759E+03  0.65800899017E+02  0.86557487981E+03  0.11083672276E+04  0.46999998093E+01 0.  1.
       -5    1    3    3    0  502 -0.68913437759E+03 -0.65800899017E+02 -0.19717362559E+04  0.20897372805E+04  0.46999998093E+01 0. -1.
</event>
<event>
 5   0  0.7399409E-07  0.3000134E+04  0.7818609E-02  0.8243693E-01
        2   -1    0    0  501    0  0.00000000000E+00  0.00000000000E+00  0.18279096808E+04  0.18279096808E+04  0.25500000920E-02 0.  1.
       -2   -1    0    0    0  501  0.00000000000E+00  0.00000000000E+00 -0.12310241934E+04  0.12310241934E+04  0.25500000920E-02 0. -1.
    10030    2    1    2    0    0  0.00000000000E+00  0.00000000000E+00  0.59688548743E+03  0.30589338742E+04  0.30001340239E+04 0.  0.
        3    1    3    3  502    0  0.40032016161E+03  0.98280578456E+03  0.13794281972E+04  0.17403981163E+04  0.10100000352E+00 0.  1.
       -3    1    3    3    0  502 -0.40032016161E+03 -0.98280578456E+03 -0.78254270976E+03  0.13185357579E+04  0.10100000352E+00 0. -1.
</event>
<event>
 5   0  0.7307508E-07  0.3006351E+04  0.7818609E-02  0.8241920E-01
       -2   -1    0    0    0  501  0.00000000000E+00  0.00000000000E+00  0.11871721354E+04  0.11871721354E+04  0.25500000920E-02 0. -1.
        2   -1    0    0  501    0  0.00000000000E+00  0.00000000000E+00 -0.19032925566E+04  0.19032925566E+04  0.25500000920E-02 0.  1.
    10030    2    1    2    0    0  0.00000000000E+00  0.00000000000E+00 -0.71612042122E+03  0.30904646921E+04  0.30063505377E+04 0.  0.
        1    1    3    3  502    0 -0.12289294730E+04  0.17917828309E+03 -0.12286092127E+04  0.17469553813E+04  0.50400001928E-02 0.  1.
       -1    1    3    3    0  502  0.12289294730E+04 -0.17917828309E+03  0.51248879145E+03  0.13435093108E+04  0.50400001928E-02 0. -1.
</event>
<event>
 5   0  0.2621825E-07  0.2987699E+04  0.7818609E-02  0.8247252E-01
       -1   -1    0    0    0  501  0.00000000000E+00  0.00000000000E+00  0.13159146616E+04  0.13159146616E+04  0.50400001928E-02 0.  1.
        1   -1    0    0  501    0  0.00000000000E+00  0.00000000000E+00 -0.16958439415E+04  0.16958439415E+04  0.50400001928E-02 0. -1.
    10030    2    1    2    0    0  0.00000000000E+00  0.00000000000E+00 -0.37992927987E+03  0.30117586031E+04  0.29876987173E+04 0.  0.
        3    1    3    3  502    0 -0.11722950680E+04 -0.77079312919E+03  0.32718532711E+03  0.14406415317E+04  0.10100000352E+00 0. -1.
       -3    1    3    3    0  502  0.11722950680E+04  0.77079312919E+03 -0.70711460698E+03  0.15711170714E+04  0.10100000352E+00 0.  1.
</event>
<event>
 5   0  0.2621825E-07  0.2984377E+04  0.7818609E-02  0.8248206E-01
        1   -1    0    0  501    0  0.00000000000E+00  0.00000000000E+00  0.24221967358E+04  0.24221967358E+04  0.50400001928E-02 0.  1.
       -1   -1    0    0    0  501  0.00000000000E+00  0.00000000000E+00 -0.91925936703E+03  0.91925936704E+03  0.50400001928E-02 0. -1.
    10030    2    1    2    0    0  0.00000000000E+00  0.00000000000E+00  0.15029373687E+04  0.33414561028E+04  0.29843773476E+04 0.  0.
        3    1    3    3  502    0 -0.78214779380E+03 -0.92951925702E+03  0.17216729713E+04  0.21071115421E+04  0.10100000352E+00 0. -1.
       -3    1    3    3    0  502  0.78214779380E+03  0.92951925702E+03 -0.21873560256E+03  0.12343445607E+04  0.10100000352E+00 0.  1.
</event>
<event>
 5   0  0.7585823E-07  0.2962319E+04  0.7818609E-02  0.8254573E-01
       -2   -1    0    0    0  501  0.00000000000E+00  0.00000000000E+00  0.81843553765E+03  0.81843553765E+03  0.25500000920E-02 0.  1.
        2   -1    0    0  501    0  0.00000000000E+00  0.00000000000E+00 -0.26805215439E+04  0.26805215439E+04  0.25500000920E-02 0. -1.
    10030    2    1    2    0    0  0.00000000000E+00  0.00000000000E+00 -0.18620860063E+04  0.34989570816E+04  0.29623194230E+04 0.  0.
        5    1    3    3  502    0 -0.13677664464E+04 -0.39932777638E+03 -0.45334771515E+03  0.14952571570E+04  0.46999998093E+01 0.  1.
       -5    1    3    3    0  502  0.13677664464E+04  0.39932777638E+03 -0.14087382911E+04  0.20036999246E+04  0.46999998093E+01 0. -1.
</event>
<event>
 5   0  0.2792361E-07  0.2999291E+04  0.7818609E-02  0.8243933E-01
       -1   -1    0    0    0  501  0.00000000000E+00  0.00000000000E+00  0.11784983837E+04  0.11784983837E+04  0.50400001928E-02 0. -1.
        1   -1    0    0  501    0  0.00000000000E+00  0.00000000000E+00 -0.19083072527E+04  0.19083072527E+04  0.50400001928E-02 0.  1.
    10030    2    1    2    0    0  0.00000000000E+00  0.00000000000E+00 -0.72980886896E+03  0.30868056364E+04  0.29992912582E+04 0.  0.
        4    1    3    3  502    0  0.34808875891E+03 -0.14303247616E+04 -0.65950966768E+03  0.16130558956E+04  0.12699999809E+01 0.  1.
       -4    1    3    3    0  502 -0.34808875891E+03  0.14303247616E+04 -0.70299201283E+02  0.14737497407E+04  0.12699999809E+01 0. -1.
</event>
<event>
 5   0  0.7307508E-07  0.2998100E+04  0.7818609E-02  0.8244274E-01
       -2   -1    0    0    0  501  0.00000000000E+00  0.00000000000E+00  0.98433230009E+03  0.98433230009E+03  0.25500000920E-02 0.  1.
        2   -1    0    0  501    0  0.00000000000E+00  0.00000000000E+00 -0.22829185753E+04  0.22829185753E+04  0.25500000920E-02 0. -1.
    10030    2    1    2    0    0  0.00000000000E+00  0.00000000000E+00 -0.12985862752E+04  0.32672508754E+04  0.29980997262E+04 0.  0.
        1    1    3    3  502    0  0.83115035649E+03 -0.12306536132E+04 -0.42640503434E+03  0.15450373730E+04  0.50400001928E-02 0.  1.
       -1    1    3    3    0  502 -0.83115035649E+03  0.12306536132E+04 -0.87218124085E+03  0.17222135023E+04  0.50400001928E-02 0. -1.
</event>
<event>
 5   0  0.7399409E-07  0.2995046E+04  0.7818609E-02  0.8245147E-01
       -2   -1    0    0    0  501  0.00000000000E+00  0.00000000000E+00  0.15056609090E+04  0.15056609090E+04  0.25500000920E-02 0.  1.
        2   -1    0    0  501    0  0.00000000000E+00  0.00000000000E+00 -0.14894293211E+04  0.14894293211E+04  0.25500000920E-02 0. -1.
    10030    2    1    2    0    0  0.00000000000E+00  0.00000000000E+00  0.16231587845E+02  0.29950902301E+04  0.29950462471E+04 0.  0.
        3    1    3    3  502    0 -0.13285496041E+04 -0.68626576107E+03 -0.72945559644E+02  0.14971058113E+04  0.10100000352E+00 0. -1.
       -3    1    3    3    0  502  0.13285496041E+04  0.68626576107E+03  0.89177147489E+02  0.14979844188E+04  0.10100000352E+00 0.  1.
</event>
<event>
 5   0  0.2621825E-07  0.2993603E+04  0.7818609E-02  0.8245560E-01
       -1   -1    0    0    0  501  0.00000000000E+00  0.00000000000E+00  0.10758069829E+04  0.10758069829E+04  0.50400001928E-02 0. -1.
        1   -1    0    0  501    0  0.00000000000E+00  0.00000000000E+00 -0.20825439379E+04  0.20825439379E+04  0.50400001928E-02 0.  1.
    10030    2    1    2    0    0  0.00000000000E+00  0.00000000000E+00 -0.10067369550E+04  0.31583509208E+04  0.29936033877E+04 0.  0.
        3    1    3    3  502    0  0.20282120284E+03 -0.14638474974E+04 -0.75399019402E+03  0.16590621323E+04  0.10100000352E+00 0.  1.
       -3    1    3    3    0  502 -0.20282120284E+03  0.14638474974E+04 -0.25274676094E+03  0.14992887885E+04  0.10100000352E+00 0. -1.
</event>
<event>
 5   0  0.7399409E-07  0.3002398E+04  0.7818609E-02  0.8243046E-01
       -2   -1    0    0    0  501  0.00000000000E+00  0.00000000000E+00  0.84476166621E+03  0.84476166621E+03  0.25500000920E-02 0. -1.
        2   -1    0    0  501    0  0.00000000000E+00  0.00000000000E+00 -0.26677334659E+04  0.26677334659E+04  0.25500000920E-02 0.  1.
    10030    2    1    2    0    0  0.00000000000E+00  0.00000000000E+00 -0.18229717997E+04  0.35124951321E+04  0.30023983531E+04 0.  0.
        3    1    3    3  502    0  0.69899189402E+03 -0.12822097403E+04 -0.13183466678E+04  0.19674067787E+04  0.10100000352E+00 0.  1.
       -3    1    3    3    0  502 -0.69899189402E+03  0.12822097403E+04 -0.50462513185E+03  0.15450883534E+04  0.10100000352E+00 0. -1.
</event>
<event>
 5   0  0.7307508E-07  0.3001335E+04  0.7818609E-02  0.8243350E-01
        2   -1    0    0  501    0  0.00000000000E+00  0.00000000000E+00  0.22559840228E+04  0.22559840228E+04  0.25500000920E-02 0.  1.
       -2   -1    0    0    0  501  0.00000000000E+00  0.00000000000E+00 -0.99823555936E+03  0.99823555936E+03  0.25500000920E-02 0. -1.
    10030    2    1    2    0    0  0.00000000000E+00  0.00000000000E+00  0.12577484634E+04  0.32542195822E+04  0.30013353514E+04 0.  0.
        1    1    3    3  502    0 -0.52731889555E+03 -0.23604974523E+00 -0.89447369652E+03  0.10383392832E+04  0.50400001928E-02 0. -1.
       -1    1    3    3    0  502  0.52731889555E+03  0.23604974523E+00  0.21522221600E+04  0.22158802989E+04  0.50400001928E-02 0.  1.
</event>
<event>
 5   0  0.2679935E-07  0.2997512E+04  0.7818609E-02  0.8244442E-01
        1   -1    0    0  501    0  0.00000000000E+00  0.00000000000E+00  0.10002890039E+04  0.10002890039E+04  0.50400001928E-02 0. -1.
       -1   -1    0    0    0  501  0.00000000000E+00  0.00000000000E+00 -0.22456207599E+04  0.22456207599E+04  0.50400001928E-02 0.  1.
    10030    2    1    2    0    0  0.00000000000E+00  0.00000000000E+00 -0.12453317560E+04  0.32459097639E+04  0.29975121372E+04 0.  0.
        2    1    3    3  502    0 -0.48038895321E+01 -0.83419508569E+03  0.72565265060E+03  0.11056564962E+04  0.25500000920E-02 0. -1.
       -2    1    3    3    0  502  0.48038895321E+01  0.83419508569E+03 -0.19709844066E+04  0.21402532676E+04  0.25500000920E-02 0.  1.
</event>
<event>
 5   0  0.7208273E-07  0.3002533E+04  0.7818609E-02  0.8243008E-01
       -2   -1    0    0    0  501  0.00000000000E+00  0.00000000000E+00  0.14569439793E+04  0.14569439793E+04  0.25500000920E-02 0.  1.
        2   -1    0    0  501    0  0.00000000000E+00  0.00000000000E+00 -0.15469378309E+04  0.15469378309E+04  0.25500000920E-02 0. -1.
    10030    2    1    2    0    0  0.00000000000E+00  0.00000000000E+00 -0.89993851637E+02  0.30038818102E+04  0.30025334363E+04 0.  0.
        4    1    3    3  502    0 -0.13740319306E+04  0.56117238007E+03  0.18076335818E+03  0.14951773109E+04  0.12699999809E+01 0.  1.
       -4    1    3    3    0  502  0.13740319306E+04 -0.56117238007E+03 -0.27075720981E+03  0.15087044992E+04  0.12699999809E+01 0. -1.
</event>
<event>
 5   0  0.7278657E-07  0.3000374E+04  0.7818609E-02  0.8243624E-01
       -2   -1    0    0    0  501  0.00000000000E+00  0.00000000000E+00  0.14600357098E+04  0.14600357098E+04  0.25500000920E-02 0. -1.
        2   -1    0    0  501    0  0.00000000000E+00  0.00000000000E+00 -0.15414423644E+04  0.15414423644E+04  0.25500000920E-02 0.  1.
    10030    2    1    2    0    0  0.00000000000E+00  0.00000000000E+00 -0.81406654585E+02  0.30014780743E+04  0.30003739079E+04 0.  0.
        2    1    3    3  502    0  0.43194837645E+03 -0.13519658025E+04 -0.52685538502E+03  0.15139245450E+04  0.25500000920E-02 0.  1.
       -2    1    3    3    0  502 -0.43194837645E+03  0.13519658025E+04  0.44544873044E+03  0.14875535293E+04  0.25500000920E-02 0. -1.
</event>
<event>
 5   0  0.2621825E-07  0.3007955E+04  0.7818609E-02  0.8241463E-01
        1   -1    0    0  501    0  0.00000000000E+00  0.00000000000E+00  0.11393357512E+04  0.11393357512E+04  0.50400001928E-02 0. -1.
       -1   -1    0    0    0  501  0.00000000000E+00  0.00000000000E+00 -0.19853214069E+04  0.19853214069E+04  0.50400001928E-02 0.  1.
    10030    2    1    2    0    0  0.00000000000E+00  0.00000000000E+00 -0.84598565567E+03  0.31246571581E+04  0.30079545585E+04 0.  0.
        3    1    3    3  502    0 -0.92448973947E+03 -0.11790765133E+04 -0.55861443573E+03  0.15990474666E+04  0.10100000352E+00 0.  1.
       -3    1    3    3    0  502  0.92448973947E+03  0.11790765133E+04 -0.28737121994E+03  0.15256096915E+04  0.10100000352E+00 0. -1.
</event>
<event>
 5   0  0.2792361E-07  0.2999742E+04  0.7818609E-02  0.8243804E-01
        1   -1    0    0  501    0  0.00000000000E+00  0.00000000000E+00  0.67857124253E+03  0.67857124255E+03  0.50400001928E-02 0.  1.
       -1   -1    0    0    0  501  0.00000000000E+00  0.00000000000E+00 -0.33152207183E+04  0.33152207183E+04  0.50400001928E-02 0. -1.
    10030    2    1    2    0    0  0.00000000000E+00  0.00000000000E+00 -0.26366494757E+04  0.39937919608E+04  0.29997422837E+04 0.  0.
        4    1    3    3  502    0  0.53932767032E+03 -0.11196295498E+04 -0.20030998499E+03  0.12587971909E+04  0.12699999809E+01 0.  1.
       -4    1    3    3    0  502 -0.53932767032E+03  0.11196295498E+04 -0.24363394907E+04  0.27349947700E+04  0.12699999809E+01 0. -1.
</event>
<event>
 5   0  0.2602891E-07  0.3003503E+04  0.7818609E-02  0.8242731E-01
        1   -1    0    0  501    0  0.00000000000E+00  0.00000000000E+00  0.12194196807E+04  0.12194196807E+04  0.50400001928E-02 0. -1.
       -1   -1    0    0    0  501  0.00000000000E+00  0.00000000000E+00 -0.18494519365E+04  0.18494519365E+04  0.50400001928E-02 0.  1.
    10030    2    1    2    0    0  0.00000000000E+00  0.00000000000E+00 -0.63003225584E+03  0.30688716172E+04  0.30035033477E+04 0.  0.
        5    1    3    3  502    0  0.56253145486E+01  0.10501735522E+04  0.78181784509E+03  0.13092583270E+04  0.46999998093E+01 0. -1.
       -5    1    3    3    0  502 -0.56253145486E+01 -0.10501735522E+04 -0.14118501009E+04  0.17596132903E+04  0.46999998093E+01 0.  1.
</event>
<event>
 5   0  0.2792361E-07  0.3007865E+04  0.7818609E-02  0.8241488E-01
       -1   -1    0    0    0  501  0.00000000000E+00  0.00000000000E+00  0.13093954024E+04  0.13093954024E+04  0.50400001928E-02 0.  1.
        1   -1    0    0  501    0  0.00000000000E+00  0.00000000000E+00 -0.17273723608E+04  0.17273723608E+04  0.50400001928E-02 0. -1.
    10030    2    1    2    0    0  0.00000000000E+00  0.00000000000E+00 -0.41797695843E+03  0.30367677632E+04  0.30078653078E+04 0.  0.
        4    1    3    3  502    0  0.12304808491E+04  0.62920886851E+03  0.38985934888E+03  0.14359592073E+04  0.12699999809E+01 0.  1.
       -4    1    3    3    0  502 -0.12304808491E+04 -0.62920886851E+03 -0.80783630730E+03  0.16008085559E+04  0.12699999809E+01 0. -1.
</event>
<event>
 5   0  0.2640081E-07  0.3006039E+04  0.7818609E-02  0.8242008E-01
        1   -1    0    0  501    0  0.00000000000E+00  0.00000000000E+00  0.27806872428E+04  0.27806872428E+04  0.50400001928E-02 0.  1.
       -1   -1    0    0    0  501  0.00000000000E+00  0.00000000000E+00 -0.81241354317E+03  0.81241354319E+03  0.50400001928E-02 0. -1.
    10030    2    1    2    0    0  0.00000000000E+00  0.00000000000E+00  0.19682736997E+04  0.35931007860E+04  0.30060392382E+04 0.  0.
        1    1    3    3  502    0 -0.12816379056E+04 -0.60557628904E+03  0.15814845082E+04  0.21237729664E+04  0.50400001928E-02 0. -1.
       -1    1    3    3    0  502  0.12816379056E+04  0.60557628904E+03  0.38678919145E+03  0.14693278197E+04  0.50400001928E-02 0.  1.
</event>
<event>
 5   0  0.7585823E-07  0.3007132E+04  0.7818609E-02  0.8241697E-01
        2   -1    0    0  501    0  0.00000000000E+00  0.00000000000E+00  0.16858716118E+04  0.16858716118E+04  0.25500000920E-02 0. -1.
       -2   -1    0    0    0  501  0.00000000000E+00  0.00000000000E+00 -0.13409741217E+04  0.13409741217E+04  0.25500000920E-02 0.  1.
    10030    2    1    2    0    0  0.00000000000E+00  0.00000000000E+00  0.34489749011E+03  0.30268457335E+04  0.30071316591E+04 0.  0.
        5    1    3    3  502    0 -0.12258635448E+04  0.42531641296E+03 -0.59217108588E+03  0.14262973626E+04  0.46999998093E+01 0.  1.
       -5    1    3    3    0  502  0.12258635448E+04 -0.42531641296E+03  0.93706857599E+03  0.16005483709E+04  0.46999998093E+01 0. -1.
</event>
<event>
 5   0  0.2792361E-07  0.2989794E+04  0.7818609E-02  0.8246651E-01
        1   -1    0    0  501    0  0.00000000000E+00  0.00000000000E+00  0.14556003115E+04  0.14556003115E+04  0.50400001928E-02 0.  1.
       -1   -1    0    0    0  501  0.00000000000E+00  0.00000000000E+00 -0.15352545220E+04  0.15352545220E+04  0.50400001928E-02 0. -1.
    10030    2    1    2    0    0  0.00000000000E+00  0.00000000000E+00 -0.79654210563E+02  0.29908548335E+04  0.29897939464E+04 0.  0.
        4    1    3    3  502    0  0.80750424327E+03  0.12086699180E+04  0.30925126089E+03  0.14861305557E+04  0.12699999809E+01 0. -1.
       -4    1    3    3    0  502 -0.80750424327E+03 -0.12086699180E+04 -0.38890547145E+03  0.15047242778E+04  0.12699999809E+01 0.  1.
</event>
<event>
 5   0  0.2414250E-07  0.3009344E+04  0.7818609E-02  0.8241068E-01
       -4   -1    0    0    0  501  0.00000000000E+00  0.00000000000E+00  0.17313660298E+04  0.17313664956E+04  0.12699999809E+01 0. -1.
        4   -1    0    0  501    0  0.00000000000E+00  0.00000000000E+00 -0.13076593005E+04  0.13076599172E+04  0.12699999809E+01 0.  1.
    10030    2    1    2    0    0  0.00000000000E+00  0.00000000000E+00  0.42370672929E+03  0.30390264128E+04  0.30093444710E+04 0.  0.
        1    1    3    3  502    0  0.11209728811E+04 -0.68617603651E+03  0.95162268437E+03  0.16226532244E+04  0.50400001928E-02 0. -1.
       -1    1    3    3    0  502 -0.11209728811E+04  0.68617603651E+03 -0.52791595508E+03  0.14163731884E+04  0.50400001928E-02 0.  1.
</event>
<event>
 5   0  0.7399409E-07  0.2995046E+04  0.7818609E-02  0.8245147E-01
       -2   -1    0    0    0  501  0.00000000000E+00  0.00000000000E+00  0.13141358591E+04  0.13141358591E+04  0.25500000920E-02 0. -1.
        2   -1    0    0  501    0  0.00000000000E+00  0.00000000000E+00 -0.17065013594E+04  0.17065013594E+04  0.25500000920E-02 0.  1.
    10030    2    1    2    0    0  0.00000000000E+00  0.00000000000E+00 -0.39236550032E+03  0.30206372185E+04  0.29950456624E+04 0.  0.
        3    1    3    3  502    0  0.44493373383E+03  0.39306250716E+03  0.11903773978E+04  0.13302114574E+04  0.10100000352E+00 0. -1.
       -3    1    3    3    0  502 -0.44493373383E+03 -0.39306250716E+03 -0.15827428981E+04  0.16904257611E+04  0.10100000352E+00 0.  1.
</event>
<event>
 5   0  0.7399409E-07  0.2999412E+04  0.7818609E-02  0.8243899E-01
       -2   -1    0    0    0  501  0.00000000000E+00  0.00000000000E+00  0.15379497987E+04  0.15379497987E+04  0.25500000920E-02 0.  1.
        2   -1    0    0  501    0  0.00000000000E+00  0.00000000000E+00 -0.14624129556E+04  0.14624129557E+04  0.25500000920E-02 0. -1.
    10030    2    1    2    0    0  0.00000000000E+00  0.00000000000E+00  0.75536843086E+02  0.30003627544E+04  0.29994117495E+04 0.  0.
        3    1    3    3  502    0 -0.12376205326E+04 -0.56357942853E+03  0.67025945275E+03  0.15161049103E+04  0.10100000352E+00 0.  1.
       -3    1    3    3    0  502  0.12376205326E+04  0.56357942853E+03 -0.59472260967E+03  0.14842578440E+04  0.10100000352E+00 0. -1.
</event>
<event>
 5   0  0.2602891E-07  0.3009861E+04  0.7818609E-02  0.8240921E-01
        1   -1    0    0  501    0  0.00000000000E+00  0.00000000000E+00  0.14608234272E+04  0.14608234272E+04  0.50400001928E-02 0.  1.
       -1   -1    0    0    0  501  0.00000000000E+00  0.00000000000E+00 -0.15503690960E+04  0.15503690960E+04  0.50400001928E-02 0. -1.
    10030    2    1    2    0    0  0.00000000000E+00  0.00000000000E+00 -0.89545668792E+02  0.30111925233E+04  0.30098607917E+04 0.  0.
        5    1    3    3  502    0  0.81639368601E+03 -0.97116980097E+03  0.76498257873E+03  0.14815160710E+04  0.46999998093E+01 0.  1.
       -5    1    3    3    0  502 -0.81639368601E+03  0.97116980097E+03 -0.85452824752E+03  0.15296764523E+04  0.46999998093E+01 0. -1.
</event>
<event>
 5   0  0.7585823E-07  0.3000827E+04  0.7818609E-02  0.8243495E-01
       -2   -1    0    0    0  501  0.00000000000E+00  0.00000000000E+00  0.12287067117E+04  0.12287067117E+04  0.25500000920E-02 0.  1.
        2   -1    0    0  501    0  0.00000000000E+00  0.00000000000E+00 -0.18322038222E+04  0.18322038222E+04  0.25500000920E-02 0. -1.
    10030    2    1    2    0    0  0.00000000000E+00  0.00000000000E+00 -0.60349711052E+03  0.30609105338E+04  0.30008273082E+04 0.  0.
        5    1    3    3  502    0 -0.22776487047E+03 -0.14800561529E+04 -0.39730450328E+03  0.15492953271E+04  0.46999998093E+01 0. -1.
       -5    1    3    3    0  502  0.22776487047E+03  0.14800561529E+04 -0.20619260724E+03  0.15116152068E+04  0.46999998093E+01 0.  1.
</event>
<event>
 5   0  0.7399409E-07  0.3007120E+04  0.7818609E-02  0.8241701E-01
        2   -1    0    0  501    0  0.00000000000E+00  0.00000000000E+00  0.16417457970E+04  0.16417457970E+04  0.25500000920E-02 0. -1.
       -2   -1    0    0    0  501  0.00000000000E+00  0.00000000000E+00 -0.13770053481E+04  0.13770053481E+04  0.25500000920E-02 0.  1.
    10030    2    1    2    0    0  0.00000000000E+00  0.00000000000E+00  0.26474044889E+03  0.30187511450E+04  0.30071200459E+04 0.  0.
        3    1    3    3  502    0  0.29842212172E+03  0.11103707710E+04 -0.84024962831E+03  0.14240781088E+04  0.10100000352E+00 0.  1.
       -3    1    3    3    0  502 -0.29842212172E+03 -0.11103707710E+04  0.11049900772E+04  0.15946730363E+04  0.10100000352E+00 0. -1.
</event>
<event>
 5   0  0.2621825E-07  0.3012443E+04  0.7818609E-02  0.8240187E-01
        1   -1    0    0  501    0  0.00000000000E+00  0.00000000000E+00  0.16880090460E+04  0.16880090460E+04  0.50400001928E-02 0.  1.
       -1   -1    0    0    0  501  0.00000000000E+00  0.00000000000E+00 -0.13440112450E+04  0.13440112450E+04  0.50400001928E-02 0. -1.
    10030    2    1    2    0    0  0.00000000000E+00  0.00000000000E+00  0.34399780097E+03  0.30320202910E+04  0.30124429551E+04 0.  0.
        3    1    3    3  502    0  0.65655510798E+03 -0.46913182174E+02 -0.11915888539E+04  0.13613043243E+04  0.10100000352E+00 0. -1.
       -3    1    3    3    0  502 -0.65655510798E+03  0.46913182174E+02  0.15355866549E+04  0.16707159667E+04  0.10100000352E+00 0.  1.
</event>
<event>
 5   0  0.2621825E-07  0.3002945E+04  0.7818609E-02  0.8242890E-01
       -1   -1    0    0    0  501  0.00000000000E+00  0.00000000000E+00  0.12318374319E+04  0.12318374319E+04  0.50400001928E-02 0. -1.
        1   -1    0    0  501    0  0.00000000000E+00  0.00000000000E+00 -0.18301274830E+04  0.18301274830E+04  0.50400001928E-02 0.  1.
    10030    2    1    2    0    0  0.00000000000E+00  0.00000000000E+00 -0.59829005107E+03  0.30619649149E+04  0.30029449137E+04 0.  0.
        3    1    3    3  502    0  0.43951717984E+03 -0.31485199727E+03  0.11291396792E+04  0.12519039727E+04  0.10100000352E+00 0. -1.
       -3    1    3    3    0  502 -0.43951717984E+03  0.31485199727E+03 -0.17274297302E+04  0.18100609422E+04  0.10100000352E+00 0.  1.
</event>
<event>
 5   0  0.2792361E-07  0.2996391E+04  0.7818609E-02  0.8244762E-01
        1   -1    0    0  501    0  0.00000000000E+00  0.00000000000E+00  0.30676904917E+04  0.30676904917E+04  0.50400001928E-02 0.  1.
       -1   -1    0    0    0  501  0.00000000000E+00  0.00000000000E+00 -0.73168719935E+03  0.73168719937E+03  0.50400001928E-02 0. -1.
    10030    2    1    2    0    0  0.00000000000E+00  0.00000000000E+00  0.23360032923E+04  0.37993776911E+04  0.29963910722E+04 0.  0.
        4    1    3    3  502    0  0.29918411487E+03 -0.25255817716E+03 -0.66566868609E+03  0.77227791629E+03  0.12699999809E+01 0. -1.
       -4    1    3    3    0  502 -0.29918411487E+03  0.25255817716E+03  0.30016719784E+04  0.30270997748E+04  0.12699999809E+01 0.  1.
</event>
<event>
 5   0  0.7307508E-07  0.3007860E+04  0.7818609E-02  0.8241490E-01
       -2   -1    0    0    0  501  0.00000000000E+00  0.00000000000E+00  0.13331987795E+04  0.13331987795E+04  0.25500000920E-02 0.  1.
        2   -1    0    0  501    0  0.00000000000E+00  0.00000000000E+00 -0.16965249583E+04  0.16965249583E+04  0.25500000920E-02 0. -1.
    10030    2    1    2    0    0  0.00000000000E+00  0.00000000000E+00 -0.36332617874E+03  0.30297237378E+04  0.30078597067E+04 0.  0.
        1    1    3    3  502    0 -0.88081864796E+03  0.58918777414E+02  0.10447637503E+04  0.13677880709E+04  0.50400001928E-02 0.  1.
       -1    1    3    3    0  502  0.88081864796E+03 -0.58918777414E+02 -0.14080899290E+04  0.16619356670E+04  0.50400001928E-02 0. -1.
</event>
<event>
 5   0  0.7585823E-07  0.3005469E+04  0.7818609E-02  0.8242171E-01
       -2   -1    0    0    0  501  0.00000000000E+00  0.00000000000E+00  0.91544110548E+03  0.91544110549E+03  0.25500000920E-02 0.  1.
        2   -1    0    0  501    0  0.00000000000E+00  0.00000000000E+00 -0.24668016434E+04  0.24668016434E+04  0.25500000920E-02 0. -1.
    10030    2    1    2    0    0  0.00000000000E+00  0.00000000000E+00 -0.15513605379E+04  0.33822427489E+04  0.30054694299E+04 0.  0.
        5    1    3    3  502    0  0.47401181280E+03  0.13570298635E+04 -0.12687538414E+04  0.19172834034E+04  0.46999998093E+01 0. -1.
       -5    1    3    3    0  502 -0.47401181280E+03 -0.13570298635E+04 -0.28260669652E+03  0.14649593455E+04  0.46999998093E+01 0.  1.
</event>
<event>
 5   0  0.7278657E-07  0.2976011E+04  0.7818609E-02  0.8250614E-01
        2   -1    0    0  501    0  0.00000000000E+00  0.00000000000E+00  0.25661408662E+04  0.25661408662E+04  0.25500000920E-02 0.  1.
       -2   -1    0    0    0  501  0.00000000000E+00  0.00000000000E+00 -0.86283663716E+03  0.86283663716E+03  0.25500000920E-02 0. -1.
    10030    2    1    2    0    0  0.00000000000E+00  0.00000000000E+00  0.17033042291E+04  0.34289775034E+04  0.29760109916E+04 0.  0.
        2    1    3    3  502    0 -0.79164857009E+03 -0.40503330314E+02  0.23026140073E+04  0.24352369997E+04  0.25500000920E-02 0.  1.
       -2    1    3    3    0  502  0.79164857009E+03  0.40503330314E+02 -0.59930977823E+03  0.99374050364E+03  0.25500000920E-02 0. -1.
</event>
<event>
 5   0  0.7399409E-07  0.3004046E+04  0.7818609E-02  0.8242577E-01
       -2   -1    0    0    0  501  0.00000000000E+00  0.00000000000E+00  0.13440158434E+04  0.13440158434E+04  0.25500000920E-02 0.  1.
        2   -1    0    0  501    0  0.00000000000E+00  0.00000000000E+00 -0.16786058750E+04  0.16786058750E+04  0.25500000920E-02 0. -1.
    10030    2    1    2    0    0  0.00000000000E+00  0.00000000000E+00 -0.33459003154E+03  0.30226217184E+04  0.30040458657E+04 0.  0.
        3    1    3    3  502    0 -0.60151045278E+03 -0.13280410569E+04  0.19627715879E+03  0.14710651266E+04  0.10100000352E+00 0. -1.
       -3    1    3    3    0  502  0.60151045278E+03  0.13280410569E+04 -0.53086719033E+03  0.15515565918E+04  0.10100000352E+00 0.  1.
</event>
<event>
 5   0  0.2679935E-07  0.2998044E+04  0.7818609E-02  0.8244290E-01
        1   -1    0    0  501    0  0.00000000000E+00  0.00000000000E+00  0.15709076739E+04  0.15709076739E+04  0.50400001928E-02 0.  1.
       -1   -1    0    0    0  501  0.00000000000E+00  0.00000000000E+00 -0.14304258193E+04  0.14304258194E+04  0.50400001928E-02 0. -1.
    10030    2    1    2    0    0  0.00000000000E+00  0.00000000000E+00  0.14048185451E+03  0.30013334932E+04  0.29980439600E+04 0.  0.
        2    1    3    3  502    0 -0.14939886134E+04 -0.68937343002E+02  0.17190313830E+03  0.15054251968E+04  0.25500000920E-02 0. -1.
       -2    1    3    3    0  502  0.14939886134E+04  0.68937343002E+02 -0.31421283789E+02  0.14959082964E+04  0.25500000920E-02 0.  1.
</event>
<event>
 5   0  0.2640081E-07  0.2998980E+04  0.7818609E-02  0.8244022E-01
        1   -1    0    0  501    0  0.00000000000E+00  0.00000000000E+00  0.16976691969E+04  0.16976691970E+04  0.50400001928E-02 0.  1.
       -1   -1    0    0    0  501  0.00000000000E+00  0.00000000000E+00 -0.13244456127E+04  0.13244456127E+04  0.50400001928E-02 0. -1.
    10030    2    1    2    0    0  0.00000000000E+00  0.00000000000E+00  0.37322358426E+03  0.30221148097E+04  0.29989801731E+04 0.  0.
        1    1    3    3  502    0  0.94826240916E+03  0.11330655909E+04 -0.71156862794E+02  0.14792236237E+04  0.50400001928E-02 0. -1.
       -1    1    3    3    0  502 -0.94826240916E+03 -0.11330655909E+04  0.44438044705E+03  0.15428911859E+04  0.50400001928E-02 0.  1.
</event>
<event>
 5   0  0.7399409E-07  0.3000675E+04  0.7818609E-02  0.8243538E-01
       -2   -1    0    0    0  501  0.00000000000E+00  0.00000000000E+00  0.10831836761E+04  0.10831836761E+04  0.25500000920E-02 0. -1.
        2   -1    0    0  501    0  0.00000000000E+00  0.00000000000E+00 -0.20781453771E+04  0.20781453771E+04  0.25500000920E-02 0.  1.
    10030    2    1    2    0    0  0.00000000000E+00  0.00000000000E+00 -0.99496170096E+03  0.31613290532E+04  0.30006753567E+04 0.  0.
        3    1    3    3  502    0 -0.11691044502E+04  0.58266337579E+03  0.28007910987E+03  0.13359439146E+04  0.10100000352E+00 0. -1.
       -3    1    3    3    0  502  0.11691044502E+04 -0.58266337579E+03 -0.12750408108E+04  0.18253851386E+04  0.10100000352E+00 0.  1.
</event>
<event>
 5   0  0.7585823E-07  0.2998505E+04  0.7818609E-02  0.8244158E-01
        2   -1    0    0  501    0  0.00000000000E+00  0.00000000000E+00  0.17846319408E+04  0.17846319408E+04  0.25500000920E-02 0. -1.
       -2   -1    0    0    0  501  0.00000000000E+00  0.00000000000E+00 -0.12595075981E+04  0.12595075981E+04  0.25500000920E-02 0.  1.
    10030    2    1    2    0    0  0.00000000000E+00  0.00000000000E+00  0.52512434268E+03  0.30441395389E+04  0.29985046201E+04 0.  0.
        5    1    3    3  502    0 -0.11242921489E+04  0.78625750137E+03 -0.35120624579E+03  0.14161926464E+04  0.46999998093E+01 0.  1.
       -5    1    3    3    0  502  0.11242921489E+04 -0.78625750137E+03  0.87633058847E+03  0.16279468925E+04  0.46999998093E+01 0. -1.
</event>
<event>
 5   0  0.2621825E-07  0.2996215E+04  0.7818609E-02  0.8244813E-01
        1   -1    0    0  501    0  0.00000000000E+00  0.00000000000E+00  0.17572700857E+04  0.17572700857E+04  0.50400001928E-02 0. -1.
       -1   -1    0    0    0  501  0.00000000000E+00  0.00000000000E+00 -0.12771661100E+04  0.12771661100E+04  0.50400001928E-02 0.  1.
    10030    2    1    2    0    0  0.00000000000E+00  0.00000000000E+00  0.48010397571E+03  0.30344361957E+04  0.29962148117E+04 0.  0.
        3    1    3    3  502    0  0.30560518537E+03  0.70136824871E+03 -0.10644059143E+04  0.13108287113E+04  0.10100000352E+00 0.  1.
       -3    1    3    3    0  502 -0.30560518537E+03 -0.70136824871E+03  0.15445098900E+04  0.17236074844E+04  0.10100000352E+00 0. -1.
</event>
<event>
 5   0  0.2792361E-07  0.3002846E+04  0.7818609E-02  0.8242919E-01
        1   -1    0    0  501    0  0.00000000000E+00  0.00000000000E+00  0.19457103586E+04  0.19457103586E+04  0.50400001928E-02 0. -1.
       -1   -1    0    0    0  501  0.00000000000E+00  0.00000000000E+00 -0.11585849556E+04  0.11585849556E+04  0.50400001928E-02 0.  1.
    10030    2    1    2    0    0  0.00000000000E+00  0.00000000000E+00  0.78712540303E+03  0.31042953142E+04  0.30028458165E+04 0.  0.
        4    1    3    3  502    0 -0.37581029055E+02 -0.27536175548E+03 -0.11317625943E+04  0.11653860359E+04  0.12699999809E+01 0.  1.
       -4    1    3    3    0  502  0.37581029055E+02  0.27536175548E+03  0.19188879973E+04  0.19389092782E+04  0.12699999809E+01 0. -1.
</event>
<event>
 5   0  0.2679935E-07  0.2983224E+04  0.7818609E-02  0.8248538E-01
       -1   -1    0    0    0  501  0.00000000000E+00  0.00000000000E+00  0.19469180170E+04  0.19469180170E+04  0.50400001928E-02 0.  1.
        1   -1    0    0  501    0  0.00000000000E+00  0.00000000000E+00 -0.11427834913E+04  0.11427834913E+04  0.50400001928E-02 0. -1.
    10030    2    1    2    0    0  0.00000000000E+00  0.00000000000E+00  0.80413452567E+03  0.30897015083E+04  0.29832236046E+04 0.  0.
        2    1    3    3  502    0 -0.80207800465E+03  0.70396124543E+03  0.14813834032E+04  0.18257566508E+04  0.25500000920E-02 0.  1.
       -2    1    3    3    0  502  0.80207800465E+03 -0.70396124543E+03 -0.67724887758E+03  0.12639448575E+04  0.25500000920E-02 0. -1.
</event>
<event>
 5   0  0.7208273E-07  0.3002785E+04  0.7818609E-02  0.8242936E-01
       -2   -1    0    0    0  501  0.00000000000E+00  0.00000000000E+00  0.85402328725E+03  0.85402328725E+03  0.25500000920E-02 0. -1.
        2   -1    0    0  501    0  0.00000000000E+00  0.00000000000E+00 -0.26394821808E+04  0.26394821808E+04  0.25500000920E-02 0.  1.
    10030    2    1    2    0    0  0.00000000000E+00  0.00000000000E+00 -0.17854588935E+04  0.34935054680E+04  0.30027848732E+04 0.  0.
        4    1    3    3  502    0 -0.75487146207E+03 -0.77274933250E+03  0.32036039085E+03  0.11267674330E+04  0.12699999809E+01 0. -1.
       -4    1    3    3    0  502  0.75487146207E+03  0.77274933250E+03 -0.21058192844E+04  0.23667380350E+04  0.12699999809E+01 0.  1.
</event>
<event>
 5   0  0.2602891E-07  0.2998705E+04  0.7818609E-02  0.8244101E-01
        1   -1    0    0  501    0  0.00000000000E+00  0.00000000000E+00  0.14023617005E+04  0.14023617005E+04  0.50400001928E-02 0. -1.
       -1   -1    0    0    0  501  0.00000000000E+00  0.00000000000E+00 -0.16030511766E+04  0.16030511766E+04  0.50400001928E-02 0.  1.
    10030    2    1    2    0    0  0.00000000000E+00  0.00000000000E+00 -0.20068947608E+03  0.30054128772E+04  0.29987047698E+04 0.  0.
        5    1    3    3  502    0 -0.77459821153E+03 -0.10748327972E+04 -0.80388909513E+03  0.15496863226E+04  0.46999998093E+01 0.  1.
       -5    1    3    3    0  502  0.77459821153E+03  0.10748327972E+04  0.60319961905E+03  0.14557265546E+04  0.46999998093E+01 0. -1.
</event>
<event>
 5   0  0.7585823E-07  0.2992412E+04  0.7818609E-02  0.8245901E-01
       -2   -1    0    0    0  501  0.00000000000E+00  0.00000000000E+00  0.10551379689E+04  0.10551379689E+04  0.25500000920E-02 0. -1.
        2   -1    0    0  501    0  0.00000000000E+00  0.00000000000E+00 -0.21216486146E+04  0.21216486146E+04  0.25500000920E-02 0.  1.
    10030    2    1    2    0    0  0.00000000000E+00  0.00000000000E+00 -0.10665106457E+04  0.31767865836E+04  0.29924117431E+04 0.  0.
        5    1    3    3  502    0  0.23244868473E+02 -0.45432035610E+03 -0.20464419119E+04  0.20964002239E+04  0.46999998093E+01 0.  1.
       -5    1    3    3    0  502 -0.23244868473E+02  0.45432035610E+03  0.97993126618E+03  0.10803863597E+04  0.46999998093E+01 0. -1.
</event>
<event>
 5   0  0.2679935E-07  0.2999585E+04  0.7818609E-02  0.8243849E-01
        1   -1    0    0  501    0  0.00000000000E+00  0.00000000000E+00  0.90644040026E+03  0.90644040027E+03  0.50400001928E-02 0.  1.
       -1   -1    0    0    0  501  0.00000000000E+00  0.00000000000E+00 -0.24815499208E+04  0.24815499208E+04  0.50400001928E-02 0. -1.
    10030    2    1    2    0    0  0.00000000000E+00  0.00000000000E+00 -0.15751095205E+04  0.33879903211E+04  0.29995847069E+04 0.  0.
        2    1    3    3  502    0 -0.53851626360E+03 -0.95952601465E+03  0.36357269602E+03  0.11588248549E+04  0.25500000920E-02 0.  1.
       -2    1    3    3    0  502  0.53851626360E+03  0.95952601465E+03 -0.19386822166E+04  0.22291654662E+04  0.25500000920E-02 0. -1.
</event>
<event>
 5   0  0.7307508E-07  0.2999719E+04  0.7818609E-02  0.8243811E-01
        2   -1    0    0  501    0  0.00000000000E+00  0.00000000000E+00  0.18232569901E+04  0.18232569902E+04  0.25500000920E-02 0.  1.
       -2   -1    0    0    0  501  0.00000000000E+00  0.00000000000E+00 -0.12338241578E+04  0.12338241578E+04  0.25500000920E-02 0. -1.
    10030    2    1    2    0    0  0.00000000000E+00  0.00000000000E+00  0.58943283238E+03  0.30570811479E+04  0.29997190004E+04 0.  0.
        1    1    3    3  502    0 -0.10751793697E+04  0.79677498073E+03  0.98495468573E+03  0.16616247410E+04  0.50400001928E-02 0.  1.
       -1    1    3    3    0  502  0.10751793697E+04 -0.79677498073E+03 -0.39552185335E+03  0.13954564069E+04  0.50400001928E-02 0. -1.
</event>
<event>
 5   0  0.2602891E-07  0.3002409E+04  0.7818609E-02  0.8243043E-01
        1   -1    0    0  501    0  0.00000000000E+00  0.00000000000E+00  0.10537848176E+04  0.10537848176E+04  0.50400001928E-02 0.  1.
       -1   -1    0    0    0  501  0.00000000000E+00  0.00000000000E+00 -0.21385916110E+04  0.21385916110E+04  0.50400001928E-02 0. -1.
    10030    2    1    2    0    0  0.00000000000E+00  0.00000000000E+00 -0.10848067934E+04  0.31923764286E+04  0.30024092797E+04 0.  0.
        5    1    3    3  502    0  0.28145298460E+02 -0.15009263531E+04 -0.53750711584E+03  0.15945244009E+04  0.46999998093E+01 0. -1.
       -5    1    3    3    0  502 -0.28145298460E+02  0.15009263531E+04 -0.54729967754E+03  0.15978520277E+04  0.46999998093E+01 0.  1.
</event>
<event>
 5   0  0.2679935E-07  0.3000056E+04  0.7818609E-02  0.8243715E-01
        1   -1    0    0  501    0  0.00000000000E+00  0.00000000000E+00  0.25812111098E+04  0.25812111098E+04  0.50400001928E-02 0. -1.
       -1   -1    0    0    0  501  0.00000000000E+00  0.00000000000E+00 -0.87171663289E+03  0.87171663290E+03  0.50400001928E-02 0.  1.
    10030    2    1    2    0    0  0.00000000000E+00  0.00000000000E+00  0.17094944769E+04  0.34529277427E+04  0.30000564377E+04 0.  0.
        2    1    3    3  502    0 -0.80638899512E+03 -0.81116370754E+03 -0.26223290239E+03  0.11734631937E+04  0.25500000920E-02 0.  1.
       -2    1    3    3    0  502  0.80638899512E+03  0.81116370754E+03  0.19717273793E+04  0.22794645490E+04  0.25500000920E-02 0. -1.
</event>
<event>
 5   0  0.7278657E-07  0.3065090E+04  0.7818609E-02  0.8225384E-01
        2   -1    0    0  501    0  0.00000000000E+00  0.00000000000E+00  0.11689466287E+04  0.11689466287E+04  0.25500000920E-02 0.  1.
       -2   -1    0    0    0  501  0.00000000000E+00  0.00000000000E+00 -0.20092404775E+04  0.20092404775E+04  0.25500000920E-02 0. -1.
    10030    2    1    2    0    0  0.00000000000E+00  0.00000000000E+00 -0.84029384880E+03  0.31781871062E+04  0.30650904602E+04 0.  0.
        2    1    3    3  502    0  0.58907684480E+03 -0.10554510909E+04 -0.13970935288E+04  0.18473924495E+04  0.25500000920E-02 0. -1.
       -2    1    3    3    0  502 -0.58907684480E+03  0.10554510909E+04  0.55679967999E+03  0.13307946566E+04  0.25500000920E-02 0.  1.
</event>
<event>
 5   0  0.7278657E-07  0.2993676E+04  0.7818609E-02  0.8245539E-01
       -2   -1    0    0    0  501  0.00000000000E+00  0.00000000000E+00  0.10782298722E+04  0.10782298722E+04  0.25500000920E-02 0. -1.
        2   -1    0    0  501    0  0.00000000000E+00  0.00000000000E+00 -0.20779654507E+04  0.20779654508E+04  0.25500000920E-02 0.  1.
    10030    2    1    2    0    0  0.00000000000E+00  0.00000000000E+00 -0.99973557855E+03  0.31561953229E+04  0.29936762834E+04 0.  0.
        2    1    3    3  502    0 -0.19152355814E+02 -0.63733748470E+03  0.92788754658E+03  0.11258513140E+04  0.25500000920E-02 0. -1.
       -2    1    3    3    0  502  0.19152355814E+02  0.63733748470E+03 -0.19276231251E+04  0.20303440090E+04  0.25500000920E-02 0.  1.
</event>
<event>
 5   0  0.7208273E-07  0.2994261E+04  0.7818609E-02  0.8245371E-01
        2   -1    0    0  501    0  0.00000000000E+00  0.00000000000E+00  0.95138529272E+03  0.95138529273E+03  0.25500000920E-02 0. -1.
       -2   -1    0    0    0  501  0.00000000000E+00  0.00000000000E+00 -0.23559333394E+04  0.23559333394E+04  0.25500000920E-02 0.  1.
    10030    2    1    2    0    0  0.00000000000E+00  0.00000000000E+00 -0.14045480466E+04  0.33073186321E+04  0.29942613979E+04 0.  0.
        4    1    3    3  502    0 -0.10876558004E+04 -0.24536594475E+03  0.40128335701E+03  0.11850019125E+04  0.12699999809E+01 0. -1.
       -4    1    3    3    0  502  0.10876558004E+04  0.24536594475E+03 -0.18058314037E+04  0.21223167196E+04  0.12699999809E+01 0.  1.
</event>
<event>
 5   0  0.7278657E-07  0.3012415E+04  0.7818609E-02  0.8240194E-01
        2   -1    0    0  501    0  0.00000000000E+00  0.00000000000E+00  0.23841595214E+04  0.23841595214E+04  0.25500000920E-02 0.  1.
       -2   -1    0    0    0  501  0.00000000000E+00  0.00000000000E+00 -0.95155607528E+03  0.95155607528E+03  0.25500000920E-02 0. -1.
    10030    2    1    2    0    0  0.00000000000E+00  0.00000000000E+00  0.14326034461E+04  0.33357155966E+04  0.30124152947E+04 0.  0.
        2    1    3    3  502    0 -0.10404531228E+04 -0.10056971403E+04  0.25348320461E+03  0.14690892327E+04  0.25500000920E-02 0.  1.
       -2    1    3    3    0  502  0.10404531228E+04  0.10056971403E+04  0.11791202415E+04  0.18666263639E+04  0.25500000920E-02 0. -1.
</event>
<event>
 5   0  0.7278657E-07  0.3016686E+04  0.7818609E-02  0.8238982E-01
       -2   -1    0    0    0  501  0.00000000000E+00  0.00000000000E+00  0.13575944539E+04  0.13575944539E+04  0.25500000920E-02 0. -1.
        2   -1    0    0  501    0  0.00000000000E+00  0.00000000000E+00 -0.16758306332E+04  0.16758306332E+04  0.25500000920E-02 0.  1.
    10030    2    1    2    0    0  0.00000000000E+00  0.00000000000E+00 -0.31823617925E+03  0.30334250871E+04  0.30166858460E+04 0.  0.
        2    1    3    3  502    0 -0.60628037690E+03 -0.11851798928E+04  0.55395086241E+03  0.14419045848E+04  0.25500000920E-02 0. -1.
       -2    1    3    3    0  502  0.60628037690E+03  0.11851798928E+04 -0.87218704166E+03  0.15915205023E+04  0.25500000920E-02 0.  1.
</event>
<event>
 5   0  0.7399409E-07  0.3002653E+04  0.7818609E-02  0.8242974E-01
       -2   -1    0    0    0  501  0.00000000000E+00  0.00000000000E+00  0.14206485734E+04  0.14206485734E+04  0.25500000920E-02 0. -1.
        2   -1    0    0  501    0  0.00000000000E+00  0.00000000000E+00 -0.15865862954E+04  0.15865862954E+04  0.25500000920E-02 0.  1.
    10030    2    1    2    0    0  0.00000000000E+00  0.00000000000E+00 -0.16593772208E+03  0.30072348688E+04  0.30026531982E+04 0.  0.
        3    1    3    3  502    0 -0.49058256654E+01  0.89586033497E+02  0.14179612072E+04  0.14207968609E+04  0.10100000352E+00 0. -1.
       -3    1    3    3    0  502  0.49058256654E+01 -0.89586033497E+02 -0.15838989293E+04  0.15864380079E+04  0.10100000352E+00 0.  1.
</event>
<event>
 5   0  0.2792361E-07  0.2987372E+04  0.7818609E-02  0.8247346E-01
        1   -1    0    0  501    0  0.00000000000E+00  0.00000000000E+00  0.23967984605E+04  0.23967984605E+04  0.50400001928E-02 0. -1.
       -1   -1    0    0    0  501  0.00000000000E+00  0.00000000000E+00 -0.93086604921E+03  0.93086604922E+03  0.50400001928E-02 0.  1.
    10030    2    1    2    0    0  0.00000000000E+00  0.00000000000E+00  0.14659324113E+04  0.33276645097E+04  0.29873722993E+04 0.  0.
        4    1    3    3  502    0 -0.13099044704E+04 -0.19741922320E+03 -0.35771170948E+02  0.13251812181E+04  0.12699999809E+01 0.  1.
       -4    1    3    3    0  502  0.13099044704E+04  0.19741922320E+03  0.15017035822E+04  0.20024832916E+04  0.12699999809E+01 0. -1.
</event>
<event>
 5   0  0.2640081E-07  0.3006890E+04  0.7818609E-02  0.8241766E-01
       -1   -1    0    0    0  501  0.00000000000E+00  0.00000000000E+00  0.12380106371E+04  0.12380106372E+04  0.50400001928E-02 0. -1.
        1   -1    0    0  501    0  0.00000000000E+00  0.00000000000E+00 -0.18257897301E+04  0.18257897301E+04  0.50400001928E-02 0.  1.
    10030    2    1    2    0    0  0.00000000000E+00  0.00000000000E+00 -0.58777909294E+03  0.30638003673E+04  0.30068901590E+04 0.  0.
        1    1    3    3  502    0 -0.14225824194E+03  0.30197263068E+03 -0.17875547007E+04  0.18184544771E+04  0.50400001928E-02 0.  1.
       -1    1    3    3    0  502  0.14225824194E+03 -0.30197263068E+03  0.11997756078E+04  0.12453458902E+04  0.50400001928E-02 0. -1.
</event>
<event>
 5   0  0.2621825E-07  0.2998971E+04  0.7818609E-02  0.8244025E-01
        1   -1    0    0  501    0  0.00000000000E+00  0.00000000000E+00  0.19490466430E+04  0.19490466430E+04  0.50400001928E-02 0.  1.
       -1   -1    0    0    0  501  0.00000000000E+00  0.00000000000E+00 -0.11536189173E+04  0.11536189173E+04  0.50400001928E-02 0. -1.
    10030    2    1    2    0    0  0.00000000000E+00  0.00000000000E+00  0.79542772571E+03  0.31026655602E+04  0.29989712089E+04 0.  0.
        3    1    3    3  502    0  0.12701756951E+04  0.32557114764E+03  0.11502673574E+04  0.17442642782E+04  0.10100000352E+00 0.  1.
       -3    1    3    3    0  502 -0.12701756951E+04 -0.32557114764E+03 -0.35483963173E+03  0.13584012820E+04  0.10100000352E+00 0. -1.
</event>
<event>
 5   0  0.2679935E-07  0.3000672E+04  0.7818609E-02  0.8243539E-01
       -1   -1    0    0    0  501  0.00000000000E+00  0.00000000000E+00  0.14626067408E+04  0.14626067408E+04  0.50400001928E-02 0.  1.
        1   -1    0    0  501    0  0.00000000000E+00  0.00000000000E+00 -0.15390382229E+04  0.15390382229E+04  0.50400001928E-02 0. -1.
    10030    2    1    2    0    0  0.00000000000E+00  0.00000000000E+00 -0.76431482068E+02  0.30016449638E+04  0.30006717110E+04 0.  0.
        2    1    3    3  502    0  0.12486790691E+04 -0.20186454868E+02 -0.86999055795E+03  0.15220021293E+04  0.25500000920E-02 0. -1.
       -2    1    3    3    0  502 -0.12486790691E+04  0.20186454868E+02  0.79355907588E+03  0.14796428345E+04  0.25500000920E-02 0.  1.
</event>
<event>
 5   0  0.2621825E-07  0.3018824E+04  0.7818609E-02  0.8238376E-01
        1   -1    0    0  501    0  0.00000000000E+00  0.00000000000E+00  0.29425350824E+04  0.29425350824E+04  0.50400001928E-02 0.  1.
       -1   -1    0    0    0  501  0.00000000000E+00  0.00000000000E+00 -0.77427262195E+03  0.77427262197E+03  0.50400001928E-02 0. -1.
    10030    2    1    2    0    0  0.00000000000E+00  0.00000000000E+00  0.21682624604E+04  0.37168077044E+04  0.30188238461E+04 0.  0.
        3    1    3    3  502    0 -0.55402487449E+03 -0.82625373284E+03  0.24818049533E+04  0.26737603911E+04  0.10100000352E+00 0.  1.
       -3    1    3    3    0  502  0.55402487449E+03  0.82625373284E+03 -0.31354249289E+03  0.10430473132E+04  0.10100000352E+00 0. -1.
</event>
<event>
 5   0  0.7208273E-07  0.2996882E+04  0.7818609E-02  0.8244622E-01
       -2   -1    0    0    0  501  0.00000000000E+00  0.00000000000E+00  0.24567836845E+04  0.24567836845E+04  0.25500000920E-02 0. -1.
        2   -1    0    0  501    0  0.00000000000E+00  0.00000000000E+00 -0.91392865763E+03  0.91392865764E+03  0.25500000920E-02 0.  1.
    10030    2    1    2    0    0  0.00000000000E+00  0.00000000000E+00  0.15428550269E+04  0.33707123421E+04  0.29968817226E+04 0.  0.
        4    1    3    3  502    0  0.13881677769E+04  0.54834500433E+03  0.92077408481E+03  0.17537156408E+04  0.12699999809E+01 0. -1.
       -4    1    3    3    0  502 -0.13881677769E+04 -0.54834500433E+03  0.62208094204E+03  0.16169967013E+04  0.12699999809E+01 0.  1.
</event>
<event>
 5   0  0.7208273E-07  0.2995170E+04  0.7818609E-02  0.8245111E-01
        2   -1    0    0  501    0  0.00000000000E+00  0.00000000000E+00  0.17724230323E+04  0.17724230323E+04  0.25500000920E-02 0.  1.
       -2   -1    0    0    0  501  0.00000000000E+00  0.00000000000E+00 -0.12653645125E+04  0.12653645125E+04  0.25500000920E-02 0. -1.
    10030    2    1    2    0    0  0.00000000000E+00  0.00000000000E+00  0.50705851980E+03  0.30377875449E+04  0.29951702498E+04 0.  0.
        4    1    3    3  502    0 -0.27701290204E+03 -0.32331355372E+03  0.17097482448E+04  0.17619615420E+04  0.12699999809E+01 0.  1.
       -4    1    3    3    0  502  0.27701290204E+03  0.32331355372E+03 -0.12026897250E+04  0.12758260028E+04  0.12699999809E+01 0. -1.
</event>
<event>
 5   0  0.7278657E-07  0.2989575E+04  0.7818609E-02  0.8246714E-01
       -2   -1    0    0    0  501  0.00000000000E+00  0.00000000000E+00  0.86984650045E+03  0.86984650046E+03  0.25500000920E-02 0.  1.
        2   -1    0    0  501    0  0.00000000000E+00  0.00000000000E+00 -0.25687175412E+04  0.25687175412E+04  0.25500000920E-02 0. -1.
    10030    2    1    2    0    0  0.00000000000E+00  0.00000000000E+00 -0.16988710407E+04  0.34385640416E+04  0.29895751965E+04 0.  0.
        2    1    3    3  502    0 -0.19300115364E+03 -0.10638115410E+04  0.33779010020E+03  0.11327164658E+04  0.25500000920E-02 0.  1.
       -2    1    3    3    0  502  0.19300115364E+03  0.10638115410E+04 -0.20366611409E+04  0.23058475758E+04  0.25500000920E-02 0. -1.
</event>
<event>
 5   0  0.2414250E-07  0.2992204E+04  0.7818609E-02  0.8245961E-01
       -3   -1    0    0    0  501  0.00000000000E+00  0.00000000000E+00  0.21088630180E+04  0.21088630204E+04  0.10100000352E+00 0.  1.
        3   -1    0    0  501    0  0.00000000000E+00  0.00000000000E+00 -0.10613875530E+04  0.10613875578E+04  0.10100000352E+00 0. -1.
    10030    2    1    2    0    0  0.00000000000E+00  0.00000000000E+00  0.10474754650E+04  0.31702505783E+04  0.29922038499E+04 0.  0.
        1    1    3    3  502    0 -0.24034765869E+03  0.14222813755E+04  0.94444157703E+03  0.17241291137E+04  0.50400001928E-02 0.  1.
       -1    1    3    3    0  502  0.24034765869E+03 -0.14222813755E+04  0.10303388796E+03  0.14461214646E+04  0.50400001928E-02 0. -1.
</event>
<event>
 5   0  0.2792361E-07  0.3010686E+04  0.7818609E-02  0.8240686E-01
       -1   -1    0    0    0  501  0.00000000000E+00  0.00000000000E+00  0.21541150508E+04  0.21541150508E+04  0.50400001928E-02 0. -1.
        1   -1    0    0  501    0  0.00000000000E+00  0.00000000000E+00 -0.10519669982E+04  0.10519669982E+04  0.50400001928E-02 0.  1.
    10030    2    1    2    0    0  0.00000000000E+00  0.00000000000E+00  0.11021480526E+04  0.32060820491E+04  0.30106862632E+04 0.  0.
        4    1    3    3  502    0 -0.11754099844E+04 -0.52377724636E+02  0.15510176835E+04  0.19467895430E+04  0.12699999809E+01 0. -1.
       -4    1    3    3    0  502  0.11754099844E+04  0.52377724636E+02 -0.44886963088E+03  0.12592925061E+04  0.12699999809E+01 0.  1.
</event>
<event>
 5   0  0.2621825E-07  0.3003992E+04  0.7818609E-02  0.8242592E-01
       -1   -1    0    0    0  501  0.00000000000E+00  0.00000000000E+00  0.95295909505E+03  0.95295909506E+03  0.50400001928E-02 0. -1.
        1   -1    0    0  501    0  0.00000000000E+00  0.00000000000E+00 -0.23673537798E+04  0.23673537798E+04  0.50400001928E-02 0.  1.
    10030    2    1    2    0    0  0.00000000000E+00  0.00000000000E+00 -0.14143946848E+04  0.33203128749E+04  0.30039915551E+04 0.  0.
        3    1    3    3  502    0  0.73711935041E+03  0.10345026039E+04  0.17873430502E+03  0.12827651914E+04  0.10100000352E+00 0. -1.
       -3    1    3    3    0  502 -0.73711935041E+03 -0.10345026039E+04 -0.15931289898E+04  0.20375476835E+04  0.10100000352E+00 0.  1.
</event>
<event>
 5   0  0.2792361E-07  0.2998310E+04  0.7818609E-02  0.8244214E-01
        1   -1    0    0  501    0  0.00000000000E+00  0.00000000000E+00  0.13056478647E+04  0.13056478647E+04  0.50400001928E-02 0. -1.
       -1   -1    0    0    0  501  0.00000000000E+00  0.00000000000E+00 -0.17213413429E+04  0.17213413429E+04  0.50400001928E-02 0.  1.
    10030    2    1    2    0    0  0.00000000000E+00  0.00000000000E+00 -0.41569347815E+03  0.30269892076E+04  0.29983099565E+04 0.  0.
        4    1    3    3  502    0  0.72789417501E+03 -0.12307883192E+04  0.24678749092E+03  0.14510601280E+04  0.12699999809E+01 0. -1.
       -4    1    3    3    0  502 -0.72789417501E+03  0.12307883192E+04 -0.66248096908E+03  0.15759290796E+04  0.12699999809E+01 0.  1.
</event>
<event>
 5   0  0.2792361E-07  0.2999996E+04  0.7818609E-02  0.8243732E-01
        1   -1    0    0  501    0  0.00000000000E+00  0.00000000000E+00  0.18651518826E+04  0.18651518826E+04  0.50400001928E-02 0.  1.
       -1   -1    0    0    0  501  0.00000000000E+00  0.00000000000E+00 -0.12063329549E+04  0.12063329550E+04  0.50400001928E-02 0. -1.
    10030    2    1    2    0    0  0.00000000000E+00  0.00000000000E+00  0.65881892765E+03  0.30714848376E+04  0.29999961213E+04 0.  0.
        4    1    3    3  502    0 -0.12989611591E+04  0.69213800803E+01  0.10973803368E+04  0.17004685281E+04  0.12699999809E+01 0.  1.
       -4    1    3    3    0  502  0.12989611591E+04 -0.69213800803E+01 -0.43856140913E+03  0.13710163095E+04  0.12699999809E+01 0. -1.
</event>
<event>
 5   0  0.7307508E-07  0.3000782E+04  0.7818609E-02  0.8243508E-01
       -2   -1    0    0    0  501  0.00000000000E+00  0.00000000000E+00  0.13727785840E+04  0.13727785840E+04  0.25500000920E-02 0. -1.
        2   -1    0    0  501    0  0.00000000000E+00  0.00000000000E+00 -0.16398663518E+04  0.16398663518E+04  0.25500000920E-02 0.  1.
    10030    2    1    2    0    0  0.00000000000E+00  0.00000000000E+00 -0.26708776786E+03  0.30126449358E+04  0.30007821703E+04 0.  0.
        1    1    3    3  502    0 -0.74008755532E+03  0.70380322567E+03  0.96993948152E+03  0.14084925161E+04  0.50400001928E-02 0. -1.
       -1    1    3    3    0  502  0.74008755532E+03 -0.70380322567E+03 -0.12370272494E+04  0.16041524197E+04  0.50400001928E-02 0.  1.
</event>
<event>
 5   0  0.7278657E-07  0.3000197E+04  0.7818609E-02  0.8243675E-01
       -2   -1    0    0    0  501  0.00000000000E+00  0.00000000000E+00  0.92461481751E+03  0.92461481751E+03  0.25500000920E-02 0.  1.
        2   -1    0    0  501    0  0.00000000000E+00  0.00000000000E+00 -0.24337647135E+04  0.24337647135E+04  0.25500000920E-02 0. -1.
    10030    2    1    2    0    0  0.00000000000E+00  0.00000000000E+00 -0.15091498960E+04  0.33583795310E+04  0.30001966045E+04 0.  0.
        2    1    3    3  502    0  0.44825315029E+03 -0.64634859918E+03  0.67526220316E+03  0.10366660221E+04  0.25500000920E-02 0.  1.
       -2    1    3    3    0  502 -0.44825315029E+03  0.64634859918E+03 -0.21844120992E+04  0.23217135089E+04  0.25500000920E-02 0. -1.
</event>
<event>
 5   0  0.7399409E-07  0.3033399E+04  0.7818609E-02  0.8234257E-01
        2   -1    0    0  501    0  0.00000000000E+00  0.00000000000E+00  0.28947763251E+04  0.28947763251E+04  0.25500000920E-02 0.  1.
       -2   -1    0    0    0  501  0.00000000000E+00  0.00000000000E+00 -0.79466521025E+03  0.79466521025E+03  0.25500000920E-02 0. -1.
    10030    2    1    2    0    0  0.00000000000E+00  0.00000000000E+00  0.21001111149E+04  0.36894415354E+04  0.30333994376E+04 0.  0.
        3    1    3    3  502    0 -0.23448328285E+01 -0.15061299731E+04  0.83266899244E+03  0.17209795627E+04  0.10100000352E+00 0. -1.
       -3    1    3    3    0  502  0.23448328285E+01  0.15061299731E+04  0.12674421225E+04  0.19684619727E+04  0.10100000352E+00 0.  1.
</event>
<event>
 5   0  0.7585823E-07  0.3027558E+04  0.7818609E-02  0.8235905E-01
       -2   -1    0    0    0  501  0.00000000000E+00  0.00000000000E+00  0.14689100049E+04  0.14689100049E+04  0.25500000920E-02 0.  1.
        2   -1    0    0  501    0  0.00000000000E+00  0.00000000000E+00 -0.15600180521E+04  0.15600180521E+04  0.25500000920E-02 0. -1.
    10030    2    1    2    0    0  0.00000000000E+00  0.00000000000E+00 -0.91108047214E+02  0.30289280570E+04  0.30275575137E+04 0.  0.
        5    1    3    3  502    0 -0.42586534489E+03 -0.10986893773E+04  0.90515211347E+03  0.14858674498E+04  0.46999998093E+01 0.  1.
       -5    1    3    3    0  502  0.42586534489E+03  0.10986893773E+04 -0.99626016069E+03  0.15430606072E+04  0.46999998093E+01 0. -1.
</event>
<event>
 5   0  0.2602891E-07  0.2990316E+04  0.7818609E-02  0.8246502E-01
       -1   -1    0    0    0  501  0.00000000000E+00  0.00000000000E+00  0.99496088374E+03  0.99496088376E+03  0.50400001928E-02 0. -1.
        1   -1    0    0  501    0  0.00000000000E+00  0.00000000000E+00 -0.22468187938E+04  0.22468187938E+04  0.50400001928E-02 0.  1.
    10030    2    1    2    0    0  0.00000000000E+00  0.00000000000E+00 -0.12518579101E+04  0.32417796776E+04  0.29903155771E+04 0.  0.
        5    1    3    3  502    0 -0.12765697553E+04  0.42186225004E+02 -0.14685032442E+04  0.19462615153E+04  0.46999998093E+01 0.  1.
       -5    1    3    3    0  502  0.12765697553E+04 -0.42186225004E+02  0.21664533417E+03  0.12955181622E+04  0.46999998093E+01 0. -1.
</event>
<event>
 5   0  0.2679935E-07  0.3002921E+04  0.7818609E-02  0.8242897E-01
        1   -1    0    0  501    0  0.00000000000E+00  0.00000000000E+00  0.13547414778E+04  0.13547414778E+04  0.50400001928E-02 0.  1.
       -1   -1    0    0    0  501  0.00000000000E+00  0.00000000000E+00 -0.16640692441E+04  0.16640692441E+04  0.50400001928E-02 0. -1.
    10030    2    1    2    0    0  0.00000000000E+00  0.00000000000E+00 -0.30932776630E+03  0.30188107220E+04  0.30029209960E+04 0.  0.
        2    1    3    3  502    0  0.60372190959E+03 -0.20536052012E+03  0.12118413394E+04  0.13693839926E+04  0.25500000920E-02 0.  1.
       -2    1    3    3    0  502 -0.60372190959E+03  0.20536052012E+03 -0.15211691057E+04  0.16494267294E+04  0.25500000920E-02 0. -1.
</event>
<event>
 5   0  0.2602891E-07  0.3003348E+04  0.7818609E-02  0.8242775E-01
        1   -1    0    0  501    0  0.00000000000E+00  0.00000000000E+00  0.12601112475E+04  0.12601112475E+04  0.50400001928E-02 0. -1.
       -1   -1    0    0    0  501  0.00000000000E+00  0.00000000000E+00 -0.17895447942E+04  0.17895447943E+04  0.50400001928E-02 0.  1.
    10030    2    1    2    0    0  0.00000000000E+00  0.00000000000E+00 -0.52943354672E+03  0.30496560418E+04  0.30033484801E+04 0.  0.
        5    1    3    3  502    0 -0.14406884233E+03  0.14004401770E+04  0.26584788562E+03  0.14327196896E+04  0.46999998093E+01 0. -1.
       -5    1    3    3    0  502  0.14406884233E+03 -0.14004401770E+04 -0.79528143234E+03  0.16169363522E+04  0.46999998093E+01 0.  1.
</event>
<event>
 5   0  0.7278657E-07  0.2994188E+04  0.7818609E-02  0.8245392E-01
       -2   -1    0    0    0  501  0.00000000000E+00  0.00000000000E+00  0.12476994967E+04  0.12476994967E+04  0.25500000920E-02 0. -1.
        2   -1    0    0  501    0  0.00000000000E+00  0.00000000000E+00 -0.17963388579E+04  0.17963388579E+04  0.25500000920E-02 0.  1.
    10030    2    1    2    0    0  0.00000000000E+00  0.00000000000E+00 -0.54863936125E+03  0.30440383546E+04  0.29941884302E+04 0.  0.
        2    1    3    3  502    0  0.41438521302E+03 -0.11586702051E+04 -0.11411935685E+04  0.16782593690E+04  0.25500000920E-02 0.  1.
       -2    1    3    3    0  502 -0.41438521302E+03  0.11586702051E+04  0.59255420722E+03  0.13657789856E+04  0.25500000920E-02 0. -1.
</event>
<event>
 5   0  0.7307508E-07  0.2988669E+04  0.7818609E-02  0.8246974E-01
       -2   -1    0    0    0  501  0.00000000000E+00  0.00000000000E+00  0.22555499909E+04  0.22555499909E+04  0.25500000920E-02 0.  1.
        2   -1    0    0  501    0  0.00000000000E+00  0.00000000000E+00 -0.99001792800E+03  0.99001792801E+03  0.25500000920E-02 0. -1.
    10030    2    1    2    0    0  0.00000000000E+00  0.00000000000E+00  0.12655320629E+04  0.32455679189E+04  0.29886685521E+04 0.  0.
        1    1    3    3  502    0  0.21595271225E+03 -0.18404544751E+03  0.22260280911E+04  0.22440386278E+04  0.50400001928E-02 0.  1.
       -1    1    3    3    0  502 -0.21595271225E+03  0.18404544751E+03 -0.96049602821E+03  0.10015292911E+04  0.50400001928E-02 0. -1.
</event>
<event>
 5   0  0.7307508E-07  0.3012325E+04  0.7818609E-02  0.8240220E-01
        2   -1    0    0  501    0  0.00000000000E+00  0.00000000000E+00  0.23051496244E+04  0.23051496244E+04  0.25500000920E-02 0. -1.
       -2   -1    0    0    0  501  0.00000000000E+00  0.00000000000E+00 -0.98411218870E+03  0.98411218870E+03  0.25500000920E-02 0.  1.
    10030    2    1    2    0    0  0.00000000000E+00  0.00000000000E+00  0.13210374357E+04  0.32892618131E+04  0.30123252428E+04 0.  0.
        1    1    3    3  502    0  0.86945111325E+03 -0.64663462141E+03  0.18028535194E+04  0.21034168356E+04  0.50400001928E-02 0. -1.
       -1    1    3    3    0  502 -0.86945111325E+03  0.64663462141E+03 -0.48181608374E+03  0.11858449774E+04  0.50400001928E-02 0.  1.
</event>
<event>
 5   0  0.7399409E-07  0.3004535E+04  0.7818609E-02  0.8242437E-01
       -2   -1    0    0    0  501  0.00000000000E+00  0.00000000000E+00  0.12757256735E+04  0.12757256736E+04  0.25500000920E-02 0. -1.
        2   -1    0    0  501    0  0.00000000000E+00  0.00000000000E+00 -0.17690378916E+04  0.17690378916E+04  0.25500000920E-02 0.  1.
    10030    2    1    2    0    0  0.00000000000E+00  0.00000000000E+00 -0.49331221808E+03  0.30447635652E+04  0.30045346101E+04 0.  0.
        3    1    3    3  502    0 -0.74768144379E+03  0.93931110284E+03 -0.11617833091E+04  0.16706505789E+04  0.10100000352E+00 0.  1.
       -3    1    3    3    0  502  0.74768144379E+03 -0.93931110284E+03  0.66847109102E+03  0.13741129863E+04  0.10100000352E+00 0. -1.
</event>
<event>
 5   0  0.2792361E-07  0.3008994E+04  0.7818609E-02  0.8241167E-01
       -1   -1    0    0    0  501  0.00000000000E+00  0.00000000000E+00  0.21611136025E+04  0.21611136025E+04  0.50400001928E-02 0.  1.
        1   -1    0    0  501    0  0.00000000000E+00  0.00000000000E+00 -0.10473817883E+04  0.10473817883E+04  0.50400001928E-02 0. -1.
    10030    2    1    2    0    0  0.00000000000E+00  0.00000000000E+00  0.11137318142E+04  0.32084953908E+04  0.30089938715E+04 0.  0.
        4    1    3    3  502    0 -0.13166919503E+04  0.64521257526E+03  0.19758003859E+03  0.14795325085E+04  0.12699999809E+01 0. -1.
       -4    1    3    3    0  502  0.13166919503E+04 -0.64521257526E+03  0.91615177565E+03  0.17289628823E+04  0.12699999809E+01 0.  1.
</event>
<event>
 5   0  0.7399409E-07  0.2990456E+04  0.7818609E-02  0.8246461E-01
       -2   -1    0    0    0  501  0.00000000000E+00  0.00000000000E+00  0.91613481125E+03  0.91613481125E+03  0.25500000920E-02 0. -1.
        2   -1    0    0  501    0  0.00000000000E+00  0.00000000000E+00 -0.24403693733E+04  0.24403693733E+04  0.25500000920E-02 0.  1.
    10030    2    1    2    0    0  0.00000000000E+00  0.00000000000E+00 -0.15242345620E+04  0.33565041845E+04  0.29904563766E+04 0.  0.
        3    1    3    3  502    0 -0.36300373099E+03 -0.79278437717E+03  0.60123727109E+03  0.10591341009E+04  0.10100000352E+00 0. -1.
       -3    1    3    3    0  502  0.36300373099E+03  0.79278437717E+03 -0.21254718331E+04  0.22973700836E+04  0.10100000352E+00 0.  1.
</event>
<event>
 5   0  0.2679935E-07  0.3001920E+04  0.7818609E-02  0.8243183E-01
        1   -1    0    0  501    0  0.00000000000E+00  0.00000000000E+00  0.15381709472E+04  0.15381709472E+04  0.50400001928E-02 0. -1.
       -1   -1    0    0    0  501  0.00000000000E+00  0.00000000000E+00 -0.14646496126E+04  0.14646496126E+04  0.50400001928E-02 0.  1.
    10030    2    1    2    0    0  0.00000000000E+00  0.00000000000E+00  0.73521334602E+02  0.30028205598E+04  0.30019203733E+04 0.  0.
        2    1    3    3  502    0  0.97649640961E+03  0.37654763220E+03  0.11129774006E+04  0.15277604693E+04  0.25500000920E-02 0. -1.
       -2    1    3    3    0  502 -0.97649640961E+03 -0.37654763220E+03 -0.10394560660E+04  0.14750600905E+04  0.25500000920E-02 0.  1.
</event>
<event>
 5   0  0.7585823E-07  0.2989318E+04  0.7818609E-02  0.8246788E-01
        2   -1    0    0  501    0  0.00000000000E+00  0.00000000000E+00  0.21517836336E+04  0.21517836336E+04  0.25500000920E-02 0. -1.
       -2   -1    0    0    0  501  0.00000000000E+00  0.00000000000E+00 -0.10382107494E+04  0.10382107494E+04  0.25500000920E-02 0.  1.
    10030    2    1    2    0    0  0.00000000000E+00  0.00000000000E+00  0.11135728842E+04  0.31899943830E+04  0.29893175802E+04 0.  0.
        5    1    3    3  502    0 -0.23771481050E+03 -0.66423713054E+02  0.21298778451E+04  0.21441366947E+04  0.46999998093E+01 0. -1.
       -5    1    3    3    0  502  0.23771481050E+03  0.66423713054E+02 -0.10163049608E+04  0.10458576883E+04  0.46999998093E+01 0.  1.
</event>
<event>
 5   0  0.7399409E-07  0.2994475E+04  0.7818609E-02  0.8245310E-01
        2   -1    0    0  501    0  0.00000000000E+00  0.00000000000E+00  0.13324998348E+04  0.13324998348E+04  0.25500000920E-02 0.  1.
       -2   -1    0    0    0  501  0.00000000000E+00  0.00000000000E+00 -0.16823412744E+04  0.16823412744E+04  0.25500000920E-02 0. -1.
    10030    2    1    2    0    0  0.00000000000E+00  0.00000000000E+00 -0.34984143957E+03  0.30148411093E+04  0.29944745584E+04 0.  0.
        3    1    3    3  502    0  0.19548586614E+03  0.15152645283E+03 -0.16616307622E+04  0.16799380315E+04  0.10100000352E+00 0. -1.
       -3    1    3    3    0  502 -0.19548586614E+03 -0.15152645283E+03  0.13117893226E+04  0.13349030777E+04  0.10100000352E+00 0.  1.
</event>
<event>
 5   0  0.2679935E-07  0.2998609E+04  0.7818609E-02  0.8244128E-01
       -1   -1    0    0    0  501  0.00000000000E+00  0.00000000000E+00  0.74741455071E+03  0.74741455073E+03  0.50400001928E-02 0. -1.
        1   -1    0    0  501    0  0.00000000000E+00  0.00000000000E+00 -0.30075857846E+04  0.30075857846E+04  0.50400001928E-02 0.  1.
    10030    2    1    2    0    0  0.00000000000E+00  0.00000000000E+00 -0.22601712338E+04  0.37550003353E+04  0.29986085959E+04 0.  0.
        2    1    3    3  502    0 -0.26751690797E+03  0.11592989588E+04  0.12396611181E+02  0.11898289994E+04  0.25500000920E-02 0. -1.
       -2    1    3    3    0  502  0.26751690797E+03 -0.11592989588E+04 -0.22725678450E+04  0.25651713358E+04  0.25500000920E-02 0.  1.
</event>
<event>
 5   0  0.2679935E-07  0.2997726E+04  0.7818609E-02  0.8244380E-01
       -1   -1    0    0    0  501  0.00000000000E+00  0.00000000000E+00  0.15801016732E+04  0.15801016733E+04  0.50400001928E-02 0.  1.
        1   -1    0    0  501    0  0.00000000000E+00  0.00000000000E+00 -0.14218012960E+04  0.14218012960E+04  0.50400001928E-02 0. -1.
    10030    2    1    2    0    0  0.00000000000E+00  0.00000000000E+00  0.15830037730E+03  0.30019029692E+04  0.29977262095E+04 0.  0.
        2    1    3    3  502    0  0.28662293094E+03 -0.13656721417E+04 -0.46876616979E+03  0.14720580236E+04  0.25500000920E-02 0.  1.
       -2    1    3    3    0  502 -0.28662293094E+03  0.13656721417E+04  0.62706654708E+03  0.15298449456E+04  0.25500000920E-02 0. -1.
</event>
<event>
 5   0  0.2602891E-07  0.3005088E+04  0.7818609E-02  0.8242279E-01
        1   -1    0    0  501    0  0.00000000000E+00  0.00000000000E+00  0.14044901920E+04  0.14044901920E+04  0.50400001928E-02 0. -1.
       -1   -1    0    0    0  501  0.00000000000E+00  0.00000000000E+00 -0.16074433621E+04  0.16074433621E+04  0.50400001928E-02 0.  1.
    10030    2    1    2    0    0  0.00000000000E+00  0.00000000000E+00 -0.20295317006E+03  0.30119335541E+04  0.30050879762E+04 0.  0.
        5    1    3    3  502    0 -0.11738385356E+04  0.68115592275E+03 -0.74772912113E+03  0.15495132227E+04  0.46999998093E+01 0. -1.
       -5    1    3    3    0  502  0.11738385356E+04 -0.68115592275E+03  0.54477595107E+03  0.14624203314E+04  0.46999998093E+01 0.  1.
</event>
<event>
 5   0  0.7278657E-07  0.2998923E+04  0.7818609E-02  0.8244039E-01
        2   -1    0    0  501    0  0.00000000000E+00  0.00000000000E+00  0.25284088837E+04  0.25284088837E+04  0.25500000920E-02 0.  1.
       -2   -1    0    0    0  501  0.00000000000E+00  0.00000000000E+00 -0.88924864723E+03  0.88924864724E+03  0.25500000920E-02 0. -1.
    10030    2    1    2    0    0  0.00000000000E+00  0.00000000000E+00  0.16391602365E+04  0.34176575309E+04  0.29989225929E+04 0.  0.
        2    1    3    3  502    0 -0.46620923088E+03 -0.13894724292E+04  0.11806814272E+04  0.18820184141E+04  0.25500000920E-02 0.  1.
       -2    1    3    3    0  502  0.46620923088E+03  0.13894724292E+04  0.45847880929E+03  0.15356391168E+04  0.25500000920E-02 0. -1.
</event>
<event>
 5   0  0.7278657E-07  0.2999245E+04  0.7818609E-02  0.8243946E-01
        2   -1    0    0  501    0  0.00000000000E+00  0.00000000000E+00  0.14935306070E+04  0.14935306070E+04  0.25500000920E-02 0. -1.
       -2   -1    0    0    0  501  0.00000000000E+00  0.00000000000E+00 -0.15057394941E+04  0.15057394941E+04  0.25500000920E-02 0.  1.
    10030    2    1    2    0    0  0.00000000000E+00  0.00000000000E+00 -0.12208887082E+02  0.29992701012E+04  0.29992452522E+04 0.  0.
        2    1    3    3  502    0 -0.85544277835E+03  0.21994480157E+03  0.12058090413E+04  0.14947018120E+04  0.25500000920E-02 0. -1.
       -2    1    3    3    0  502  0.85544277835E+03 -0.21994480157E+03 -0.12180179284E+04  0.15045682891E+04  0.25500000920E-02 0.  1.
</event>
<event>
 5   0  0.2621825E-07  0.3002497E+04  0.7818609E-02  0.8243018E-01
        1   -1    0    0  501    0  0.00000000000E+00  0.00000000000E+00  0.13673811888E+04  0.13673811888E+04  0.50400001928E-02 0.  1.
       -1   -1    0    0    0  501  0.00000000000E+00  0.00000000000E+00 -0.16482213574E+04  0.16482213574E+04  0.50400001928E-02 0. -1.
    10030    2    1    2    0    0  0.00000000000E+00  0.00000000000E+00 -0.28084016865E+03  0.30156025462E+04  0.30024968803E+04 0.  0.
        3    1    3    3  502    0 -0.10016352588E+04 -0.58781093764E+03  0.81502186090E+03  0.14188218824E+04  0.10100000352E+00 0.  1.
       -3    1    3    3    0  502  0.10016352588E+04  0.58781093764E+03 -0.10958620296E+04  0.15967806638E+04  0.10100000352E+00 0. -1.
</event>
<event>
 5   0  0.7208273E-07  0.3000510E+04  0.7818609E-02  0.8243585E-01
       -2   -1    0    0    0  501  0.00000000000E+00  0.00000000000E+00  0.11729228579E+04  0.11729228579E+04  0.25500000920E-02 0. -1.
        2   -1    0    0  501    0  0.00000000000E+00  0.00000000000E+00 -0.19189376261E+04  0.19189376261E+04  0.25500000920E-02 0.  1.
    10030    2    1    2    0    0  0.00000000000E+00  0.00000000000E+00 -0.74601476821E+03  0.30918604841E+04  0.30005104930E+04 0.  0.
        4    1    3    3  502    0  0.54662653852E+03  0.10453008688E+04 -0.13282190092E+04  0.17764069995E+04  0.12699999809E+01 0.  1.
       -4    1    3    3    0  502 -0.54662653852E+03 -0.10453008688E+04  0.58220424097E+03  0.13154534845E+04  0.12699999809E+01 0. -1.
</event>
<event>
 5   0  0.2640081E-07  0.3000006E+04  0.7818609E-02  0.8243729E-01
        1   -1    0    0  501    0  0.00000000000E+00  0.00000000000E+00  0.13093131621E+04  0.13093131621E+04  0.50400001928E-02 0.  1.
       -1   -1    0    0    0  501  0.00000000000E+00  0.00000000000E+00 -0.17184655940E+04  0.17184655940E+04  0.50400001928E-02 0. -1.
    10030    2    1    2    0    0  0.00000000000E+00  0.00000000000E+00 -0.40915243182E+03  0.30277787561E+04  0.30000064139E+04 0.  0.
        1    1    3    3  502    0 -0.71049288558E+03  0.10783065750E+04  0.56568255368E+03  0.14098021002E+04  0.50400001928E-02 0.  1.
       -1    1    3    3    0  502  0.71049288558E+03 -0.10783065750E+04 -0.97483498550E+03  0.16179766559E+04  0.50400001928E-02 0. -1.
</event>
<event>
 5   0  0.7278657E-07  0.2992979E+04  0.7818609E-02  0.8245739E-01
       -2   -1    0    0    0  501  0.00000000000E+00  0.00000000000E+00  0.14041628926E+04  0.14041628926E+04  0.25500000920E-02 0. -1.
        2   -1    0    0  501    0  0.00000000000E+00  0.00000000000E+00 -0.15948867096E+04  0.15948867096E+04  0.25500000920E-02 0.  1.
    10030    2    1    2    0    0  0.00000000000E+00  0.00000000000E+00 -0.19072381700E+03  0.29990496022E+04  0.29929789412E+04 0.  0.
        2    1    3    3  502    0 -0.10665620033E+04 -0.94008999599E+03  0.37265828520E+03  0.14697611728E+04  0.25500000920E-02 0. -1.
       -2    1    3    3    0  502  0.10665620033E+04  0.94008999599E+03 -0.56338210220E+03  0.15292884295E+04  0.25500000920E-02 0.  1.
</event>
<event>
 5   0  0.2602891E-07  0.3002011E+04  0.7818609E-02  0.8243157E-01
        1   -1    0    0  501    0  0.00000000000E+00  0.00000000000E+00  0.12892676985E+04  0.12892676986E+04  0.50400001928E-02 0. -1.
       -1   -1    0    0    0  501  0.00000000000E+00  0.00000000000E+00 -0.17475175253E+04  0.17475175253E+04  0.50400001928E-02 0.  1.
    10030    2    1    2    0    0  0.00000000000E+00  0.00000000000E+00 -0.45824982678E+03  0.30367852239E+04  0.30020112578E+04 0.  0.
        5    1    3    3  502    0  0.45307478241E+02 -0.11900135087E+04  0.69513861025E+03  0.13789215699E+04  0.46999998093E+01 0. -1.
       -5    1    3    3    0  502 -0.45307478241E+02  0.11900135087E+04 -0.11533884370E+04  0.16578636540E+04  0.46999998093E+01 0.  1.
</event>
<event>
 5   0  0.7307508E-07  0.3002499E+04  0.7818609E-02  0.8243018E-01
        2   -1    0    0  501    0  0.00000000000E+00  0.00000000000E+00  0.20625180837E+04  0.20625180837E+04  0.25500000920E-02 0.  1.
       -2   -1    0    0    0  501  0.00000000000E+00  0.00000000000E+00 -0.10927176768E+04  0.10927176768E+04  0.25500000920E-02 0. -1.
    10030    2    1    2    0    0  0.00000000000E+00  0.00000000000E+00  0.96980040690E+03  0.31552357605E+04  0.30024989384E+04 0.  0.
        1    1    3    3  502    0 -0.58063021730E+03 -0.91605558872E+03  0.15757116024E+04  0.19128921415E+04  0.50400001928E-02 0.  1.
       -1    1    3    3    0  502  0.58063021730E+03  0.91605558872E+03 -0.60591119552E+03  0.12423436190E+04  0.50400001928E-02 0. -1.
</event>
<event>
 5   0  0.7585823E-07  0.3000178E+04  0.7818609E-02  0.8243680E-01
       -2   -1    0    0    0  501  0.00000000000E+00  0.00000000000E+00  0.23189601480E+04  0.23189601480E+04  0.25500000920E-02 0. -1.
        2   -1    0    0  501    0  0.00000000000E+00  0.00000000000E+00 -0.97037751004E+03  0.97037751004E+03  0.25500000920E-02 0.  1.
    10030    2    1    2    0    0  0.00000000000E+00  0.00000000000E+00  0.13485826380E+04  0.32893376581E+04  0.30001778443E+04 0.  0.
        5    1    3    3  502    0 -0.69754542763E+03 -0.34679818891E+03  0.20798011958E+04  0.22209083077E+04  0.46999998093E+01 0. -1.
       -5    1    3    3    0  502  0.69754542763E+03  0.34679818891E+03 -0.73121855778E+03  0.10684293503E+04  0.46999998093E+01 0.  1.
</event>
<event>
 5   0  0.2640081E-07  0.3009834E+04  0.7818609E-02  0.8240928E-01
       -1   -1    0    0    0  501  0.00000000000E+00  0.00000000000E+00  0.11061834405E+04  0.11061834405E+04  0.50400001928E-02 0.  1.
        1   -1    0    0  501    0  0.00000000000E+00  0.00000000000E+00 -0.20473780188E+04  0.20473780188E+04  0.50400001928E-02 0. -1.
    10030    2    1    2    0    0  0.00000000000E+00  0.00000000000E+00 -0.94119457830E+03  0.31535614594E+04  0.30098343217E+04 0.  0.
        1    1    3    3  502    0 -0.11124684737E+04 -0.72103123509E+03  0.27566697338E+03  0.13540548095E+04  0.50400001928E-02 0.  1.
       -1    1    3    3    0  502  0.11124684737E+04  0.72103123509E+03 -0.12168615517E+04  0.17995066499E+04  0.50400001928E-02 0. -1.
</event>
<event>
 5   0  0.2792361E-07  0.2993128E+04  0.7818609E-02  0.8245696E-01
       -1   -1    0    0    0  501  0.00000000000E+00  0.00000000000E+00  0.14414839355E+04  0.14414839355E+04  0.50400001928E-02 0.  1.
        1   -1    0    0  501    0  0.00000000000E+00  0.00000000000E+00 -0.15537487888E+04  0.15537487888E+04  0.50400001928E-02 0. -1.
    10030    2    1    2    0    0  0.00000000000E+00  0.00000000000E+00 -0.11226485334E+03  0.29952327243E+04  0.29931280753E+04 0.  0.
        4    1    3    3  502    0 -0.81480673372E+03  0.98642597033E+03  0.72078717281E+03  0.14684964997E+04  0.12699999809E+01 0.  1.
       -4    1    3    3    0  502  0.81480673372E+03 -0.98642597033E+03 -0.83305202615E+03  0.15267362246E+04  0.12699999809E+01 0. -1.
</event>
<event>
 5   0  0.2792361E-07  0.3000971E+04  0.7818609E-02  0.8243454E-01
       -1   -1    0    0    0  501  0.00000000000E+00  0.00000000000E+00  0.10208654854E+04  0.10208654854E+04  0.50400001928E-02 0.  1.
        1   -1    0    0  501    0  0.00000000000E+00  0.00000000000E+00 -0.22054392075E+04  0.22054392075E+04  0.50400001928E-02 0. -1.
    10030    2    1    2    0    0  0.00000000000E+00  0.00000000000E+00 -0.11845737221E+04  0.32263046928E+04  0.30009710208E+04 0.  0.
        4    1    3    3  502    0  0.21538324699E+03 -0.13965632120E+04 -0.11348345706E+04  0.18123547842E+04  0.12699999809E+01 0. -1.
       -4    1    3    3    0  502 -0.21538324699E+03  0.13965632120E+04 -0.49739151469E+02  0.14139499087E+04  0.12699999809E+01 0.  1.
</event>
<event>
 5   0  0.7278657E-07  0.3005311E+04  0.7818609E-02  0.8242216E-01
       -2   -1    0    0    0  501  0.00000000000E+00  0.00000000000E+00  0.11541846068E+04  0.11541846068E+04  0.25500000920E-02 0.  1.
        2   -1    0    0  501    0  0.00000000000E+00  0.00000000000E+00 -0.19563359526E+04  0.19563359526E+04  0.25500000920E-02 0. -1.
    10030    2    1    2    0    0  0.00000000000E+00  0.00000000000E+00 -0.80215134577E+03  0.31105205594E+04  0.30053105279E+04 0.  0.
        2    1    3    3  502    0 -0.26725252019E+03  0.14753234044E+04 -0.29773135066E+03  0.15286095036E+04  0.25500000920E-02 0. -1.
       -2    1    3    3    0  502  0.26725252019E+03 -0.14753234044E+04 -0.50441999511E+03  0.15819110559E+04  0.25500000920E-02 0.  1.
</event>
<event>
 5   0  0.7278657E-07  0.2997259E+04  0.7818609E-02  0.8244514E-01
       -2   -1    0    0    0  501  0.00000000000E+00  0.00000000000E+00  0.10945719342E+04  0.10945719342E+04  0.25500000920E-02 0.  1.
        2   -1    0    0  501    0  0.00000000000E+00  0.00000000000E+00 -0.20518436586E+04  0.20518436586E+04  0.25500000920E-02 0. -1.
    10030    2    1    2    0    0  0.00000000000E+00  0.00000000000E+00 -0.95727172434E+03  0.31464155928E+04  0.29972590693E+04 0.  0.
        2    1    3    3  502    0  0.11114516855E+04 -0.88847275449E+03  0.15067965236E+02  0.14230023641E+04  0.25500000920E-02 0.  1.
       -2    1    3    3    0  502 -0.11114516855E+04  0.88847275449E+03 -0.97233968958E+03  0.17234132286E+04  0.25500000920E-02 0. -1.
</event>
<event>
 5   0  0.7208273E-07  0.3001847E+04  0.7818609E-02  0.8243204E-01
        2   -1    0    0  501    0  0.00000000000E+00  0.00000000000E+00  0.12343092618E+04  0.12343092618E+04  0.25500000920E-02 0. -1.
       -2   -1    0    0    0  501  0.00000000000E+00  0.00000000000E+00 -0.18251266383E+04  0.18251266383E+04  0.25500000920E-02 0.  1.
    10030    2    1    2    0    0  0.00000000000E+00  0.00000000000E+00 -0.59081737644E+03  0.30594359001E+04  0.30018465741E+04 0.  0.
        4    1    3    3  502    0  0.29499363992E+03  0.12568557195E+04 -0.10756419903E+04  0.16803912793E+04  0.12699999809E+01 0.  1.
       -4    1    3    3    0  502 -0.29499363992E+03 -0.12568557195E+04  0.48482461385E+03  0.13790446209E+04  0.12699999809E+01 0. -1.
</event>
<event>
 5   0  0.7585823E-07  0.3000404E+04  0.7818609E-02  0.8243616E-01
       -2   -1    0    0    0  501  0.00000000000E+00  0.00000000000E+00  0.29162109663E+04  0.29162109663E+04  0.25500000920E-02 0.  1.
        2   -1    0    0  501    0  0.00000000000E+00  0.00000000000E+00 -0.77175673430E+03  0.77175673431E+03  0.25500000920E-02 0. -1.
    10030    2    1    2    0    0  0.00000000000E+00  0.00000000000E+00  0.21444542320E+04  0.36879677006E+04  0.30004036075E+04 0.  0.
        5    1    3    3  502    0  0.54649677932E+02  0.74154018542E+03 -0.52932034615E+03  0.91272698697E+03  0.46999998093E+01 0. -1.
       -5    1    3    3    0  502 -0.54649677932E+02 -0.74154018542E+03  0.26737745782E+04  0.27752407136E+04  0.46999998093E+01 0.  1.
</event>
<event>
 5   0  0.7278657E-07  0.2999502E+04  0.7818609E-02  0.8243873E-01
        2   -1    0    0  501    0  0.00000000000E+00  0.00000000000E+00  0.18242745829E+04  0.18242745829E+04  0.25500000920E-02 0. -1.
       -2   -1    0    0    0  501  0.00000000000E+00  0.00000000000E+00 -0.12329571958E+04  0.12329571958E+04  0.25500000920E-02 0.  1.
    10030    2    1    2    0    0  0.00000000000E+00  0.00000000000E+00  0.59131738712E+03  0.30572317788E+04  0.29995016081E+04 0.  0.
        2    1    3    3  502    0  0.10971075321E+04  0.96398248836E+03 -0.52000474713E+02  0.14613730613E+04  0.25500000920E-02 0.  1.
       -2    1    3    3    0  502 -0.10971075321E+04 -0.96398248836E+03  0.64331786184E+03  0.15958587175E+04  0.25500000920E-02 0. -1.
</event>
<event>
 5   0  0.7307508E-07  0.2999903E+04  0.7818609E-02  0.8243759E-01
        2   -1    0    0  501    0  0.00000000000E+00  0.00000000000E+00  0.18265496027E+04  0.18265496027E+04  0.25500000920E-02 0.  1.
       -2   -1    0    0    0  501  0.00000000000E+00  0.00000000000E+00 -0.12317511485E+04  0.12317511485E+04  0.25500000920E-02 0. -1.
    10030    2    1    2    0    0  0.00000000000E+00  0.00000000000E+00  0.59479845420E+03  0.30583007512E+04  0.29999030457E+04 0.  0.
        1    1    3    3  502    0 -0.51650517327E+03 -0.12583144673E+04  0.94194211939E+03  0.16545053185E+04  0.50400001928E-02 0.  1.
       -1    1    3    3    0  502  0.51650517327E+03  0.12583144673E+04 -0.34714366519E+03  0.14037954327E+04  0.50400001928E-02 0. -1.
</event>
<event>
 5   0  0.7208273E-07  0.3005579E+04  0.7818609E-02  0.8242139E-01
       -2   -1    0    0    0  501  0.00000000000E+00  0.00000000000E+00  0.17203614564E+04  0.17203614564E+04  0.25500000920E-02 0. -1.
        2   -1    0    0  501    0  0.00000000000E+00  0.00000000000E+00 -0.13127339770E+04  0.13127339770E+04  0.25500000920E-02 0.  1.
    10030    2    1    2    0    0  0.00000000000E+00  0.00000000000E+00  0.40762747936E+03  0.30330954335E+04  0.30055794361E+04 0.  0.
        4    1    3    3  502    0  0.57277642527E+03  0.13355704998E+04 -0.18251462867E+03  0.14646278011E+04  0.12699999809E+01 0.  1.
       -4    1    3    3    0  502 -0.57277642527E+03 -0.13355704998E+04  0.59014210803E+03  0.15684676324E+04  0.12699999809E+01 0. -1.
</event>
<event>
 5   0  0.7208273E-07  0.3003259E+04  0.7818609E-02  0.8242801E-01
        2   -1    0    0  501    0  0.00000000000E+00  0.00000000000E+00  0.24393807600E+04  0.24393807600E+04  0.25500000920E-02 0.  1.
       -2   -1    0    0    0  501  0.00000000000E+00  0.00000000000E+00 -0.92437059145E+03  0.92437059146E+03  0.25500000920E-02 0. -1.
    10030    2    1    2    0    0  0.00000000000E+00  0.00000000000E+00  0.15150101686E+04  0.33637513515E+04  0.30032594533E+04 0.  0.
        4    1    3    3  502    0  0.11224905372E+04 -0.86167840676E+03  0.19478932619E+03  0.14284324196E+04  0.12699999809E+01 0. -1.
       -4    1    3    3    0  502 -0.11224905372E+04  0.86167840676E+03  0.13202208424E+04  0.19353189319E+04  0.12699999809E+01 0.  1.
</event>
<event>
 5   0  0.7585823E-07  0.2999513E+04  0.7818609E-02  0.8243870E-01
       -2   -1    0    0    0  501  0.00000000000E+00  0.00000000000E+00  0.15172076294E+04  0.15172076294E+04  0.25500000920E-02 0. -1.
        2   -1    0    0  501    0  0.00000000000E+00  0.00000000000E+00 -0.14825059064E+04  0.14825059064E+04  0.25500000920E-02 0.  1.
    10030    2    1    2    0    0  0.00000000000E+00  0.00000000000E+00  0.34701722990E+02  0.29997135358E+04  0.29995128084E+04 0.  0.
        5    1    3    3  502    0  0.12963491305E+04  0.23808594933E+03 -0.69826756217E+03  0.14915782467E+04  0.46999998093E+01 0.  1.
       -5    1    3    3    0  502 -0.12963491305E+04 -0.23808594933E+03  0.73296928516E+03  0.15081352892E+04  0.46999998093E+01 0. -1.
</event>
<event>
 5   0  0.2792361E-07  0.2999594E+04  0.7818609E-02  0.8243847E-01
       -1   -1    0    0    0  501  0.00000000000E+00  0.00000000000E+00  0.87307723239E+03  0.87307723241E+03  0.50400001928E-02 0.  1.
        1   -1    0    0  501    0  0.00000000000E+00  0.00000000000E+00 -0.25763944017E+04  0.25763944017E+04  0.50400001928E-02 0. -1.
    10030    2    1    2    0    0  0.00000000000E+00  0.00000000000E+00 -0.17033171693E+04  0.34494716341E+04  0.29995941684E+04 0.  0.
        4    1    3    3  502    0  0.15429493802E+03  0.14913477272E+04 -0.80764711854E+03  0.17030033624E+04  0.12699999809E+01 0. -1.
       -4    1    3    3    0  502 -0.15429493802E+03 -0.14913477272E+04 -0.89567005077E+03  0.17464682717E+04  0.12699999809E+01 0.  1.
</event>
<event>
 5   0  0.7585823E-07  0.2999212E+04  0.7818609E-02  0.8243956E-01
       -2   -1    0    0    0  501  0.00000000000E+00  0.00000000000E+00  0.17909045928E+04  0.17909045928E+04  0.25500000920E-02 0. -1.
        2   -1    0    0  501    0  0.00000000000E+00  0.00000000000E+00 -0.12556883609E+04  0.12556883609E+04  0.25500000920E-02 0.  1.
    10030    2    1    2    0    0  0.00000000000E+00  0.00000000000E+00  0.53521623190E+03  0.30465929537E+04  0.29992119316E+04 0.  0.
        5    1    3    3  502    0  0.46842026597E+03  0.50118270828E+03  0.16221638725E+04  0.17612607336E+04  0.46999998093E+01 0. -1.
       -5    1    3    3    0  502 -0.46842026597E+03 -0.50118270828E+03 -0.10869476406E+04  0.12853322201E+04  0.46999998093E+01 0.  1.
</event>
<event>
 5   0  0.7399409E-07  0.3001576E+04  0.7818609E-02  0.8243281E-01
       -2   -1    0    0    0  501  0.00000000000E+00  0.00000000000E+00  0.15159715500E+04  0.15159715500E+04  0.25500000920E-02 0.  1.
        2   -1    0    0  501    0  0.00000000000E+00  0.00000000000E+00 -0.14857569064E+04  0.14857569064E+04  0.25500000920E-02 0. -1.
    10030    2    1    2    0    0  0.00000000000E+00  0.00000000000E+00  0.30214643634E+02  0.30017284564E+04  0.30015763861E+04 0.  0.
        3    1    3    3  502    0  0.57227261795E+03 -0.10099796989E+03  0.13988929495E+04  0.15147930663E+04  0.10100000352E+00 0.  1.
       -3    1    3    3    0  502 -0.57227261795E+03  0.10099796989E+03 -0.13686783059E+04  0.14869353901E+04  0.10100000352E+00 0. -1.
</event>
<event>
 5   0  0.2414250E-07  0.3003440E+04  0.7818609E-02  0.8242749E-01
        4   -1    0    0  501    0  0.00000000000E+00  0.00000000000E+00  0.10921357246E+04  0.10921364631E+04  0.12699999809E+01 0.  1.
       -4   -1    0    0    0  501  0.00000000000E+00  0.00000000000E+00 -0.20649086578E+04  0.20649090484E+04  0.12699999809E+01 0. -1.
    10030    2    1    2    0    0  0.00000000000E+00  0.00000000000E+00 -0.97277293318E+03  0.31570455114E+04  0.30034395585E+04 0.  0.
        3    1    3    3  502    0 -0.10420385091E+04  0.34441439256E+02 -0.16224637419E+04  0.19285795476E+04  0.10100000352E+00 0. -1.
       -3    1    3    3    0  502  0.10420385091E+04 -0.34441439256E+02  0.64969080873E+03  0.12284659639E+04  0.10100000352E+00 0.  1.
</event>
<event>
 5   0  0.2640081E-07  0.3000879E+04  0.7818609E-02  0.8243480E-01
       -1   -1    0    0    0  501  0.00000000000E+00  0.00000000000E+00  0.12935436551E+04  0.12935436551E+04  0.50400001928E-02 0.  1.
        1   -1    0    0  501    0  0.00000000000E+00  0.00000000000E+00 -0.17404269974E+04  0.17404269974E+04  0.50400001928E-02 0. -1.
    10030    2    1    2    0    0  0.00000000000E+00  0.00000000000E+00 -0.44688334230E+03  0.30339706525E+04  0.30008787377E+04 0.  0.
        1    1    3    3  502    0  0.97471143614E+03 -0.94283161226E+03 -0.87264760721E+03  0.16126089666E+04  0.50400001928E-02 0.  1.
       -1    1    3    3    0  502 -0.97471143614E+03  0.94283161226E+03  0.42576426491E+03  0.14213616859E+04  0.50400001928E-02 0. -1.
</event>
<event>
 5   0  0.2602891E-07  0.2997031E+04  0.7818609E-02  0.8244579E-01
        1   -1    0    0  501    0  0.00000000000E+00  0.00000000000E+00  0.14369119395E+04  0.14369119395E+04  0.50400001928E-02 0.  1.
       -1   -1    0    0    0  501  0.00000000000E+00  0.00000000000E+00 -0.15627599954E+04  0.15627599954E+04  0.50400001928E-02 0. -1.
    10030    2    1    2    0    0  0.00000000000E+00  0.00000000000E+00 -0.12584805596E+03  0.29996719349E+04  0.29970308614E+04 0.  0.
        5    1    3    3  502    0 -0.57520387909E+03  0.26986813448E+03  0.12954152852E+04  0.14428482816E+04  0.46999998093E+01 0.  1.
       -5    1    3    3    0  502  0.57520387909E+03 -0.26986813448E+03 -0.14212633412E+04  0.15568236533E+04  0.46999998093E+01 0. -1.
</event>
<event>
 5   0  0.2602891E-07  0.2992651E+04  0.7818609E-02  0.8245833E-01
        1   -1    0    0  501    0  0.00000000000E+00  0.00000000000E+00  0.23705362628E+04  0.23705362628E+04  0.50400001928E-02 0.  1.
       -1   -1    0    0    0  501  0.00000000000E+00  0.00000000000E+00 -0.94450782514E+03  0.94450782516E+03  0.50400001928E-02 0. -1.
    10030    2    1    2    0    0  0.00000000000E+00  0.00000000000E+00  0.14260284376E+04  0.33150440879E+04  0.29926510321E+04 0.  0.
        5    1    3    3  502    0  0.80196445197E+03  0.42354191962E+03 -0.60533747980E+03  0.10904083154E+04  0.46999998093E+01 0. -1.
       -5    1    3    3    0  502 -0.80196445197E+03 -0.42354191962E+03  0.20313659174E+04  0.22246357725E+04  0.46999998093E+01 0.  1.
</event>
<event>
 5   0  0.7307508E-07  0.2992612E+04  0.7818609E-02  0.8245844E-01
        2   -1    0    0  501    0  0.00000000000E+00  0.00000000000E+00  0.17577463932E+04  0.17577463932E+04  0.25500000920E-02 0. -1.
       -2   -1    0    0    0  501  0.00000000000E+00  0.00000000000E+00 -0.12737512674E+04  0.12737512674E+04  0.25500000920E-02 0.  1.
    10030    2    1    2    0    0  0.00000000000E+00  0.00000000000E+00  0.48399512577E+03  0.30314976607E+04  0.29926120338E+04 0.  0.
        1    1    3    3  502    0  0.11895285489E+03 -0.14839568040E+04  0.89528966912E+02  0.14914063879E+04  0.50400001928E-02 0.  1.
       -1    1    3    3    0  502 -0.11895285489E+03  0.14839568040E+04  0.39446615886E+03  0.15400912728E+04  0.50400001928E-02 0. -1.
</event>
<event>
 5   0  0.7307508E-07  0.2998560E+04  0.7818609E-02  0.8244142E-01
        2   -1    0    0  501    0  0.00000000000E+00  0.00000000000E+00  0.18967390071E+04  0.18967390071E+04  0.25500000920E-02 0.  1.
       -2   -1    0    0    0  501  0.00000000000E+00  0.00000000000E+00 -0.11851078101E+04  0.11851078101E+04  0.25500000920E-02 0. -1.
    10030    2    1    2    0    0  0.00000000000E+00  0.00000000000E+00  0.71163119706E+03  0.30818468172E+04  0.29985597950E+04 0.  0.
        1    1    3    3  502    0  0.11520467631E+04 -0.60713636192E+03 -0.40779745427E+03  0.13645970358E+04  0.50400001928E-02 0. -1.
       -1    1    3    3    0  502 -0.11520467631E+04  0.60713636192E+03  0.11194286513E+04  0.17172497814E+04  0.50400001928E-02 0.  1.
</event>
<event>
 5   0  0.2792361E-07  0.2978901E+04  0.7818609E-02  0.8249782E-01
        1   -1    0    0  501    0  0.00000000000E+00  0.00000000000E+00  0.23543540231E+04  0.23543540231E+04  0.50400001928E-02 0.  1.
       -1   -1    0    0    0  501  0.00000000000E+00  0.00000000000E+00 -0.94228091646E+03  0.94228091647E+03  0.50400001928E-02 0. -1.
    10030    2    1    2    0    0  0.00000000000E+00  0.00000000000E+00  0.14120731067E+04  0.32966349396E+04  0.29789010501E+04 0.  0.
        4    1    3    3  502    0  0.38518414670E+02 -0.23562362451E+03  0.23330393146E+04  0.23452241294E+04  0.12699999809E+01 0.  1.
       -4    1    3    3    0  502 -0.38518414670E+02  0.23562362451E+03 -0.92096620794E+03  0.95141081020E+03  0.12699999809E+01 0. -1.
</event>
<event>
 5   0  0.7278657E-07  0.2970066E+04  0.7818609E-02  0.8252331E-01
        2   -1    0    0  501    0  0.00000000000E+00  0.00000000000E+00  0.19155155075E+04  0.19155155075E+04  0.25500000920E-02 0. -1.
       -2   -1    0    0    0  501  0.00000000000E+00  0.00000000000E+00 -0.11512947073E+04  0.11512947073E+04  0.25500000920E-02 0.  1.
    10030    2    1    2    0    0  0.00000000000E+00  0.00000000000E+00  0.76422080020E+03  0.30668102148E+04  0.29700659020E+04 0.  0.
        2    1    3    3  502    0 -0.12945668498E+04  0.69220789706E+03  0.15060261548E+03  0.14757155042E+04  0.25500000920E-02 0.  1.
       -2    1    3    3    0  502  0.12945668498E+04 -0.69220789706E+03  0.61361818473E+03  0.15910947106E+04  0.25500000920E-02 0. -1.
</event>
<event>
 5   0  0.7585823E-07  0.3016162E+04  0.7818609E-02  0.8239131E-01
        2   -1    0    0  501    0  0.00000000000E+00  0.00000000000E+00  0.26427040862E+04  0.26427040862E+04  0.25500000920E-02 0. -1.
       -2   -1    0    0    0  501  0.00000000000E+00  0.00000000000E+00 -0.86059866701E+03  0.86059866702E+03  0.25500000920E-02 0.  1.
    10030    2    1    2    0    0  0.00000000000E+00  0.00000000000E+00  0.17821054192E+04  0.35033027532E+04  0.30161615434E+04 0.  0.
        5    1    3    3  502    0 -0.12132399718E+04 -0.57539015284E+03  0.93694304351E+02  0.13460407757E+04  0.46999998093E+01 0. -1.
       -5    1    3    3    0  502  0.12132399718E+04  0.57539015284E+03  0.16884111149E+04  0.21572619776E+04  0.46999998093E+01 0.  1.
</event>
<event>
 5   0  0.7585823E-07  0.3026733E+04  0.7818609E-02  0.8236138E-01
        2   -1    0    0  501    0  0.00000000000E+00  0.00000000000E+00  0.18123370551E+04  0.18123370551E+04  0.25500000920E-02 0. -1.
       -2   -1    0    0    0  501  0.00000000000E+00  0.00000000000E+00 -0.12637154467E+04  0.12637154467E+04  0.25500000920E-02 0.  1.
    10030    2    1    2    0    0  0.00000000000E+00  0.00000000000E+00  0.54862160843E+03  0.30760525019E+04  0.30267331110E+04 0.  0.
        5    1    3    3  502    0 -0.44372455635E+03  0.46881998499E+03  0.16653996778E+04  0.17861304087E+04  0.46999998093E+01 0. -1.
       -5    1    3    3    0  502  0.44372455635E+03 -0.46881998499E+03 -0.11167780693E+04  0.12899220931E+04  0.46999998093E+01 0.  1.
</event>
<event>
 5   0  0.2640081E-07  0.3006419E+04  0.7818609E-02  0.8241900E-01
        1   -1    0    0  501    0  0.00000000000E+00  0.00000000000E+00  0.15011005877E+04  0.15011005877E+04  0.50400001928E-02 0.  1.
       -1   -1    0    0    0  501  0.00000000000E+00  0.00000000000E+00 -0.15053209478E+04  0.15053209478E+04  0.50400001928E-02 0. -1.
    10030    2    1    2    0    0  0.00000000000E+00  0.00000000000E+00 -0.42203601770E+01  0.30064215355E+04  0.30064185733E+04 0.  0.
        1    1    3    3  502    0 -0.39969646250E+03 -0.13211899760E+04  0.59315332691E+03  0.15023751476E+04  0.50400001928E-02 0.  1.
       -1    1    3    3    0  502  0.39969646250E+03  0.13211899760E+04 -0.59737368709E+03  0.15040463879E+04  0.50400001928E-02 0. -1.
</event>
<event>
 5   0  0.2792361E-07  0.2999010E+04  0.7818609E-02  0.8244014E-01
       -1   -1    0    0    0  501  0.00000000000E+00  0.00000000000E+00  0.16282142199E+04  0.16282142199E+04  0.50400001928E-02 0. -1.
        1   -1    0    0  501    0  0.00000000000E+00  0.00000000000E+00 -0.13809705820E+04  0.13809705820E+04  0.50400001928E-02 0.  1.
    10030    2    1    2    0    0  0.00000000000E+00  0.00000000000E+00  0.24724363785E+03  0.30091848019E+04  0.29990104628E+04 0.  0.
        4    1    3    3  502    0  0.67178715603E+03 -0.44329375940E+02  0.14680372780E+04  0.16150536025E+04  0.12699999809E+01 0. -1.
       -4    1    3    3    0  502 -0.67178715603E+03  0.44329375940E+02 -0.12207936401E+04  0.13941311994E+04  0.12699999809E+01 0.  1.
</event>
<event>
 5   0  0.7399409E-07  0.2995228E+04  0.7818609E-02  0.8245095E-01
       -2   -1    0    0    0  501  0.00000000000E+00  0.00000000000E+00  0.85995133015E+03  0.85995133015E+03  0.25500000920E-02 0. -1.
        2   -1    0    0  501    0  0.00000000000E+00  0.00000000000E+00 -0.26081100688E+04  0.26081100688E+04  0.25500000920E-02 0.  1.
    10030    2    1    2    0    0  0.00000000000E+00  0.00000000000E+00 -0.17481587386E+04  0.34680613990E+04  0.29952280199E+04 0.  0.
        3    1    3    3  502    0 -0.77489152209E+03 -0.29451634177E+03  0.57007284118E+03  0.10060714691E+04  0.10100000352E+00 0. -1.
       -3    1    3    3    0  502  0.77489152209E+03  0.29451634177E+03 -0.23182315798E+04  0.24619899298E+04  0.10100000352E+00 0.  1.
</event>
<event>
 5   0  0.7307508E-07  0.2996450E+04  0.7818609E-02  0.8244745E-01
        2   -1    0    0  501    0  0.00000000000E+00  0.00000000000E+00  0.20517418146E+04  0.20517418146E+04  0.25500000920E-02 0.  1.
       -2   -1    0    0    0  501  0.00000000000E+00  0.00000000000E+00 -0.10940352101E+04  0.10940352101E+04  0.25500000920E-02 0. -1.
    10030    2    1    2    0    0  0.00000000000E+00  0.00000000000E+00  0.95770660447E+03  0.31457770248E+04  0.29964497575E+04 0.  0.
        1    1    3    3  502    0 -0.26788304231E+03 -0.28360122191E+03  0.19974844410E+04  0.20352235921E+04  0.50400001928E-02 0.  1.
       -1    1    3    3    0  502  0.26788304231E+03  0.28360122191E+03 -0.10397778366E+04  0.11105534327E+04  0.50400001928E-02 0. -1.
</event>
<event>
 5   0  0.7585823E-07  0.2995655E+04  0.7818609E-02  0.8244973E-01
        2   -1    0    0  501    0  0.00000000000E+00  0.00000000000E+00  0.12361691886E+04  0.12361691886E+04  0.25500000920E-02 0. -1.
       -2   -1    0    0    0  501  0.00000000000E+00  0.00000000000E+00 -0.18148706944E+04  0.18148706944E+04  0.25500000920E-02 0.  1.
    10030    2    1    2    0    0  0.00000000000E+00  0.00000000000E+00 -0.57870150587E+03  0.30510398830E+04  0.29956550093E+04 0.  0.
        5    1    3    3  502    0  0.63894134473E+03  0.55712136835E+03 -0.15470230566E+04  0.17640670874E+04  0.46999998093E+01 0.  1.
       -5    1    3    3    0  502 -0.63894134473E+03 -0.55712136835E+03  0.96832155074E+03  0.12869727956E+04  0.46999998093E+01 0. -1.
</event>
<event>
 5   0  0.2679935E-07  0.2997675E+04  0.7818609E-02  0.8244395E-01
        1   -1    0    0  501    0  0.00000000000E+00  0.00000000000E+00  0.18771565638E+04  0.18771565638E+04  0.50400001928E-02 0.  1.
       -1   -1    0    0    0  501  0.00000000000E+00  0.00000000000E+00 -0.11967639206E+04  0.11967639206E+04  0.50400001928E-02 0. -1.
    10030    2    1    2    0    0  0.00000000000E+00  0.00000000000E+00  0.68039264327E+03  0.30739204844E+04  0.29976745980E+04 0.  0.
        2    1    3    3  502    0 -0.55330154572E+03 -0.12585701135E+04 -0.27195653201E+03  0.14014641224E+04  0.25500000920E-02 0. -1.
       -2    1    3    3    0  502  0.55330154572E+03  0.12585701135E+04  0.95234917528E+03  0.16724563620E+04  0.25500000920E-02 0.  1.
</event>
<event>
 5   0  0.7399409E-07  0.3002276E+04  0.7818609E-02  0.8243081E-01
       -2   -1    0    0    0  501  0.00000000000E+00  0.00000000000E+00  0.98206772448E+03  0.98206772449E+03  0.25500000920E-02 0. -1.
        2   -1    0    0  501    0  0.00000000000E+00  0.00000000000E+00 -0.22945623607E+04  0.22945623607E+04  0.25500000920E-02 0.  1.
    10030    2    1    2    0    0  0.00000000000E+00  0.00000000000E+00 -0.13124946362E+04  0.32766300852E+04  0.30022762273E+04 0.  0.
        3    1    3    3  502    0 -0.29119426696E+02  0.14934777326E+04 -0.81846334733E+03  0.17032926759E+04  0.10100000352E+00 0.  1.
       -3    1    3    3    0  502  0.29119426696E+02 -0.14934777326E+04 -0.49403128889E+03  0.15733374093E+04  0.10100000352E+00 0. -1.
</event>
<event>
 5   0  0.7208273E-07  0.3010978E+04  0.7818609E-02  0.8240603E-01
        2   -1    0    0  501    0  0.00000000000E+00  0.00000000000E+00  0.85265229022E+03  0.85265229022E+03  0.25500000920E-02 0. -1.
       -2   -1    0    0    0  501  0.00000000000E+00  0.00000000000E+00 -0.26581734603E+04  0.26581734603E+04  0.25500000920E-02 0.  1.
    10030    2    1    2    0    0  0.00000000000E+00  0.00000000000E+00 -0.18055211701E+04  0.35108257506E+04  0.30109783717E+04 0.  0.
        4    1    3    3  502    0 -0.20908764990E+03 -0.68633564334E+03 -0.24460032037E+04  0.25490601300E+04  0.12699999809E+01 0.  1.
       -4    1    3    3    0  502  0.20908764990E+03  0.68633564334E+03  0.64048203362E+03  0.96176562059E+03  0.12699999809E+01 0. -1.
</event>
<event>
 5   0  0.2414250E-07  0.3001182E+04  0.7818609E-02  0.8243393E-01
        3   -1    0    0  501    0  0.00000000000E+00  0.00000000000E+00  0.94463914193E+03  0.94463914733E+03  0.10100000352E+00 0. -1.
       -3   -1    0    0    0  501  0.00000000000E+00  0.00000000000E+00 -0.23837396483E+04  0.23837396505E+04  0.10100000352E+00 0.  1.
    10030    2    1    2    0    0  0.00000000000E+00  0.00000000000E+00 -0.14391005064E+04  0.33283787978E+04  0.30011822927E+04 0.  0.
        4    1    3    3  502    0 -0.76808854795E+03  0.12163895169E+03 -0.21428268126E+04  0.22795754898E+04  0.12699999809E+01 0.  1.
       -4    1    3    3    0  502  0.76808854795E+03 -0.12163895169E+03  0.70372630616E+03  0.10488033080E+04  0.12699999809E+01 0. -1.
</event>
<event>
 5   0  0.7399409E-07  0.3008210E+04  0.7818609E-02  0.8241390E-01
        2   -1    0    0  501    0  0.00000000000E+00  0.00000000000E+00  0.15742076056E+04  0.15742076056E+04  0.25500000920E-02 0.  1.
       -2   -1    0    0    0  501  0.00000000000E+00  0.00000000000E+00 -0.14371245561E+04  0.14371245561E+04  0.25500000920E-02 0. -1.
    10030    2    1    2    0    0  0.00000000000E+00  0.00000000000E+00  0.13708304952E+03  0.30113321618E+04  0.30082103693E+04 0.  0.
        3    1    3    3  502    0  0.89086630118E+03 -0.49518725762E+03 -0.10387162936E+04  0.14552610541E+04  0.10100000352E+00 0. -1.
       -3    1    3    3    0  502 -0.89086630118E+03  0.49518725762E+03  0.11757993431E+04  0.15560711077E+04  0.10100000352E+00 0.  1.
</event>
<event>
 5   0  0.7208273E-07  0.2998579E+04  0.7818609E-02  0.8244137E-01
       -2   -1    0    0    0  501  0.00000000000E+00  0.00000000000E+00  0.99013681255E+03  0.99013681255E+03  0.25500000920E-02 0.  1.
        2   -1    0    0  501    0  0.00000000000E+00  0.00000000000E+00 -0.22702617010E+04  0.22702617010E+04  0.25500000920E-02 0. -1.
    10030    2    1    2    0    0  0.00000000000E+00  0.00000000000E+00 -0.12801248884E+04  0.32603985135E+04  0.29985794532E+04 0.  0.
        4    1    3    3  502    0  0.55569614673E+02  0.62267167646E+03 -0.21217891280E+04  0.22119671596E+04  0.12699999809E+01 0. -1.
       -4    1    3    3    0  502 -0.55569614673E+02 -0.62267167646E+03  0.84166423957E+03  0.10484313539E+04  0.12699999809E+01 0.  1.
</event>
<event>
 5   0  0.7307508E-07  0.3003075E+04  0.7818609E-02  0.8242853E-01
       -2   -1    0    0    0  501  0.00000000000E+00  0.00000000000E+00  0.91549850408E+03  0.91549850408E+03  0.25500000920E-02 0.  1.
        2   -1    0    0  501    0  0.00000000000E+00  0.00000000000E+00 -0.24627177053E+04  0.24627177053E+04  0.25500000920E-02 0. -1.
    10030    2    1    2    0    0  0.00000000000E+00  0.00000000000E+00 -0.15472192012E+04  0.33782162094E+04  0.30030746745E+04 0.  0.
        1    1    3    3  502    0 -0.50517881085E+03 -0.37257088139E+03 -0.23080420748E+04  0.23918764416E+04  0.50400001928E-02 0. -1.
       -1    1    3    3    0  502  0.50517881085E+03  0.37257088139E+03  0.76082287358E+03  0.98633976782E+03  0.50400001928E-02 0.  1.
</event>
<event>
 5   0  0.2792361E-07  0.3000982E+04  0.7818609E-02  0.8243450E-01
       -1   -1    0    0    0  501  0.00000000000E+00  0.00000000000E+00  0.11255816797E+04  0.11255816797E+04  0.50400001928E-02 0. -1.
        1   -1    0    0  501    0  0.00000000000E+00  0.00000000000E+00 -0.20002754457E+04  0.20002754457E+04  0.50400001928E-02 0.  1.
    10030    2    1    2    0    0  0.00000000000E+00  0.00000000000E+00 -0.87469376604E+03  0.31258571254E+04  0.30009821033E+04 0.  0.
        4    1    3    3  502    0  0.11195749207E+04  0.17569563854E+03 -0.14617094957E+04  0.18495710916E+04  0.12699999809E+01 0.  1.
       -4    1    3    3    0  502 -0.11195749207E+04 -0.17569563854E+03  0.58701572962E+03  0.12762860338E+04  0.12699999809E+01 0. -1.
</event>
<event>
 5   0  0.7399409E-07  0.2997971E+04  0.7818609E-02  0.8244310E-01
       -2   -1    0    0    0  501  0.00000000000E+00  0.00000000000E+00  0.21750009776E+04  0.21750009776E+04  0.25500000920E-02 0. -1.
        2   -1    0    0  501    0  0.00000000000E+00  0.00000000000E+00 -0.10330837414E+04  0.10330837414E+04  0.25500000920E-02 0.  1.
    10030    2    1    2    0    0  0.00000000000E+00  0.00000000000E+00  0.11419172362E+04  0.32080847189E+04  0.29979714124E+04 0.  0.
        3    1    3    3  502    0 -0.12127922113E+04 -0.56207728911E+03  0.12968537164E+04  0.18624246022E+04  0.10100000352E+00 0. -1.
       -3    1    3    3    0  502  0.12127922113E+04  0.56207728911E+03 -0.15493648016E+03  0.13456601168E+04  0.10100000352E+00 0.  1.
</event>
<event>
 5   0  0.7585823E-07  0.3001218E+04  0.7818609E-02  0.8243383E-01
       -2   -1    0    0    0  501  0.00000000000E+00  0.00000000000E+00  0.10142418189E+04  0.10142418189E+04  0.25500000920E-02 0.  1.
        2   -1    0    0  501    0  0.00000000000E+00  0.00000000000E+00 -0.22202081048E+04  0.22202081048E+04  0.25500000920E-02 0. -1.
    10030    2    1    2    0    0  0.00000000000E+00  0.00000000000E+00 -0.12059662859E+04  0.32344499237E+04  0.30012183570E+04 0.  0.
        5    1    3    3  502    0  0.46798661140E+03 -0.14156373297E+04 -0.42019951926E+03  0.15490739955E+04  0.46999998093E+01 0. -1.
       -5    1    3    3    0  502 -0.46798661140E+03  0.14156373297E+04 -0.78576676669E+03  0.16853759282E+04  0.46999998093E+01 0.  1.
</event>
<event>
 5   0  0.2621825E-07  0.3000453E+04  0.7818609E-02  0.8243602E-01
        1   -1    0    0  501    0  0.00000000000E+00  0.00000000000E+00  0.17071590408E+04  0.17071590408E+04  0.50400001928E-02 0.  1.
       -1   -1    0    0    0  501  0.00000000000E+00  0.00000000000E+00 -0.13183769078E+04  0.13183769078E+04  0.50400001928E-02 0. -1.
    10030    2    1    2    0    0  0.00000000000E+00  0.00000000000E+00  0.38878213299E+03  0.30255359486E+04  0.30004526708E+04 0.  0.
        3    1    3    3  502    0 -0.31337509089E+03 -0.10172694648E+04  0.12604129109E+04  0.16497520504E+04  0.10100000352E+00 0.  1.
       -3    1    3    3    0  502  0.31337509089E+03  0.10172694648E+04 -0.87163077793E+03  0.13757838983E+04  0.10100000352E+00 0. -1.
</event>
<event>
 5   0  0.2792361E-07  0.3055733E+04  0.7818609E-02  0.8227993E-01
        1   -1    0    0  501    0  0.00000000000E+00  0.00000000000E+00  0.22291657088E+04  0.22291657088E+04  0.50400001928E-02 0.  1.
       -1   -1    0    0    0  501  0.00000000000E+00  0.00000000000E+00 -0.10471972481E+04  0.10471972481E+04  0.50400001928E-02 0. -1.
    10030    2    1    2    0    0  0.00000000000E+00  0.00000000000E+00  0.11819684607E+04  0.32763629570E+04  0.30557331009E+04 0.  0.
        4    1    3    3  502    0  0.10202815451E+04  0.13786379400E+03  0.18013827972E+04  0.20748403437E+04  0.12699999809E+01 0.  1.
       -4    1    3    3    0  502 -0.10202815451E+04 -0.13786379400E+03 -0.61941433655E+03  0.12015226132E+04  0.12699999809E+01 0. -1.
</event>
<event>
 5   0  0.7208273E-07  0.3001875E+04  0.7818609E-02  0.8243196E-01
       -2   -1    0    0    0  501  0.00000000000E+00  0.00000000000E+00  0.16438118284E+04  0.16438118284E+04  0.25500000920E-02 0.  1.
        2   -1    0    0  501    0  0.00000000000E+00  0.00000000000E+00 -0.13704814268E+04  0.13704814268E+04  0.25500000920E-02 0. -1.
    10030    2    1    2    0    0  0.00000000000E+00  0.00000000000E+00  0.27333040152E+03  0.30142932552E+04  0.30018751340E+04 0.  0.
        4    1    3    3  502    0  0.60986554548E+03  0.97917568322E+03 -0.82756285033E+03  0.14197122548E+04  0.12699999809E+01 0.  1.
       -4    1    3    3    0  502 -0.60986554548E+03 -0.97917568322E+03  0.11008932518E+04  0.15945810005E+04  0.12699999809E+01 0. -1.
</event>
<event>
 5   0  0.2621825E-07  0.2998464E+04  0.7818609E-02  0.8244170E-01
       -1   -1    0    0    0  501  0.00000000000E+00  0.00000000000E+00  0.19461596249E+04  0.19461596249E+04  0.50400001928E-02 0. -1.
        1   -1    0    0  501    0  0.00000000000E+00  0.00000000000E+00 -0.11549395337E+04  0.11549395337E+04  0.50400001928E-02 0.  1.
    10030    2    1    2    0    0  0.00000000000E+00  0.00000000000E+00  0.79122009125E+03  0.31010991586E+04  0.29984640666E+04 0.  0.
        3    1    3    3  502    0  0.79145364509E+03  0.97145062565E+03 -0.45571923539E+03  0.13333398749E+04  0.10100000352E+00 0.  1.
       -3    1    3    3    0  502 -0.79145364509E+03 -0.97145062565E+03  0.12469393266E+04  0.17677592836E+04  0.10100000352E+00 0. -1.
</event>
<event>
 5   0  0.7585823E-07  0.3000903E+04  0.7818609E-02  0.8243473E-01
       -2   -1    0    0    0  501  0.00000000000E+00  0.00000000000E+00  0.12526808200E+04  0.12526808200E+04  0.25500000920E-02 0. -1.
        2   -1    0    0  501    0  0.00000000000E+00  0.00000000000E+00 -0.17972289675E+04  0.17972289675E+04  0.25500000920E-02 0.  1.
    10030    2    1    2    0    0  0.00000000000E+00  0.00000000000E+00 -0.54454814752E+03  0.30499097875E+04  0.30009027020E+04 0.  0.
        5    1    3    3  502    0  0.50471910386E+03 -0.10526902305E+04 -0.12302347498E+04  0.16959946123E+04  0.46999998093E+01 0.  1.
       -5    1    3    3    0  502 -0.50471910386E+03  0.10526902305E+04  0.68568660228E+03  0.13539151752E+04  0.46999998093E+01 0. -1.
</event>
<event>
 5   0  0.7278657E-07  0.2997726E+04  0.7818609E-02  0.8244381E-01
       -2   -1    0    0    0  501  0.00000000000E+00  0.00000000000E+00  0.14396176931E+04  0.14396176931E+04  0.25500000920E-02 0. -1.
        2   -1    0    0  501    0  0.00000000000E+00  0.00000000000E+00 -0.15605463247E+04  0.15605463247E+04  0.25500000920E-02 0.  1.
    10030    2    1    2    0    0  0.00000000000E+00  0.00000000000E+00 -0.12092863161E+03  0.30001640177E+04  0.29977258713E+04 0.  0.
        2    1    3    3  502    0 -0.39878940350E+03 -0.98548451219E+03 -0.11179112871E+04  0.15427048837E+04  0.25500000920E-02 0.  1.
       -2    1    3    3    0  502  0.39878940350E+03  0.98548451219E+03  0.99698265554E+03  0.14574591341E+04  0.25500000920E-02 0. -1.
</event>
<event>
 5   0  0.7585823E-07  0.2995410E+04  0.7818609E-02  0.8245043E-01
       -2   -1    0    0    0  501  0.00000000000E+00  0.00000000000E+00  0.15698164754E+04  0.15698164754E+04  0.25500000920E-02 0. -1.
        2   -1    0    0  501    0  0.00000000000E+00  0.00000000000E+00 -0.14289060226E+04  0.14289060226E+04  0.25500000920E-02 0.  1.
    10030    2    1    2    0    0  0.00000000000E+00  0.00000000000E+00  0.14091045283E+03  0.29987224981E+04  0.29954099660E+04 0.  0.
        5    1    3    3  502    0 -0.14536426282E+04 -0.22168931543E+03  0.35515516769E+03  0.15127393451E+04  0.46999998093E+01 0. -1.
       -5    1    3    3    0  502  0.14536426282E+04  0.22168931543E+03 -0.21424471486E+03  0.14859831530E+04  0.46999998093E+01 0.  1.
</event>
<event>
 5   0  0.2602891E-07  0.2993242E+04  0.7818609E-02  0.8245663E-01
        1   -1    0    0  501    0  0.00000000000E+00  0.00000000000E+00  0.25657238640E+04  0.25657238640E+04  0.50400001928E-02 0.  1.
       -1   -1    0    0    0  501  0.00000000000E+00  0.00000000000E+00 -0.87299884984E+03  0.87299884986E+03  0.50400001928E-02 0. -1.
    10030    2    1    2    0    0  0.00000000000E+00  0.00000000000E+00  0.16927250141E+04  0.34387227138E+04  0.29932417091E+04 0.  0.
        5    1    3    3  502    0 -0.54063557017E+03 -0.63686892180E+03  0.22729300945E+04  0.24215949595E+04  0.46999998093E+01 0.  1.
       -5    1    3    3    0  502  0.54063557017E+03  0.63686892180E+03 -0.58020508040E+03  0.10171277543E+04  0.46999998093E+01 0. -1.
</event>
<event>
 5   0  0.2792361E-07  0.2999947E+04  0.7818609E-02  0.8243746E-01
        1   -1    0    0  501    0  0.00000000000E+00  0.00000000000E+00  0.11444027531E+04  0.11444027531E+04  0.50400001928E-02 0. -1.
       -1   -1    0    0    0  501  0.00000000000E+00  0.00000000000E+00 -0.19660218626E+04  0.19660218626E+04  0.50400001928E-02 0.  1.
    10030    2    1    2    0    0  0.00000000000E+00  0.00000000000E+00 -0.82161910956E+03  0.31104246157E+04  0.29999472210E+04 0.  0.
        4    1    3    3  502    0 -0.12725998614E+04  0.72137753081E+03 -0.66896754353E+02  0.14643676921E+04  0.12699999809E+01 0.  1.
       -4    1    3    3    0  502  0.12725998614E+04 -0.72137753081E+03 -0.75472235521E+03  0.16460569235E+04  0.12699999809E+01 0. -1.
</event>
<event>
 5   0  0.7399409E-07  0.3003344E+04  0.7818609E-02  0.8242777E-01
       -2   -1    0    0    0  501  0.00000000000E+00  0.00000000000E+00  0.11027000480E+04  0.11027000480E+04  0.25500000920E-02 0. -1.
        2   -1    0    0  501    0  0.00000000000E+00  0.00000000000E+00 -0.20449978272E+04  0.20449978272E+04  0.25500000920E-02 0.  1.
    10030    2    1    2    0    0  0.00000000000E+00  0.00000000000E+00 -0.94229777920E+03  0.31476978753E+04  0.30033442708E+04 0.  0.
        3    1    3    3  502    0 -0.11531962959E+04 -0.95673848136E+03 -0.57494945091E+03  0.16049227707E+04  0.10100000352E+00 0.  1.
       -3    1    3    3    0  502  0.11531962959E+04  0.95673848136E+03 -0.36734832830E+03  0.15427751045E+04  0.10100000352E+00 0. -1.
</event>
<event>
 5   0  0.2679935E-07  0.2999768E+04  0.7818609E-02  0.8243797E-01
       -1   -1    0    0    0  501  0.00000000000E+00  0.00000000000E+00  0.12867408340E+04  0.12867408340E+04  0.50400001928E-02 0.  1.
        1   -1    0    0  501    0  0.00000000000E+00  0.00000000000E+00 -0.17483328543E+04  0.17483328543E+04  0.50400001928E-02 0. -1.
    10030    2    1    2    0    0  0.00000000000E+00  0.00000000000E+00 -0.46159202029E+03  0.30350736882E+04  0.29997675076E+04 0.  0.
        2    1    3    3  502    0 -0.10545359056E+04  0.76710286414E+03  0.51897819643E+03  0.14035067327E+04  0.25500000920E-02 0.  1.
       -2    1    3    3    0  502  0.10545359056E+04 -0.76710286414E+03 -0.98057021672E+03  0.16315669555E+04  0.25500000920E-02 0. -1.
</event>
<event>
 5   0  0.7208273E-07  0.3002476E+04  0.7818609E-02  0.8243024E-01
        2   -1    0    0  501    0  0.00000000000E+00  0.00000000000E+00  0.19952676355E+04  0.19952676355E+04  0.25500000920E-02 0. -1.
       -2   -1    0    0    0  501  0.00000000000E+00  0.00000000000E+00 -0.11295303946E+04  0.11295303946E+04  0.25500000920E-02 0.  1.
    10030    2    1    2    0    0  0.00000000000E+00  0.00000000000E+00  0.86573724089E+03  0.31247980300E+04  0.30024759380E+04 0.  0.
        4    1    3    3  502    0 -0.60877259801E+03 -0.11244951802E+04  0.12514361518E+04  0.17891862791E+04  0.12699999809E+01 0. -1.
       -4    1    3    3    0  502  0.60877259801E+03  0.11244951802E+04 -0.38569891091E+03  0.13356117509E+04  0.12699999809E+01 0.  1.
</event>
<event>
 5   0  0.2792361E-07  0.3002096E+04  0.7818609E-02  0.8243132E-01
       -1   -1    0    0    0  501  0.00000000000E+00  0.00000000000E+00  0.11278353602E+04  0.11278353602E+04  0.50400001928E-02 0. -1.
        1   -1    0    0  501    0  0.00000000000E+00  0.00000000000E+00 -0.19977612677E+04  0.19977612677E+04  0.50400001928E-02 0.  1.
    10030    2    1    2    0    0  0.00000000000E+00  0.00000000000E+00 -0.86992590752E+03  0.31255966280E+04  0.30020964668E+04 0.  0.
        4    1    3    3  502    0 -0.14293483802E+04 -0.44236915795E+03 -0.30995300878E+03  0.15280051520E+04  0.12699999809E+01 0. -1.
       -4    1    3    3    0  502  0.14293483802E+04  0.44236915795E+03 -0.55997289874E+03  0.15975914760E+04  0.12699999809E+01 0.  1.
</event>
<event>
 5   0  0.2640081E-07  0.2998679E+04  0.7818609E-02  0.8244108E-01
       -1   -1    0    0    0  501  0.00000000000E+00  0.00000000000E+00  0.23359889442E+04  0.23359889442E+04  0.50400001928E-02 0.  1.
        1   -1    0    0  501    0  0.00000000000E+00  0.00000000000E+00 -0.96234120745E+03  0.96234120747E+03  0.50400001928E-02 0. -1.
    10030    2    1    2    0    0  0.00000000000E+00  0.00000000000E+00  0.13736477367E+04  0.32983301516E+04  0.29986786564E+04 0.  0.
        1    1    3    3  502    0 -0.48441119071E+03 -0.13929541349E+04  0.38955222070E+03  0.15253610577E+04  0.50400001928E-02 0.  1.
       -1    1    3    3    0  502  0.48441119071E+03  0.13929541349E+04  0.98409551601E+03  0.17729690940E+04  0.50400001928E-02 0. -1.
</event>
<event>
 5   0  0.2602891E-07  0.2995348E+04  0.7818609E-02  0.8245060E-01
       -1   -1    0    0    0  501  0.00000000000E+00  0.00000000000E+00  0.13679631607E+04  0.13679631607E+04  0.50400001928E-02 0.  1.
        1   -1    0    0  501    0  0.00000000000E+00  0.00000000000E+00 -0.16396842701E+04  0.16396842701E+04  0.50400001928E-02 0. -1.
    10030    2    1    2    0    0  0.00000000000E+00  0.00000000000E+00 -0.27172110939E+03  0.30076474308E+04  0.29953481779E+04 0.  0.
        5    1    3    3  502    0 -0.15167158446E+03  0.10730242440E+04 -0.11738461365E+04  0.15975988670E+04  0.46999998093E+01 0. -1.
       -5    1    3    3    0  502  0.15167158446E+03 -0.10730242440E+04  0.90212502714E+03  0.14100485638E+04  0.46999998093E+01 0.  1.
</event>
<event>
 5   0  0.2621825E-07  0.3050246E+04  0.7818609E-02  0.8229527E-01
       -1   -1    0    0    0  501  0.00000000000E+00  0.00000000000E+00  0.13138945890E+04  0.13138945890E+04  0.50400001928E-02 0.  1.
        1   -1    0    0  501    0  0.00000000000E+00  0.00000000000E+00 -0.17703101089E+04  0.17703101089E+04  0.50400001928E-02 0. -1.
    10030    2    1    2    0    0  0.00000000000E+00  0.00000000000E+00 -0.45641551991E+03  0.30842046978E+04  0.30502464640E+04 0.  0.
        3    1    3    3  502    0  0.11495698098E+04 -0.60660333149E+03 -0.10349134986E+04  0.16614825637E+04  0.10100000352E+00 0. -1.
       -3    1    3    3    0  502 -0.11495698098E+04  0.60660333149E+03  0.57849797874E+03  0.14227221342E+04  0.10100000352E+00 0.  1.
</event>
<event>
 5   0  0.7278657E-07  0.3016480E+04  0.7818609E-02  0.8239040E-01
        2   -1    0    0  501    0  0.00000000000E+00  0.00000000000E+00  0.98638015086E+03  0.98638015086E+03  0.25500000920E-02 0.  1.
       -2   -1    0    0    0  501  0.00000000000E+00  0.00000000000E+00 -0.23061983068E+04  0.23061983068E+04  0.25500000920E-02 0. -1.
    10030    2    1    2    0    0  0.00000000000E+00  0.00000000000E+00 -0.13198181559E+04  0.32925784576E+04  0.30164802229E+04 0.  0.
        2    1    3    3  502    0 -0.10132183747E+03 -0.30205686555E+03 -0.22690492177E+04  0.22913072289E+04  0.25500000920E-02 0. -1.
       -2    1    3    3    0  502  0.10132183747E+03  0.30205686555E+03  0.94923106181E+03  0.10012712287E+04  0.25500000920E-02 0.  1.
</event>
<event>
 5   0  0.2792361E-07  0.3001476E+04  0.7818609E-02  0.8243310E-01
       -1   -1    0    0    0  501  0.00000000000E+00  0.00000000000E+00  0.11624727309E+04  0.11624727309E+04  0.50400001928E-02 0. -1.
        1   -1    0    0  501    0  0.00000000000E+00  0.00000000000E+00 -0.19374339811E+04  0.19374339811E+04  0.50400001928E-02 0.  1.
    10030    2    1    2    0    0  0.00000000000E+00  0.00000000000E+00 -0.77496125019E+03  0.30999067120E+04  0.30014757510E+04 0.  0.
        4    1    3    3  502    0  0.73513595068E+03  0.95703059179E+03 -0.13088581596E+04  0.17802931541E+04  0.12699999809E+01 0. -1.
       -4    1    3    3    0  502 -0.73513595068E+03 -0.95703059179E+03  0.53389690938E+03  0.13196135580E+04  0.12699999809E+01 0.  1.
</event>
<event>
 5   0  0.7399409E-07  0.3038621E+04  0.7818609E-02  0.8232788E-01
        2   -1    0    0  501    0  0.00000000000E+00  0.00000000000E+00  0.12577050147E+04  0.12577050147E+04  0.25500000920E-02 0. -1.
       -2   -1    0    0    0  501  0.00000000000E+00  0.00000000000E+00 -0.18353308383E+04  0.18353308383E+04  0.25500000920E-02 0.  1.
    10030    2    1    2    0    0  0.00000000000E+00  0.00000000000E+00 -0.57762582365E+03  0.30930358530E+04  0.30386212656E+04 0.  0.
        3    1    3    3  502    0  0.10703091280E+04  0.23903106045E+03 -0.13591210614E+04  0.17463984503E+04  0.10100000352E+00 0.  1.
       -3    1    3    3    0  502 -0.10703091280E+04 -0.23903106045E+03  0.78149523777E+03  0.13466374027E+04  0.10100000352E+00 0. -1.
</event>
<event>
 5   0  0.7208273E-07  0.2982841E+04  0.7818609E-02  0.8248648E-01
       -2   -1    0    0    0  501  0.00000000000E+00  0.00000000000E+00  0.15992739995E+04  0.15992739995E+04  0.25500000920E-02 0.  1.
        2   -1    0    0  501    0  0.00000000000E+00  0.00000000000E+00 -0.13908402037E+04  0.13908402037E+04  0.25500000920E-02 0. -1.
    10030    2    1    2    0    0  0.00000000000E+00  0.00000000000E+00  0.20843379584E+03  0.29901142032E+04  0.29828406429E+04 0.  0.
        4    1    3    3  502    0 -0.10915912701E+04 -0.98111603532E+02 -0.90975125950E+03  0.14243757772E+04  0.12699999809E+01 0. -1.
       -4    1    3    3    0  502  0.10915912701E+04  0.98111603532E+02  0.11181850553E+04  0.15657384260E+04  0.12699999809E+01 0.  1.
</event>
<event>
 5   0  0.2640081E-07  0.3000570E+04  0.7818609E-02  0.8243568E-01
        1   -1    0    0  501    0  0.00000000000E+00  0.00000000000E+00  0.20376235401E+04  0.20376235401E+04  0.50400001928E-02 0.  1.
       -1   -1    0    0    0  501  0.00000000000E+00  0.00000000000E+00 -0.11046472077E+04  0.11046472077E+04  0.50400001928E-02 0. -1.
    10030    2    1    2    0    0  0.00000000000E+00  0.00000000000E+00  0.93297633236E+03  0.31422707478E+04  0.30005700485E+04 0.  0.
        1    1    3    3  502    0 -0.56217474357E+03  0.10625236024E+04 -0.47360127727E+03  0.12920120038E+04  0.50400001928E-02 0. -1.
       -1    1    3    3    0  502  0.56217474357E+03 -0.10625236024E+04  0.14065776096E+04  0.18502587441E+04  0.50400001928E-02 0.  1.
</event>
<event>
 5   0  0.7585823E-07  0.3005664E+04  0.7818609E-02  0.8242115E-01
        2   -1    0    0  501    0  0.00000000000E+00  0.00000000000E+00  0.17888854464E+04  0.17888854464E+04  0.25500000920E-02 0. -1.
       -2   -1    0    0    0  501  0.00000000000E+00  0.00000000000E+00 -0.12625201331E+04  0.12625201331E+04  0.25500000920E-02 0.  1.
    10030    2    1    2    0    0  0.00000000000E+00  0.00000000000E+00  0.52636531335E+03  0.30514055795E+04  0.30056639146E+04 0.  0.
        5    1    3    3  502    0 -0.13456934140E+04 -0.21244641215E+03  0.90723262520E+03  0.16368009557E+04  0.46999998093E+01 0.  1.
       -5    1    3    3    0  502  0.13456934140E+04  0.21244641215E+03 -0.38086731186E+03  0.14146046238E+04  0.46999998093E+01 0. -1.
</event>
<event>
 5   0  0.7307508E-07  0.3002388E+04  0.7818609E-02  0.8243049E-01
        2   -1    0    0  501    0  0.00000000000E+00  0.00000000000E+00  0.14608679793E+04  0.14608679793E+04  0.25500000920E-02 0.  1.
       -2   -1    0    0    0  501  0.00000000000E+00  0.00000000000E+00 -0.15426327766E+04  0.15426327766E+04  0.25500000920E-02 0. -1.
    10030    2    1    2    0    0  0.00000000000E+00  0.00000000000E+00 -0.81764797317E+02  0.30035007560E+04  0.30023876014E+04 0.  0.
        1    1    3    3  502    0 -0.24524155230E+03 -0.99222018080E+03 -0.11408074555E+04  0.15316938195E+04  0.50400001928E-02 0. -1.
       -1    1    3    3    0  502  0.24524155230E+03  0.99222018080E+03  0.10590426582E+04  0.14718069364E+04  0.50400001928E-02 0.  1.
</event>
<event>
 5   0  0.7399409E-07  0.3005914E+04  0.7818609E-02  0.8242044E-01
        2   -1    0    0  501    0  0.00000000000E+00  0.00000000000E+00  0.16277203636E+04  0.16277203636E+04  0.25500000920E-02 0. -1.
       -2   -1    0    0    0  501  0.00000000000E+00  0.00000000000E+00 -0.13877564226E+04  0.13877564226E+04  0.25500000920E-02 0.  1.
    10030    2    1    2    0    0  0.00000000000E+00  0.00000000000E+00  0.23996394106E+03  0.30154767862E+04  0.30059137637E+04 0.  0.
        3    1    3    3  502    0 -0.57929649816E+02  0.13589703271E+04  0.76133050853E+03  0.15587752717E+04  0.10100000352E+00 0. -1.
       -3    1    3    3    0  502  0.57929649816E+02 -0.13589703271E+04 -0.52136656747E+03  0.14567015144E+04  0.10100000352E+00 0.  1.
</event>
<event>
 5   0  0.2640081E-07  0.3001670E+04  0.7818609E-02  0.8243254E-01
       -1   -1    0    0    0  501  0.00000000000E+00  0.00000000000E+00  0.11882605042E+04  0.11882605043E+04  0.50400001928E-02 0.  1.
        1   -1    0    0  501    0  0.00000000000E+00  0.00000000000E+00 -0.18956332054E+04  0.18956332054E+04  0.50400001928E-02 0. -1.
    10030    2    1    2    0    0  0.00000000000E+00  0.00000000000E+00 -0.70737270117E+03  0.30838937097E+04  0.30016702474E+04 0.  0.
        1    1    3    3  502    0 -0.90116973593E+03  0.11846979027E+04 -0.55101542134E+03  0.15872095036E+04  0.50400001928E-02 0.  1.
       -1    1    3    3    0  502  0.90116973593E+03 -0.11846979027E+04 -0.15635727983E+03  0.14966842061E+04  0.50400001928E-02 0. -1.
</event>
<event>
 5   0  0.2679935E-07  0.3003143E+04  0.7818609E-02  0.8242834E-01
       -1   -1    0    0    0  501  0.00000000000E+00  0.00000000000E+00  0.14598204592E+04  0.14598204592E+04  0.50400001928E-02 0.  1.
        1   -1    0    0  501    0  0.00000000000E+00  0.00000000000E+00 -0.15445166332E+04  0.15445166332E+04  0.50400001928E-02 0. -1.
    10030    2    1    2    0    0  0.00000000000E+00  0.00000000000E+00 -0.84696173958E+02  0.30043370924E+04  0.30031430074E+04 0.  0.
        2    1    3    3  502    0  0.49382207922E+03  0.75865641125E+03  0.11561671584E+04  0.14683808411E+04  0.25500000920E-02 0.  1.
       -2    1    3    3    0  502 -0.49382207922E+03 -0.75865641125E+03 -0.12408633324E+04  0.15359562513E+04  0.25500000920E-02 0. -1.
</event>
<event>
 5   0  0.7307508E-07  0.2975671E+04  0.7818609E-02  0.8250713E-01
        2   -1    0    0  501    0  0.00000000000E+00  0.00000000000E+00  0.18766018861E+04  0.18766018861E+04  0.25500000920E-02 0.  1.
       -2   -1    0    0    0  501  0.00000000000E+00  0.00000000000E+00 -0.11796077626E+04  0.11796077626E+04  0.25500000920E-02 0. -1.
    10030    2    1    2    0    0  0.00000000000E+00  0.00000000000E+00  0.69699412349E+03  0.30562096487E+04  0.29756707830E+04 0.  0.
        1    1    3    3  502    0  0.26442511898E+03  0.14333139618E+04  0.65549284157E+03  0.15981177747E+04  0.50400001928E-02 0. -1.
       -1    1    3    3    0  502 -0.26442511898E+03 -0.14333139618E+04  0.41501281925E+02  0.14580918740E+04  0.50400001928E-02 0.  1.
</event>
<event>
 5   0  0.7399409E-07  0.2997921E+04  0.7818609E-02  0.8244325E-01
        2   -1    0    0  501    0  0.00000000000E+00  0.00000000000E+00  0.21633294171E+04  0.21633294171E+04  0.25500000920E-02 0. -1.
       -2   -1    0    0    0  501  0.00000000000E+00  0.00000000000E+00 -0.10386225541E+04  0.10386225541E+04  0.25500000920E-02 0.  1.
    10030    2    1    2    0    0  0.00000000000E+00  0.00000000000E+00  0.11247068629E+04  0.32019519712E+04  0.29979210961E+04 0.  0.
        3    1    3    3  502    0  0.11764631223E+04  0.21716310392E+03  0.15269562163E+04  0.19397991104E+04  0.10100000352E+00 0. -1.
       -3    1    3    3    0  502 -0.11764631223E+04 -0.21716310392E+03 -0.40224935340E+03  0.12621528609E+04  0.10100000352E+00 0.  1.
</event>
<event>
 5   0  0.2602891E-07  0.3010875E+04  0.7818609E-02  0.8240632E-01
        1   -1    0    0  501    0  0.00000000000E+00  0.00000000000E+00  0.22930927988E+04  0.22930927988E+04  0.50400001928E-02 0.  1.
       -1   -1    0    0    0  501  0.00000000000E+00  0.00000000000E+00 -0.98833411173E+03  0.98833411174E+03  0.50400001928E-02 0. -1.
    10030    2    1    2    0    0  0.00000000000E+00  0.00000000000E+00  0.13047586871E+04  0.32814269106E+04  0.30108748459E+04 0.  0.
        5    1    3    3  502    0  0.10312789416E+04 -0.10229660974E+04  0.10832854581E+04  0.18120500450E+04  0.46999998093E+01 0.  1.
       -5    1    3    3    0  502 -0.10312789416E+04  0.10229660974E+04  0.22147322894E+03  0.14693768655E+04  0.46999998093E+01 0. -1.
</event>
<event>
 5   0  0.7399409E-07  0.3000107E+04  0.7818609E-02  0.8243700E-01
        2   -1    0    0  501    0  0.00000000000E+00  0.00000000000E+00  0.18167510545E+04  0.18167510545E+04  0.25500000920E-02 0. -1.
       -2   -1    0    0    0  501  0.00000000000E+00  0.00000000000E+00 -0.12385631343E+04  0.12385631343E+04  0.25500000920E-02 0.  1.
    10030    2    1    2    0    0  0.00000000000E+00  0.00000000000E+00  0.57818792019E+03  0.30553141888E+04  0.30001072516E+04 0.  0.
        3    1    3    3  502    0 -0.31949400971E+03 -0.10088190364E+04  0.13718463191E+04  0.17325572441E+04  0.10100000352E+00 0. -1.
       -3    1    3    3    0  502  0.31949400971E+03  0.10088190364E+04 -0.79365839894E+03  0.13227569447E+04  0.10100000352E+00 0.  1.
</event>
<event>
 5   0  0.2792361E-07  0.3001789E+04  0.7818609E-02  0.8243220E-01
        1   -1    0    0  501    0  0.00000000000E+00  0.00000000000E+00  0.14579901487E+04  0.14579901487E+04  0.50400001928E-02 0. -1.
       -1   -1    0    0    0  501  0.00000000000E+00  0.00000000000E+00 -0.15450615186E+04  0.15450615186E+04  0.50400001928E-02 0.  1.
    10030    2    1    2    0    0  0.00000000000E+00  0.00000000000E+00 -0.87071369943E+02  0.30030516673E+04  0.30017891153E+04 0.  0.
        4    1    3    3  502    0  0.34800124077E+03  0.11388896786E+04  0.87036279538E+03  0.14750279903E+04  0.12699999809E+01 0.  1.
       -4    1    3    3    0  502 -0.34800124077E+03 -0.11388896786E+04 -0.95743416533E+03  0.15280236770E+04  0.12699999809E+01 0. -1.
</event>
<event>
 5   0  0.2792361E-07  0.2994976E+04  0.7818609E-02  0.8245167E-01
        1   -1    0    0  501    0  0.00000000000E+00  0.00000000000E+00  0.19602975456E+04  0.19602975456E+04  0.50400001928E-02 0.  1.
       -1   -1    0    0    0  501  0.00000000000E+00  0.00000000000E+00 -0.11439435107E+04  0.11439435107E+04  0.50400001928E-02 0. -1.
    10030    2    1    2    0    0  0.00000000000E+00  0.00000000000E+00  0.81635403492E+03  0.31042410564E+04  0.29949755635E+04 0.  0.
        4    1    3    3  502    0  0.12315568671E+04 -0.84153529017E+03  0.27085150808E+03  0.15160066338E+04  0.12699999809E+01 0.  1.
       -4    1    3    3    0  502 -0.12315568671E+04  0.84153529017E+03  0.54550252684E+03  0.15882344226E+04  0.12699999809E+01 0. -1.
</event>
<event>
 5   0  0.7399409E-07  0.3026009E+04  0.7818609E-02  0.8236343E-01
       -2   -1    0    0    0  501  0.00000000000E+00  0.00000000000E+00  0.29616076001E+04  0.29616076001E+04  0.25500000920E-02 0. -1.
        2   -1    0    0  501    0  0.00000000000E+00  0.00000000000E+00 -0.77295282659E+03  0.77295282660E+03  0.25500000920E-02 0.  1.
    10030    2    1    2    0    0  0.00000000000E+00  0.00000000000E+00  0.21886547735E+04  0.37345604267E+04  0.30260092305E+04 0.  0.
        3    1    3    3  502    0 -0.13010848117E+04 -0.75508520798E+03  0.89453320179E+03  0.17501899948E+04  0.10100000352E+00 0.  1.
       -3    1    3    3    0  502  0.13010848117E+04  0.75508520798E+03  0.12941215717E+04  0.19843704319E+04  0.10100000352E+00 0. -1.
</event>
<event>
 5   0  0.2602891E-07  0.2996836E+04  0.7818609E-02  0.8244635E-01
        1   -1    0    0  501    0  0.00000000000E+00  0.00000000000E+00  0.21937584729E+04  0.21937584729E+04  0.50400001928E-02 0.  1.
       -1   -1    0    0    0  501  0.00000000000E+00  0.00000000000E+00 -0.10234748437E+04  0.10234748437E+04  0.50400001928E-02 0. -1.
    10030    2    1    2    0    0  0.00000000000E+00  0.00000000000E+00  0.11702836292E+04  0.32172333167E+04  0.29968360718E+04 0.  0.
        5    1    3    3  502    0  0.13487936729E+04 -0.24587210366E+03  0.12342024572E+04  0.18447154953E+04  0.46999998093E+01 0.  1.
       -5    1    3    3    0  502 -0.13487936729E+04  0.24587210366E+03 -0.63918827962E+02  0.13725178214E+04  0.46999998093E+01 0. -1.
</event>
<event>
 5   0  0.2640081E-07  0.2993508E+04  0.7818609E-02  0.8245587E-01
       -1   -1    0    0    0  501  0.00000000000E+00  0.00000000000E+00  0.17197110136E+04  0.17197110136E+04  0.50400001928E-02 0.  1.
        1   -1    0    0  501    0  0.00000000000E+00  0.00000000000E+00 -0.13027027112E+04  0.13027027112E+04  0.50400001928E-02 0. -1.
    10030    2    1    2    0    0  0.00000000000E+00  0.00000000000E+00  0.41700830240E+03  0.30224137248E+04  0.29935077751E+04 0.  0.
        1    1    3    3  502    0  0.84609659376E+03 -0.11490829609E+03 -0.10326704812E+04  0.13399595834E+04  0.50400001928E-02 0. -1.
       -1    1    3    3    0  502 -0.84609659376E+03  0.11490829609E+03  0.14496787836E+04  0.16824541414E+04  0.50400001928E-02 0.  1.
</event>
<event>
 5   0  0.2792361E-07  0.3000292E+04  0.7818609E-02  0.8243647E-01
        1   -1    0    0  501    0  0.00000000000E+00  0.00000000000E+00  0.14634807424E+04  0.14634807424E+04  0.50400001928E-02 0.  1.
       -1   -1    0    0    0  501  0.00000000000E+00  0.00000000000E+00 -0.15377301051E+04  0.15377301051E+04  0.50400001928E-02 0. -1.
    10030    2    1    2    0    0  0.00000000000E+00  0.00000000000E+00 -0.74249362662E+02  0.30012108475E+04  0.30002922497E+04 0.  0.
        4    1    3    3  502    0 -0.29849498442E+03 -0.11829378832E+04 -0.91031547535E+03  0.15222079913E+04  0.12699999809E+01 0. -1.
       -4    1    3    3    0  502  0.29849498442E+03  0.11829378832E+04  0.83606611269E+03  0.14790028563E+04  0.12699999809E+01 0.  1.
</event>
<event>
 5   0  0.7278657E-07  0.3002460E+04  0.7818609E-02  0.8243029E-01
        2   -1    0    0  501    0  0.00000000000E+00  0.00000000000E+00  0.21571749695E+04  0.21571749695E+04  0.25500000920E-02 0.  1.
       -2   -1    0    0    0  501  0.00000000000E+00  0.00000000000E+00 -0.10447418703E+04  0.10447418703E+04  0.25500000920E-02 0. -1.
    10030    2    1    2    0    0  0.00000000000E+00  0.00000000000E+00  0.11124330992E+04  0.32019168398E+04  0.30024596665E+04 0.  0.
        2    1    3    3  502    0  0.54170237221E+03  0.45652901904E+03  0.19677102555E+04  0.20913497687E+04  0.25500000920E-02 0.  1.
       -2    1    3    3    0  502 -0.54170237221E+03 -0.45652901904E+03 -0.85527715634E+03  0.11105670711E+04  0.25500000920E-02 0. -1.
</event>
<event>
 5   0  0.7278657E-07  0.3001403E+04  0.7818609E-02  0.8243330E-01
        2   -1    0    0  501    0  0.00000000000E+00  0.00000000000E+00  0.21313367127E+04  0.21313367127E+04  0.25500000920E-02 0.  1.
       -2   -1    0    0    0  501  0.00000000000E+00  0.00000000000E+00 -0.10566632979E+04  0.10566632979E+04  0.25500000920E-02 0. -1.
    10030    2    1    2    0    0  0.00000000000E+00  0.00000000000E+00  0.10746734148E+04  0.31880000106E+04  0.30014031917E+04 0.  0.
        2    1    3    3  502    0 -0.26359722418E+03 -0.14769071932E+04  0.57660720785E+03  0.16072380739E+04  0.25500000920E-02 0.  1.
       -2    1    3    3    0  502  0.26359722418E+03  0.14769071932E+04  0.49806620696E+03  0.15807619367E+04  0.25500000920E-02 0. -1.
</event>
<event>
 5   0  0.7278657E-07  0.2999577E+04  0.7818609E-02  0.8243852E-01
       -2   -1    0    0    0  501  0.00000000000E+00  0.00000000000E+00  0.74827808382E+03  0.74827808382E+03  0.25500000920E-02 0.  1.
        2   -1    0    0  501    0  0.00000000000E+00  0.00000000000E+00 -0.30060553315E+04  0.30060553315E+04  0.25500000920E-02 0. -1.
    10030    2    1    2    0    0  0.00000000000E+00  0.00000000000E+00 -0.22577772477E+04  0.37543334153E+04  0.29995768524E+04 0.  0.
        2    1    3    3  502    0  0.14115248127E+04 -0.54106801383E+02 -0.49804744555E+03  0.14977920753E+04  0.25500000920E-02 0.  1.
       -2    1    3    3    0  502 -0.14115248127E+04  0.54106801383E+02 -0.17597298021E+04  0.22565413400E+04  0.25500000920E-02 0. -1.
</event>
<event>
 5   0  0.2679935E-07  0.2995154E+04  0.7818609E-02  0.8245116E-01
        1   -1    0    0  501    0  0.00000000000E+00  0.00000000000E+00  0.19958316450E+04  0.19958316450E+04  0.50400001928E-02 0.  1.
       -1   -1    0    0    0  501  0.00000000000E+00  0.00000000000E+00 -0.11237103853E+04  0.11237103853E+04  0.50400001928E-02 0. -1.
    10030    2    1    2    0    0  0.00000000000E+00  0.00000000000E+00  0.87212125965E+03  0.31195420303E+04  0.29951539171E+04 0.  0.
        2    1    3    3  502    0  0.38033219014E+03  0.13939595713E+04  0.26061683062E+02  0.14451488064E+04  0.25500000920E-02 0. -1.
       -2    1    3    3    0  502 -0.38033219014E+03 -0.13939595713E+04  0.84605957658E+03  0.16743932239E+04  0.25500000920E-02 0.  1.
</event>
<event>
 5   0  0.2792361E-07  0.3001155E+04  0.7818609E-02  0.8243401E-01
       -1   -1    0    0    0  501  0.00000000000E+00  0.00000000000E+00  0.15865219404E+04  0.15865219404E+04  0.50400001928E-02 0.  1.
        1   -1    0    0  501    0  0.00000000000E+00  0.00000000000E+00 -0.14192887002E+04  0.14192887002E+04  0.50400001928E-02 0. -1.
    10030    2    1    2    0    0  0.00000000000E+00  0.00000000000E+00  0.16723324016E+03  0.30058106406E+04  0.30011548862E+04 0.  0.
        4    1    3    3  502    0 -0.57464119105E+03  0.48260624759E+03 -0.12178644502E+04  0.14304952711E+04  0.12699999809E+01 0. -1.
       -4    1    3    3    0  502  0.57464119105E+03 -0.48260624759E+03  0.13850976904E+04  0.15753153695E+04  0.12699999809E+01 0.  1.
</event>
<event>
 5   0  0.2621825E-07  0.3003668E+04  0.7818609E-02  0.8242684E-01
        1   -1    0    0  501    0  0.00000000000E+00  0.00000000000E+00  0.18289899455E+04  0.18289899455E+04  0.50400001928E-02 0.  1.
       -1   -1    0    0    0  501  0.00000000000E+00  0.00000000000E+00 -0.12331968526E+04  0.12331968526E+04  0.50400001928E-02 0. -1.
    10030    2    1    2    0    0  0.00000000000E+00  0.00000000000E+00  0.59579309293E+03  0.30621867980E+04  0.30036675210E+04 0.  0.
        3    1    3    3  502    0 -0.89327399888E+03  0.38361519078E+03  0.14649283422E+04  0.17581564520E+04  0.10100000352E+00 0.  1.
       -3    1    3    3    0  502  0.89327399888E+03 -0.38361519078E+03 -0.86913524929E+03  0.13040303461E+04  0.10100000352E+00 0. -1.
</event>
<event>
 5   0  0.7585823E-07  0.3008648E+04  0.7818609E-02  0.8241266E-01
       -2   -1    0    0    0  501  0.00000000000E+00  0.00000000000E+00  0.11798406550E+04  0.11798406550E+04  0.25500000920E-02 0. -1.
        2   -1    0    0  501    0  0.00000000000E+00  0.00000000000E+00 -0.19180472745E+04  0.19180472745E+04  0.25500000920E-02 0.  1.
    10030    2    1    2    0    0  0.00000000000E+00  0.00000000000E+00 -0.73820661956E+03  0.30978879295E+04  0.30086476381E+04 0.  0.
        5    1    3    3  502    0 -0.50687746371E+03 -0.22759286322E+03 -0.18085111236E+04  0.18919455195E+04  0.46999998093E+01 0.  1.
       -5    1    3    3    0  502  0.50687746371E+03  0.22759286322E+03  0.10703045041E+04  0.12059424099E+04  0.46999998093E+01 0. -1.
</event>
<event>
 5   0  0.2792361E-07  0.3002877E+04  0.7818609E-02  0.8242910E-01
       -1   -1    0    0    0  501  0.00000000000E+00  0.00000000000E+00  0.76326596308E+03  0.76326596309E+03  0.50400001928E-02 0.  1.
        1   -1    0    0  501    0  0.00000000000E+00  0.00000000000E+00 -0.29535143510E+04  0.29535143510E+04  0.50400001928E-02 0. -1.
    10030    2    1    2    0    0  0.00000000000E+00  0.00000000000E+00 -0.21902483879E+04  0.37167803141E+04  0.30028766046E+04 0.  0.
        4    1    3    3  502    0  0.11737802177E+04  0.80605333055E+03 -0.16846229581E+04  0.22057738087E+04  0.12699999809E+01 0. -1.
       -4    1    3    3    0  502 -0.11737802177E+04 -0.80605333055E+03 -0.50562542984E+03  0.15110065054E+04  0.12699999809E+01 0.  1.
</event>
<event>
 5   0  0.7585823E-07  0.2999591E+04  0.7818609E-02  0.8243848E-01
        2   -1    0    0  501    0  0.00000000000E+00  0.00000000000E+00  0.19648467378E+04  0.19648467378E+04  0.25500000920E-02 0. -1.
       -2   -1    0    0    0  501  0.00000000000E+00  0.00000000000E+00 -0.11448155319E+04  0.11448155319E+04  0.25500000920E-02 0.  1.
    10030    2    1    2    0    0  0.00000000000E+00  0.00000000000E+00  0.82003120592E+03  0.31096622696E+04  0.29995913476E+04 0.  0.
        5    1    3    3  502    0  0.15957176271E+03  0.14779127247E+04  0.20351848262E+03  0.15003769633E+04  0.46999998093E+01 0.  1.
       -5    1    3    3    0  502 -0.15957176271E+03 -0.14779127247E+04  0.61651272330E+03  0.16092853063E+04  0.46999998093E+01 0. -1.
</event>
<event>
 5   0  0.2792361E-07  0.3002587E+04  0.7818609E-02  0.8242992E-01
        1   -1    0    0  501    0  0.00000000000E+00  0.00000000000E+00  0.11329715274E+04  0.11329715274E+04  0.50400001928E-02 0. -1.
       -1   -1    0    0    0  501  0.00000000000E+00  0.00000000000E+00 -0.19893551265E+04  0.19893551265E+04  0.50400001928E-02 0.  1.
    10030    2    1    2    0    0  0.00000000000E+00  0.00000000000E+00 -0.85638359913E+03  0.31223266539E+04  0.30025873617E+04 0.  0.
        4    1    3    3  502    0 -0.12986964328E+04 -0.16126090601E+03  0.33685340032E+03  0.13513287278E+04  0.12699999809E+01 0. -1.
       -4    1    3    3    0  502  0.12986964328E+04  0.16126090601E+03 -0.11932369995E+04  0.17709979261E+04  0.12699999809E+01 0.  1.
</event>
<event>
 5   0  0.2602891E-07  0.2988122E+04  0.7818609E-02  0.8247131E-01
        1   -1    0    0  501    0  0.00000000000E+00  0.00000000000E+00  0.18311701618E+04  0.18311701618E+04  0.50400001928E-02 0. -1.
       -1   -1    0    0    0  501  0.00000000000E+00  0.00000000000E+00 -0.12190118573E+04  0.12190118573E+04  0.50400001928E-02 0.  1.
    10030    2    1    2    0    0  0.00000000000E+00  0.00000000000E+00  0.61215830450E+03  0.30501820192E+04  0.29881219119E+04 0.  0.
        5    1    3    3  502    0  0.11854174160E+03  0.12783105074E+04 -0.47403555178E+03  0.13685253714E+04  0.46999998093E+01 0.  1.
       -5    1    3    3    0  502 -0.11854174160E+03 -0.12783105074E+04  0.10861938563E+04  0.16816566478E+04  0.46999998093E+01 0. -1.
</event>
<event>
 5   0  0.2621825E-07  0.2995720E+04  0.7818609E-02  0.8244954E-01
        1   -1    0    0  501    0  0.00000000000E+00  0.00000000000E+00  0.16655982205E+04  0.16655982205E+04  0.50400001928E-02 0.  1.
       -1   -1    0    0    0  501  0.00000000000E+00  0.00000000000E+00 -0.13470147075E+04  0.13470147075E+04  0.50400001928E-02 0. -1.
    10030    2    1    2    0    0  0.00000000000E+00  0.00000000000E+00  0.31858351308E+03  0.30126129280E+04  0.29957204808E+04 0.  0.
        3    1    3    3  502    0 -0.49039529894E+03 -0.52441027641E+03  0.14812734061E+04  0.16461058900E+04  0.10100000352E+00 0.  1.
       -3    1    3    3    0  502  0.49039529894E+03  0.52441027641E+03 -0.11626898931E+04  0.13665070380E+04  0.10100000352E+00 0. -1.
</event>
<event>
 5   0  0.2621825E-07  0.2989888E+04  0.7818609E-02  0.8246624E-01
       -1   -1    0    0    0  501  0.00000000000E+00  0.00000000000E+00  0.13766997992E+04  0.13766997992E+04  0.50400001928E-02 0. -1.
        1   -1    0    0  501    0  0.00000000000E+00  0.00000000000E+00 -0.16233443909E+04  0.16233443909E+04  0.50400001928E-02 0.  1.
    10030    2    1    2    0    0  0.00000000000E+00  0.00000000000E+00 -0.24664459169E+03  0.30000441901E+04  0.29898882233E+04 0.  0.
        3    1    3    3  502    0  0.92805709242E+03 -0.10157272093E+04 -0.71000158052E+03  0.15482551421E+04  0.10100000352E+00 0.  1.
       -3    1    3    3    0  502 -0.92805709242E+03  0.10157272093E+04  0.46335698884E+03  0.14517890480E+04  0.10100000352E+00 0. -1.
</event>
<event>
 5   0  0.7208273E-07  0.2989156E+04  0.7818609E-02  0.8246834E-01
        2   -1    0    0  501    0  0.00000000000E+00  0.00000000000E+00  0.25209465802E+04  0.25209465802E+04  0.25500000920E-02 0.  1.
       -2   -1    0    0    0  501  0.00000000000E+00  0.00000000000E+00 -0.88608119083E+03  0.88608119083E+03  0.25500000920E-02 0. -1.
    10030    2    1    2    0    0  0.00000000000E+00  0.00000000000E+00  0.16348653894E+04  0.34070277710E+04  0.29891559664E+04 0.  0.
        4    1    3    3  502    0  0.15852558564E+03 -0.32616021269E+03 -0.83517347587E+03  0.91050930437E+03  0.12699999809E+01 0. -1.
       -4    1    3    3    0  502 -0.15852558564E+03  0.32616021269E+03  0.24700388653E+04  0.24965184667E+04  0.12699999809E+01 0.  1.
</event>
<event>
 5   0  0.7278657E-07  0.2995894E+04  0.7818609E-02  0.8244904E-01
       -2   -1    0    0    0  501  0.00000000000E+00  0.00000000000E+00  0.12244095490E+04  0.12244095490E+04  0.25500000920E-02 0. -1.
        2   -1    0    0  501    0  0.00000000000E+00  0.00000000000E+00 -0.18325938253E+04  0.18325938253E+04  0.25500000920E-02 0.  1.
    10030    2    1    2    0    0  0.00000000000E+00  0.00000000000E+00 -0.60818427630E+03  0.30570033744E+04  0.29958941098E+04 0.  0.
        2    1    3    3  502    0 -0.11675376293E+04  0.74729051680E+03  0.27516502321E+03  0.14132597151E+04  0.25500000920E-02 0. -1.
       -2    1    3    3    0  502  0.11675376293E+04 -0.74729051680E+03 -0.88334929951E+03  0.16437436593E+04  0.25500000920E-02 0.  1.
</event>
<event>
 5   0  0.2621825E-07  0.2998127E+04  0.7818609E-02  0.8244266E-01
       -1   -1    0    0    0  501  0.00000000000E+00  0.00000000000E+00  0.18375249135E+04  0.18375249135E+04  0.50400001928E-02 0.  1.
        1   -1    0    0  501    0  0.00000000000E+00  0.00000000000E+00 -0.12229446228E+04  0.12229446228E+04  0.50400001928E-02 0. -1.
    10030    2    1    2    0    0  0.00000000000E+00  0.00000000000E+00  0.61458029069E+03  0.30604695363E+04  0.29981268900E+04 0.  0.
        3    1    3    3  502    0 -0.12257348978E+04  0.13852407231E+03  0.11768101514E+04  0.17048451839E+04  0.10100000352E+00 0.  1.
       -3    1    3    3    0  502  0.12257348978E+04 -0.13852407231E+03 -0.56222986070E+03  0.13556243524E+04  0.10100000352E+00 0. -1.
</event>
<event>
 5   0  0.7399409E-07  0.2993483E+04  0.7818609E-02  0.8245594E-01
       -2   -1    0    0    0  501  0.00000000000E+00  0.00000000000E+00  0.10630207547E+04  0.10630207547E+04  0.25500000920E-02 0.  1.
        2   -1    0    0  501    0  0.00000000000E+00  0.00000000000E+00 -0.21074232545E+04  0.21074232545E+04  0.25500000920E-02 0. -1.
    10030    2    1    2    0    0  0.00000000000E+00  0.00000000000E+00 -0.10444024998E+04  0.31704440092E+04  0.29934826931E+04 0.  0.
        3    1    3    3  502    0  0.14190751003E+04  0.17372784300E+02 -0.18526730982E+02  0.14193023652E+04  0.10100000352E+00 0. -1.
       -3    1    3    3    0  502 -0.14190751003E+04 -0.17372784300E+02 -0.10258757689E+04  0.17511416440E+04  0.10100000352E+00 0.  1.
</event>
<event>
 5   0  0.2640081E-07  0.3006836E+04  0.7818609E-02  0.8241782E-01
        1   -1    0    0  501    0  0.00000000000E+00  0.00000000000E+00  0.13261532078E+04  0.13261532078E+04  0.50400001928E-02 0.  1.
       -1   -1    0    0    0  501  0.00000000000E+00  0.00000000000E+00 -0.17043772974E+04  0.17043772974E+04  0.50400001928E-02 0. -1.
    10030    2    1    2    0    0  0.00000000000E+00  0.00000000000E+00 -0.37822408962E+03  0.30305305052E+04  0.30068358254E+04 0.  0.
        1    1    3    3  502    0  0.11489072948E+04  0.50406628484E+03 -0.10240084690E+04  0.16194641509E+04  0.50400001928E-02 0. -1.
       -1    1    3    3    0  502 -0.11489072948E+04 -0.50406628484E+03  0.64578437938E+03  0.14110663543E+04  0.50400001928E-02 0.  1.
</event>
<event>
 5   0  0.2792361E-07  0.2992093E+04  0.7818609E-02  0.8245992E-01
        1   -1    0    0  501    0  0.00000000000E+00  0.00000000000E+00  0.10432728697E+04  0.10432728697E+04  0.50400001928E-02 0. -1.
       -1   -1    0    0    0  501  0.00000000000E+00  0.00000000000E+00 -0.21453205301E+04  0.21453205301E+04  0.50400001928E-02 0.  1.
    10030    2    1    2    0    0  0.00000000000E+00  0.00000000000E+00 -0.11020476605E+04  0.31885933998E+04  0.29920927164E+04 0.  0.
        4    1    3    3  502    0 -0.22110385178E+03  0.24741694004E+03  0.10035634703E+04  0.10569973071E+04  0.12699999809E+01 0. -1.
       -4    1    3    3    0  502  0.22110385178E+03 -0.24741694004E+03 -0.21056111307E+04  0.21315960927E+04  0.12699999809E+01 0.  1.
</event>
<event>
 5   0  0.2602891E-07  0.2995880E+04  0.7818609E-02  0.8244908E-01
        1   -1    0    0  501    0  0.00000000000E+00  0.00000000000E+00  0.16406660688E+04  0.16406660688E+04  0.50400001928E-02 0. -1.
       -1   -1    0    0    0  501  0.00000000000E+00  0.00000000000E+00 -0.13676298309E+04  0.13676298309E+04  0.50400001928E-02 0.  1.
    10030    2    1    2    0    0  0.00000000000E+00  0.00000000000E+00  0.27303623787E+03  0.30082958997E+04  0.29958797428E+04 0.  0.
        5    1    3    3  502    0  0.51650781813E+03 -0.11592313997E+04 -0.66252092600E+03  0.14316262891E+04  0.46999998093E+01 0.  1.
       -5    1    3    3    0  502 -0.51650781813E+03  0.11592313997E+04  0.93555716388E+03  0.15766696106E+04  0.46999998093E+01 0. -1.
</event>
<event>
 5   0  0.7399409E-07  0.2989841E+04  0.7818609E-02  0.8246638E-01
       -2   -1    0    0    0  501  0.00000000000E+00  0.00000000000E+00  0.13427977554E+04  0.13427977554E+04  0.25500000920E-02 0. -1.
        2   -1    0    0  501    0  0.00000000000E+00  0.00000000000E+00 -0.16642768412E+04  0.16642768412E+04  0.25500000920E-02 0.  1.
    10030    2    1    2    0    0  0.00000000000E+00  0.00000000000E+00 -0.32147908583E+03  0.30070745966E+04  0.29898409367E+04 0.  0.
        3    1    3    3  502    0 -0.65124870579E+02  0.91391657038E+03 -0.13487774452E+04  0.16305475624E+04  0.10100000352E+00 0.  1.
       -3    1    3    3    0  502  0.65124870579E+02 -0.91391657038E+03  0.10272983594E+04  0.13765270342E+04  0.10100000352E+00 0. -1.
</event>
<event>
 5   0  0.2640081E-07  0.2999872E+04  0.7818609E-02  0.8243767E-01
        1   -1    0    0  501    0  0.00000000000E+00  0.00000000000E+00  0.17933461962E+04  0.17933461962E+04  0.50400001928E-02 0. -1.
       -1   -1    0    0    0  501  0.00000000000E+00  0.00000000000E+00 -0.12545307266E+04  0.12545307266E+04  0.50400001928E-02 0.  1.
    10030    2    1    2    0    0  0.00000000000E+00  0.00000000000E+00  0.53881546961E+03  0.30478769228E+04  0.29998719350E+04 0.  0.
        1    1    3    3  502    0  0.89847190068E+02 -0.42753232856E+03  0.17272742755E+04  0.17816657466E+04  0.50400001928E-02 0. -1.
       -1    1    3    3    0  502 -0.89847190068E+02  0.42753232856E+03 -0.11884588059E+04  0.12662111763E+04  0.50400001928E-02 0.  1.
</event>
<event>
 5   0  0.7307508E-07  0.2998217E+04  0.7818609E-02  0.8244240E-01
        2   -1    0    0  501    0  0.00000000000E+00  0.00000000000E+00  0.21451033239E+04  0.21451033240E+04  0.25500000920E-02 0. -1.
       -2   -1    0    0    0  501  0.00000000000E+00  0.00000000000E+00 -0.10476541357E+04  0.10476541357E+04  0.25500000920E-02 0.  1.
    10030    2    1    2    0    0  0.00000000000E+00  0.00000000000E+00  0.10974491883E+04  0.31927574596E+04  0.29982170494E+04 0.  0.
        1    1    3    3  502    0  0.14538953804E+03 -0.37666427134E+03 -0.98866611502E+03  0.10679301373E+04  0.50400001928E-02 0.  1.
       -1    1    3    3    0  502 -0.14538953804E+03  0.37666427134E+03  0.20861153033E+04  0.21248273223E+04  0.50400001928E-02 0. -1.
</event>
<event>
 5   0  0.2792361E-07  0.2998902E+04  0.7818609E-02  0.8244045E-01
       -1   -1    0    0    0  501  0.00000000000E+00  0.00000000000E+00  0.10445596734E+04  0.10445596734E+04  0.50400001928E-02 0. -1.
        1   -1    0    0  501    0  0.00000000000E+00  0.00000000000E+00 -0.21524408591E+04  0.21524408592E+04  0.50400001928E-02 0.  1.
    10030    2    1    2    0    0  0.00000000000E+00  0.00000000000E+00 -0.11078811857E+04  0.31970005326E+04  0.29989017462E+04 0.  0.
        4    1    3    3  502    0 -0.41107758696E+02 -0.11450842581E+04 -0.15850132091E+04  0.19558057910E+04  0.12699999809E+01 0.  1.
       -4    1    3    3    0  502  0.41107758696E+02  0.11450842581E+04  0.47713202335E+03  0.12411947416E+04  0.12699999809E+01 0. -1.
</event>
<event>
 5   0  0.2602891E-07  0.3001938E+04  0.7818609E-02  0.8243178E-01
       -1   -1    0    0    0  501  0.00000000000E+00  0.00000000000E+00  0.11112792646E+04  0.11112792646E+04  0.50400001928E-02 0.  1.
        1   -1    0    0  501    0  0.00000000000E+00  0.00000000000E+00 -0.20273098911E+04  0.20273098911E+04  0.50400001928E-02 0. -1.
    10030    2    1    2    0    0  0.00000000000E+00  0.00000000000E+00 -0.91603062650E+03  0.31385891556E+04  0.30019376708E+04 0.  0.
        5    1    3    3  502    0  0.14771266625E+04 -0.17967426501E+03 -0.66369175841E+03  0.16293234359E+04  0.46999998093E+01 0. -1.
       -5    1    3    3    0  502 -0.14771266625E+04  0.17967426501E+03 -0.25233886808E+03  0.15092657198E+04  0.46999998093E+01 0.  1.
</event>
<event>
 5   0  0.2679935E-07  0.2998370E+04  0.7818609E-02  0.8244196E-01
       -1   -1    0    0    0  501  0.00000000000E+00  0.00000000000E+00  0.17285464956E+04  0.17285464956E+04  0.50400001928E-02 0.  1.
        1   -1    0    0  501    0  0.00000000000E+00  0.00000000000E+00 -0.13002579700E+04  0.13002579700E+04  0.50400001928E-02 0. -1.
    10030    2    1    2    0    0  0.00000000000E+00  0.00000000000E+00  0.42828852566E+03  0.30288044656E+04  0.29983704624E+04 0.  0.
        2    1    3    3  502    0 -0.98948705075E+03 -0.42368240385E+03  0.12682711667E+04  0.16634611974E+04  0.25500000920E-02 0.  1.
       -2    1    3    3    0  502  0.98948705075E+03  0.42368240385E+03 -0.83998264103E+03  0.13653432683E+04  0.25500000920E-02 0. -1.
</event>
<event>
 5   0  0.2792361E-07  0.3004992E+04  0.7818609E-02  0.8242307E-01
        1   -1    0    0  501    0  0.00000000000E+00  0.00000000000E+00  0.84328718845E+03  0.84328718846E+03  0.50400001928E-02 0. -1.
       -1   -1    0    0    0  501  0.00000000000E+00  0.00000000000E+00 -0.26770163365E+04  0.26770163365E+04  0.50400001928E-02 0.  1.
    10030    2    1    2    0    0  0.00000000000E+00  0.00000000000E+00 -0.18337291481E+04  0.35203035250E+04  0.30049915673E+04 0.  0.
        4    1    3    3  502    0  0.11758163979E+04 -0.18629453850E+03  0.15697418302E+03  0.12007882260E+04  0.12699999809E+01 0. -1.
       -4    1    3    3    0  502 -0.11758163979E+04  0.18629453850E+03 -0.19907033311E+04  0.23195152990E+04  0.12699999809E+01 0.  1.
</event>
<event>
 5   0  0.2602891E-07  0.3005765E+04  0.7818609E-02  0.8242087E-01
       -1   -1    0    0    0  501  0.00000000000E+00  0.00000000000E+00  0.17559902026E+04  0.17559902026E+04  0.50400001928E-02 0.  1.
        1   -1    0    0  501    0  0.00000000000E+00  0.00000000000E+00 -0.12862576206E+04  0.12862576207E+04  0.50400001928E-02 0. -1.
    10030    2    1    2    0    0  0.00000000000E+00  0.00000000000E+00  0.46973258191E+03  0.30422478232E+04  0.30057649807E+04 0.  0.
        5    1    3    3  502    0 -0.10793959559E+03  0.62946064815E+03 -0.11420732094E+04  0.13085201448E+04  0.46999998093E+01 0. -1.
       -5    1    3    3    0  502  0.10793959559E+03 -0.62946064815E+03  0.16118057913E+04  0.17337276784E+04  0.46999998093E+01 0.  1.
</event>
<event>
 5   0  0.7278657E-07  0.3001720E+04  0.7818609E-02  0.8243240E-01
       -2   -1    0    0    0  501  0.00000000000E+00  0.00000000000E+00  0.98329259765E+03  0.98329259765E+03  0.25500000920E-02 0. -1.
        2   -1    0    0  501    0  0.00000000000E+00  0.00000000000E+00 -0.22908547952E+04  0.22908547952E+04  0.25500000920E-02 0.  1.
    10030    2    1    2    0    0  0.00000000000E+00  0.00000000000E+00 -0.13075621975E+04  0.32741473928E+04  0.30017198819E+04 0.  0.
        2    1    3    3  502    0  0.62486030666E+03  0.78024243634E+02 -0.21397920442E+04  0.22305264352E+04  0.25500000920E-02 0.  1.
       -2    1    3    3    0  502 -0.62486030666E+03 -0.78024243634E+02  0.83222984672E+03  0.10436209576E+04  0.25500000920E-02 0. -1.
</event>
<event>
 5   0  0.2640081E-07  0.2999615E+04  0.7818609E-02  0.8243841E-01
       -1   -1    0    0    0  501  0.00000000000E+00  0.00000000000E+00  0.12499877076E+04  0.12499877076E+04  0.50400001928E-02 0. -1.
        1   -1    0    0  501    0  0.00000000000E+00  0.00000000000E+00 -0.17995551274E+04  0.17995551274E+04  0.50400001928E-02 0.  1.
    10030    2    1    2    0    0  0.00000000000E+00  0.00000000000E+00 -0.54956741982E+03  0.30495428350E+04  0.29996145008E+04 0.  0.
        1    1    3    3  502    0 -0.84124944343E+03  0.92642878133E+03 -0.11152551216E+04  0.16762353353E+04  0.50400001928E-02 0.  1.
       -1    1    3    3    0  502  0.84124944343E+03 -0.92642878133E+03  0.56568770175E+03  0.13733074998E+04  0.50400001928E-02 0. -1.
</event>
<event>
 5   0  0.2640081E-07  0.3000274E+04  0.7818609E-02  0.8243653E-01
       -1   -1    0    0    0  501  0.00000000000E+00  0.00000000000E+00  0.98194317828E+03  0.98194317829E+03  0.50400001928E-02 0. -1.
        1   -1    0    0  501    0  0.00000000000E+00  0.00000000000E+00 -0.22917928953E+04  0.22917928953E+04  0.50400001928E-02 0.  1.
    10030    2    1    2    0    0  0.00000000000E+00  0.00000000000E+00 -0.13098497170E+04  0.32737360736E+04  0.30002735872E+04 0.  0.
        1    1    3    3  502    0 -0.12025240141E+04 -0.89092370981E+03 -0.54257742532E+03  0.15919168708E+04  0.50400001928E-02 0. -1.
       -1    1    3    3    0  502  0.12025240141E+04  0.89092370981E+03 -0.76727229168E+03  0.16818192027E+04  0.50400001928E-02 0.  1.
</event>
<event>
 5   0  0.2640081E-07  0.2994467E+04  0.7818609E-02  0.8245313E-01
        1   -1    0    0  501    0  0.00000000000E+00  0.00000000000E+00  0.11531902431E+04  0.11531902431E+04  0.50400001928E-02 0.  1.
       -1   -1    0    0    0  501  0.00000000000E+00  0.00000000000E+00 -0.19439192323E+04  0.19439192323E+04  0.50400001928E-02 0. -1.
    10030    2    1    2    0    0  0.00000000000E+00  0.00000000000E+00 -0.79072898918E+03  0.30971094755E+04  0.29944673597E+04 0.  0.
        1    1    3    3  502    0  0.33456318367E+03  0.55160621664E+03 -0.17927900943E+04  0.19053341608E+04  0.50400001928E-02 0. -1.
       -1    1    3    3    0  502 -0.33456318367E+03 -0.55160621664E+03  0.10020611051E+04  0.11917753146E+04  0.50400001928E-02 0.  1.
</event>
<event>
 5   0  0.7208273E-07  0.3002828E+04  0.7818609E-02  0.8242924E-01
        2   -1    0    0  501    0  0.00000000000E+00  0.00000000000E+00  0.15671741219E+04  0.15671741219E+04  0.25500000920E-02 0.  1.
       -2   -1    0    0    0  501  0.00000000000E+00  0.00000000000E+00 -0.14384133382E+04  0.14384133382E+04  0.25500000920E-02 0. -1.
    10030    2    1    2    0    0  0.00000000000E+00  0.00000000000E+00  0.12876078369E+03  0.30055874601E+04  0.30028281072E+04 0.  0.
        4    1    3    3  502    0 -0.47370589064E+03  0.53688768166E+03 -0.12565280585E+04  0.14462053894E+04  0.12699999809E+01 0. -1.
       -4    1    3    3    0  502  0.47370589064E+03 -0.53688768166E+03  0.13852888422E+04  0.15593820708E+04  0.12699999809E+01 0.  1.
</event>
<event>
 5   0  0.2621825E-07  0.3001288E+04  0.7818609E-02  0.8243363E-01
        1   -1    0    0  501    0  0.00000000000E+00  0.00000000000E+00  0.18117792999E+04  0.18117792999E+04  0.50400001928E-02 0. -1.
       -1   -1    0    0    0  501  0.00000000000E+00  0.00000000000E+00 -0.12429394107E+04  0.12429394107E+04  0.50400001928E-02 0.  1.
    10030    2    1    2    0    0  0.00000000000E+00  0.00000000000E+00  0.56883988917E+03  0.30547187106E+04  0.30012876539E+04 0.  0.
        3    1    3    3  502    0 -0.32139220536E+03  0.50039042586E+03 -0.11178774259E+04  0.12662280511E+04  0.10100000352E+00 0.  1.
       -3    1    3    3    0  502  0.32139220536E+03 -0.50039042586E+03  0.16867173150E+04  0.17884906595E+04  0.10100000352E+00 0. -1.
</event>
<event>
 5   0  0.7208273E-07  0.3000699E+04  0.7818609E-02  0.8243531E-01
        2   -1    0    0  501    0  0.00000000000E+00  0.00000000000E+00  0.19163078215E+04  0.19163078215E+04  0.25500000920E-02 0.  1.
       -2   -1    0    0    0  501  0.00000000000E+00  0.00000000000E+00 -0.11746798710E+04  0.11746798710E+04  0.25500000920E-02 0. -1.
    10030    2    1    2    0    0  0.00000000000E+00  0.00000000000E+00  0.74162795043E+03  0.30909876925E+04  0.30006987350E+04 0.  0.
        4    1    3    3  502    0  0.53091233537E+03 -0.85595217592E+03 -0.77463634215E+03  0.12706632563E+04  0.12699999809E+01 0. -1.
       -4    1    3    3    0  502 -0.53091233537E+03  0.85595217592E+03  0.15162642926E+04  0.18203244362E+04  0.12699999809E+01 0.  1.
</event>
<event>
 5   0  0.7399409E-07  0.3023424E+04  0.7818609E-02  0.8237073E-01
       -2   -1    0    0    0  501  0.00000000000E+00  0.00000000000E+00  0.10025731714E+04  0.10025731714E+04  0.25500000920E-02 0.  1.
        2   -1    0    0  501    0  0.00000000000E+00  0.00000000000E+00 -0.22794082957E+04  0.22794082957E+04  0.25500000920E-02 0. -1.
    10030    2    1    2    0    0  0.00000000000E+00  0.00000000000E+00 -0.12768351243E+04  0.32819814672E+04  0.30234242865E+04 0.  0.
        3    1    3    3  502    0  0.93840085978E+03  0.72544035425E+03  0.37897036646E+03  0.12451820871E+04  0.10100000352E+00 0.  1.
       -3    1    3    3    0  502 -0.93840085978E+03 -0.72544035425E+03 -0.16558054907E+04  0.20367993801E+04  0.10100000352E+00 0. -1.
</event>
<event>
 5   0  0.7307508E-07  0.2996284E+04  0.7818609E-02  0.8244793E-01
        2   -1    0    0  501    0  0.00000000000E+00  0.00000000000E+00  0.26120645399E+04  0.26120645399E+04  0.25500000920E-02 0. -1.
       -2   -1    0    0    0  501  0.00000000000E+00  0.00000000000E+00 -0.85925479856E+03  0.85925479856E+03  0.25500000920E-02 0.  1.
    10030    2    1    2    0    0  0.00000000000E+00  0.00000000000E+00  0.17528097414E+04  0.34713193385E+04  0.29962836916E+04 0.  0.
        1    1    3    3  502    0 -0.12610638654E+04 -0.54293210119E+02 -0.58502437560E+02  0.12635871005E+04  0.50400001928E-02 0.  1.
       -1    1    3    3    0  502  0.12610638654E+04  0.54293210119E+02  0.18113121789E+04  0.22077322380E+04  0.50400001928E-02 0. -1.
</event>
<event>
 5   0  0.7208273E-07  0.2998463E+04  0.7818609E-02  0.8244170E-01
        2   -1    0    0  501    0  0.00000000000E+00  0.00000000000E+00  0.22848518213E+04  0.22848518213E+04  0.25500000920E-02 0. -1.
       -2   -1    0    0    0  501  0.00000000000E+00  0.00000000000E+00 -0.98373767788E+03  0.98373767789E+03  0.25500000920E-02 0.  1.
    10030    2    1    2    0    0  0.00000000000E+00  0.00000000000E+00  0.13011141434E+04  0.32685894992E+04  0.29984628229E+04 0.  0.
        4    1    3    3  502    0  0.10547377245E+04 -0.45438016125E+03  0.17010992995E+04  0.20524798264E+04  0.12699999809E+01 0. -1.
       -4    1    3    3    0  502 -0.10547377245E+04  0.45438016125E+03 -0.39998515600E+03  0.12161096728E+04  0.12699999809E+01 0.  1.
</event>
<event>
 5   0  0.2621825E-07  0.3002314E+04  0.7818609E-02  0.8243070E-01
       -1   -1    0    0    0  501  0.00000000000E+00  0.00000000000E+00  0.11496753924E+04  0.11496753924E+04  0.50400001928E-02 0.  1.
        1   -1    0    0  501    0  0.00000000000E+00  0.00000000000E+00 -0.19600943527E+04  0.19600943527E+04  0.50400001928E-02 0. -1.
    10030    2    1    2    0    0  0.00000000000E+00  0.00000000000E+00 -0.81041896038E+03  0.31097697451E+04  0.30023139370E+04 0.  0.
        3    1    3    3  502    0 -0.72592335379E+03  0.12862203161E+04 -0.12699822271E+03  0.14823818590E+04  0.10100000352E+00 0. -1.
       -3    1    3    3    0  502  0.72592335379E+03 -0.12862203161E+04 -0.68342073767E+03  0.16273878861E+04  0.10100000352E+00 0.  1.
</event>
<event>
 5   0  0.7399409E-07  0.3008992E+04  0.7818609E-02  0.8241168E-01
        2   -1    0    0  501    0  0.00000000000E+00  0.00000000000E+00  0.13860514801E+04  0.13860514801E+04  0.25500000920E-02 0.  1.
       -2   -1    0    0    0  501  0.00000000000E+00  0.00000000000E+00 -0.16330620769E+04  0.16330620769E+04  0.25500000920E-02 0. -1.
    10030    2    1    2    0    0  0.00000000000E+00  0.00000000000E+00 -0.24701059676E+03  0.30191135570E+04  0.30089919301E+04 0.  0.
        3    1    3    3  502    0  0.61811747335E+03 -0.10577278994E+04 -0.99974157120E+03  0.15812465777E+04  0.10100000352E+00 0. -1.
       -3    1    3    3    0  502 -0.61811747335E+03  0.10577278994E+04  0.75273097444E+03  0.14378669793E+04  0.10100000352E+00 0.  1.
</event>
<event>
 5   0  0.2621825E-07  0.2999899E+04  0.7818609E-02  0.8243760E-01
       -1   -1    0    0    0  501  0.00000000000E+00  0.00000000000E+00  0.93689696828E+03  0.93689696830E+03  0.50400001928E-02 0.  1.
        1   -1    0    0  501    0  0.00000000000E+00  0.00000000000E+00 -0.24013827623E+04  0.24013827623E+04  0.50400001928E-02 0. -1.
    10030    2    1    2    0    0  0.00000000000E+00  0.00000000000E+00 -0.14644857940E+04  0.33382797306E+04  0.29998988181E+04 0.  0.
        3    1    3    3  502    0  0.54195543239E+03  0.15477659251E+03  0.81457626297E+03  0.99055841962E+03  0.10100000352E+00 0.  1.
       -3    1    3    3    0  502 -0.54195543239E+03 -0.15477659251E+03 -0.22790620570E+04  0.23477213110E+04  0.10100000352E+00 0. -1.
</event>
<event>
 5   0  0.7208273E-07  0.2999980E+04  0.7818609E-02  0.8243737E-01
       -2   -1    0    0    0  501  0.00000000000E+00  0.00000000000E+00  0.12657059047E+04  0.12657059047E+04  0.25500000920E-02 0.  1.
        2   -1    0    0  501    0  0.00000000000E+00  0.00000000000E+00 -0.17776403976E+04  0.17776403976E+04  0.25500000920E-02 0. -1.
    10030    2    1    2    0    0  0.00000000000E+00  0.00000000000E+00 -0.51193449294E+03  0.30433463023E+04  0.29999799651E+04 0.  0.
        4    1    3    3  502    0  0.76079827211E+03 -0.42322302271E+03 -0.14951140389E+04  0.17301154124E+04  0.12699999809E+01 0. -1.
       -4    1    3    3    0  502 -0.76079827211E+03  0.42322302271E+03  0.98317954600E+03  0.13132308900E+04  0.12699999809E+01 0.  1.
</event>
<event>
 5   0  0.7278657E-07  0.3000043E+04  0.7818609E-02  0.8243719E-01
       -2   -1    0    0    0  501  0.00000000000E+00  0.00000000000E+00  0.14076296325E+04  0.14076296325E+04  0.25500000920E-02 0.  1.
        2   -1    0    0  501    0  0.00000000000E+00  0.00000000000E+00 -0.15984774700E+04  0.15984774700E+04  0.25500000920E-02 0. -1.
    10030    2    1    2    0    0  0.00000000000E+00  0.00000000000E+00 -0.19084783748E+03  0.30061071024E+04  0.30000428354E+04 0.  0.
        2    1    3    3  502    0  0.83935246479E+03 -0.80680147816E+03 -0.10431810048E+04  0.15632235266E+04  0.25500000920E-02 0. -1.
       -2    1    3    3    0  502 -0.83935246479E+03  0.80680147816E+03  0.85233316733E+03  0.14428835758E+04  0.25500000920E-02 0.  1.
</event>
<event>
 5   0  0.7307508E-07  0.3002819E+04  0.7818609E-02  0.8242926E-01
       -2   -1    0    0    0  501  0.00000000000E+00  0.00000000000E+00  0.15637212304E+04  0.15637212304E+04  0.25500000920E-02 0.  1.
        2   -1    0    0  501    0  0.00000000000E+00  0.00000000000E+00 -0.14415810997E+04  0.14415810997E+04  0.25500000920E-02 0. -1.
    10030    2    1    2    0    0  0.00000000000E+00  0.00000000000E+00  0.12214013069E+03  0.30053023302E+04  0.30028193226E+04 0.  0.
        1    1    3    3  502    0 -0.73728745193E+03  0.65140814752E+03 -0.10740218961E+04  0.14565192737E+04  0.50400001928E-02 0. -1.
       -1    1    3    3    0  502  0.73728745193E+03 -0.65140814752E+03  0.11961620268E+04  0.15487830564E+04  0.50400001928E-02 0.  1.
</event>
<event>
 5   0  0.7399409E-07  0.2994496E+04  0.7818609E-02  0.8245304E-01
        2   -1    0    0  501    0  0.00000000000E+00  0.00000000000E+00  0.14761992883E+04  0.14761992883E+04  0.25500000920E-02 0.  1.
       -2   -1    0    0    0  501  0.00000000000E+00  0.00000000000E+00 -0.15185968947E+04  0.15185968947E+04  0.25500000920E-02 0. -1.
    10030    2    1    2    0    0  0.00000000000E+00  0.00000000000E+00 -0.42397606368E+02  0.29947961830E+04  0.29944960545E+04 0.  0.
        3    1    3    3  502    0  0.10553684226E+04 -0.61784029749E+01 -0.10833367744E+04  0.15124348769E+04  0.10100000352E+00 0. -1.
       -3    1    3    3    0  502 -0.10553684226E+04  0.61784029749E+01  0.10409391680E+04  0.14823613061E+04  0.10100000352E+00 0.  1.
</event>
<event>
 5   0  0.7278657E-07  0.2995677E+04  0.7818609E-02  0.8244966E-01
       -2   -1    0    0    0  501  0.00000000000E+00  0.00000000000E+00  0.16403730457E+04  0.16403730457E+04  0.25500000920E-02 0. -1.
        2   -1    0    0  501    0  0.00000000000E+00  0.00000000000E+00 -0.13676888757E+04  0.13676888757E+04  0.25500000920E-02 0.  1.
    10030    2    1    2    0    0  0.00000000000E+00  0.00000000000E+00  0.27268416999E+03  0.30080619214E+04  0.29956768629E+04 0.  0.
        2    1    3    3  502    0 -0.98207640694E+02  0.14332448076E+04  0.56198672792E+03  0.15426161226E+04  0.25500000920E-02 0.  1.
       -2    1    3    3    0  502  0.98207640694E+02 -0.14332448076E+04 -0.28930255793E+03  0.14654457988E+04  0.25500000920E-02 0. -1.
</event>
<event>
 5   0  0.2679935E-07  0.2994410E+04  0.7818609E-02  0.8245329E-01
        1   -1    0    0  501    0  0.00000000000E+00  0.00000000000E+00  0.21265779235E+04  0.21265779235E+04  0.50400001928E-02 0.  1.
       -1   -1    0    0    0  501  0.00000000000E+00  0.00000000000E+00 -0.10540984974E+04  0.10540984975E+04  0.50400001928E-02 0. -1.
    10030    2    1    2    0    0  0.00000000000E+00  0.00000000000E+00  0.10724794260E+04  0.31806764210E+04  0.29944098543E+04 0.  0.
        2    1    3    3  502    0 -0.12442086009E+04  0.71535812794E+03  0.98918044119E+03  0.17430634638E+04  0.25500000920E-02 0. -1.
       -2    1    3    3    0  502  0.12442086009E+04 -0.71535812794E+03  0.83298984854E+02  0.14376129571E+04  0.25500000920E-02 0.  1.
</event>
<event>
 5   0  0.2679935E-07  0.3010103E+04  0.7818609E-02  0.8240852E-01
        1   -1    0    0  501    0  0.00000000000E+00  0.00000000000E+00  0.14484394732E+04  0.14484394732E+04  0.50400001928E-02 0. -1.
       -1   -1    0    0    0  501  0.00000000000E+00  0.00000000000E+00 -0.15638764068E+04  0.15638764068E+04  0.50400001928E-02 0.  1.
    10030    2    1    2    0    0  0.00000000000E+00  0.00000000000E+00 -0.11543693355E+03  0.30123158800E+04  0.30101032001E+04 0.  0.
        2    1    3    3  502    0  0.76243214091E+03  0.44060494623E+03 -0.12791667105E+04  0.15529658597E+04  0.25500000920E-02 0.  1.
       -2    1    3    3    0  502 -0.76243214091E+03 -0.44060494623E+03  0.11637297769E+04  0.14593500203E+04  0.25500000920E-02 0. -1.
</event>
<event>
 5   0  0.2792361E-07  0.2982135E+04  0.7818609E-02  0.8248851E-01
        1   -1    0    0  501    0  0.00000000000E+00  0.00000000000E+00  0.20191875969E+04  0.20191875969E+04  0.50400001928E-02 0.  1.
       -1   -1    0    0    0  501  0.00000000000E+00  0.00000000000E+00 -0.11010775226E+04  0.11010775226E+04  0.50400001928E-02 0. -1.
    10030    2    1    2    0    0  0.00000000000E+00  0.00000000000E+00  0.91811007424E+03  0.31202651195E+04  0.29821348574E+04 0.  0.
        4    1    3    3  502    0  0.86983081231E+03  0.39340506185E+02  0.17255453572E+04  0.19327859970E+04  0.12699999809E+01 0.  1.
       -4    1    3    3    0  502 -0.86983081231E+03 -0.39340506185E+02 -0.80743528293E+03  0.11874791226E+04  0.12699999809E+01 0. -1.
</event>
<event>
 5   0  0.2602891E-07  0.3008704E+04  0.7818609E-02  0.8241250E-01
       -1   -1    0    0    0  501  0.00000000000E+00  0.00000000000E+00  0.17588981346E+04  0.17588981346E+04  0.50400001928E-02 0. -1.
        1   -1    0    0  501    0  0.00000000000E+00  0.00000000000E+00 -0.12866438268E+04  0.12866438268E+04  0.50400001928E-02 0.  1.
    10030    2    1    2    0    0  0.00000000000E+00  0.00000000000E+00  0.47225430777E+03  0.30455419614E+04  0.30087043237E+04 0.  0.
        5    1    3    3  502    0 -0.54688220444E+02 -0.13729366315E+04  0.85608616255E+03  0.16189043836E+04  0.46999998093E+01 0. -1.
       -5    1    3    3    0  502  0.54688220444E+02  0.13729366315E+04 -0.38383185479E+03  0.14266375778E+04  0.46999998093E+01 0.  1.
</event>
<event>
 5   0  0.2602891E-07  0.3003765E+04  0.7818609E-02  0.8242657E-01
       -1   -1    0    0    0  501  0.00000000000E+00  0.00000000000E+00  0.12242629637E+04  0.12242629637E+04  0.50400001928E-02 0. -1.
        1   -1    0    0  501    0  0.00000000000E+00  0.00000000000E+00 -0.18424558258E+04  0.18424558258E+04  0.50400001928E-02 0.  1.
    10030    2    1    2    0    0  0.00000000000E+00  0.00000000000E+00 -0.61819286209E+03  0.30667187896E+04  0.30037645912E+04 0.  0.
        5    1    3    3  502    0  0.48605772536E+03  0.97314122287E+03  0.74816130623E+03  0.13202361085E+04  0.46999998093E+01 0. -1.
       -5    1    3    3    0  502 -0.48605772536E+03 -0.97314122287E+03 -0.13663541683E+04  0.17464826811E+04  0.46999998093E+01 0.  1.
</event>
<event>
 5   0  0.7399409E-07  0.2998563E+04  0.7818609E-02  0.8244141E-01
        2   -1    0    0  501    0  0.00000000000E+00  0.00000000000E+00  0.12733530865E+04  0.12733530865E+04  0.25500000920E-02 0. -1.
       -2   -1    0    0    0  501  0.00000000000E+00  0.00000000000E+00 -0.17652957994E+04  0.17652957994E+04  0.25500000920E-02 0.  1.
    10030    2    1    2    0    0  0.00000000000E+00  0.00000000000E+00 -0.49194271288E+03  0.30386488859E+04  0.29985628923E+04 0.  0.
        3    1    3    3  502    0 -0.32995708187E+03 -0.27378151945E+03  0.12099032709E+04  0.12836253080E+04  0.10100000352E+00 0. -1.
       -3    1    3    3    0  502  0.32995708187E+03  0.27378151945E+03 -0.17018459838E+04  0.17550235779E+04  0.10100000352E+00 0.  1.
</event>
<event>
 5   0  0.7399409E-07  0.2995693E+04  0.7818609E-02  0.8244962E-01
       -2   -1    0    0    0  501  0.00000000000E+00  0.00000000000E+00  0.23419795059E+04  0.23419795059E+04  0.25500000920E-02 0.  1.
        2   -1    0    0  501    0  0.00000000000E+00  0.00000000000E+00 -0.95796901813E+03  0.95796901814E+03  0.25500000920E-02 0. -1.
    10030    2    1    2    0    0  0.00000000000E+00  0.00000000000E+00  0.13840104877E+04  0.32999485240E+04  0.29956927798E+04 0.  0.
        3    1    3    3  502    0 -0.86125994605E+03 -0.98515987373E+03 -0.11087964557E+03  0.13132414011E+04  0.10100000352E+00 0. -1.
       -3    1    3    3    0  502  0.86125994605E+03  0.98515987373E+03  0.14948901333E+04  0.19867071229E+04  0.10100000352E+00 0.  1.
</event>
<event>
 5   0  0.2602891E-07  0.2995643E+04  0.7818609E-02  0.8244976E-01
        1   -1    0    0  501    0  0.00000000000E+00  0.00000000000E+00  0.14344305652E+04  0.14344305652E+04  0.50400001928E-02 0.  1.
       -1   -1    0    0    0  501  0.00000000000E+00  0.00000000000E+00 -0.15640142193E+04  0.15640142193E+04  0.50400001928E-02 0. -1.
    10030    2    1    2    0    0  0.00000000000E+00  0.00000000000E+00 -0.12958365414E+03  0.29984447845E+04  0.29956433704E+04 0.  0.
        5    1    3    3  502    0 -0.40432459677E+03  0.53616940054E+03 -0.14048835462E+04  0.15571370761E+04  0.46999998093E+01 0. -1.
       -5    1    3    3    0  502  0.40432459677E+03 -0.53616940054E+03  0.12752998920E+04  0.14413077084E+04  0.46999998093E+01 0.  1.
</event>
<event>
 5   0  0.7307508E-07  0.2998480E+04  0.7818609E-02  0.8244165E-01
       -2   -1    0    0    0  501  0.00000000000E+00  0.00000000000E+00  0.88767943988E+03  0.88767943988E+03  0.25500000920E-02 0. -1.
        2   -1    0    0  501    0  0.00000000000E+00  0.00000000000E+00 -0.25321316156E+04  0.25321316156E+04  0.25500000920E-02 0.  1.
    10030    2    1    2    0    0  0.00000000000E+00  0.00000000000E+00 -0.16444521757E+04  0.34198110555E+04  0.29984803979E+04 0.  0.
        1    1    3    3  502    0 -0.69058224421E+02  0.25075944763E+03  0.86175147228E+03  0.90014717627E+03  0.50400001928E-02 0. -1.
       -1    1    3    3    0  502  0.69058224421E+02 -0.25075944763E+03 -0.25062036480E+04  0.25196638792E+04  0.50400001928E-02 0.  1.
</event>
<event>
 5   0  0.2679935E-07  0.3011566E+04  0.7818609E-02  0.8240436E-01
       -1   -1    0    0    0  501  0.00000000000E+00  0.00000000000E+00  0.14646228881E+04  0.14646228881E+04  0.50400001928E-02 0.  1.
        1   -1    0    0  501    0  0.00000000000E+00  0.00000000000E+00 -0.15481000913E+04  0.15481000913E+04  0.50400001928E-02 0. -1.
    10030    2    1    2    0    0  0.00000000000E+00  0.00000000000E+00 -0.83477203155E+02  0.30127229794E+04  0.30115662548E+04 0.  0.
        2    1    3    3  502    0 -0.15027683110E+04  0.21959217795E+02  0.50968580417E+02  0.15037927383E+04  0.25500000920E-02 0.  1.
       -2    1    3    3    0  502  0.15027683110E+04 -0.21959217795E+02 -0.13444578357E+03  0.15089302411E+04  0.25500000920E-02 0. -1.
</event>
<event>
 5   0  0.7399409E-07  0.3002159E+04  0.7818609E-02  0.8243115E-01
        2   -1    0    0  501    0  0.00000000000E+00  0.00000000000E+00  0.16360525560E+04  0.16360525560E+04  0.25500000920E-02 0. -1.
       -2   -1    0    0    0  501  0.00000000000E+00  0.00000000000E+00 -0.13772415012E+04  0.13772415012E+04  0.25500000920E-02 0.  1.
    10030    2    1    2    0    0  0.00000000000E+00  0.00000000000E+00  0.25881105479E+03  0.30132940573E+04  0.30021588754E+04 0.  0.
        3    1    3    3  502    0  0.14226133803E+04  0.33662801193E+03 -0.21258131836E+03  0.14772738660E+04  0.10100000352E+00 0.  1.
       -3    1    3    3    0  502 -0.14226133803E+04 -0.33662801193E+03  0.47139237315E+03  0.15360201912E+04  0.10100000352E+00 0. -1.
</event>
<event>
 5   0  0.7208273E-07  0.3005321E+04  0.7818609E-02  0.8242213E-01
       -2   -1    0    0    0  501  0.00000000000E+00  0.00000000000E+00  0.15617031047E+04  0.15617031047E+04  0.25500000920E-02 0. -1.
        2   -1    0    0  501    0  0.00000000000E+00  0.00000000000E+00 -0.14458500498E+04  0.14458500498E+04  0.25500000920E-02 0.  1.
    10030    2    1    2    0    0  0.00000000000E+00  0.00000000000E+00  0.11585305487E+03  0.30075531545E+04  0.30053209557E+04 0.  0.
        4    1    3    3  502    0  0.82884846715E+03 -0.62545068216E+03 -0.10290701678E+04  0.14619047029E+04  0.12699999809E+01 0.  1.
       -4    1    3    3    0  502 -0.82884846715E+03  0.62545068216E+03  0.11449232227E+04  0.15456484516E+04  0.12699999809E+01 0. -1.
</event>
<event>
 5   0  0.7585823E-07  0.2997799E+04  0.7818609E-02  0.8244360E-01
       -2   -1    0    0    0  501  0.00000000000E+00  0.00000000000E+00  0.97756208048E+03  0.97756208048E+03  0.25500000920E-02 0. -1.
        2   -1    0    0  501    0  0.00000000000E+00  0.00000000000E+00 -0.22982686366E+04  0.22982686366E+04  0.25500000920E-02 0.  1.
    10030    2    1    2    0    0  0.00000000000E+00  0.00000000000E+00 -0.13207065561E+04  0.32758307171E+04  0.29977993728E+04 0.  0.
        5    1    3    3  502    0  0.22734182019E+03  0.45698553018E+03  0.87966471356E+03  0.10170310596E+04  0.46999998093E+01 0. -1.
       -5    1    3    3    0  502 -0.22734182019E+03 -0.45698553018E+03 -0.22003712697E+04  0.22587996575E+04  0.46999998093E+01 0.  1.
</event>
<event>
 5   0  0.2640081E-07  0.2998212E+04  0.7818609E-02  0.8244242E-01
       -1   -1    0    0    0  501  0.00000000000E+00  0.00000000000E+00  0.10998956728E+04  0.10998956728E+04  0.50400001928E-02 0. -1.
        1   -1    0    0  501    0  0.00000000000E+00  0.00000000000E+00 -0.20432108711E+04  0.20432108711E+04  0.50400001928E-02 0.  1.
    10030    2    1    2    0    0  0.00000000000E+00  0.00000000000E+00 -0.94331519829E+03  0.31431065439E+04  0.29982119977E+04 0.  0.
        1    1    3    3  502    0 -0.59453004926E+03 -0.13700511972E+04 -0.33572821688E+03  0.15307578836E+04  0.50400001928E-02 0. -1.
       -1    1    3    3    0  502  0.59453004926E+03  0.13700511972E+04 -0.60758698141E+03  0.16123486603E+04  0.50400001928E-02 0.  1.
</event>
<event>
 5   0  0.2621825E-07  0.2996441E+04  0.7818609E-02  0.8244748E-01
        1   -1    0    0  501    0  0.00000000000E+00  0.00000000000E+00  0.16829732883E+04  0.16829732883E+04  0.50400001928E-02 0.  1.
       -1   -1    0    0    0  501  0.00000000000E+00  0.00000000000E+00 -0.13337492106E+04  0.13337492106E+04  0.50400001928E-02 0. -1.
    10030    2    1    2    0    0  0.00000000000E+00  0.00000000000E+00  0.34922407769E+03  0.30167224988E+04  0.29964407517E+04 0.  0.
        3    1    3    3  502    0  0.75384683391E+03  0.15945806695E+03 -0.11189788206E+04  0.13586116205E+04  0.10100000352E+00 0. -1.
       -3    1    3    3    0  502 -0.75384683391E+03 -0.15945806695E+03  0.14682028983E+04  0.16581108784E+04  0.10100000352E+00 0.  1.
</event>
<event>
 5   0  0.2792361E-07  0.3000980E+04  0.7818609E-02  0.8243451E-01
       -1   -1    0    0    0  501  0.00000000000E+00  0.00000000000E+00  0.13656185921E+04  0.13656185921E+04  0.50400001928E-02 0.  1.
        1   -1    0    0  501    0  0.00000000000E+00  0.00000000000E+00 -0.16486818743E+04  0.16486818743E+04  0.50400001928E-02 0. -1.
    10030    2    1    2    0    0  0.00000000000E+00  0.00000000000E+00 -0.28306328219E+03  0.30143004665E+04  0.30009802533E+04 0.  0.
        4    1    3    3  502    0  0.10690235221E+04  0.97940460359E+03  0.24673857232E+03  0.14706890237E+04  0.12699999809E+01 0. -1.
       -4    1    3    3    0  502 -0.10690235221E+04 -0.97940460359E+03 -0.52980185451E+03  0.15436114428E+04  0.12699999809E+01 0.  1.
</event>
<event>
 5   0  0.2602891E-07  0.2980020E+04  0.7818609E-02  0.8249459E-01
        1   -1    0    0  501    0  0.00000000000E+00  0.00000000000E+00  0.13000381420E+04  0.13000381420E+04  0.50400001928E-02 0. -1.
       -1   -1    0    0    0  501  0.00000000000E+00  0.00000000000E+00 -0.17077422600E+04  0.17077422600E+04  0.50400001928E-02 0.  1.
    10030    2    1    2    0    0  0.00000000000E+00  0.00000000000E+00 -0.40770411801E+03  0.30077804020E+04  0.29800201843E+04 0.  0.
        5    1    3    3  502    0  0.23803963371E+03  0.15781778274E+03 -0.16798490529E+04  0.17039613406E+04  0.46999998093E+01 0.  1.
       -5    1    3    3    0  502 -0.23803963371E+03 -0.15781778274E+03  0.12721449348E+04  0.13038190615E+04  0.46999998093E+01 0. -1.
</event>
<event>
 5   0  0.7399409E-07  0.2995459E+04  0.7818609E-02  0.8245029E-01
       -2   -1    0    0    0  501  0.00000000000E+00  0.00000000000E+00  0.99012020821E+03  0.99012020821E+03  0.25500000920E-02 0.  1.
        2   -1    0    0  501    0  0.00000000000E+00  0.00000000000E+00 -0.22655766151E+04  0.22655766151E+04  0.25500000920E-02 0. -1.
    10030    2    1    2    0    0  0.00000000000E+00  0.00000000000E+00 -0.12754564069E+04  0.32556968233E+04  0.29954586893E+04 0.  0.
        3    1    3    3  502    0  0.12111722524E+04 -0.64063414409E+03  0.19669081163E+02  0.13703055187E+04  0.10100000352E+00 0.  1.
       -3    1    3    3    0  502 -0.12111722524E+04  0.64063414409E+03 -0.12951254880E+04  0.18853913046E+04  0.10100000352E+00 0. -1.
</event>
<event>
 5   0  0.2679935E-07  0.2999506E+04  0.7818609E-02  0.8243872E-01
       -1   -1    0    0    0  501  0.00000000000E+00  0.00000000000E+00  0.14242013065E+04  0.14242013065E+04  0.50400001928E-02 0.  1.
        1   -1    0    0  501    0  0.00000000000E+00  0.00000000000E+00 -0.15793122611E+04  0.15793122612E+04  0.50400001928E-02 0. -1.
    10030    2    1    2    0    0  0.00000000000E+00  0.00000000000E+00 -0.15511095461E+03  0.30035135677E+04  0.29995056831E+04 0.  0.
        2    1    3    3  502    0  0.88420975157E+03  0.27841291860E+03  0.11029676250E+04  0.14407908314E+04  0.25500000920E-02 0.  1.
       -2    1    3    3    0  502 -0.88420975157E+03 -0.27841291860E+03 -0.12580785796E+04  0.15627227363E+04  0.25500000920E-02 0. -1.
</event>
<event>
 5   0  0.2792361E-07  0.2998740E+04  0.7818609E-02  0.8244091E-01
        1   -1    0    0  501    0  0.00000000000E+00  0.00000000000E+00  0.16410422153E+04  0.16410422153E+04  0.50400001928E-02 0.  1.
       -1   -1    0    0    0  501  0.00000000000E+00  0.00000000000E+00 -0.13699287595E+04  0.13699287595E+04  0.50400001928E-02 0. -1.
    10030    2    1    2    0    0  0.00000000000E+00  0.00000000000E+00  0.27111345581E+03  0.30109709748E+04  0.29987403531E+04 0.  0.
        4    1    3    3  502    0  0.12162933016E+04  0.94320209546E+02  0.10108020829E+04  0.15842942155E+04  0.12699999809E+01 0.  1.
       -4    1    3    3    0  502 -0.12162933016E+04 -0.94320209546E+02 -0.73968862713E+03  0.14266767593E+04  0.12699999809E+01 0. -1.
</event>
<event>
 5   0  0.2621825E-07  0.2997814E+04  0.7818609E-02  0.8244355E-01
        1   -1    0    0  501    0  0.00000000000E+00  0.00000000000E+00  0.19281099551E+04  0.19281099551E+04  0.50400001928E-02 0. -1.
       -1   -1    0    0    0  501  0.00000000000E+00  0.00000000000E+00 -0.11652460356E+04  0.11652460356E+04  0.50400001928E-02 0.  1.
    10030    2    1    2    0    0  0.00000000000E+00  0.00000000000E+00  0.76286391955E+03  0.30933559907E+04  0.29978141913E+04 0.  0.
        3    1    3    3  502    0 -0.42228423404E+03 -0.11150620406E+04 -0.55583091583E+03  0.13155361439E+04  0.10100000352E+00 0.  1.
       -3    1    3    3    0  502  0.42228423404E+03  0.11150620406E+04  0.13186948354E+04  0.17778198468E+04  0.10100000352E+00 0. -1.
</event>
<event>
 5   0  0.2792361E-07  0.2999060E+04  0.7818609E-02  0.8243999E-01
       -1   -1    0    0    0  501  0.00000000000E+00  0.00000000000E+00  0.11935450261E+04  0.11935450261E+04  0.50400001928E-02 0. -1.
        1   -1    0    0  501    0  0.00000000000E+00  0.00000000000E+00 -0.18839592714E+04  0.18839592714E+04  0.50400001928E-02 0.  1.
    10030    2    1    2    0    0  0.00000000000E+00  0.00000000000E+00 -0.69041424530E+03  0.30775042975E+04  0.29990599979E+04 0.  0.
        4    1    3    3  502    0 -0.84665939829E+03 -0.49551541389E+03 -0.15089882289E+04  0.17998374232E+04  0.12699999809E+01 0.  1.
       -4    1    3    3    0  502  0.84665939829E+03  0.49551541389E+03  0.81857398362E+03  0.12776668743E+04  0.12699999809E+01 0. -1.
</event>
<event>
 5   0  0.7278657E-07  0.2999347E+04  0.7818609E-02  0.8243917E-01
       -2   -1    0    0    0  501  0.00000000000E+00  0.00000000000E+00  0.84993725166E+03  0.84993725166E+03  0.25500000920E-02 0.  1.
        2   -1    0    0  501    0  0.00000000000E+00  0.00000000000E+00 -0.26461026601E+04  0.26461026601E+04  0.25500000920E-02 0. -1.
    10030    2    1    2    0    0  0.00000000000E+00  0.00000000000E+00 -0.17961654085E+04  0.34960399118E+04  0.29993474107E+04 0.  0.
        2    1    3    3  502    0 -0.56603660815E+03  0.13457315991E+04 -0.49831370903E+03  0.15426300694E+04  0.25500000920E-02 0.  1.
       -2    1    3    3    0  502  0.56603660815E+03 -0.13457315991E+04 -0.12978516994E+04  0.19534098424E+04  0.25500000920E-02 0. -1.
</event>
<event>
 5   0  0.7585823E-07  0.2999109E+04  0.7818609E-02  0.8243985E-01
       -2   -1    0    0    0  501  0.00000000000E+00  0.00000000000E+00  0.11713509831E+04  0.11713509831E+04  0.25500000920E-02 0.  1.
        2   -1    0    0  501    0  0.00000000000E+00  0.00000000000E+00 -0.19197183215E+04  0.19197183215E+04  0.25500000920E-02 0. -1.
    10030    2    1    2    0    0  0.00000000000E+00  0.00000000000E+00 -0.74836733840E+03  0.30910693047E+04  0.29991091633E+04 0.  0.
        5    1    3    3  502    0 -0.10963480311E+04 -0.65895977964E+03 -0.11807617563E+04  0.17408122850E+04  0.46999998093E+01 0. -1.
       -5    1    3    3    0  502  0.10963480311E+04  0.65895977964E+03  0.43239441792E+03  0.13502570197E+04  0.46999998093E+01 0.  1.
</event>
<event>
 5   0  0.7399409E-07  0.3003939E+04  0.7818609E-02  0.8242607E-01
       -2   -1    0    0    0  501  0.00000000000E+00  0.00000000000E+00  0.13971405597E+04  0.13971405597E+04  0.25500000920E-02 0.  1.
        2   -1    0    0  501    0  0.00000000000E+00  0.00000000000E+00 -0.16146634206E+04  0.16146634206E+04  0.25500000920E-02 0. -1.
    10030    2    1    2    0    0  0.00000000000E+00  0.00000000000E+00 -0.21752286091E+03  0.30118039803E+04  0.30039385847E+04 0.  0.
        3    1    3    3  502    0 -0.95775060765E+03  0.11428252530E+04 -0.28972212842E+03  0.15189715953E+04  0.10100000352E+00 0.  1.
       -3    1    3    3    0  502  0.95775060765E+03 -0.11428252530E+04  0.72199267512E+02  0.14928323850E+04  0.10100000352E+00 0. -1.
</event>
<event>
 5   0  0.7585823E-07  0.2997505E+04  0.7818609E-02  0.8244444E-01
        2   -1    0    0  501    0  0.00000000000E+00  0.00000000000E+00  0.17722068026E+04  0.17722068026E+04  0.25500000920E-02 0. -1.
       -2   -1    0    0    0  501  0.00000000000E+00  0.00000000000E+00 -0.12674922566E+04  0.12674922566E+04  0.25500000920E-02 0.  1.
    10030    2    1    2    0    0  0.00000000000E+00  0.00000000000E+00  0.50471454597E+03  0.30396990591E+04  0.29975045617E+04 0.  0.
        5    1    3    3  502    0 -0.35064152522E+03 -0.10715935894E+04 -0.74894973468E+03  0.13535915541E+04  0.46999998093E+01 0.  1.
       -5    1    3    3    0  502  0.35064152522E+03  0.10715935894E+04  0.12536642807E+04  0.16861075051E+04  0.46999998093E+01 0. -1.
</event>
<event>
 5   0  0.2792361E-07  0.2999451E+04  0.7818609E-02  0.8243888E-01
       -1   -1    0    0    0  501  0.00000000000E+00  0.00000000000E+00  0.16605351956E+04  0.16605351956E+04  0.50400001928E-02 0. -1.
        1   -1    0    0  501    0  0.00000000000E+00  0.00000000000E+00 -0.13544887378E+04  0.13544887378E+04  0.50400001928E-02 0.  1.
    10030    2    1    2    0    0  0.00000000000E+00  0.00000000000E+00  0.30604645783E+03  0.30150239334E+04  0.29994507638E+04 0.  0.
        4    1    3    3  502    0 -0.80759025439E+03 -0.11675446827E+04  0.63907488574E+03  0.15568496805E+04  0.12699999809E+01 0.  1.
       -4    1    3    3    0  502  0.80759025439E+03  0.11675446827E+04 -0.33302842791E+03  0.14581742529E+04  0.12699999809E+01 0. -1.
</event>
<event>
 5   0  0.2602891E-07  0.2995490E+04  0.7818609E-02  0.8245020E-01
        1   -1    0    0  501    0  0.00000000000E+00  0.00000000000E+00  0.17378508697E+04  0.17378508697E+04  0.50400001928E-02 0. -1.
       -1   -1    0    0    0  501  0.00000000000E+00  0.00000000000E+00 -0.12908130957E+04  0.12908130957E+04  0.50400001928E-02 0.  1.
    10030    2    1    2    0    0  0.00000000000E+00  0.00000000000E+00  0.44703777407E+03  0.30286639654E+04  0.29954903845E+04 0.  0.
        5    1    3    3  502    0 -0.52790498446E+03 -0.25527959513E+02  0.16404247275E+04  0.17234705468E+04  0.46999998093E+01 0. -1.
       -5    1    3    3    0  502  0.52790498446E+03  0.25527959513E+02 -0.11933869534E+04  0.13051934186E+04  0.46999998093E+01 0.  1.
</event>
<event>
 5   0  0.2621825E-07  0.3000120E+04  0.7818609E-02  0.8243697E-01
       -1   -1    0    0    0  501  0.00000000000E+00  0.00000000000E+00  0.84668138359E+03  0.84668138361E+03  0.50400001928E-02 0.  1.
        1   -1    0    0  501    0  0.00000000000E+00  0.00000000000E+00 -0.26576461514E+04  0.26576461514E+04  0.50400001928E-02 0. -1.
    10030    2    1    2    0    0  0.00000000000E+00  0.00000000000E+00 -0.18109647678E+04  0.35043275350E+04  0.30001196780E+04 0.  0.
        3    1    3    3  502    0  0.23160001795E+03  0.68601742370E+03  0.62905181861E+03  0.95914788986E+03  0.10100000352E+00 0. -1.
       -3    1    3    3    0  502 -0.23160001795E+03 -0.68601742370E+03 -0.24400165864E+04  0.25451796451E+04  0.10100000352E+00 0.  1.
</event>
<event>
 5   0  0.2602891E-07  0.3016228E+04  0.7818609E-02  0.8239112E-01
        1   -1    0    0  501    0  0.00000000000E+00  0.00000000000E+00  0.16095674780E+04  0.16095674780E+04  0.50400001928E-02 0.  1.
       -1   -1    0    0    0  501  0.00000000000E+00  0.00000000000E+00 -0.14130550065E+04  0.14130550066E+04  0.50400001928E-02 0. -1.
    10030    2    1    2    0    0  0.00000000000E+00  0.00000000000E+00  0.19651247148E+03  0.30226224846E+04  0.30162276991E+04 0.  0.
        5    1    3    3  502    0 -0.42149074180E+03 -0.52624427708E+03 -0.12536026301E+04  0.14234216272E+04  0.46999998093E+01 0. -1.
       -5    1    3    3    0  502  0.42149074180E+03  0.52624427708E+03  0.14501151016E+04  0.15992008574E+04  0.46999998093E+01 0.  1.
</event>
<event>
 5   0  0.7278657E-07  0.2952043E+04  0.7818609E-02  0.8257560E-01
        2   -1    0    0  501    0  0.00000000000E+00  0.00000000000E+00  0.18630945039E+04  0.18630945039E+04  0.25500000920E-02 0. -1.
       -2   -1    0    0    0  501  0.00000000000E+00  0.00000000000E+00 -0.11693657392E+04  0.11693657392E+04  0.25500000920E-02 0.  1.
    10030    2    1    2    0    0  0.00000000000E+00  0.00000000000E+00  0.69372876470E+03  0.30324602430E+04  0.29520426024E+04 0.  0.
        2    1    3    3  502    0 -0.19672291401E+03 -0.72042544780E+03 -0.96097409231E+03  0.12170390038E+04  0.25500000920E-02 0.  1.
       -2    1    3    3    0  502  0.19672291401E+03  0.72042544780E+03  0.16547028570E+04  0.18154212392E+04  0.25500000920E-02 0. -1.
</event>
<event>
 5   0  0.7399409E-07  0.2996157E+04  0.7818609E-02  0.8244829E-01
        2   -1    0    0  501    0  0.00000000000E+00  0.00000000000E+00  0.15299213089E+04  0.15299213089E+04  0.25500000920E-02 0. -1.
       -2   -1    0    0    0  501  0.00000000000E+00  0.00000000000E+00 -0.14668984921E+04  0.14668984921E+04  0.25500000920E-02 0.  1.
    10030    2    1    2    0    0  0.00000000000E+00  0.00000000000E+00  0.63022816724E+02  0.29968198010E+04  0.29961570460E+04 0.  0.
        3    1    3    3  502    0 -0.13079797133E+04 -0.72352451346E+03 -0.68213197838E+02  0.14963127021E+04  0.10100000352E+00 0. -1.
       -3    1    3    3    0  502  0.13079797133E+04  0.72352451346E+03  0.13123601456E+03  0.15005070989E+04  0.10100000352E+00 0.  1.
</event>
<event>
 5   0  0.7399409E-07  0.2937343E+04  0.7818609E-02  0.8261853E-01
       -2   -1    0    0    0  501  0.00000000000E+00  0.00000000000E+00  0.94613952799E+03  0.94613952799E+03  0.25500000920E-02 0. -1.
        2   -1    0    0  501    0  0.00000000000E+00  0.00000000000E+00 -0.22797871074E+04  0.22797871074E+04  0.25500000920E-02 0.  1.
    10030    2    1    2    0    0  0.00000000000E+00  0.00000000000E+00 -0.13336475794E+04  0.32259266354E+04  0.29373434921E+04 0.  0.
        3    1    3    3  502    0  0.12127453493E+04 -0.52019985825E+03 -0.13748626906E+04  0.19056774656E+04  0.10100000352E+00 0.  1.
       -3    1    3    3    0  502 -0.12127453493E+04  0.52019985825E+03  0.41215111176E+02  0.13202491698E+04  0.10100000352E+00 0. -1.
</event>
<event>
 5   0  0.2679935E-07  0.2997100E+04  0.7818609E-02  0.8244559E-01
       -1   -1    0    0    0  501  0.00000000000E+00  0.00000000000E+00  0.11822489031E+04  0.11822489031E+04  0.50400001928E-02 0.  1.
        1   -1    0    0  501    0  0.00000000000E+00  0.00000000000E+00 -0.18994752221E+04  0.18994752221E+04  0.50400001928E-02 0. -1.
    10030    2    1    2    0    0  0.00000000000E+00  0.00000000000E+00 -0.71722631902E+03  0.30817241252E+04  0.29971002638E+04 0.  0.
        2    1    3    3  502    0  0.73267107515E+02  0.16452825228E+03  0.11710798335E+04  0.11848483411E+04  0.25500000920E-02 0.  1.
       -2    1    3    3    0  502 -0.73267107515E+02 -0.16452825228E+03 -0.18883061525E+04  0.18968757842E+04  0.25500000920E-02 0. -1.
</event>
<event>
 5   0  0.7208273E-07  0.3003637E+04  0.7818609E-02  0.8242693E-01
        2   -1    0    0  501    0  0.00000000000E+00  0.00000000000E+00  0.19699481468E+04  0.19699481468E+04  0.25500000920E-02 0.  1.
       -2   -1    0    0    0  501  0.00000000000E+00  0.00000000000E+00 -0.11449327405E+04  0.11449327405E+04  0.25500000920E-02 0. -1.
    10030    2    1    2    0    0  0.00000000000E+00  0.00000000000E+00  0.82501540621E+03  0.31148808873E+04  0.30036365495E+04 0.  0.
        4    1    3    3  502    0 -0.58414586239E+03 -0.64326890581E+02 -0.10207399090E+04  0.11778267751E+04  0.12699999809E+01 0. -1.
       -4    1    3    3    0  502  0.58414586239E+03  0.64326890581E+02  0.18457553152E+04  0.19370541122E+04  0.12699999809E+01 0.  1.
</event>
<event>
 5   0  0.7399409E-07  0.3001444E+04  0.7818609E-02  0.8243319E-01
        2   -1    0    0  501    0  0.00000000000E+00  0.00000000000E+00  0.18350315443E+04  0.18350315443E+04  0.25500000920E-02 0.  1.
       -2   -1    0    0    0  501  0.00000000000E+00  0.00000000000E+00 -0.12273178165E+04  0.12273178165E+04  0.25500000920E-02 0. -1.
    10030    2    1    2    0    0  0.00000000000E+00  0.00000000000E+00  0.60771372787E+03  0.30623493608E+04  0.30014442578E+04 0.  0.
        3    1    3    3  502    0  0.12854256534E+04  0.76857999171E+03  0.20635312067E+03  0.15118253651E+04  0.10100000352E+00 0.  1.
       -3    1    3    3    0  502 -0.12854256534E+04 -0.76857999171E+03  0.40136060720E+03  0.15505239957E+04  0.10100000352E+00 0. -1.
</event>
<event>
 5   0  0.7399409E-07  0.2993775E+04  0.7818609E-02  0.8245511E-01
        2   -1    0    0  501    0  0.00000000000E+00  0.00000000000E+00  0.22037291765E+04  0.22037291765E+04  0.25500000920E-02 0. -1.
       -2   -1    0    0    0  501  0.00000000000E+00  0.00000000000E+00 -0.10167639955E+04  0.10167639955E+04  0.25500000920E-02 0.  1.
    10030    2    1    2    0    0  0.00000000000E+00  0.00000000000E+00  0.11869651811E+04  0.32204931720E+04  0.29937751969E+04 0.  0.
        3    1    3    3  502    0 -0.87335980757E+03 -0.25127175309E+03 -0.68603802642E+03  0.11386584349E+04  0.10100000352E+00 0.  1.
       -3    1    3    3    0  502  0.87335980757E+03  0.25127175309E+03  0.18730032075E+04  0.20818347371E+04  0.10100000352E+00 0. -1.
</event>
<event>
 5   0  0.7399409E-07  0.3004789E+04  0.7818609E-02  0.8242365E-01
       -2   -1    0    0    0  501  0.00000000000E+00  0.00000000000E+00  0.15890859888E+04  0.15890859888E+04  0.25500000920E-02 0.  1.
        2   -1    0    0  501    0  0.00000000000E+00  0.00000000000E+00 -0.14204325688E+04  0.14204325688E+04  0.25500000920E-02 0. -1.
    10030    2    1    2    0    0  0.00000000000E+00  0.00000000000E+00  0.16865342000E+03  0.30095185575E+04  0.30047891726E+04 0.  0.
        3    1    3    3  502    0  0.10293609266E+04 -0.26608689563E+03  0.11475074015E+04  0.15643399247E+04  0.10100000352E+00 0.  1.
       -3    1    3    3    0  502 -0.10293609266E+04  0.26608689563E+03 -0.97885398153E+03  0.14451786328E+04  0.10100000352E+00 0. -1.
</event>
<event>
 5   0  0.7585823E-07  0.2997050E+04  0.7818609E-02  0.8244574E-01
        2   -1    0    0  501    0  0.00000000000E+00  0.00000000000E+00  0.18821179108E+04  0.18821179108E+04  0.25500000920E-02 0.  1.
       -2   -1    0    0    0  501  0.00000000000E+00  0.00000000000E+00 -0.11931121644E+04  0.11931121644E+04  0.25500000920E-02 0. -1.
    10030    2    1    2    0    0  0.00000000000E+00  0.00000000000E+00  0.68900574632E+03  0.30752300752E+04  0.29970503995E+04 0.  0.
        5    1    3    3  502    0  0.72653386806E+02 -0.11755418575E+04  0.12951579799E+04  0.17506094527E+04  0.46999998093E+01 0.  1.
       -5    1    3    3    0  502 -0.72653386806E+02  0.11755418575E+04 -0.60615223354E+03  0.13246206225E+04  0.46999998093E+01 0. -1.
</event>
<event>
 5   0  0.2621825E-07  0.3000750E+04  0.7818609E-02  0.8243517E-01
       -1   -1    0    0    0  501  0.00000000000E+00  0.00000000000E+00  0.23150202601E+04  0.23150202601E+04  0.50400001928E-02 0.  1.
        1   -1    0    0  501    0  0.00000000000E+00  0.00000000000E+00 -0.97239969892E+03  0.97239969894E+03  0.50400001928E-02 0. -1.
    10030    2    1    2    0    0  0.00000000000E+00  0.00000000000E+00  0.13426205612E+04  0.32874199591E+04  0.30007499089E+04 0.  0.
        3    1    3    3  502    0 -0.39299195447E+03  0.14461550183E+04  0.75120144532E+03  0.16763384608E+04  0.10100000352E+00 0.  1.
       -3    1    3    3    0  502  0.39299195447E+03 -0.14461550183E+04  0.59141911589E+03  0.16110814983E+04  0.10100000352E+00 0. -1.
</event>
<event>
 5   0  0.2679935E-07  0.3000425E+04  0.7818609E-02  0.8243610E-01
       -1   -1    0    0    0  501  0.00000000000E+00  0.00000000000E+00  0.21210888482E+04  0.21210888482E+04  0.50400001928E-02 0.  1.
        1   -1    0    0  501    0  0.00000000000E+00  0.00000000000E+00 -0.10610765187E+04  0.10610765187E+04  0.50400001928E-02 0. -1.
    10030    2    1    2    0    0  0.00000000000E+00  0.00000000000E+00  0.10600123294E+04  0.31821653669E+04  0.30004250172E+04 0.  0.
        2    1    3    3  502    0 -0.39171697704E+03  0.13649505740E+04  0.10431576619E+04  0.17620187761E+04  0.25500000920E-02 0.  1.
       -2    1    3    3    0  502  0.39171697704E+03 -0.13649505740E+04  0.16854667497E+02  0.14201465908E+04  0.25500000920E-02 0. -1.
</event>
<event>
 5   0  0.2792361E-07  0.3003497E+04  0.7818609E-02  0.8242733E-01
       -1   -1    0    0    0  501  0.00000000000E+00  0.00000000000E+00  0.16453475601E+04  0.16453475602E+04  0.50400001928E-02 0.  1.
        1   -1    0    0  501    0  0.00000000000E+00  0.00000000000E+00 -0.13706823208E+04  0.13706823208E+04  0.50400001928E-02 0. -1.
    10030    2    1    2    0    0  0.00000000000E+00  0.00000000000E+00  0.27466523935E+03  0.30160298810E+04  0.30034971698E+04 0.  0.
        4    1    3    3  502    0 -0.23807806019E+03  0.14234367299E+04  0.55426860105E+03  0.15459846641E+04  0.12699999809E+01 0. -1.
       -4    1    3    3    0  502  0.23807806019E+03 -0.14234367299E+04 -0.27960336170E+03  0.14700452168E+04  0.12699999809E+01 0.  1.
</event>
<event>
 5   0  0.7399409E-07  0.3002221E+04  0.7818609E-02  0.8243097E-01
       -2   -1    0    0    0  501  0.00000000000E+00  0.00000000000E+00  0.74856046692E+03  0.74856046692E+03  0.25500000920E-02 0. -1.
        2   -1    0    0  501    0  0.00000000000E+00  0.00000000000E+00 -0.30102220502E+04  0.30102220502E+04  0.25500000920E-02 0.  1.
    10030    2    1    2    0    0  0.00000000000E+00  0.00000000000E+00 -0.22616615832E+04  0.37587825171E+04  0.30022213266E+04 0.  0.
        3    1    3    3  502    0  0.41143771105E+03  0.55080397207E+03 -0.28015207909E+04  0.28846463835E+04  0.10100000352E+00 0.  1.
       -3    1    3    3    0  502 -0.41143771105E+03 -0.55080397207E+03  0.53985920768E+03  0.87413613358E+03  0.10100000352E+00 0. -1.
</event>
<event>
 5   0  0.7399409E-07  0.2996491E+04  0.7818609E-02  0.8244733E-01
       -2   -1    0    0    0  501  0.00000000000E+00  0.00000000000E+00  0.12157835929E+04  0.12157835929E+04  0.25500000920E-02 0.  1.
        2   -1    0    0  501    0  0.00000000000E+00  0.00000000000E+00 -0.18463321102E+04  0.18463321102E+04  0.25500000920E-02 0. -1.
    10030    2    1    2    0    0  0.00000000000E+00  0.00000000000E+00 -0.63054851731E+03  0.30621157030E+04  0.29964914727E+04 0.  0.
        3    1    3    3  502    0 -0.35755543081E+03 -0.71671515899E+03 -0.16091848500E+04  0.17974989282E+04  0.10100000352E+00 0. -1.
       -3    1    3    3    0  502  0.35755543081E+03  0.71671515899E+03  0.97863633271E+03  0.12646167748E+04  0.10100000352E+00 0.  1.
</event>
<event>
 5   0  0.7307508E-07  0.3000265E+04  0.7818609E-02  0.8243655E-01
       -2   -1    0    0    0  501  0.00000000000E+00  0.00000000000E+00  0.16902880272E+04  0.16902880272E+04  0.25500000920E-02 0.  1.
        2   -1    0    0  501    0  0.00000000000E+00  0.00000000000E+00 -0.13313690688E+04  0.13313690688E+04  0.25500000920E-02 0. -1.
    10030    2    1    2    0    0  0.00000000000E+00  0.00000000000E+00  0.35891895837E+03  0.30216570960E+04  0.30002647862E+04 0.  0.
        1    1    3    3  502    0  0.22199129745E+03  0.88136506278E+03 -0.10224956767E+04  0.13680577177E+04  0.50400001928E-02 0. -1.
       -1    1    3    3    0  502 -0.22199129745E+03 -0.88136506278E+03  0.13814146351E+04  0.16535993783E+04  0.50400001928E-02 0.  1.
</event>
<event>
 5   0  0.2640081E-07  0.2996208E+04  0.7818609E-02  0.8244815E-01
       -1   -1    0    0    0  501  0.00000000000E+00  0.00000000000E+00  0.10583081512E+04  0.10583081512E+04  0.50400001928E-02 0.  1.
        1   -1    0    0  501    0  0.00000000000E+00  0.00000000000E+00 -0.21206637319E+04  0.21206637319E+04  0.50400001928E-02 0. -1.
    10030    2    1    2    0    0  0.00000000000E+00  0.00000000000E+00 -0.10623555808E+04  0.31789718831E+04  0.29962080791E+04 0.  0.
        1    1    3    3  502    0 -0.78067842542E+03 -0.10568381202E+04  0.23240947249E+03  0.13343087270E+04  0.50400001928E-02 0.  1.
       -1    1    3    3    0  502  0.78067842542E+03  0.10568381202E+04 -0.12947650533E+04  0.18446631560E+04  0.50400001928E-02 0. -1.
</event>
<event>
 5   0  0.7278657E-07  0.3001563E+04  0.7818609E-02  0.8243285E-01
        2   -1    0    0  501    0  0.00000000000E+00  0.00000000000E+00  0.31038039238E+04  0.31038039238E+04  0.25500000920E-02 0. -1.
       -2   -1    0    0    0  501  0.00000000000E+00  0.00000000000E+00 -0.72567229063E+03  0.72567229064E+03  0.25500000920E-02 0.  1.
    10030    2    1    2    0    0  0.00000000000E+00  0.00000000000E+00  0.23781316332E+04  0.38294762145E+04  0.30015625951E+04 0.  0.
        2    1    3    3  502    0  0.68171966464E+02  0.12937880707E+04  0.21555079253E+04  0.25149054465E+04  0.25500000920E-02 0. -1.
       -2    1    3    3    0  502 -0.68171966464E+02 -0.12937880707E+04  0.22262370795E+03  0.13145707680E+04  0.25500000920E-02 0.  1.
</event>
<event>
 5   0  0.7399409E-07  0.3006097E+04  0.7818609E-02  0.8241992E-01
       -2   -1    0    0    0  501  0.00000000000E+00  0.00000000000E+00  0.17054994164E+04  0.17054994164E+04  0.25500000920E-02 0. -1.
        2   -1    0    0  501    0  0.00000000000E+00  0.00000000000E+00 -0.13246296615E+04  0.13246296615E+04  0.25500000920E-02 0.  1.
    10030    2    1    2    0    0  0.00000000000E+00  0.00000000000E+00  0.38086975483E+03  0.30301290779E+04  0.30060972138E+04 0.  0.
        3    1    3    3  502    0  0.84206210057E+03  0.12447295942E+04  0.21775804258E+03  0.15184989033E+04  0.10100000352E+00 0.  1.
       -3    1    3    3    0  502 -0.84206210057E+03 -0.12447295942E+04  0.16311171225E+03  0.15116301746E+04  0.10100000352E+00 0. -1.
</event>
<event>
 5   0  0.2640081E-07  0.2961595E+04  0.7818609E-02  0.8254783E-01
        1   -1    0    0  501    0  0.00000000000E+00  0.00000000000E+00  0.90846437702E+03  0.90846437704E+03  0.50400001928E-02 0. -1.
       -1   -1    0    0    0  501  0.00000000000E+00  0.00000000000E+00 -0.24137011357E+04  0.24137011357E+04  0.50400001928E-02 0.  1.
    10030    2    1    2    0    0  0.00000000000E+00  0.00000000000E+00 -0.15052367587E+04  0.33221655128E+04  0.29615951773E+04 0.  0.
        1    1    3    3  502    0 -0.16007354384E+03 -0.29531482806E+02  0.89839825185E+03  0.91302522795E+03  0.50400001928E-02 0. -1.
       -1    1    3    3    0  502  0.16007354384E+03  0.29531482806E+02 -0.24036350106E+04  0.24091402848E+04  0.50400001928E-02 0.  1.
</event>
<event>
 5   0  0.7208273E-07  0.2997969E+04  0.7818609E-02  0.8244311E-01
       -2   -1    0    0    0  501  0.00000000000E+00  0.00000000000E+00  0.12484206126E+04  0.12484206126E+04  0.25500000920E-02 0.  1.
        2   -1    0    0  501    0  0.00000000000E+00  0.00000000000E+00 -0.17998373187E+04  0.17998373187E+04  0.25500000920E-02 0. -1.
    10030    2    1    2    0    0  0.00000000000E+00  0.00000000000E+00 -0.55141670617E+03  0.30482579313E+04  0.29979686509E+04 0.  0.
        4    1    3    3  502    0 -0.13137941363E+04  0.27548480257E+03 -0.95398569214E+03  0.16468264094E+04  0.12699999809E+01 0. -1.
       -4    1    3    3    0  502  0.13137941363E+04 -0.27548480257E+03  0.40256898597E+03  0.14014315219E+04  0.12699999809E+01 0.  1.
</event>
<event>
 5   0  0.2414250E-07  0.3005727E+04  0.7818609E-02  0.8242097E-01
        3   -1    0    0  501    0  0.00000000000E+00  0.00000000000E+00  0.19602986753E+04  0.19602986779E+04  0.10100000352E+00 0.  1.
       -3   -1    0    0    0  501  0.00000000000E+00  0.00000000000E+00 -0.11521704549E+04  0.11521704593E+04  0.10100000352E+00 0. -1.
    10030    2    1    2    0    0  0.00000000000E+00  0.00000000000E+00  0.80812822037E+03  0.31124691372E+04  0.30057266858E+04 0.  0.
        4    1    3    3  502    0 -0.68240213678E+03  0.13157808897E+04  0.66116468353E+03  0.16229887177E+04  0.12699999809E+01 0.  1.
       -4    1    3    3    0  502  0.68240213678E+03 -0.13157808897E+04  0.14696353684E+03  0.14894804195E+04  0.12699999809E+01 0. -1.
</event>
<event>
 5   0  0.7585823E-07  0.3004249E+04  0.7818609E-02  0.8242518E-01
        2   -1    0    0  501    0  0.00000000000E+00  0.00000000000E+00  0.10481343660E+04  0.10481343660E+04  0.25500000920E-02 0.  1.
       -2   -1    0    0    0  501  0.00000000000E+00  0.00000000000E+00 -0.21527569538E+04  0.21527569538E+04  0.25500000920E-02 0. -1.
    10030    2    1    2    0    0  0.00000000000E+00  0.00000000000E+00 -0.11046225877E+04  0.32008913198E+04  0.30042493538E+04 0.  0.
        5    1    3    3  502    0  0.47048863927E+03 -0.25635905627E+03  0.94285104380E+03  0.10844674759E+04  0.46999998093E+01 0.  1.
       -5    1    3    3    0  502 -0.47048863927E+03  0.25635905627E+03 -0.20474736315E+04  0.21164238440E+04  0.46999998093E+01 0. -1.
</event>
<event>
 5   0  0.7208273E-07  0.2997206E+04  0.7818609E-02  0.8244529E-01
        2   -1    0    0  501    0  0.00000000000E+00  0.00000000000E+00  0.19878940568E+04  0.19878940568E+04  0.25500000920E-02 0. -1.
       -2   -1    0    0    0  501  0.00000000000E+00  0.00000000000E+00 -0.11297439966E+04  0.11297439966E+04  0.25500000920E-02 0.  1.
    10030    2    1    2    0    0  0.00000000000E+00  0.00000000000E+00  0.85815006020E+03  0.31176380535E+04  0.29972062836E+04 0.  0.
        4    1    3    3  502    0 -0.64022523649E+03 -0.10042111920E+04  0.13752863760E+04  0.18192698262E+04  0.12699999809E+01 0. -1.
       -4    1    3    3    0  502  0.64022523649E+03  0.10042111920E+04 -0.51713631575E+03  0.12983682273E+04  0.12699999809E+01 0.  1.
</event>
<event>
 5   0  0.7399409E-07  0.3005423E+04  0.7818609E-02  0.8242184E-01
        2   -1    0    0  501    0  0.00000000000E+00  0.00000000000E+00  0.24375919176E+04  0.24375919176E+04  0.25500000920E-02 0.  1.
       -2   -1    0    0    0  501  0.00000000000E+00  0.00000000000E+00 -0.92638202365E+03  0.92638202365E+03  0.25500000920E-02 0. -1.
    10030    2    1    2    0    0  0.00000000000E+00  0.00000000000E+00  0.15112098939E+04  0.33639739412E+04  0.30054226548E+04 0.  0.
        3    1    3    3  502    0  0.48875772991E+03  0.53811183700E+03  0.22276854574E+04  0.23432948972E+04  0.10100000352E+00 0.  1.
       -3    1    3    3    0  502 -0.48875772991E+03 -0.53811183700E+03 -0.71647556350E+03  0.10206790441E+04  0.10100000352E+00 0. -1.
</event>
<event>
 5   0  0.7399409E-07  0.3000025E+04  0.7818609E-02  0.8243724E-01
       -2   -1    0    0    0  501  0.00000000000E+00  0.00000000000E+00  0.86907436161E+03  0.86907436162E+03  0.25500000920E-02 0. -1.
        2   -1    0    0  501    0  0.00000000000E+00  0.00000000000E+00 -0.25890043420E+04  0.25890043420E+04  0.25500000920E-02 0.  1.
    10030    2    1    2    0    0  0.00000000000E+00  0.00000000000E+00 -0.17199299804E+04  0.34580787036E+04  0.30000248637E+04 0.  0.
        3    1    3    3  502    0  0.12148878836E+04 -0.62728856433E+03 -0.15710816583E+04  0.20827244417E+04  0.10100000352E+00 0.  1.
       -3    1    3    3    0  502 -0.12148878836E+04  0.62728856433E+03 -0.14884832208E+03  0.13753542619E+04  0.10100000352E+00 0. -1.
</event>
<event>
 5   0  0.7208273E-07  0.2996200E+04  0.7818609E-02  0.8244817E-01
        2   -1    0    0  501    0  0.00000000000E+00  0.00000000000E+00  0.19136347938E+04  0.19136347938E+04  0.25500000920E-02 0. -1.
       -2   -1    0    0    0  501  0.00000000000E+00  0.00000000000E+00 -0.11727960014E+04  0.11727960014E+04  0.25500000920E-02 0.  1.
    10030    2    1    2    0    0  0.00000000000E+00  0.00000000000E+00  0.74083879237E+03  0.30864307952E+04  0.29961997492E+04 0.  0.
        4    1    3    3  502    0  0.14928720130E+03  0.49495436924E+03 -0.10779954674E+04  0.11955510599E+04  0.12699999809E+01 0.  1.
       -4    1    3    3    0  502 -0.14928720130E+03 -0.49495436924E+03  0.18188342598E+04  0.18908797353E+04  0.12699999809E+01 0. -1.
</event>
<event>
 5   0  0.7399409E-07  0.2998818E+04  0.7818609E-02  0.8244069E-01
        2   -1    0    0  501    0  0.00000000000E+00  0.00000000000E+00  0.15617557371E+04  0.15617557371E+04  0.25500000920E-02 0.  1.
       -2   -1    0    0    0  501  0.00000000000E+00  0.00000000000E+00 -0.14395510529E+04  0.14395510529E+04  0.25500000920E-02 0. -1.
    10030    2    1    2    0    0  0.00000000000E+00  0.00000000000E+00  0.12220468425E+03  0.30013067900E+04  0.29988178443E+04 0.  0.
        3    1    3    3  502    0 -0.65892823550E+03 -0.86419593521E+03  0.10950164183E+04  0.15427514383E+04  0.10100000352E+00 0.  1.
       -3    1    3    3    0  502  0.65892823550E+03  0.86419593521E+03 -0.97281173401E+03  0.14585553517E+04  0.10100000352E+00 0. -1.
</event>
<event>
 5   0  0.2602891E-07  0.2998643E+04  0.7818609E-02  0.8244118E-01
        1   -1    0    0  501    0  0.00000000000E+00  0.00000000000E+00  0.12985543734E+04  0.12985543734E+04  0.50400001928E-02 0.  1.
       -1   -1    0    0    0  501  0.00000000000E+00  0.00000000000E+00 -0.17311290682E+04  0.17311290682E+04  0.50400001928E-02 0. -1.
    10030    2    1    2    0    0  0.00000000000E+00  0.00000000000E+00 -0.43257469478E+03  0.30296834416E+04  0.29986431748E+04 0.  0.
        5    1    3    3  502    0  0.79984238459E+03 -0.83415129347E+02  0.10622113807E+04  0.13322991523E+04  0.46999998093E+01 0.  1.
       -5    1    3    3    0  502 -0.79984238459E+03  0.83415129347E+02 -0.14947860755E+04  0.16973842893E+04  0.46999998093E+01 0. -1.
</event>
<event>
 5   0  0.7307508E-07  0.3025788E+04  0.7818609E-02  0.8236405E-01
       -2   -1    0    0    0  501  0.00000000000E+00  0.00000000000E+00  0.12875014219E+04  0.12875014219E+04  0.25500000920E-02 0.  1.
        2   -1    0    0  501    0  0.00000000000E+00  0.00000000000E+00 -0.17777445742E+04  0.17777445742E+04  0.25500000920E-02 0. -1.
    10030    2    1    2    0    0  0.00000000000E+00  0.00000000000E+00 -0.49024315229E+03  0.30652459961E+04  0.30257882722E+04 0.  0.
        1    1    3    3  502    0 -0.54348119996E+03  0.11012338859E+04 -0.11402509184E+04  0.16757863954E+04  0.50400001928E-02 0. -1.
       -1    1    3    3    0  502  0.54348119996E+03 -0.11012338859E+04  0.65000776608E+03  0.13894596007E+04  0.50400001928E-02 0.  1.
</event>
<event>
 5   0  0.2621825E-07  0.2997461E+04  0.7818609E-02  0.8244456E-01
        1   -1    0    0  501    0  0.00000000000E+00  0.00000000000E+00  0.16353086478E+04  0.16353086478E+04  0.50400001928E-02 0.  1.
       -1   -1    0    0    0  501  0.00000000000E+00  0.00000000000E+00 -0.13735592300E+04  0.13735592300E+04  0.50400001928E-02 0. -1.
    10030    2    1    2    0    0  0.00000000000E+00  0.00000000000E+00  0.26174941780E+03  0.30088678778E+04  0.29974611171E+04 0.  0.
        3    1    3    3  502    0  0.81985866585E+03 -0.87914803056E+03 -0.76758658606E+03  0.14262744017E+04  0.10100000352E+00 0. -1.
       -3    1    3    3    0  502 -0.81985866585E+03  0.87914803056E+03  0.10293360039E+04  0.15825934761E+04  0.10100000352E+00 0.  1.
</event>
<event>
 5   0  0.7208273E-07  0.2999124E+04  0.7818609E-02  0.8243981E-01
        2   -1    0    0  501    0  0.00000000000E+00  0.00000000000E+00  0.22743009241E+04  0.22743009241E+04  0.25500000920E-02 0.  1.
       -2   -1    0    0    0  501  0.00000000000E+00  0.00000000000E+00 -0.98873734009E+03  0.98873734009E+03  0.25500000920E-02 0. -1.
    10030    2    1    2    0    0  0.00000000000E+00  0.00000000000E+00  0.12855635840E+04  0.32630382641E+04  0.29991240363E+04 0.  0.
        4    1    3    3  502    0 -0.33083383257E+03  0.33866730392E+03 -0.90528862872E+03  0.10216142529E+04  0.12699999809E+01 0. -1.
       -4    1    3    3    0  502  0.33083383257E+03 -0.33866730392E+03  0.21908522127E+04  0.22414240113E+04  0.12699999809E+01 0.  1.
</event>
<event>
 5   0  0.7208273E-07  0.3022950E+04  0.7818609E-02  0.8237208E-01
       -2   -1    0    0    0  501  0.00000000000E+00  0.00000000000E+00  0.17076203162E+04  0.17076203162E+04  0.25500000920E-02 0.  1.
        2   -1    0    0  501    0  0.00000000000E+00  0.00000000000E+00 -0.13378601267E+04  0.13378601267E+04  0.25500000920E-02 0. -1.
    10030    2    1    2    0    0  0.00000000000E+00  0.00000000000E+00  0.36976018955E+03  0.30454804429E+04  0.30229503023E+04 0.  0.
        4    1    3    3  502    0  0.13642345463E+04 -0.58653621598E+03 -0.98990940816E+02  0.14882746552E+04  0.12699999809E+01 0. -1.
       -4    1    3    3    0  502 -0.13642345463E+04  0.58653621598E+03  0.46875113036E+03  0.15572057877E+04  0.12699999809E+01 0.  1.
</event>
<event>
 5   0  0.7208273E-07  0.2998558E+04  0.7818609E-02  0.8244143E-01
       -2   -1    0    0    0  501  0.00000000000E+00  0.00000000000E+00  0.15381310522E+04  0.15381310522E+04  0.25500000920E-02 0. -1.
        2   -1    0    0  501    0  0.00000000000E+00  0.00000000000E+00 -0.14614082063E+04  0.14614082063E+04  0.25500000920E-02 0.  1.
    10030    2    1    2    0    0  0.00000000000E+00  0.00000000000E+00  0.76722845941E+02  0.29995392585E+04  0.29985578815E+04 0.  0.
        4    1    3    3  502    0  0.11220668420E+04 -0.56887425063E+02 -0.95472003165E+03  0.14743683830E+04  0.12699999809E+01 0.  1.
       -4    1    3    3    0  502 -0.11220668420E+04  0.56887425063E+02  0.10314428776E+04  0.15251708756E+04  0.12699999809E+01 0. -1.
</event>
<event>
 5   0  0.7307508E-07  0.3000024E+04  0.7818609E-02  0.8243724E-01
       -2   -1    0    0    0  501  0.00000000000E+00  0.00000000000E+00  0.15660627207E+04  0.15660627207E+04  0.25500000920E-02 0.  1.
        2   -1    0    0  501    0  0.00000000000E+00  0.00000000000E+00 -0.14367471087E+04  0.14367471087E+04  0.25500000920E-02 0. -1.
    10030    2    1    2    0    0  0.00000000000E+00  0.00000000000E+00  0.12931561200E+03  0.30028098294E+04  0.30000240572E+04 0.  0.
        1    1    3    3  502    0  0.10312368476E+04  0.10892977310E+04  0.68797280763E+02  0.15015831806E+04  0.50400001928E-02 0.  1.
       -1    1    3    3    0  502 -0.10312368476E+04 -0.10892977310E+04  0.60518331235E+02  0.15012266488E+04  0.50400001928E-02 0. -1.
</event>
<event>
 5   0  0.2792361E-07  0.2999010E+04  0.7818609E-02  0.8244014E-01
        1   -1    0    0  501    0  0.00000000000E+00  0.00000000000E+00  0.15061971834E+04  0.15061971835E+04  0.50400001928E-02 0.  1.
       -1   -1    0    0    0  501  0.00000000000E+00  0.00000000000E+00 -0.14928422618E+04  0.14928422618E+04  0.50400001928E-02 0. -1.
    10030    2    1    2    0    0  0.00000000000E+00  0.00000000000E+00  0.13354921634E+02  0.29990394453E+04  0.29990097100E+04 0.  0.
        4    1    3    3  502    0  0.12849721610E+04  0.97130937126E+02 -0.76009302790E+03  0.14961052428E+04  0.12699999809E+01 0. -1.
       -4    1    3    3    0  502 -0.12849721610E+04 -0.97130937126E+02  0.77344794954E+03  0.15029342025E+04  0.12699999809E+01 0.  1.
</event>
<event>
 5   0  0.2602891E-07  0.3026528E+04  0.7818609E-02  0.8236196E-01
       -1   -1    0    0    0  501  0.00000000000E+00  0.00000000000E+00  0.14110716535E+04  0.14110716535E+04  0.50400001928E-02 0. -1.
        1   -1    0    0  501    0  0.00000000000E+00  0.00000000000E+00 -0.16228571387E+04  0.16228571387E+04  0.50400001928E-02 0.  1.
    10030    2    1    2    0    0  0.00000000000E+00  0.00000000000E+00 -0.21178548518E+03  0.30339287923E+04  0.30265278497E+04 0.  0.
        5    1    3    3  502    0  0.68982391790E+03  0.35006778701E+02 -0.14556112841E+04  0.16111824269E+04  0.46999998093E+01 0.  1.
       -5    1    3    3    0  502 -0.68982391790E+03 -0.35006778701E+02  0.12438257989E+04  0.14227463654E+04  0.46999998093E+01 0. -1.
</event>
<event>
 5   0  0.7208273E-07  0.2999858E+04  0.7818609E-02  0.8243771E-01
        2   -1    0    0  501    0  0.00000000000E+00  0.00000000000E+00  0.16742820601E+04  0.16742820601E+04  0.25500000920E-02 0. -1.
       -2   -1    0    0    0  501  0.00000000000E+00  0.00000000000E+00 -0.13437322946E+04  0.13437322946E+04  0.25500000920E-02 0.  1.
    10030    2    1    2    0    0  0.00000000000E+00  0.00000000000E+00  0.33054976558E+03  0.30180143547E+04  0.29998579129E+04 0.  0.
        4    1    3    3  502    0  0.12061391174E+04  0.62063790224E+03 -0.47877336265E+03  0.14384674212E+04  0.12699999809E+01 0.  1.
       -4    1    3    3    0  502 -0.12061391174E+04 -0.62063790224E+03  0.80932312822E+03  0.15795469335E+04  0.12699999809E+01 0. -1.
</event>
<event>
 5   0  0.7307508E-07  0.2998931E+04  0.7818609E-02  0.8244036E-01
        2   -1    0    0  501    0  0.00000000000E+00  0.00000000000E+00  0.14748424100E+04  0.14748424100E+04  0.25500000920E-02 0.  1.
       -2   -1    0    0    0  501  0.00000000000E+00  0.00000000000E+00 -0.15244996823E+04  0.15244996823E+04  0.25500000920E-02 0. -1.
    10030    2    1    2    0    0  0.00000000000E+00  0.00000000000E+00 -0.49657272256E+02  0.29993420923E+04  0.29989309999E+04 0.  0.
        1    1    3    3  502    0 -0.61081009409E+03 -0.78421253251E+03  0.10979643412E+04  0.14810820240E+04  0.50400001928E-02 0.  1.
       -1    1    3    3    0  502  0.61081009409E+03  0.78421253251E+03 -0.11476216135E+04  0.15182600683E+04  0.50400001928E-02 0. -1.
</event>
<event>
 5   0  0.7278657E-07  0.3006179E+04  0.7818609E-02  0.8241969E-01
       -2   -1    0    0    0  501  0.00000000000E+00  0.00000000000E+00  0.93919886129E+03  0.93919886129E+03  0.25500000920E-02 0.  1.
        2   -1    0    0  501    0  0.00000000000E+00  0.00000000000E+00 -0.24055382058E+04  0.24055382058E+04  0.25500000920E-02 0. -1.
    10030    2    1    2    0    0  0.00000000000E+00  0.00000000000E+00 -0.14663393445E+04  0.33447370671E+04  0.30061794648E+04 0.  0.
        2    1    3    3  502    0  0.10274239708E+04 -0.77612376208E+03 -0.15959426242E+04  0.20506099018E+04  0.25500000920E-02 0. -1.
       -2    1    3    3    0  502 -0.10274239708E+04  0.77612376208E+03  0.12960327961E+03  0.12941271653E+04  0.25500000920E-02 0.  1.
</event>
<event>
 5   0  0.7585823E-07  0.3001969E+04  0.7818609E-02  0.8243169E-01
       -2   -1    0    0    0  501  0.00000000000E+00  0.00000000000E+00  0.94215039288E+03  0.94215039289E+03  0.25500000920E-02 0.  1.
        2   -1    0    0  501    0  0.00000000000E+00  0.00000000000E+00 -0.23912892126E+04  0.23912892126E+04  0.25500000920E-02 0. -1.
    10030    2    1    2    0    0  0.00000000000E+00  0.00000000000E+00 -0.14491388198E+04  0.33334396055E+04  0.30019687348E+04 0.  0.
        5    1    3    3  502    0 -0.10320190645E+04  0.75206717832E+03  0.15136910326E+03  0.12859249922E+04  0.46999998093E+01 0.  1.
       -5    1    3    3    0  502  0.10320190645E+04 -0.75206717832E+03 -0.16005079230E+04  0.20475146133E+04  0.46999998093E+01 0. -1.
</event>
<event>
 5   0  0.7278657E-07  0.2998218E+04  0.7818609E-02  0.8244240E-01
       -2   -1    0    0    0  501  0.00000000000E+00  0.00000000000E+00  0.10606519978E+04  0.10606519978E+04  0.25500000920E-02 0. -1.
        2   -1    0    0  501    0  0.00000000000E+00  0.00000000000E+00 -0.21188170197E+04  0.21188170197E+04  0.25500000920E-02 0.  1.
    10030    2    1    2    0    0  0.00000000000E+00  0.00000000000E+00 -0.10581650219E+04  0.31794690174E+04  0.29982178072E+04 0.  0.
        2    1    3    3  502    0  0.55349026736E+03 -0.43823498183E+03 -0.19314994581E+04  0.20564755122E+04  0.25500000920E-02 0.  1.
       -2    1    3    3    0  502 -0.55349026736E+03  0.43823498183E+03  0.87333443625E+03  0.11229935053E+04  0.25500000920E-02 0. -1.
</event>
<event>
 5   0  0.2621825E-07  0.2998502E+04  0.7818609E-02  0.8244159E-01
        1   -1    0    0  501    0  0.00000000000E+00  0.00000000000E+00  0.17376721144E+04  0.17376721144E+04  0.50400001928E-02 0. -1.
       -1   -1    0    0    0  501  0.00000000000E+00  0.00000000000E+00 -0.12935432468E+04  0.12935432468E+04  0.50400001928E-02 0.  1.
    10030    2    1    2    0    0  0.00000000000E+00  0.00000000000E+00  0.44412886765E+03  0.30312153612E+04  0.29985023120E+04 0.  0.
        3    1    3    3  502    0  0.62087163871E+03  0.30910065420E+03 -0.11216203530E+04  0.13187331165E+04  0.10100000352E+00 0.  1.
       -3    1    3    3    0  502 -0.62087163871E+03 -0.30910065420E+03  0.15657492206E+04  0.17124822447E+04  0.10100000352E+00 0. -1.
</event>
<event>
 5   0  0.7307508E-07  0.2976995E+04  0.7818609E-02  0.8250331E-01
       -2   -1    0    0    0  501  0.00000000000E+00  0.00000000000E+00  0.16873289881E+04  0.16873289881E+04  0.25500000920E-02 0. -1.
        2   -1    0    0  501    0  0.00000000000E+00  0.00000000000E+00 -0.13130958330E+04  0.13130958330E+04  0.25500000920E-02 0.  1.
    10030    2    1    2    0    0  0.00000000000E+00  0.00000000000E+00  0.37423315513E+03  0.30004248211E+04  0.29769949031E+04 0.  0.
        1    1    3    3  502    0  0.12010817938E+04  0.87838698308E+03  0.22567332537E+03  0.15050214674E+04  0.50400001928E-02 0.  1.
       -1    1    3    3    0  502 -0.12010817938E+04 -0.87838698308E+03  0.14855982976E+03  0.14954033538E+04  0.50400001928E-02 0. -1.
</event>
<event>
 5   0  0.2679935E-07  0.2976755E+04  0.7818609E-02  0.8250400E-01
       -1   -1    0    0    0  501  0.00000000000E+00  0.00000000000E+00  0.10662186309E+04  0.10662186309E+04  0.50400001928E-02 0. -1.
        1   -1    0    0  501    0  0.00000000000E+00  0.00000000000E+00 -0.20776862045E+04  0.20776862045E+04  0.50400001928E-02 0.  1.
    10030    2    1    2    0    0  0.00000000000E+00  0.00000000000E+00 -0.10114675737E+04  0.31439048354E+04  0.29767551061E+04 0.  0.
        2    1    3    3  502    0 -0.27323990993E+03 -0.69947850322E+03  0.85146732930E+03  0.11353091375E+04  0.25500000920E-02 0. -1.
       -2    1    3    3    0  502  0.27323990993E+03  0.69947850322E+03 -0.18629349030E+04  0.20085956979E+04  0.25500000920E-02 0.  1.
</event>
<event>
 5   0  0.2792361E-07  0.2986024E+04  0.7818609E-02  0.8247733E-01
       -1   -1    0    0    0  501  0.00000000000E+00  0.00000000000E+00  0.14059275001E+04  0.14059275001E+04  0.50400001928E-02 0. -1.
        1   -1    0    0  501    0  0.00000000000E+00  0.00000000000E+00 -0.15854902357E+04  0.15854902358E+04  0.50400001928E-02 0.  1.
    10030    2    1    2    0    0  0.00000000000E+00  0.00000000000E+00 -0.17956273564E+03  0.29914177359E+04  0.29860236594E+04 0.  0.
        4    1    3    3  502    0 -0.49265415583E+02  0.11919955035E+04 -0.98906788944E+03  0.15496894090E+04  0.12699999809E+01 0.  1.
       -4    1    3    3    0  502  0.49265415583E+02 -0.11919955035E+04  0.80950515380E+03  0.14417283269E+04  0.12699999809E+01 0. -1.
</event>
<event>
 5   0  0.7399409E-07  0.2952862E+04  0.7818609E-02  0.8257321E-01
       -2   -1    0    0    0  501  0.00000000000E+00  0.00000000000E+00  0.11847683310E+04  0.11847683310E+04  0.25500000920E-02 0.  1.
        2   -1    0    0  501    0  0.00000000000E+00  0.00000000000E+00 -0.18398940401E+04  0.18398940401E+04  0.25500000920E-02 0. -1.
    10030    2    1    2    0    0  0.00000000000E+00  0.00000000000E+00 -0.65512570915E+03  0.30246623711E+04  0.29528617923E+04 0.  0.
        3    1    3    3  502    0  0.57719039932E+03 -0.27801775825E+03  0.10349715449E+04  0.12172135145E+04  0.10100000352E+00 0.  1.
       -3    1    3    3    0  502 -0.57719039932E+03  0.27801775825E+03 -0.16900972540E+04  0.18074488566E+04  0.10100000352E+00 0. -1.
</event>
<event>
 5   0  0.7585823E-07  0.3001128E+04  0.7818609E-02  0.8243409E-01
        2   -1    0    0  501    0  0.00000000000E+00  0.00000000000E+00  0.20798578140E+04  0.20798578140E+04  0.25500000920E-02 0. -1.
       -2   -1    0    0    0  501  0.00000000000E+00  0.00000000000E+00 -0.10826186063E+04  0.10826186063E+04  0.25500000920E-02 0.  1.
    10030    2    1    2    0    0  0.00000000000E+00  0.00000000000E+00  0.99723920772E+03  0.31624764203E+04  0.30011282997E+04 0.  0.
        5    1    3    3  502    0 -0.29312319442E+03  0.14716344324E+04  0.49182565130E+03  0.15790958397E+04  0.46999998093E+01 0.  1.
       -5    1    3    3    0  502  0.29312319442E+03 -0.14716344324E+04  0.50541355642E+03  0.15833805805E+04  0.46999998093E+01 0. -1.
</event>
<event>
 5   0  0.7585823E-07  0.2947738E+04  0.7818609E-02  0.8258814E-01
       -2   -1    0    0    0  501  0.00000000000E+00  0.00000000000E+00  0.90299147933E+03  0.90299147933E+03  0.25500000920E-02 0. -1.
        2   -1    0    0  501    0  0.00000000000E+00  0.00000000000E+00 -0.24056599167E+04  0.24056599167E+04  0.25500000920E-02 0.  1.
    10030    2    1    2    0    0  0.00000000000E+00  0.00000000000E+00 -0.15026684374E+04  0.33086513960E+04  0.29477383920E+04 0.  0.
        5    1    3    3  502    0  0.99730688020E+03  0.34585057032E+03 -0.19058823078E+04  0.21786792081E+04  0.46999998093E+01 0.  1.
       -5    1    3    3    0  502 -0.99730688020E+03 -0.34585057032E+03  0.40321387046E+03  0.11299721880E+04  0.46999998093E+01 0. -1.
</event>
<event>
 5   0  0.7307508E-07  0.2992284E+04  0.7818609E-02  0.8245938E-01
       -2   -1    0    0    0  501  0.00000000000E+00  0.00000000000E+00  0.11504721683E+04  0.11504721683E+04  0.25500000920E-02 0.  1.
        2   -1    0    0  501    0  0.00000000000E+00  0.00000000000E+00 -0.19456715225E+04  0.19456715225E+04  0.25500000920E-02 0. -1.
    10030    2    1    2    0    0  0.00000000000E+00  0.00000000000E+00 -0.79519935419E+03  0.30961436907E+04  0.29922840341E+04 0.  0.
        1    1    3    3  502    0 -0.10491733359E+04 -0.10660184400E+04 -0.36056732379E+03  0.15385606255E+04  0.50400001928E-02 0.  1.
       -1    1    3    3    0  502  0.10491733359E+04  0.10660184400E+04 -0.43463203040E+03  0.15575830652E+04  0.50400001928E-02 0. -1.
</event>
<event>
 5   0  0.2792361E-07  0.3003353E+04  0.7818609E-02  0.8242774E-01
        1   -1    0    0  501    0  0.00000000000E+00  0.00000000000E+00  0.15009394044E+04  0.15009394044E+04  0.50400001928E-02 0. -1.
       -1   -1    0    0    0  501  0.00000000000E+00  0.00000000000E+00 -0.15024144486E+04  0.15024144486E+04  0.50400001928E-02 0.  1.
    10030    2    1    2    0    0  0.00000000000E+00  0.00000000000E+00 -0.14750441417E+01  0.30033538530E+04  0.30033534908E+04 0.  0.
        4    1    3    3  502    0  0.14176938878E+04  0.11357580238E+02  0.49428423459E+03  0.15014338053E+04  0.12699999809E+01 0. -1.
       -4    1    3    3    0  502 -0.14176938878E+04 -0.11357580238E+02 -0.49575927873E+03  0.15019200477E+04  0.12699999809E+01 0.  1.
</event>
<event>
 5   0  0.2414250E-07  0.2990022E+04  0.7818609E-02  0.8246586E-01
        3   -1    0    0  501    0  0.00000000000E+00  0.00000000000E+00  0.30567736130E+04  0.30567736147E+04  0.10100000352E+00 0. -1.
       -3   -1    0    0    0  501  0.00000000000E+00  0.00000000000E+00 -0.73118210156E+03  0.73118210854E+03  0.10100000352E+00 0.  1.
    10030    2    1    2    0    0  0.00000000000E+00  0.00000000000E+00  0.23255915115E+04  0.37879557232E+04  0.29900221877E+04 0.  0.
        4    1    3    3  502    0 -0.36986969194E+03  0.14088191832E+04  0.15895648627E+04  0.21559900616E+04  0.12699999809E+01 0. -1.
       -4    1    3    3    0  502  0.36986969194E+03 -0.14088191832E+04  0.73602664872E+03  0.16319656616E+04  0.12699999809E+01 0.  1.
</event>
<event>
 5   0  0.7585823E-07  0.3005384E+04  0.7818609E-02  0.8242195E-01
        2   -1    0    0  501    0  0.00000000000E+00  0.00000000000E+00  0.15259128584E+04  0.15259128584E+04  0.25500000920E-02 0. -1.
       -2   -1    0    0    0  501  0.00000000000E+00  0.00000000000E+00 -0.14798246540E+04  0.14798246540E+04  0.25500000920E-02 0.  1.
    10030    2    1    2    0    0  0.00000000000E+00  0.00000000000E+00  0.46088204378E+02  0.30057375124E+04  0.30053841470E+04 0.  0.
        5    1    3    3  502    0  0.80377181438E+03  0.23251645152E+03  0.12713688711E+04  0.15220098312E+04  0.46999998093E+01 0. -1.
       -5    1    3    3    0  502 -0.80377181438E+03 -0.23251645152E+03 -0.12252806667E+04  0.14837276812E+04  0.46999998093E+01 0.  1.
</event>
<event>
 5   0  0.7278657E-07  0.3004677E+04  0.7818609E-02  0.8242397E-01
        2   -1    0    0  501    0  0.00000000000E+00  0.00000000000E+00  0.12197068016E+04  0.12197068016E+04  0.25500000920E-02 0.  1.
       -2   -1    0    0    0  501  0.00000000000E+00  0.00000000000E+00 -0.18504623136E+04  0.18504623136E+04  0.25500000920E-02 0. -1.
    10030    2    1    2    0    0  0.00000000000E+00  0.00000000000E+00 -0.63075551205E+03  0.30701691152E+04  0.30046773337E+04 0.  0.
        2    1    3    3  502    0 -0.12721220341E+04 -0.22976709870E+01 -0.11319982982E+04  0.17028563933E+04  0.25500000920E-02 0. -1.
       -2    1    3    3    0  502  0.12721220341E+04  0.22976709870E+01  0.50124278616E+03  0.13673127219E+04  0.25500000920E-02 0.  1.
</event>
<event>
 5   0  0.7399409E-07  0.3000302E+04  0.7818609E-02  0.8243645E-01
       -2   -1    0    0    0  501  0.00000000000E+00  0.00000000000E+00  0.11447493686E+04  0.11447493686E+04  0.25500000920E-02 0.  1.
        2   -1    0    0  501    0  0.00000000000E+00  0.00000000000E+00 -0.19658912649E+04  0.19658912649E+04  0.25500000920E-02 0. -1.
    10030    2    1    2    0    0  0.00000000000E+00  0.00000000000E+00 -0.82114189634E+03  0.31106406335E+04  0.30003018409E+04 0.  0.
        3    1    3    3  502    0 -0.57838136678E+03  0.13491260239E+04 -0.89694686455E+02  0.14706159188E+04  0.10100000352E+00 0.  1.
       -3    1    3    3    0  502  0.57838136678E+03 -0.13491260239E+04 -0.73144720989E+03  0.16400247147E+04  0.10100000352E+00 0. -1.
</event>
<event>
 5   0  0.2640081E-07  0.2997999E+04  0.7818609E-02  0.8244303E-01
        1   -1    0    0  501    0  0.00000000000E+00  0.00000000000E+00  0.13700615596E+04  0.13700615597E+04  0.50400001928E-02 0.  1.
       -1   -1    0    0    0  501  0.00000000000E+00  0.00000000000E+00 -0.16400716213E+04  0.16400716213E+04  0.50400001928E-02 0. -1.
    10030    2    1    2    0    0  0.00000000000E+00  0.00000000000E+00 -0.27001006162E+03  0.30101331809E+04  0.29979987214E+04 0.  0.
        1    1    3    3  502    0  0.11349176937E+04  0.73937478408E+03  0.50968874550E+03  0.14472373199E+04  0.50400001928E-02 0.  1.
       -1    1    3    3    0  502 -0.11349176937E+04 -0.73937478408E+03 -0.77969880712E+03  0.15628958611E+04  0.50400001928E-02 0. -1.
</event>
<event>
 5   0  0.7399409E-07  0.3007066E+04  0.7818609E-02  0.8241716E-01
        2   -1    0    0  501    0  0.00000000000E+00  0.00000000000E+00  0.14862341081E+04  0.14862341081E+04  0.25500000920E-02 0.  1.
       -2   -1    0    0    0  501  0.00000000000E+00  0.00000000000E+00 -0.15210333726E+04  0.15210333726E+04  0.25500000920E-02 0. -1.
    10030    2    1    2    0    0  0.00000000000E+00  0.00000000000E+00 -0.34799264549E+02  0.30072674807E+04  0.30070661302E+04 0.  0.
        3    1    3    3  502    0  0.11035456211E+04  0.99313208872E+03  0.22028702955E+03  0.15008832963E+04  0.10100000352E+00 0.  1.
       -3    1    3    3    0  502 -0.11035456211E+04 -0.99313208872E+03 -0.25508629410E+03  0.15063841844E+04  0.10100000352E+00 0. -1.
</event>
<event>
 5   0  0.7585823E-07  0.2998243E+04  0.7818609E-02  0.8244233E-01
       -2   -1    0    0    0  501  0.00000000000E+00  0.00000000000E+00  0.10598796818E+04  0.10598796818E+04  0.25500000920E-02 0. -1.
        2   -1    0    0  501    0  0.00000000000E+00  0.00000000000E+00 -0.21203970096E+04  0.21203970096E+04  0.25500000920E-02 0.  1.
    10030    2    1    2    0    0  0.00000000000E+00  0.00000000000E+00 -0.10605173277E+04  0.31802766914E+04  0.29982432909E+04 0.  0.
        5    1    3    3  502    0  0.26319691322E+03 -0.14367930593E+04 -0.88791998768E+03  0.17094065944E+04  0.46999998093E+01 0.  1.
       -5    1    3    3    0  502 -0.26319691322E+03  0.14367930593E+04 -0.17259734007E+03  0.14708700970E+04  0.46999998093E+01 0. -1.
</event>
<event>
 5   0  0.2640081E-07  0.3010328E+04  0.7818609E-02  0.8240788E-01
       -1   -1    0    0    0  501  0.00000000000E+00  0.00000000000E+00  0.16987272349E+04  0.16987272349E+04  0.50400001928E-02 0. -1.
        1   -1    0    0  501    0  0.00000000000E+00  0.00000000000E+00 -0.13336566787E+04  0.13336566788E+04  0.50400001928E-02 0.  1.
    10030    2    1    2    0    0  0.00000000000E+00  0.00000000000E+00  0.36507055618E+03  0.30323839137E+04  0.30103281696E+04 0.  0.
        1    1    3    3  502    0 -0.10368736905E+04  0.10135505352E+04  0.58938452103E+03  0.15651727863E+04  0.50400001928E-02 0. -1.
       -1    1    3    3    0  502  0.10368736905E+04 -0.10135505352E+04 -0.22431396485E+03  0.14672111274E+04  0.50400001928E-02 0.  1.
</event>
<event>
 5   0  0.2679935E-07  0.2999981E+04  0.7818609E-02  0.8243736E-01
        1   -1    0    0  501    0  0.00000000000E+00  0.00000000000E+00  0.17039057517E+04  0.17039057517E+04  0.50400001928E-02 0. -1.
       -1   -1    0    0    0  501  0.00000000000E+00  0.00000000000E+00 -0.13204784504E+04  0.13204784504E+04  0.50400001928E-02 0.  1.
    10030    2    1    2    0    0  0.00000000000E+00  0.00000000000E+00  0.38342730132E+03  0.30243842021E+04  0.29999805510E+04 0.  0.
        2    1    3    3  502    0  0.22952989259E+03 -0.25175591842E+02  0.16858810450E+04  0.17016206040E+04  0.25500000920E-02 0. -1.
       -2    1    3    3    0  502 -0.22952989259E+03  0.25175591842E+02 -0.13024537437E+04  0.13227635981E+04  0.25500000920E-02 0.  1.
</event>
<event>
 5   0  0.7208273E-07  0.3004979E+04  0.7818609E-02  0.8242311E-01
       -2   -1    0    0    0  501  0.00000000000E+00  0.00000000000E+00  0.83223752778E+03  0.83223752779E+03  0.25500000920E-02 0.  1.
        2   -1    0    0  501    0  0.00000000000E+00  0.00000000000E+00 -0.27125357683E+04  0.27125357683E+04  0.25500000920E-02 0. -1.
    10030    2    1    2    0    0  0.00000000000E+00  0.00000000000E+00 -0.18802982405E+04  0.35447732961E+04  0.30049785769E+04 0.  0.
        4    1    3    3  502    0 -0.14107779398E+04 -0.61403885795E+02 -0.33472286733E+03  0.14512428617E+04  0.12699999809E+01 0.  1.
       -4    1    3    3    0  502  0.14107779398E+04  0.61403885795E+02 -0.15455753732E+04  0.20935304344E+04  0.12699999809E+01 0. -1.
</event>
<event>
 5   0  0.7208273E-07  0.2998285E+04  0.7818609E-02  0.8244221E-01
       -2   -1    0    0    0  501  0.00000000000E+00  0.00000000000E+00  0.11363605609E+04  0.11363605609E+04  0.25500000920E-02 0.  1.
        2   -1    0    0  501    0  0.00000000000E+00  0.00000000000E+00 -0.19777427038E+04  0.19777427038E+04  0.25500000920E-02 0. -1.
    10030    2    1    2    0    0  0.00000000000E+00  0.00000000000E+00 -0.84138214290E+03  0.31141032646E+04  0.29982853821E+04 0.  0.
        4    1    3    3  502    0  0.83208923370E+02  0.10170787635E+04  0.71993545091E+03  0.12488721321E+04  0.12699999809E+01 0.  1.
       -4    1    3    3    0  502 -0.83208923370E+02 -0.10170787635E+04 -0.15613175938E+04  0.18652311325E+04  0.12699999809E+01 0. -1.
</event>
<event>
 5   0  0.7278657E-07  0.3009601E+04  0.7818609E-02  0.8240995E-01
       -2   -1    0    0    0  501  0.00000000000E+00  0.00000000000E+00  0.10870402214E+04  0.10870402214E+04  0.25500000920E-02 0.  1.
        2   -1    0    0  501    0  0.00000000000E+00  0.00000000000E+00 -0.20831104962E+04  0.20831104962E+04  0.25500000920E-02 0. -1.
    10030    2    1    2    0    0  0.00000000000E+00  0.00000000000E+00 -0.99607027484E+03  0.31701507176E+04  0.30096012327E+04 0.  0.
        2    1    3    3  502    0  0.65724461635E+03  0.11070720918E+04  0.32252445510E+03  0.13272532262E+04  0.25500000920E-02 0.  1.
       -2    1    3    3    0  502 -0.65724461635E+03 -0.11070720918E+04 -0.13185947299E+04  0.18428974915E+04  0.25500000920E-02 0. -1.
</event>
<event>
 5   0  0.7307508E-07  0.2992319E+04  0.7818609E-02  0.8245928E-01
       -2   -1    0    0    0  501  0.00000000000E+00  0.00000000000E+00  0.72161676365E+03  0.72161676365E+03  0.25500000920E-02 0. -1.
        2   -1    0    0  501    0  0.00000000000E+00  0.00000000000E+00 -0.31020536394E+04  0.31020536394E+04  0.25500000920E-02 0.  1.
    10030    2    1    2    0    0  0.00000000000E+00  0.00000000000E+00 -0.23804368757E+04  0.38236704030E+04  0.29923194401E+04 0.  0.
        1    1    3    3  502    0  0.76783929629E+03  0.12467796696E+03  0.44289016108E+03  0.89513880219E+03  0.50400001928E-02 0. -1.
       -1    1    3    3    0  502 -0.76783929629E+03 -0.12467796696E+03 -0.28233270368E+04  0.29285316008E+04  0.50400001928E-02 0.  1.
</event>
<event>
 5   0  0.7208273E-07  0.3009500E+04  0.7818609E-02  0.8241023E-01
        2   -1    0    0  501    0  0.00000000000E+00  0.00000000000E+00  0.27555425498E+04  0.27555425498E+04  0.25500000920E-02 0. -1.
       -2   -1    0    0    0  501  0.00000000000E+00  0.00000000000E+00 -0.82171559359E+03  0.82171559359E+03  0.25500000920E-02 0.  1.
    10030    2    1    2    0    0  0.00000000000E+00  0.00000000000E+00  0.19338269562E+04  0.35772581434E+04  0.30094998136E+04 0.  0.
        4    1    3    3  502    0 -0.11168995512E+04  0.67673895576E+03  0.78334590349E+02  0.13082729618E+04  0.12699999809E+01 0.  1.
       -4    1    3    3    0  502  0.11168995512E+04 -0.67673895576E+03  0.18554923658E+04  0.22689851816E+04  0.12699999809E+01 0. -1.
</event>
<event>
 5   0  0.7399409E-07  0.2998888E+04  0.7818609E-02  0.8244049E-01
        2   -1    0    0  501    0  0.00000000000E+00  0.00000000000E+00  0.24455189086E+04  0.24455189086E+04  0.25500000920E-02 0. -1.
       -2   -1    0    0    0  501  0.00000000000E+00  0.00000000000E+00 -0.91936802397E+03  0.91936802397E+03  0.25500000920E-02 0.  1.
    10030    2    1    2    0    0  0.00000000000E+00  0.00000000000E+00  0.15261508846E+04  0.33648869326E+04  0.29988877182E+04 0.  0.
        3    1    3    3  502    0 -0.89966611234E+03 -0.88835663612E+03 -0.14137581859E+03  0.12722278722E+04  0.10100000352E+00 0. -1.
       -3    1    3    3    0  502  0.89966611234E+03  0.88835663612E+03  0.16675267032E+04  0.20926590603E+04  0.10100000352E+00 0.  1.
</event>
<event>
 5   0  0.2621825E-07  0.3002942E+04  0.7818609E-02  0.8242891E-01
       -1   -1    0    0    0  501  0.00000000000E+00  0.00000000000E+00  0.17869490490E+04  0.17869490491E+04  0.50400001928E-02 0. -1.
        1   -1    0    0  501    0  0.00000000000E+00  0.00000000000E+00 -0.12616002524E+04  0.12616002524E+04  0.50400001928E-02 0.  1.
    10030    2    1    2    0    0  0.00000000000E+00  0.00000000000E+00  0.52534879667E+03  0.30485493014E+04  0.30029421382E+04 0.  0.
        3    1    3    3  502    0  0.26107562695E+03 -0.10103990820E+04 -0.83323381836E+03  0.13354195574E+04  0.10100000352E+00 0.  1.
       -3    1    3    3    0  502 -0.26107562695E+03  0.10103990820E+04  0.13585826150E+04  0.17131297441E+04  0.10100000352E+00 0. -1.
</event>
<event>
 5   0  0.2621825E-07  0.3028363E+04  0.7818609E-02  0.8235678E-01
       -1   -1    0    0    0  501  0.00000000000E+00  0.00000000000E+00  0.21370670752E+04  0.21370670752E+04  0.50400001928E-02 0. -1.
        1   -1    0    0  501    0  0.00000000000E+00  0.00000000000E+00 -0.10728469242E+04  0.10728469242E+04  0.50400001928E-02 0.  1.
    10030    2    1    2    0    0  0.00000000000E+00  0.00000000000E+00  0.10642201510E+04  0.32099139994E+04  0.30283631476E+04 0.  0.
        3    1    3    3  502    0  0.10407495989E+04 -0.10896899277E+04  0.37431641603E+03  0.15526418311E+04  0.10100000352E+00 0. -1.
       -3    1    3    3    0  502 -0.10407495989E+04  0.10896899277E+04  0.68990373499E+03  0.16572721683E+04  0.10100000352E+00 0.  1.
</event>
<event>
 5   0  0.2792361E-07  0.3020573E+04  0.7818609E-02  0.8237880E-01
       -1   -1    0    0    0  501  0.00000000000E+00  0.00000000000E+00  0.18668407003E+04  0.18668407003E+04  0.50400001928E-02 0. -1.
        1   -1    0    0  501    0  0.00000000000E+00  0.00000000000E+00 -0.12218316853E+04  0.12218316854E+04  0.50400001928E-02 0.  1.
    10030    2    1    2    0    0  0.00000000000E+00  0.00000000000E+00  0.64500901495E+03  0.30886723857E+04  0.30205728723E+04 0.  0.
        4    1    3    3  502    0  0.95599824954E+03  0.60900678315E+03 -0.69806611830E+03  0.13312099134E+04  0.12699999809E+01 0.  1.
       -4    1    3    3    0  502 -0.95599824954E+03 -0.60900678315E+03  0.13430751333E+04  0.17574624723E+04  0.12699999809E+01 0. -1.
</event>
<event>
 5   0  0.2640081E-07  0.2997345E+04  0.7818609E-02  0.8244489E-01
       -1   -1    0    0    0  501  0.00000000000E+00  0.00000000000E+00  0.12764326962E+04  0.12764326962E+04  0.50400001928E-02 0. -1.
        1   -1    0    0  501    0  0.00000000000E+00  0.00000000000E+00 -0.17596069322E+04  0.17596069322E+04  0.50400001928E-02 0.  1.
    10030    2    1    2    0    0  0.00000000000E+00  0.00000000000E+00 -0.48317423596E+03  0.30360396284E+04  0.29973453727E+04 0.  0.
        1    1    3    3  502    0 -0.62015205171E+03  0.13221270183E+04 -0.58270069526E+03  0.15723067512E+04  0.50400001928E-02 0. -1.
       -1    1    3    3    0  502  0.62015205171E+03 -0.13221270183E+04  0.99526459305E+02  0.14637328772E+04  0.50400001928E-02 0.  1.
</event>
<event>
 5   0  0.7307508E-07  0.3002491E+04  0.7818609E-02  0.8243020E-01
       -2   -1    0    0    0  501  0.00000000000E+00  0.00000000000E+00  0.14669734836E+04  0.14669734836E+04  0.25500000920E-02 0.  1.
        2   -1    0    0  501    0  0.00000000000E+00  0.00000000000E+00 -0.15363185720E+04  0.15363185720E+04  0.25500000920E-02 0. -1.
    10030    2    1    2    0    0  0.00000000000E+00  0.00000000000E+00 -0.69345088452E+02  0.30032920556E+04  0.30024913705E+04 0.  0.
        1    1    3    3  502    0 -0.76825082618E+03 -0.12650126464E+04 -0.28627944094E+03  0.15074555535E+04  0.50400001928E-02 0. -1.
       -1    1    3    3    0  502  0.76825082618E+03  0.12650126464E+04  0.21693435249E+03  0.14958365020E+04  0.50400001928E-02 0.  1.
</event>
<event>
 5   0  0.7208273E-07  0.2999619E+04  0.7818609E-02  0.8243840E-01
        2   -1    0    0  501    0  0.00000000000E+00  0.00000000000E+00  0.72467508081E+03  0.72467508082E+03  0.25500000920E-02 0.  1.
       -2   -1    0    0    0  501  0.00000000000E+00  0.00000000000E+00 -0.31040503251E+04  0.31040503251E+04  0.25500000920E-02 0. -1.
    10030    2    1    2    0    0  0.00000000000E+00  0.00000000000E+00 -0.23793752443E+04  0.38287254060E+04  0.29996185892E+04 0.  0.
        4    1    3    3  502    0 -0.17984338382E+03  0.83963505917E+03  0.37987198369E+03  0.93895421198E+03  0.12699999809E+01 0.  1.
       -4    1    3    3    0  502  0.17984338382E+03 -0.83963505917E+03 -0.27592472280E+04  0.28897711940E+04  0.12699999809E+01 0. -1.
</event>
<event>
 5   0  0.7278657E-07  0.3002163E+04  0.7818609E-02  0.8243114E-01
        2   -1    0    0  501    0  0.00000000000E+00  0.00000000000E+00  0.14742168191E+04  0.14742168191E+04  0.25500000920E-02 0.  1.
       -2   -1    0    0    0  501  0.00000000000E+00  0.00000000000E+00 -0.15284353587E+04  0.15284353587E+04  0.25500000920E-02 0. -1.
    10030    2    1    2    0    0  0.00000000000E+00  0.00000000000E+00 -0.54218539567E+02  0.30026521777E+04  0.30021626289E+04 0.  0.
        2    1    3    3  502    0  0.13431698176E+04  0.42165211194E+03 -0.54810634549E+03  0.15107336722E+04  0.25500000920E-02 0. -1.
       -2    1    3    3    0  502 -0.13431698176E+04 -0.42165211194E+03  0.49388780592E+03  0.14919185055E+04  0.25500000920E-02 0.  1.
</event>
<event>
 5   0  0.2602891E-07  0.2986324E+04  0.7818609E-02  0.8247647E-01
        1   -1    0    0  501    0  0.00000000000E+00  0.00000000000E+00  0.15273878128E+04  0.15273878128E+04  0.50400001928E-02 0. -1.
       -1   -1    0    0    0  501  0.00000000000E+00  0.00000000000E+00 -0.14597028557E+04  0.14597028557E+04  0.50400001928E-02 0.  1.
    10030    2    1    2    0    0  0.00000000000E+00  0.00000000000E+00  0.67684957176E+02  0.29870906685E+04  0.29863237280E+04 0.  0.
        5    1    3    3  502    0  0.85064360059E+03  0.34043924672E+03 -0.11454500633E+04  0.14668235591E+04  0.46999998093E+01 0.  1.
       -5    1    3    3    0  502 -0.85064360059E+03 -0.34043924672E+03  0.12131350205E+04  0.15202671094E+04  0.46999998093E+01 0. -1.
</event>
<event>
 5   0  0.2621825E-07  0.2994685E+04  0.7818609E-02  0.8245250E-01
       -1   -1    0    0    0  501  0.00000000000E+00  0.00000000000E+00  0.13928794666E+04  0.13928794666E+04  0.50400001928E-02 0.  1.
        1   -1    0    0  501    0  0.00000000000E+00  0.00000000000E+00 -0.16096402826E+04  0.16096402826E+04  0.50400001928E-02 0. -1.
    10030    2    1    2    0    0  0.00000000000E+00  0.00000000000E+00 -0.21676081600E+03  0.30025197492E+04  0.29946852244E+04 0.  0.
        3    1    3    3  502    0 -0.24112978170E+02 -0.10775060399E+04  0.93377827563E+03  0.14260233448E+04  0.10100000352E+00 0.  1.
       -3    1    3    3    0  502  0.24112978170E+02  0.10775060399E+04 -0.11505390916E+04  0.15764964044E+04  0.10100000352E+00 0. -1.
</event>
<event>
 5   0  0.7307508E-07  0.2999857E+04  0.7818609E-02  0.8243772E-01
       -2   -1    0    0    0  501  0.00000000000E+00  0.00000000000E+00  0.10919301045E+04  0.10919301045E+04  0.25500000920E-02 0.  1.
        2   -1    0    0  501    0  0.00000000000E+00  0.00000000000E+00 -0.20603754143E+04  0.20603754143E+04  0.25500000920E-02 0. -1.
    10030    2    1    2    0    0  0.00000000000E+00  0.00000000000E+00 -0.96844530981E+03  0.31523055188E+04  0.29998572909E+04 0.  0.
        1    1    3    3  502    0 -0.82059869172E+03  0.12140582995E+04 -0.14785210309E+03  0.14728136378E+04  0.50400001928E-02 0.  1.
       -1    1    3    3    0  502  0.82059869172E+03 -0.12140582995E+04 -0.82059320672E+03  0.16794918810E+04  0.50400001928E-02 0. -1.
</event>
<event>
 5   0  0.2792361E-07  0.3003568E+04  0.7818609E-02  0.8242713E-01
       -1   -1    0    0    0  501  0.00000000000E+00  0.00000000000E+00  0.11897784446E+04  0.11897784446E+04  0.50400001928E-02 0. -1.
        1   -1    0    0  501    0  0.00000000000E+00  0.00000000000E+00 -0.18956089398E+04  0.18956089398E+04  0.50400001928E-02 0.  1.
    10030    2    1    2    0    0  0.00000000000E+00  0.00000000000E+00 -0.70583049526E+03  0.30853873844E+04  0.30035676493E+04 0.  0.
        4    1    3    3  502    0 -0.69685948973E+02  0.47889598740E+03 -0.18133163434E+04  0.18767832246E+04  0.12699999809E+01 0.  1.
       -4    1    3    3    0  502  0.69685948973E+02 -0.47889598740E+03  0.11074858481E+04  0.12086041597E+04  0.12699999809E+01 0. -1.
</event>
<event>
 5   0  0.2621825E-07  0.2998902E+04  0.7818609E-02  0.8244044E-01
        1   -1    0    0  501    0  0.00000000000E+00  0.00000000000E+00  0.10959378225E+04  0.10959378225E+04  0.50400001928E-02 0. -1.
       -1   -1    0    0    0  501  0.00000000000E+00  0.00000000000E+00 -0.20515341115E+04  0.20515341115E+04  0.50400001928E-02 0.  1.
    10030    2    1    2    0    0  0.00000000000E+00  0.00000000000E+00 -0.95559628904E+03  0.31474719340E+04  0.29989023504E+04 0.  0.
        3    1    3    3  502    0 -0.92642756200E+03 -0.80184192130E+03  0.42939378098E+03  0.12983056357E+04  0.10100000352E+00 0. -1.
       -3    1    3    3    0  502  0.92642756200E+03  0.80184192130E+03 -0.13849900700E+04  0.18491662983E+04  0.10100000352E+00 0.  1.
</event>
<event>
 5   0  0.2640081E-07  0.3002201E+04  0.7818609E-02  0.8243103E-01
       -1   -1    0    0    0  501  0.00000000000E+00  0.00000000000E+00  0.10529126023E+04  0.10529126023E+04  0.50400001928E-02 0.  1.
        1   -1    0    0  501    0  0.00000000000E+00  0.00000000000E+00 -0.21400663391E+04  0.21400663391E+04  0.50400001928E-02 0. -1.
    10030    2    1    2    0    0  0.00000000000E+00  0.00000000000E+00 -0.10871537367E+04  0.31929789414E+04  0.30022010714E+04 0.  0.
        1    1    3    3  502    0 -0.11835089256E+04  0.89128930456E+02  0.43388235777E+03  0.12636816227E+04  0.50400001928E-02 0.  1.
       -1    1    3    3    0  502  0.11835089256E+04 -0.89128930456E+02 -0.15210360945E+04  0.19292973187E+04  0.50400001928E-02 0. -1.
</event>
<event>
 5   0  0.2602891E-07  0.3004033E+04  0.7818609E-02  0.8242580E-01
       -1   -1    0    0    0  501  0.00000000000E+00  0.00000000000E+00  0.12480413444E+04  0.12480413444E+04  0.50400001928E-02 0.  1.
        1   -1    0    0  501    0  0.00000000000E+00  0.00000000000E+00 -0.18076755453E+04  0.18076755453E+04  0.50400001928E-02 0. -1.
    10030    2    1    2    0    0  0.00000000000E+00  0.00000000000E+00 -0.55963420092E+03  0.30557168897E+04  0.30040331674E+04 0.  0.
        5    1    3    3  502    0 -0.14789250171E+04  0.11582716819E+03 -0.40402902368E+02  0.14840113287E+04  0.46999998093E+01 0.  1.
       -5    1    3    3    0  502  0.14789250171E+04 -0.11582716819E+03 -0.51923129855E+03  0.15717055610E+04  0.46999998093E+01 0. -1.
</event>
<event>
 5   0  0.2621825E-07  0.2981973E+04  0.7818609E-02  0.8248897E-01
       -1   -1    0    0    0  501  0.00000000000E+00  0.00000000000E+00  0.12028865706E+04  0.12028865706E+04  0.50400001928E-02 0. -1.
        1   -1    0    0  501    0  0.00000000000E+00  0.00000000000E+00 -0.18480889170E+04  0.18480889170E+04  0.50400001928E-02 0.  1.
    10030    2    1    2    0    0  0.00000000000E+00  0.00000000000E+00 -0.64520234643E+03  0.30509754877E+04  0.29819734000E+04 0.  0.
        3    1    3    3  502    0  0.55218111403E+03 -0.39572955840E+02 -0.17390387729E+04  0.18250276341E+04  0.10100000352E+00 0.  1.
       -3    1    3    3    0  502 -0.55218111403E+03  0.39572955840E+02  0.10938364265E+04  0.12259478535E+04  0.10100000352E+00 0. -1.
</event>
<event>
 5   0  0.7208273E-07  0.2994951E+04  0.7818609E-02  0.8245174E-01
        2   -1    0    0  501    0  0.00000000000E+00  0.00000000000E+00  0.20409719752E+04  0.20409719752E+04  0.25500000920E-02 0. -1.
       -2   -1    0    0    0  501  0.00000000000E+00  0.00000000000E+00 -0.10987082195E+04  0.10987082195E+04  0.25500000920E-02 0.  1.
    10030    2    1    2    0    0  0.00000000000E+00  0.00000000000E+00  0.94226375571E+03  0.31396801946E+04  0.29949508743E+04 0.  0.
        4    1    3    3  502    0  0.10421379655E+04  0.32630454758E+03 -0.60303235293E+03  0.12474677665E+04  0.12699999809E+01 0.  1.
       -4    1    3    3    0  502 -0.10421379655E+04 -0.32630454758E+03  0.15452961086E+04  0.18922124281E+04  0.12699999809E+01 0. -1.
</event>
<event>
 5   0  0.7307508E-07  0.3008176E+04  0.7818609E-02  0.8241400E-01
        2   -1    0    0  501    0  0.00000000000E+00  0.00000000000E+00  0.20460704748E+04  0.20460704748E+04  0.25500000920E-02 0. -1.
       -2   -1    0    0    0  501  0.00000000000E+00  0.00000000000E+00 -0.11056706834E+04  0.11056706835E+04  0.25500000920E-02 0.  1.
    10030    2    1    2    0    0  0.00000000000E+00  0.00000000000E+00  0.94039979131E+03  0.31517411582E+04  0.30081756200E+04 0.  0.
        1    1    3    3  502    0  0.10532700139E+04 -0.86009572048E+03  0.11436335347E+04  0.17768061325E+04  0.50400001928E-02 0. -1.
       -1    1    3    3    0  502 -0.10532700139E+04  0.86009572048E+03 -0.20323374340E+03  0.13749350258E+04  0.50400001928E-02 0.  1.
</event>
<event>
 5   0  0.2792361E-07  0.3001466E+04  0.7818609E-02  0.8243312E-01
        1   -1    0    0  501    0  0.00000000000E+00  0.00000000000E+00  0.13663780823E+04  0.13663780823E+04  0.50400001928E-02 0.  1.
       -1   -1    0    0    0  501  0.00000000000E+00  0.00000000000E+00 -0.16482993801E+04  0.16482993801E+04  0.50400001928E-02 0. -1.
    10030    2    1    2    0    0  0.00000000000E+00  0.00000000000E+00 -0.28192129784E+03  0.30146774624E+04  0.30014664057E+04 0.  0.
        4    1    3    3  502    0 -0.25431977753E+03  0.16085449154E+03  0.13357643799E+04  0.13692409606E+04  0.12699999809E+01 0.  1.
       -4    1    3    3    0  502  0.25431977753E+03 -0.16085449154E+03 -0.16176856777E+04  0.16454365018E+04  0.12699999809E+01 0. -1.
</event>
<event>
 5   0  0.7585823E-07  0.2969046E+04  0.7818609E-02  0.8252626E-01
        2   -1    0    0  501    0  0.00000000000E+00  0.00000000000E+00  0.13889564709E+04  0.13889564709E+04  0.25500000920E-02 0.  1.
       -2   -1    0    0    0  501  0.00000000000E+00  0.00000000000E+00 -0.15866649814E+04  0.15866649814E+04  0.25500000920E-02 0. -1.
    10030    2    1    2    0    0  0.00000000000E+00  0.00000000000E+00 -0.19770851054E+03  0.29756214523E+04  0.29690460374E+04 0.  0.
        5    1    3    3  502    0  0.86520876994E+03 -0.87542045437E+03  0.73294727037E+03  0.14325435346E+04  0.46999998093E+01 0.  1.
       -5    1    3    3    0  502 -0.86520876994E+03  0.87542045437E+03 -0.93065578091E+03  0.15430779177E+04  0.46999998093E+01 0. -1.
</event>
<event>
 5   0  0.2792361E-07  0.3003840E+04  0.7818609E-02  0.8242635E-01
        1   -1    0    0  501    0  0.00000000000E+00  0.00000000000E+00  0.19452599592E+04  0.19452599592E+04  0.50400001928E-02 0. -1.
       -1   -1    0    0    0  501  0.00000000000E+00  0.00000000000E+00 -0.11596206086E+04  0.11596206086E+04  0.50400001928E-02 0.  1.
    10030    2    1    2    0    0  0.00000000000E+00  0.00000000000E+00  0.78563935063E+03  0.31048805678E+04  0.30038399010E+04 0.  0.
        4    1    3    3  502    0 -0.37900043067E+03 -0.14462578929E+04  0.54066486334E+03  0.15898500956E+04  0.12699999809E+01 0.  1.
       -4    1    3    3    0  502  0.37900043067E+03  0.14462578929E+04  0.24497448729E+03  0.15150304722E+04  0.12699999809E+01 0. -1.
</event>
<event>
 5   0  0.2640081E-07  0.3012749E+04  0.7818609E-02  0.8240100E-01
        1   -1    0    0  501    0  0.00000000000E+00  0.00000000000E+00  0.23138454983E+04  0.23138454983E+04  0.50400001928E-02 0.  1.
       -1   -1    0    0    0  501  0.00000000000E+00  0.00000000000E+00 -0.98068963509E+03  0.98068963510E+03  0.50400001928E-02 0. -1.
    10030    2    1    2    0    0  0.00000000000E+00  0.00000000000E+00  0.13331558632E+04  0.32945351334E+04  0.30127491083E+04 0.  0.
        1    1    3    3  502    0  0.58961311972E+03 -0.13766057611E+04  0.48864039532E+03  0.15752639425E+04  0.50400001928E-02 0.  1.
       -1    1    3    3    0  502 -0.58961311972E+03  0.13766057611E+04  0.84451546790E+03  0.17192711909E+04  0.50400001928E-02 0. -1.
</event>
<event>
 5   0  0.2640081E-07  0.3071172E+04  0.7818609E-02  0.8223694E-01
        1   -1    0    0  501    0  0.00000000000E+00  0.00000000000E+00  0.16899675227E+04  0.16899675228E+04  0.50400001928E-02 0.  1.
       -1   -1    0    0    0  501  0.00000000000E+00  0.00000000000E+00 -0.13953073511E+04  0.13953073511E+04  0.50400001928E-02 0. -1.
    10030    2    1    2    0    0  0.00000000000E+00  0.00000000000E+00  0.29466017164E+03  0.30852748739E+04  0.30711718334E+04 0.  0.
        1    1    3    3  502    0 -0.13752144718E+04  0.85630488780E+02 -0.53362973098E+03  0.14776021501E+04  0.50400001928E-02 0. -1.
       -1    1    3    3    0  502  0.13752144718E+04 -0.85630488780E+02  0.82828990263E+03  0.16076727238E+04  0.50400001928E-02 0.  1.
</event>
<event>
 5   0  0.2621825E-07  0.3000729E+04  0.7818609E-02  0.8243523E-01
       -1   -1    0    0    0  501  0.00000000000E+00  0.00000000000E+00  0.12291544744E+04  0.12291544744E+04  0.50400001928E-02 0. -1.
        1   -1    0    0  501    0  0.00000000000E+00  0.00000000000E+00 -0.18314167096E+04  0.18314167096E+04  0.50400001928E-02 0.  1.
    10030    2    1    2    0    0  0.00000000000E+00  0.00000000000E+00 -0.60226223527E+03  0.30605711840E+04  0.30007292734E+04 0.  0.
        3    1    3    3  502    0  0.33367037003E+03 -0.13977812831E+04 -0.74096833976E+03  0.16168371971E+04  0.10100000352E+00 0. -1.
       -3    1    3    3    0  502 -0.33367037003E+03  0.13977812831E+04  0.13870610448E+03  0.14437339869E+04  0.10100000352E+00 0.  1.
</event>
<event>
 5   0  0.7585823E-07  0.3003911E+04  0.7818609E-02  0.8242615E-01
        2   -1    0    0  501    0  0.00000000000E+00  0.00000000000E+00  0.17787150072E+04  0.17787150072E+04  0.25500000920E-02 0. -1.
       -2   -1    0    0    0  501  0.00000000000E+00  0.00000000000E+00 -0.12682587618E+04  0.12682587618E+04  0.25500000920E-02 0.  1.
    10030    2    1    2    0    0  0.00000000000E+00  0.00000000000E+00  0.51045624545E+03  0.30469737690E+04  0.30039113786E+04 0.  0.
        5    1    3    3  502    0 -0.26319275147E+03  0.85901240846E+03  0.14760919918E+04  0.17280168982E+04  0.46999998093E+01 0. -1.
       -5    1    3    3    0  502  0.26319275147E+03 -0.85901240846E+03 -0.96563574634E+03  0.13189568708E+04  0.46999998093E+01 0.  1.
</event>
<event>
 5   0  0.7307508E-07  0.2996526E+04  0.7818609E-02  0.8244724E-01
        2   -1    0    0  501    0  0.00000000000E+00  0.00000000000E+00  0.16533189354E+04  0.16533189354E+04  0.25500000920E-02 0.  1.
       -2   -1    0    0    0  501  0.00000000000E+00  0.00000000000E+00 -0.13577488983E+04  0.13577488983E+04  0.25500000920E-02 0. -1.
    10030    2    1    2    0    0  0.00000000000E+00  0.00000000000E+00  0.29557003714E+03  0.30110678337E+04  0.29965259639E+04 0.  0.
        1    1    3    3  502    0 -0.56886738798E+03  0.70663760966E+03  0.13459831675E+04  0.16231504871E+04  0.50400001928E-02 0.  1.
       -1    1    3    3    0  502  0.56886738798E+03 -0.70663760966E+03 -0.10504131304E+04  0.13879173466E+04  0.50400001928E-02 0. -1.
</event>
<event>
 5   0  0.2792361E-07  0.2999633E+04  0.7818609E-02  0.8243836E-01
       -1   -1    0    0    0  501  0.00000000000E+00  0.00000000000E+00  0.14891728625E+04  0.14891728625E+04  0.50400001928E-02 0.  1.
        1   -1    0    0  501    0  0.00000000000E+00  0.00000000000E+00 -0.15105364697E+04  0.15105364697E+04  0.50400001928E-02 0. -1.
    10030    2    1    2    0    0  0.00000000000E+00  0.00000000000E+00 -0.21363607211E+02  0.29997093323E+04  0.29996332566E+04 0.  0.
        4    1    3    3  502    0 -0.10005909580E+04 -0.26382620517E+03  0.10750076365E+04  0.14921225027E+04  0.12699999809E+01 0.  1.
       -4    1    3    3    0  502  0.10005909580E+04  0.26382620517E+03 -0.10963712437E+04  0.15075868295E+04  0.12699999809E+01 0. -1.
</event>
<event>
 5   0  0.2621825E-07  0.2997000E+04  0.7818609E-02  0.8244588E-01
        1   -1    0    0  501    0  0.00000000000E+00  0.00000000000E+00  0.19303601690E+04  0.19303601690E+04  0.50400001928E-02 0. -1.
       -1   -1    0    0    0  501  0.00000000000E+00  0.00000000000E+00 -0.11632557925E+04  0.11632557925E+04  0.50400001928E-02 0.  1.
    10030    2    1    2    0    0  0.00000000000E+00  0.00000000000E+00  0.76710437654E+03  0.30936159615E+04  0.29970002657E+04 0.  0.
        3    1    3    3  502    0  0.98737175392E+03  0.44648960629E+03  0.14519287817E+04  0.18117265650E+04  0.10100000352E+00 0. -1.
       -3    1    3    3    0  502 -0.98737175392E+03 -0.44648960629E+03 -0.68482440512E+03  0.12818893966E+04  0.10100000352E+00 0.  1.
</event>
<event>
 5   0  0.7585823E-07  0.2993185E+04  0.7818609E-02  0.8245680E-01
       -2   -1    0    0    0  501  0.00000000000E+00  0.00000000000E+00  0.12336522219E+04  0.12336522219E+04  0.25500000920E-02 0. -1.
        2   -1    0    0  501    0  0.00000000000E+00  0.00000000000E+00 -0.18155756610E+04  0.18155756610E+04  0.25500000920E-02 0.  1.
    10030    2    1    2    0    0  0.00000000000E+00  0.00000000000E+00 -0.58192343915E+03  0.30492278829E+04  0.29931848912E+04 0.  0.
        5    1    3    3  502    0  0.83212823644E+03 -0.14706974050E+03 -0.15492811526E+04  0.17647552494E+04  0.46999998093E+01 0.  1.
       -5    1    3    3    0  502 -0.83212823644E+03  0.14706974050E+03  0.96735771344E+03  0.12844726335E+04  0.46999998093E+01 0. -1.
</event>
<event>
 5   0  0.2621825E-07  0.3001140E+04  0.7818609E-02  0.8243405E-01
       -1   -1    0    0    0  501  0.00000000000E+00  0.00000000000E+00  0.13538217863E+04  0.13538217863E+04  0.50400001928E-02 0. -1.
        1   -1    0    0  501    0  0.00000000000E+00  0.00000000000E+00 -0.16632255035E+04  0.16632255035E+04  0.50400001928E-02 0.  1.
    10030    2    1    2    0    0  0.00000000000E+00  0.00000000000E+00 -0.30940371715E+03  0.30170472898E+04  0.30011403980E+04 0.  0.
        3    1    3    3  502    0 -0.12348356292E+04 -0.71125507670E+03  0.31790486591E+03  0.14600569610E+04  0.10100000352E+00 0. -1.
       -3    1    3    3    0  502  0.12348356292E+04  0.71125507670E+03 -0.62730858307E+03  0.15569903288E+04  0.10100000352E+00 0.  1.
</event>
<event>
 5   0  0.2621825E-07  0.2997705E+04  0.7818609E-02  0.8244387E-01
       -1   -1    0    0    0  501  0.00000000000E+00  0.00000000000E+00  0.13667655211E+04  0.13667655211E+04  0.50400001928E-02 0.  1.
        1   -1    0    0  501    0  0.00000000000E+00  0.00000000000E+00 -0.16437046673E+04  0.16437046674E+04  0.50400001928E-02 0. -1.
    10030    2    1    2    0    0  0.00000000000E+00  0.00000000000E+00 -0.27693914630E+03  0.30104701884E+04  0.29977050330E+04 0.  0.
        3    1    3    3  502    0  0.19251668356E+03 -0.80612285338E+03 -0.13926519591E+04  0.16206098289E+04  0.10100000352E+00 0. -1.
       -3    1    3    3    0  502 -0.19251668356E+03  0.80612285338E+03  0.11157128128E+04  0.13898603595E+04  0.10100000352E+00 0.  1.
</event>
<event>
 5   0  0.7208273E-07  0.3000752E+04  0.7818609E-02  0.8243516E-01
        2   -1    0    0  501    0  0.00000000000E+00  0.00000000000E+00  0.16671326639E+04  0.16671326639E+04  0.25500000920E-02 0. -1.
       -2   -1    0    0    0  501  0.00000000000E+00  0.00000000000E+00 -0.13502991677E+04  0.13502991677E+04  0.25500000920E-02 0.  1.
    10030    2    1    2    0    0  0.00000000000E+00  0.00000000000E+00  0.31683349615E+03  0.30174318316E+04  0.30007518048E+04 0.  0.
        4    1    3    3  502    0 -0.60615590890E+03  0.20742939911E+03 -0.12058392288E+04  0.13654676123E+04  0.12699999809E+01 0.  1.
       -4    1    3    3    0  502  0.60615590890E+03 -0.20742939911E+03  0.15226727250E+04  0.16519642193E+04  0.12699999809E+01 0. -1.
</event>
<event>
 5   0  0.7278657E-07  0.2993017E+04  0.7818609E-02  0.8245728E-01
        2   -1    0    0  501    0  0.00000000000E+00  0.00000000000E+00  0.14733414948E+04  0.14733414948E+04  0.25500000920E-02 0. -1.
       -2   -1    0    0    0  501  0.00000000000E+00  0.00000000000E+00 -0.15200398012E+04  0.15200398012E+04  0.25500000920E-02 0.  1.
    10030    2    1    2    0    0  0.00000000000E+00  0.00000000000E+00 -0.46698306429E+02  0.29933812961E+04  0.29930170150E+04 0.  0.
        2    1    3    3  502    0 -0.12957952657E+04  0.55594109980E+03 -0.52479010805E+03  0.15045133880E+04  0.25500000920E-02 0.  1.
       -2    1    3    3    0  502  0.12957952657E+04 -0.55594109980E+03  0.47809180163E+03  0.14888679081E+04  0.25500000920E-02 0. -1.
</event>
<event>
 5   0  0.2679935E-07  0.2997742E+04  0.7818609E-02  0.8244376E-01
       -1   -1    0    0    0  501  0.00000000000E+00  0.00000000000E+00  0.15952894549E+04  0.15952894550E+04  0.50400001928E-02 0. -1.
        1   -1    0    0  501    0  0.00000000000E+00  0.00000000000E+00 -0.14082798270E+04  0.14082798270E+04  0.50400001928E-02 0.  1.
    10030    2    1    2    0    0  0.00000000000E+00  0.00000000000E+00  0.18700962793E+03  0.30035692820E+04  0.29977417885E+04 0.  0.
        2    1    3    3  502    0 -0.14398292204E+04  0.24635330482E+03  0.43003842077E+03  0.15227380530E+04  0.25500000920E-02 0.  1.
       -2    1    3    3    0  502  0.14398292204E+04 -0.24635330482E+03 -0.24302879284E+03  0.14808312290E+04  0.25500000920E-02 0. -1.
</event>
<event>
 5   0  0.7278657E-07  0.3000132E+04  0.7818609E-02  0.8243693E-01
        2   -1    0    0  501    0  0.00000000000E+00  0.00000000000E+00  0.21647239502E+04  0.21647239502E+04  0.25500000920E-02 0.  1.
       -2   -1    0    0    0  501  0.00000000000E+00  0.00000000000E+00 -0.10394850650E+04  0.10394850650E+04  0.25500000920E-02 0. -1.
    10030    2    1    2    0    0  0.00000000000E+00  0.00000000000E+00  0.11252388852E+04  0.32042090153E+04  0.30001321412E+04 0.  0.
        2    1    3    3  502    0 -0.11073735176E+03  0.12566693200E+04  0.14294418170E+04  0.19065110671E+04  0.25500000920E-02 0.  1.
       -2    1    3    3    0  502  0.11073735176E+03 -0.12566693200E+04 -0.30420293174E+03  0.12976979481E+04  0.25500000920E-02 0. -1.
</event>
<event>
 5   0  0.2679935E-07  0.3002140E+04  0.7818609E-02  0.8243120E-01
       -1   -1    0    0    0  501  0.00000000000E+00  0.00000000000E+00  0.76457262858E+03  0.76457262860E+03  0.50400001928E-02 0.  1.
        1   -1    0    0  501    0  0.00000000000E+00  0.00000000000E+00 -0.29470205555E+04  0.29470205555E+04  0.50400001928E-02 0. -1.
    10030    2    1    2    0    0  0.00000000000E+00  0.00000000000E+00 -0.21824479269E+04  0.37115931841E+04  0.30021400718E+04 0.  0.
        2    1    3    3  502    0  0.13441035614E+03  0.69094331488E+03 -0.27303299521E+04  0.28196046630E+04  0.25500000920E-02 0. -1.
       -2    1    3    3    0  502 -0.13441035614E+03 -0.69094331488E+03  0.54788202520E+03  0.89198852109E+03  0.25500000920E-02 0.  1.
</event>
<event>
 5   0  0.2640081E-07  0.2999511E+04  0.7818609E-02  0.8243871E-01
        1   -1    0    0  501    0  0.00000000000E+00  0.00000000000E+00  0.17365945860E+04  0.17365945860E+04  0.50400001928E-02 0. -1.
       -1   -1    0    0    0  501  0.00000000000E+00  0.00000000000E+00 -0.12952166477E+04  0.12952166477E+04  0.50400001928E-02 0.  1.
    10030    2    1    2    0    0  0.00000000000E+00  0.00000000000E+00  0.44137793837E+03  0.30318112337E+04  0.29995107722E+04 0.  0.
        1    1    3    3  502    0  0.11923078967E+04  0.90208065056E+03  0.10144141820E+03  0.14985452886E+04  0.50400001928E-02 0. -1.
       -1    1    3    3    0  502 -0.11923078967E+04 -0.90208065056E+03  0.33993652017E+03  0.15332659451E+04  0.50400001928E-02 0.  1.
</event>
<event>
 5   0  0.7278657E-07  0.2996322E+04  0.7818609E-02  0.8244782E-01
        2   -1    0    0  501    0  0.00000000000E+00  0.00000000000E+00  0.11448542225E+04  0.11448542225E+04  0.25500000920E-02 0. -1.
       -2   -1    0    0    0  501  0.00000000000E+00  0.00000000000E+00 -0.19604999708E+04  0.19604999708E+04  0.25500000920E-02 0.  1.
    10030    2    1    2    0    0  0.00000000000E+00  0.00000000000E+00 -0.81564574828E+03  0.31053541933E+04  0.29963221922E+04 0.  0.
        2    1    3    3  502    0  0.45530379945E+03  0.31678326240E+02 -0.18866958955E+04  0.19411147489E+04  0.25500000920E-02 0.  1.
       -2    1    3    3    0  502 -0.45530379945E+03 -0.31678326240E+02  0.10710501472E+04  0.11642394444E+04  0.25500000920E-02 0. -1.
</event>
<event>
 5   0  0.7208273E-07  0.2985037E+04  0.7818609E-02  0.8248017E-01
       -2   -1    0    0    0  501  0.00000000000E+00  0.00000000000E+00  0.98327661259E+03  0.98327661259E+03  0.25500000920E-02 0. -1.
        2   -1    0    0  501    0  0.00000000000E+00  0.00000000000E+00 -0.22654982585E+04  0.22654982585E+04  0.25500000920E-02 0.  1.
    10030    2    1    2    0    0  0.00000000000E+00  0.00000000000E+00 -0.12822216459E+04  0.32487748711E+04  0.29850369870E+04 0.  0.
        4    1    3    3  502    0  0.84987132209E+02 -0.13778662641E+04 -0.12585742238E+04  0.18680869745E+04  0.12699999809E+01 0.  1.
       -4    1    3    3    0  502 -0.84987132209E+02  0.13778662641E+04 -0.23647422116E+02  0.13806878966E+04  0.12699999809E+01 0. -1.
</event>
<event>
 5   0  0.7307508E-07  0.2993909E+04  0.7818609E-02  0.8245472E-01
        2   -1    0    0  501    0  0.00000000000E+00  0.00000000000E+00  0.23685054778E+04  0.23685054778E+04  0.25500000920E-02 0.  1.
       -2   -1    0    0    0  501  0.00000000000E+00  0.00000000000E+00 -0.94611274036E+03  0.94611274037E+03  0.25500000920E-02 0. -1.
    10030    2    1    2    0    0  0.00000000000E+00  0.00000000000E+00  0.14223927374E+04  0.33146182182E+04  0.29939092893E+04 0.  0.
        1    1    3    3  502    0 -0.11536765719E+04  0.35044303116E+03  0.16934145556E+04  0.20788056205E+04  0.50400001928E-02 0.  1.
       -1    1    3    3    0  502  0.11536765719E+04 -0.35044303116E+03 -0.27102181816E+03  0.12358125977E+04  0.50400001928E-02 0. -1.
</event>
<event>
 5   0  0.7307508E-07  0.3013399E+04  0.7818609E-02  0.8239915E-01
        2   -1    0    0  501    0  0.00000000000E+00  0.00000000000E+00  0.17089126301E+04  0.17089126301E+04  0.25500000920E-02 0. -1.
       -2   -1    0    0    0  501  0.00000000000E+00  0.00000000000E+00 -0.13284136670E+04  0.13284136670E+04  0.25500000920E-02 0.  1.
    10030    2    1    2    0    0  0.00000000000E+00  0.00000000000E+00  0.38049896313E+03  0.30373262971E+04  0.30133986749E+04 0.  0.
        1    1    3    3  502    0 -0.29495360807E+03 -0.11220149608E+04 -0.77875178639E+03  0.13972721811E+04  0.50400001928E-02 0.  1.
       -1    1    3    3    0  502  0.29495360807E+03  0.11220149608E+04  0.11592507495E+04  0.16400541160E+04  0.50400001928E-02 0. -1.
</event>
<event>
 5   0  0.2679935E-07  0.2990949E+04  0.7818609E-02  0.8246320E-01
       -1   -1    0    0    0  501  0.00000000000E+00  0.00000000000E+00  0.15514877939E+04  0.15514877939E+04  0.50400001928E-02 0. -1.
        1   -1    0    0  501    0  0.00000000000E+00  0.00000000000E+00 -0.14414832040E+04  0.14414832040E+04  0.50400001928E-02 0.  1.
    10030    2    1    2    0    0  0.00000000000E+00  0.00000000000E+00  0.11000458988E+03  0.29929709979E+04  0.29909487432E+04 0.  0.
        2    1    3    3  502    0  0.85048245140E+03 -0.42726747056E+03 -0.10992791135E+04  0.14540606799E+04  0.25500000920E-02 0.  1.
       -2    1    3    3    0  502 -0.85048245140E+03  0.42726747056E+03  0.12092837034E+04  0.15389103180E+04  0.25500000920E-02 0. -1.
</event>
<event>
 5   0  0.2679935E-07  0.2990482E+04  0.7818609E-02  0.8246454E-01
       -1   -1    0    0    0  501  0.00000000000E+00  0.00000000000E+00  0.12482380980E+04  0.12482380980E+04  0.50400001928E-02 0. -1.
        1   -1    0    0  501    0  0.00000000000E+00  0.00000000000E+00 -0.17911214436E+04  0.17911214436E+04  0.50400001928E-02 0.  1.
    10030    2    1    2    0    0  0.00000000000E+00  0.00000000000E+00 -0.54288334560E+03  0.30393595417E+04  0.29904822515E+04 0.  0.
        2    1    3    3  502    0 -0.81567686387E+03  0.12208556151E+04 -0.55877937689E+03  0.15710033645E+04  0.25500000920E-02 0.  1.
       -2    1    3    3    0  502  0.81567686387E+03 -0.12208556151E+04  0.15896031291E+02  0.14683561772E+04  0.25500000920E-02 0. -1.
</event>
<event>
 5   0  0.7307508E-07  0.2999704E+04  0.7818609E-02  0.8243816E-01
       -2   -1    0    0    0  501  0.00000000000E+00  0.00000000000E+00  0.15256576540E+04  0.15256576540E+04  0.25500000920E-02 0.  1.
        2   -1    0    0  501    0  0.00000000000E+00  0.00000000000E+00 -0.14744825173E+04  0.14744825173E+04  0.25500000920E-02 0. -1.
    10030    2    1    2    0    0  0.00000000000E+00  0.00000000000E+00  0.51175136613E+02  0.30001401713E+04  0.29997036775E+04 0.  0.
        1    1    3    3  502    0  0.86857822535E+03  0.18308561018E+03  0.12347329105E+04  0.15206951813E+04  0.50400001928E-02 0.  1.
       -1    1    3    3    0  502 -0.86857822535E+03 -0.18308561018E+03 -0.11835577739E+04  0.14794449900E+04  0.50400001928E-02 0. -1.
</event>
<event>
 5   0  0.7585823E-07  0.3007697E+04  0.7818609E-02  0.8241536E-01
        2   -1    0    0  501    0  0.00000000000E+00  0.00000000000E+00  0.13149885134E+04  0.13149885134E+04  0.25500000920E-02 0.  1.
       -2   -1    0    0    0  501  0.00000000000E+00  0.00000000000E+00 -0.17198333026E+04  0.17198333026E+04  0.25500000920E-02 0. -1.
    10030    2    1    2    0    0  0.00000000000E+00  0.00000000000E+00 -0.40484478928E+03  0.30348218160E+04  0.30076974834E+04 0.  0.
        5    1    3    3  502    0  0.69834815019E+03 -0.72242791910E+02  0.11394694473E+04  0.13384027313E+04  0.46999998093E+01 0.  1.
       -5    1    3    3    0  502 -0.69834815019E+03  0.72242791910E+02 -0.15443142365E+04  0.16964190847E+04  0.46999998093E+01 0. -1.
</event>
<event>
 5   0  0.7208273E-07  0.3004500E+04  0.7818609E-02  0.8242447E-01
        2   -1    0    0  501    0  0.00000000000E+00  0.00000000000E+00  0.17082976333E+04  0.17082976333E+04  0.25500000920E-02 0.  1.
       -2   -1    0    0    0  501  0.00000000000E+00  0.00000000000E+00 -0.13210552361E+04  0.13210552361E+04  0.25500000920E-02 0. -1.
    10030    2    1    2    0    0  0.00000000000E+00  0.00000000000E+00  0.38724239713E+03  0.30293528694E+04  0.30045003134E+04 0.  0.
        4    1    3    3  502    0  0.46258611469E+03  0.56825876324E+03 -0.11286571728E+04  0.13456494945E+04  0.12699999809E+01 0. -1.
       -4    1    3    3    0  502 -0.46258611469E+03 -0.56825876324E+03  0.15158995700E+04  0.16837033749E+04  0.12699999809E+01 0.  1.
</event>
<event>
 5   0  0.2640081E-07  0.2998069E+04  0.7818609E-02  0.8244282E-01
        1   -1    0    0  501    0  0.00000000000E+00  0.00000000000E+00  0.12812666736E+04  0.12812666736E+04  0.50400001928E-02 0.  1.
       -1   -1    0    0    0  501  0.00000000000E+00  0.00000000000E+00 -0.17538151281E+04  0.17538151281E+04  0.50400001928E-02 0. -1.
    10030    2    1    2    0    0  0.00000000000E+00  0.00000000000E+00 -0.47254845449E+03  0.30350818017E+04  0.29980692956E+04 0.  0.
        1    1    3    3  502    0  0.52542963120E+03 -0.91321130080E+03  0.84322675285E+03  0.13494675002E+04  0.50400001928E-02 0.  1.
       -1    1    3    3    0  502 -0.52542963120E+03  0.91321130080E+03 -0.13157752073E+04  0.16856143015E+04  0.50400001928E-02 0. -1.
</event>
<event>
 5   0  0.7399409E-07  0.3002132E+04  0.7818609E-02  0.8243122E-01
       -2   -1    0    0    0  501  0.00000000000E+00  0.00000000000E+00  0.15087920818E+04  0.15087920818E+04  0.25500000920E-02 0. -1.
        2   -1    0    0  501    0  0.00000000000E+00  0.00000000000E+00 -0.14933792847E+04  0.14933792847E+04  0.25500000920E-02 0.  1.
    10030    2    1    2    0    0  0.00000000000E+00  0.00000000000E+00  0.15412797066E+02  0.30021713666E+04  0.30021318025E+04 0.  0.
        3    1    3    3  502    0  0.12751647302E+04 -0.10539401021E+03 -0.77718982424E+03  0.14970561178E+04  0.10100000352E+00 0.  1.
       -3    1    3    3    0  502 -0.12751647302E+04  0.10539401021E+03  0.79260262131E+03  0.15051152488E+04  0.10100000352E+00 0. -1.
</event>
<event>
 5   0  0.7307508E-07  0.2995701E+04  0.7818609E-02  0.8244960E-01
       -2   -1    0    0    0  501  0.00000000000E+00  0.00000000000E+00  0.12503035625E+04  0.12503035625E+04  0.25500000920E-02 0. -1.
        2   -1    0    0  501    0  0.00000000000E+00  0.00000000000E+00 -0.17944091090E+04  0.17944091090E+04  0.25500000920E-02 0.  1.
    10030    2    1    2    0    0  0.00000000000E+00  0.00000000000E+00 -0.54410554647E+03  0.30447126715E+04  0.29957009875E+04 0.  0.
        1    1    3    3  502    0 -0.72568270078E+03 -0.10931409294E+04 -0.10063574476E+04  0.16535802932E+04  0.50400001928E-02 0.  1.
       -1    1    3    3    0  502  0.72568270078E+03  0.10931409294E+04  0.46225190115E+03  0.13911323783E+04  0.50400001928E-02 0. -1.
</event>
<event>
 5   0  0.2792361E-07  0.2991332E+04  0.7818609E-02  0.8246210E-01
       -1   -1    0    0    0  501  0.00000000000E+00  0.00000000000E+00  0.19676352491E+04  0.19676352491E+04  0.50400001928E-02 0. -1.
        1   -1    0    0  501    0  0.00000000000E+00  0.00000000000E+00 -0.11369064671E+04  0.11369064671E+04  0.50400001928E-02 0.  1.
    10030    2    1    2    0    0  0.00000000000E+00  0.00000000000E+00  0.83072878200E+03  0.31045417162E+04  0.29913323050E+04 0.  0.
        4    1    3    3  502    0  0.81201698321E+02  0.31104688701E+03  0.19313554566E+04  0.19579273210E+04  0.12699999809E+01 0. -1.
       -4    1    3    3    0  502 -0.81201698321E+02 -0.31104688701E+03 -0.11006266746E+04  0.11466143953E+04  0.12699999809E+01 0.  1.
</event>
<event>
 5   0  0.7399409E-07  0.3003370E+04  0.7818609E-02  0.8242769E-01
       -2   -1    0    0    0  501  0.00000000000E+00  0.00000000000E+00  0.14866389635E+04  0.14866389635E+04  0.25500000920E-02 0.  1.
        2   -1    0    0  501    0  0.00000000000E+00  0.00000000000E+00 -0.15168836691E+04  0.15168836691E+04  0.25500000920E-02 0. -1.
    10030    2    1    2    0    0  0.00000000000E+00  0.00000000000E+00 -0.30244705561E+02  0.30035226327E+04  0.30033703506E+04 0.  0.
        3    1    3    3  502    0  0.59430161140E+03 -0.75020767166E+03  0.11421106371E+04  0.14901082758E+04  0.10100000352E+00 0.  1.
       -3    1    3    3    0  502 -0.59430161140E+03  0.75020767166E+03 -0.11723553427E+04  0.15134143569E+04  0.10100000352E+00 0. -1.
</event>
<event>
 5   0  0.7307508E-07  0.3011069E+04  0.7818609E-02  0.8240577E-01
       -2   -1    0    0    0  501  0.00000000000E+00  0.00000000000E+00  0.17778308718E+04  0.17778308718E+04  0.25500000920E-02 0. -1.
        2   -1    0    0  501    0  0.00000000000E+00  0.00000000000E+00 -0.12749432581E+04  0.12749432581E+04  0.25500000920E-02 0.  1.
    10030    2    1    2    0    0  0.00000000000E+00  0.00000000000E+00  0.50288761373E+03  0.30527741299E+04  0.30110685705E+04 0.  0.
        1    1    3    3  502    0 -0.13195116485E+04  0.51504397327E+03 -0.26577133523E+03  0.14411855147E+04  0.50400001928E-02 0.  1.
       -1    1    3    3    0  502  0.13195116485E+04 -0.51504397327E+03  0.76865894896E+03  0.16115886153E+04  0.50400001928E-02 0. -1.
</event>
<event>
 5   0  0.2679935E-07  0.3001077E+04  0.7818609E-02  0.8243423E-01
        1   -1    0    0  501    0  0.00000000000E+00  0.00000000000E+00  0.10324825206E+04  0.10324825206E+04  0.50400001928E-02 0.  1.
       -1   -1    0    0    0  501  0.00000000000E+00  0.00000000000E+00 -0.21807785527E+04  0.21807785527E+04  0.50400001928E-02 0. -1.
    10030    2    1    2    0    0  0.00000000000E+00  0.00000000000E+00 -0.11482960321E+04  0.32132610734E+04  0.30010769647E+04 0.  0.
        2    1    3    3  502    0  0.88282174825E+03 -0.10383344948E+04 -0.12463096749E+04  0.18468352845E+04  0.25500000920E-02 0. -1.
       -2    1    3    3    0  502 -0.88282174825E+03  0.10383344948E+04  0.98013642750E+02  0.13664257889E+04  0.25500000920E-02 0.  1.
</event>
<event>
 5   0  0.7585823E-07  0.2996749E+04  0.7818609E-02  0.8244660E-01
        2   -1    0    0  501    0  0.00000000000E+00  0.00000000000E+00  0.21240536348E+04  0.21240536348E+04  0.25500000920E-02 0. -1.
       -2   -1    0    0    0  501  0.00000000000E+00  0.00000000000E+00 -0.10570004510E+04  0.10570004510E+04  0.25500000920E-02 0.  1.
    10030    2    1    2    0    0  0.00000000000E+00  0.00000000000E+00  0.10670531837E+04  0.31810540858E+04  0.29967486715E+04 0.  0.
        5    1    3    3  502    0 -0.11835814719E+04  0.94571418470E+02 -0.43662722411E+03  0.12650985245E+04  0.46999998093E+01 0.  1.
       -5    1    3    3    0  502  0.11835814719E+04 -0.94571418470E+02  0.15036804078E+04  0.19159555613E+04  0.46999998093E+01 0. -1.
</event>
<event>
 5   0  0.2640081E-07  0.2998894E+04  0.7818609E-02  0.8244047E-01
        1   -1    0    0  501    0  0.00000000000E+00  0.00000000000E+00  0.22630045330E+04  0.22630045330E+04  0.50400001928E-02 0. -1.
       -1   -1    0    0    0  501  0.00000000000E+00  0.00000000000E+00 -0.99352017548E+03  0.99352017549E+03  0.50400001928E-02 0.  1.
    10030    2    1    2    0    0  0.00000000000E+00  0.00000000000E+00  0.12694843575E+04  0.32565247085E+04  0.29988935698E+04 0.  0.
        1    1    3    3  502    0  0.88195293052E+03 -0.51782705142E+03 -0.55597783004E+03  0.11640864119E+04  0.50400001928E-02 0.  1.
       -1    1    3    3    0  502 -0.88195293052E+03  0.51782705142E+03  0.18254621876E+04  0.20924382966E+04  0.50400001928E-02 0. -1.
</event>
<event>
 5   0  0.7307508E-07  0.3007483E+04  0.7818609E-02  0.8241597E-01
        2   -1    0    0  501    0  0.00000000000E+00  0.00000000000E+00  0.22812131592E+04  0.22812131592E+04  0.25500000920E-02 0.  1.
       -2   -1    0    0    0  501  0.00000000000E+00  0.00000000000E+00 -0.99124362247E+03  0.99124362247E+03  0.25500000920E-02 0. -1.
    10030    2    1    2    0    0  0.00000000000E+00  0.00000000000E+00  0.12899695367E+04  0.32724567817E+04  0.30074826653E+04 0.  0.
        1    1    3    3  502    0 -0.44994488250E+03  0.25462169968E+03 -0.89150087116E+03  0.10305612114E+04  0.50400001928E-02 0. -1.
       -1    1    3    3    0  502  0.44994488250E+03 -0.25462169968E+03  0.21814704079E+04  0.22418955702E+04  0.50400001928E-02 0.  1.
</event>
<event>
 5   0  0.7278657E-07  0.3008669E+04  0.7818609E-02  0.8241260E-01
       -2   -1    0    0    0  501  0.00000000000E+00  0.00000000000E+00  0.14588376141E+04  0.14588376141E+04  0.25500000920E-02 0.  1.
        2   -1    0    0  501    0  0.00000000000E+00  0.00000000000E+00 -0.15512500313E+04  0.15512500313E+04  0.25500000920E-02 0. -1.
    10030    2    1    2    0    0  0.00000000000E+00  0.00000000000E+00 -0.92412417199E+02  0.30100876455E+04  0.30086687386E+04 0.  0.
        2    1    3    3  502    0 -0.84654929803E+03  0.83842419094E+03  0.87260648696E+03  0.14768354407E+04  0.25500000920E-02 0.  1.
       -2    1    3    3    0  502  0.84654929803E+03 -0.83842419094E+03 -0.96501890416E+03  0.15332522047E+04  0.25500000920E-02 0. -1.
</event>
<event>
 5   0  0.2602891E-07  0.3000383E+04  0.7818609E-02  0.8243621E-01
        1   -1    0    0  501    0  0.00000000000E+00  0.00000000000E+00  0.16779146647E+04  0.16779146647E+04  0.50400001928E-02 0. -1.
       -1   -1    0    0    0  501  0.00000000000E+00  0.00000000000E+00 -0.13412928119E+04  0.13412928119E+04  0.50400001928E-02 0.  1.
    10030    2    1    2    0    0  0.00000000000E+00  0.00000000000E+00  0.33662185279E+03  0.30192074766E+04  0.30003832280E+04 0.  0.
        5    1    3    3  502    0  0.13997961356E+04  0.25886046751E+03  0.64468873567E+03  0.15627167430E+04  0.46999998093E+01 0.  1.
       -5    1    3    3    0  502 -0.13997961356E+04 -0.25886046751E+03 -0.30806688287E+03  0.14564907336E+04  0.46999998093E+01 0. -1.
</event>
<event>
 5   0  0.2621825E-07  0.3002188E+04  0.7818609E-02  0.8243106E-01
        1   -1    0    0  501    0  0.00000000000E+00  0.00000000000E+00  0.16007989207E+04  0.16007989207E+04  0.50400001928E-02 0.  1.
       -1   -1    0    0    0  501  0.00000000000E+00  0.00000000000E+00 -0.14075994973E+04  0.14075994973E+04  0.50400001928E-02 0. -1.
    10030    2    1    2    0    0  0.00000000000E+00  0.00000000000E+00  0.19319942341E+03  0.30083984180E+04  0.30021883726E+04 0.  0.
        3    1    3    3  502    0  0.10153842552E+04  0.35851165365E+03 -0.95138763711E+03  0.14368974346E+04  0.10100000352E+00 0. -1.
       -3    1    3    3    0  502 -0.10153842552E+04 -0.35851165365E+03  0.11445870605E+04  0.15715009834E+04  0.10100000352E+00 0.  1.
</event>
<event>
 5   0  0.7399409E-07  0.3002875E+04  0.7818609E-02  0.8242910E-01
       -2   -1    0    0    0  501  0.00000000000E+00  0.00000000000E+00  0.18334424252E+04  0.18334424252E+04  0.25500000920E-02 0.  1.
        2   -1    0    0  501    0  0.00000000000E+00  0.00000000000E+00 -0.12295532471E+04  0.12295532471E+04  0.25500000920E-02 0. -1.
    10030    2    1    2    0    0  0.00000000000E+00  0.00000000000E+00  0.60388917810E+03  0.30629956724E+04  0.30028753470E+04 0.  0.
        3    1    3    3  502    0 -0.89426293640E+02 -0.93214802227E+03 -0.89518721363E+03  0.12954756482E+04  0.10100000352E+00 0. -1.
       -3    1    3    3    0  502  0.89426293640E+02  0.93214802227E+03  0.14990763917E+04  0.17675200242E+04  0.10100000352E+00 0.  1.
</event>
<event>
 5   0  0.7585823E-07  0.3017461E+04  0.7818609E-02  0.8238762E-01
        2   -1    0    0  501    0  0.00000000000E+00  0.00000000000E+00  0.19232479642E+04  0.19232479642E+04  0.25500000920E-02 0.  1.
       -2   -1    0    0    0  501  0.00000000000E+00  0.00000000000E+00 -0.11835538348E+04  0.11835538348E+04  0.25500000920E-02 0. -1.
    10030    2    1    2    0    0  0.00000000000E+00  0.00000000000E+00  0.73969412939E+03  0.31068017991E+04  0.30174608554E+04 0.  0.
        5    1    3    3  502    0  0.57909749257E+03 -0.47196056968E+03  0.17194368269E+04  0.18747228533E+04  0.46999998093E+01 0.  1.
       -5    1    3    3    0  502 -0.57909749257E+03  0.47196056968E+03 -0.97974269748E+03  0.12320789457E+04  0.46999998093E+01 0. -1.
</event>
<event>
 5   0  0.2602891E-07  0.3002427E+04  0.7818609E-02  0.8243038E-01
        1   -1    0    0  501    0  0.00000000000E+00  0.00000000000E+00  0.13059669094E+04  0.13059669094E+04  0.50400001928E-02 0. -1.
       -1   -1    0    0    0  501  0.00000000000E+00  0.00000000000E+00 -0.17256500330E+04  0.17256500330E+04  0.50400001928E-02 0.  1.
    10030    2    1    2    0    0  0.00000000000E+00  0.00000000000E+00 -0.41968312368E+03  0.30316169424E+04  0.30024269119E+04 0.  0.
        5    1    3    3  502    0  0.69120402682E+03  0.11709799618E+04 -0.85215713849E+03  0.16047276891E+04  0.46999998093E+01 0.  1.
       -5    1    3    3    0  502 -0.69120402682E+03 -0.11709799618E+04  0.43247401481E+03  0.14268892533E+04  0.46999998093E+01 0. -1.
</event>
<event>
 5   0  0.7307508E-07  0.3007417E+04  0.7818609E-02  0.8241616E-01
       -2   -1    0    0    0  501  0.00000000000E+00  0.00000000000E+00  0.89094330011E+03  0.89094330011E+03  0.25500000920E-02 0.  1.
        2   -1    0    0  501    0  0.00000000000E+00  0.00000000000E+00 -0.25379163756E+04  0.25379163756E+04  0.25500000920E-02 0. -1.
    10030    2    1    2    0    0  0.00000000000E+00  0.00000000000E+00 -0.16469730755E+04  0.34288596758E+04  0.30074172249E+04 0.  0.
        1    1    3    3  502    0  0.10490788566E+04  0.57342378689E+03  0.21632492857E+03  0.12149805601E+04  0.50400001928E-02 0.  1.
       -1    1    3    3    0  502 -0.10490788566E+04 -0.57342378689E+03 -0.18632980041E+04  0.22138791157E+04  0.50400001928E-02 0. -1.
</event>
<event>
 5   0  0.2640081E-07  0.3006444E+04  0.7818609E-02  0.8241893E-01
        1   -1    0    0  501    0  0.00000000000E+00  0.00000000000E+00  0.17273066856E+04  0.17273066856E+04  0.50400001928E-02 0. -1.
       -1   -1    0    0    0  501  0.00000000000E+00  0.00000000000E+00 -0.13082075518E+04  0.13082075518E+04  0.50400001928E-02 0.  1.
    10030    2    1    2    0    0  0.00000000000E+00  0.00000000000E+00  0.41909913380E+03  0.30355142374E+04  0.30064435137E+04 0.  0.
        1    1    3    3  502    0  0.92251940147E+03  0.52989921486E+03  0.12818168482E+04  0.16658000049E+04  0.50400001928E-02 0. -1.
       -1    1    3    3    0  502 -0.92251940147E+03 -0.52989921486E+03 -0.86271771436E+03  0.13697142325E+04  0.50400001928E-02 0.  1.
</event>
<event>
 5   0  0.7399409E-07  0.3008504E+04  0.7818609E-02  0.8241307E-01
        2   -1    0    0  501    0  0.00000000000E+00  0.00000000000E+00  0.25878713131E+04  0.25878713131E+04  0.25500000920E-02 0. -1.
       -2   -1    0    0    0  501  0.00000000000E+00  0.00000000000E+00 -0.87437679666E+03  0.87437679667E+03  0.25500000920E-02 0.  1.
    10030    2    1    2    0    0  0.00000000000E+00  0.00000000000E+00  0.17134945164E+04  0.34622481098E+04  0.30085043652E+04 0.  0.
        3    1    3    3  502    0  0.11793516626E+04 -0.43421809929E+02 -0.21667813474E+03  0.11998771695E+04  0.10100000352E+00 0.  1.
       -3    1    3    3    0  502 -0.11793516626E+04  0.43421809929E+02  0.19301726512E+04  0.22623709402E+04  0.10100000352E+00 0. -1.
</event>
<event>
 5   0  0.7208273E-07  0.2997458E+04  0.7818609E-02  0.8244457E-01
       -2   -1    0    0    0  501  0.00000000000E+00  0.00000000000E+00  0.12499775330E+04  0.12499775330E+04  0.25500000920E-02 0.  1.
        2   -1    0    0  501    0  0.00000000000E+00  0.00000000000E+00 -0.17969829057E+04  0.17969829057E+04  0.25500000920E-02 0. -1.
    10030    2    1    2    0    0  0.00000000000E+00  0.00000000000E+00 -0.54700537267E+03  0.30469604386E+04  0.29974577623E+04 0.  0.
        4    1    3    3  502    0  0.61430175739E+03 -0.17435019380E+03  0.11047738043E+04  0.12760452228E+04  0.12699999809E+01 0.  1.
       -4    1    3    3    0  502 -0.61430175739E+03  0.17435019380E+03 -0.16517791770E+04  0.17709152158E+04  0.12699999809E+01 0. -1.
</event>
<event>
 5   0  0.7278657E-07  0.3001944E+04  0.7818609E-02  0.8243176E-01
        2   -1    0    0  501    0  0.00000000000E+00  0.00000000000E+00  0.85986962880E+03  0.85986962881E+03  0.25500000920E-02 0.  1.
       -2   -1    0    0    0  501  0.00000000000E+00  0.00000000000E+00 -0.26200673569E+04  0.26200673569E+04  0.25500000920E-02 0. -1.
    10030    2    1    2    0    0  0.00000000000E+00  0.00000000000E+00 -0.17601977281E+04  0.34799369857E+04  0.30019436008E+04 0.  0.
        2    1    3    3  502    0 -0.99106334827E+03  0.11015622008E+04 -0.60268104698E+03  0.15996469257E+04  0.25500000920E-02 0. -1.
       -2    1    3    3    0  502  0.99106334827E+03 -0.11015622008E+04 -0.11575166811E+04  0.18802900600E+04  0.25500000920E-02 0.  1.
</event>
<event>
 5   0  0.7278657E-07  0.3011367E+04  0.7818609E-02  0.8240493E-01
        2   -1    0    0  501    0  0.00000000000E+00  0.00000000000E+00  0.12357788711E+04  0.12357788711E+04  0.25500000920E-02 0. -1.
       -2   -1    0    0    0  501  0.00000000000E+00  0.00000000000E+00 -0.18345371893E+04  0.18345371893E+04  0.25500000920E-02 0.  1.
    10030    2    1    2    0    0  0.00000000000E+00  0.00000000000E+00 -0.59875831823E+03  0.30703160604E+04  0.30113666644E+04 0.  0.
        2    1    3    3  502    0 -0.30801883990E+03 -0.10144896916E+04 -0.13894277516E+04  0.17477340808E+04  0.25500000920E-02 0.  1.
       -2    1    3    3    0  502  0.30801883990E+03  0.10144896916E+04  0.79066943334E+03  0.13225819797E+04  0.25500000920E-02 0. -1.
</event>
<event>
 5   0  0.7307508E-07  0.2997721E+04  0.7818609E-02  0.8244382E-01
       -2   -1    0    0    0  501  0.00000000000E+00  0.00000000000E+00  0.16985217925E+04  0.16985217925E+04  0.25500000920E-02 0. -1.
        2   -1    0    0  501    0  0.00000000000E+00  0.00000000000E+00 -0.13226691943E+04  0.13226691943E+04  0.25500000920E-02 0.  1.
    10030    2    1    2    0    0  0.00000000000E+00  0.00000000000E+00  0.37585259820E+03  0.30211909867E+04  0.29977207680E+04 0.  0.
        1    1    3    3  502    0  0.51410294169E+03 -0.18267480884E+03 -0.12190376021E+04  0.13355615282E+04  0.50400001928E-02 0.  1.
       -1    1    3    3    0  502 -0.51410294169E+03  0.18267480884E+03  0.15948902003E+04  0.16856294585E+04  0.50400001928E-02 0. -1.
</event>
<event>
 5   0  0.2602891E-07  0.3005592E+04  0.7818609E-02  0.8242136E-01
        1   -1    0    0  501    0  0.00000000000E+00  0.00000000000E+00  0.26825661306E+04  0.26825661306E+04  0.50400001928E-02 0. -1.
       -1   -1    0    0    0  501  0.00000000000E+00  0.00000000000E+00 -0.84187914921E+03  0.84187914923E+03  0.50400001928E-02 0.  1.
    10030    2    1    2    0    0  0.00000000000E+00  0.00000000000E+00  0.18406869814E+04  0.35244452798E+04  0.30055924486E+04 0.  0.
        5    1    3    3  502    0  0.57466857538E+03 -0.11696892352E+03  0.25428354307E+04  0.26095899713E+04  0.46999998093E+01 0. -1.
       -5    1    3    3    0  502 -0.57466857538E+03  0.11696892352E+03 -0.70214844934E+03  0.91485530851E+03  0.46999998093E+01 0.  1.
</event>
<event>
 5   0  0.2640081E-07  0.2998631E+04  0.7818609E-02  0.8244122E-01
       -1   -1    0    0    0  501  0.00000000000E+00  0.00000000000E+00  0.11798872532E+04  0.11798872532E+04  0.50400001928E-02 0.  1.
        1   -1    0    0  501    0  0.00000000000E+00  0.00000000000E+00 -0.19052221944E+04  0.19052221944E+04  0.50400001928E-02 0. -1.
    10030    2    1    2    0    0  0.00000000000E+00  0.00000000000E+00 -0.72533494115E+03  0.30851094476E+04  0.29986312756E+04 0.  0.
        1    1    3    3  502    0 -0.10654409365E+04 -0.97079656660E+02 -0.14433691798E+04  0.17966367018E+04  0.50400001928E-02 0. -1.
       -1    1    3    3    0  502  0.10654409365E+04  0.97079656660E+02  0.71803423866E+03  0.12884727459E+04  0.50400001928E-02 0.  1.
</event>
<event>
 5   0  0.7307508E-07  0.2987670E+04  0.7818609E-02  0.8247261E-01
        2   -1    0    0  501    0  0.00000000000E+00  0.00000000000E+00  0.19949616239E+04  0.19949616239E+04  0.25500000920E-02 0. -1.
       -2   -1    0    0    0  501  0.00000000000E+00  0.00000000000E+00 -0.11185890916E+04  0.11185890916E+04  0.25500000920E-02 0.  1.
    10030    2    1    2    0    0  0.00000000000E+00  0.00000000000E+00  0.87637253230E+03  0.31135507155E+04  0.29876695337E+04 0.  0.
        1    1    3    3  502    0  0.11921320701E+02  0.14329281487E+04 -0.16349853348E+01  0.14329786706E+04  0.50400001928E-02 0.  1.
       -1    1    3    3    0  502 -0.11921320701E+02 -0.14329281487E+04  0.87800751763E+03  0.16805720449E+04  0.50400001928E-02 0. -1.
</event>
<event>
 5   0  0.2679935E-07  0.3000849E+04  0.7818609E-02  0.8243488E-01
       -1   -1    0    0    0  501  0.00000000000E+00  0.00000000000E+00  0.14592747655E+04  0.14592747655E+04  0.50400001928E-02 0.  1.
        1   -1    0    0  501    0  0.00000000000E+00  0.00000000000E+00 -0.15427347753E+04  0.15427347753E+04  0.50400001928E-02 0. -1.
    10030    2    1    2    0    0  0.00000000000E+00  0.00000000000E+00 -0.83460009848E+02  0.30020095408E+04  0.30008491648E+04 0.  0.
        2    1    3    3  502    0  0.58518888936E+03 -0.13097518937E+04 -0.48164755262E+03  0.15132350856E+04  0.25500000920E-02 0. -1.
       -2    1    3    3    0  502 -0.58518888936E+03  0.13097518937E+04  0.39818754277E+03  0.14887744552E+04  0.25500000920E-02 0.  1.
</event>
<event>
 5   0  0.2621825E-07  0.2994812E+04  0.7818609E-02  0.8245214E-01
       -1   -1    0    0    0  501  0.00000000000E+00  0.00000000000E+00  0.11839168944E+04  0.11839168944E+04  0.50400001928E-02 0.  1.
        1   -1    0    0  501    0  0.00000000000E+00  0.00000000000E+00 -0.18939036027E+04  0.18939036027E+04  0.50400001928E-02 0. -1.
    10030    2    1    2    0    0  0.00000000000E+00  0.00000000000E+00 -0.70998670833E+03  0.30778204972E+04  0.29948118283E+04 0.  0.
        3    1    3    3  502    0  0.12998736857E+04  0.23947208287E+03  0.36822042155E+03  0.13720804518E+04  0.10100000352E+00 0.  1.
       -3    1    3    3    0  502 -0.12998736857E+04 -0.23947208287E+03 -0.10782071299E+04  0.17057400454E+04  0.10100000352E+00 0. -1.
</event>
<event>
 5   0  0.2792361E-07  0.3005572E+04  0.7818609E-02  0.8242141E-01
        1   -1    0    0  501    0  0.00000000000E+00  0.00000000000E+00  0.17368084298E+04  0.17368084298E+04  0.50400001928E-02 0.  1.
       -1   -1    0    0    0  501  0.00000000000E+00  0.00000000000E+00 -0.13002966706E+04  0.13002966707E+04  0.50400001928E-02 0. -1.
    10030    2    1    2    0    0  0.00000000000E+00  0.00000000000E+00  0.43651175920E+03  0.30371051005E+04  0.30055723042E+04 0.  0.
        4    1    3    3  502    0 -0.61114862720E+03  0.71567694321E+03 -0.96564534772E+03  0.13483948539E+04  0.12699999809E+01 0. -1.
       -4    1    3    3    0  502  0.61114862720E+03 -0.71567694321E+03  0.14021571069E+04  0.16887102466E+04  0.12699999809E+01 0.  1.
</event>
<event>
 5   0  0.7307508E-07  0.3002780E+04  0.7818609E-02  0.8242938E-01
        2   -1    0    0  501    0  0.00000000000E+00  0.00000000000E+00  0.23222642897E+04  0.23222642897E+04  0.25500000920E-02 0.  1.
       -2   -1    0    0    0  501  0.00000000000E+00  0.00000000000E+00 -0.97067822529E+03  0.97067822529E+03  0.25500000920E-02 0. -1.
    10030    2    1    2    0    0  0.00000000000E+00  0.00000000000E+00  0.13515860644E+04  0.32929425150E+04  0.30027796319E+04 0.  0.
        1    1    3    3  502    0  0.11765329393E+04  0.89426158533E+03  0.38515913954E+03  0.15271807696E+04  0.50400001928E-02 0. -1.
       -1    1    3    3    0  502 -0.11765329393E+04 -0.89426158533E+03  0.96642692487E+03  0.17657617454E+04  0.50400001928E-02 0.  1.
</event>
<event>
 5   0  0.2679935E-07  0.2995815E+04  0.7818609E-02  0.8244927E-01
        1   -1    0    0  501    0  0.00000000000E+00  0.00000000000E+00  0.21283206747E+04  0.21283206747E+04  0.50400001928E-02 0.  1.
       -1   -1    0    0    0  501  0.00000000000E+00  0.00000000000E+00 -0.10542240736E+04  0.10542240736E+04  0.50400001928E-02 0. -1.
    10030    2    1    2    0    0  0.00000000000E+00  0.00000000000E+00  0.10740966011E+04  0.31825447484E+04  0.29958150088E+04 0.  0.
        2    1    3    3  502    0  0.19282605634E+03  0.14553096135E+04  0.22080394412E+03  0.14845411213E+04  0.25500000920E-02 0. -1.
       -2    1    3    3    0  502 -0.19282605634E+03 -0.14553096135E+04  0.85329265697E+03  0.16980036271E+04  0.25500000920E-02 0.  1.
</event>
<event>
 5   0  0.2602891E-07  0.2986408E+04  0.7818609E-02  0.8247623E-01
       -1   -1    0    0    0  501  0.00000000000E+00  0.00000000000E+00  0.13376773910E+04  0.13376773910E+04  0.50400001928E-02 0. -1.
        1   -1    0    0  501    0  0.00000000000E+00  0.00000000000E+00 -0.16668129365E+04  0.16668129365E+04  0.50400001928E-02 0.  1.
    10030    2    1    2    0    0  0.00000000000E+00  0.00000000000E+00 -0.32913554555E+03  0.30044903275E+04  0.29864078624E+04 0.  0.
        5    1    3    3  502    0 -0.98653363369E+03  0.92131767051E+03 -0.80683833248E+03  0.15726045419E+04  0.46999998093E+01 0. -1.
       -5    1    3    3    0  502  0.98653363369E+03 -0.92131767051E+03  0.47770278693E+03  0.14318857856E+04  0.46999998093E+01 0.  1.
</event>
<event>
 5   0  0.2602891E-07  0.2960250E+04  0.7818609E-02  0.8255174E-01
       -1   -1    0    0    0  501  0.00000000000E+00  0.00000000000E+00  0.97387238462E+03  0.97387238464E+03  0.50400001928E-02 0. -1.
        1   -1    0    0  501    0  0.00000000000E+00  0.00000000000E+00 -0.22495459985E+04  0.22495459985E+04  0.50400001928E-02 0.  1.
    10030    2    1    2    0    0  0.00000000000E+00  0.00000000000E+00 -0.12756736139E+04  0.32234183832E+04  0.29602504799E+04 0.  0.
        5    1    3    3  502    0 -0.14633782324E+04 -0.98185530894E+02 -0.85461387076E+03  0.16974991039E+04  0.46999998093E+01 0. -1.
       -5    1    3    3    0  502  0.14633782324E+04  0.98185530894E+02 -0.42105974314E+03  0.15259192793E+04  0.46999998093E+01 0.  1.
</event>
<event>
 5   0  0.7307508E-07  0.3000023E+04  0.7818609E-02  0.8243724E-01
       -2   -1    0    0    0  501  0.00000000000E+00  0.00000000000E+00  0.14326329838E+04  0.14326329838E+04  0.25500000920E-02 0. -1.
        2   -1    0    0  501    0  0.00000000000E+00  0.00000000000E+00 -0.15705592656E+04  0.15705592656E+04  0.25500000920E-02 0.  1.
    10030    2    1    2    0    0  0.00000000000E+00  0.00000000000E+00 -0.13792628177E+03  0.30031922494E+04  0.30000233378E+04 0.  0.
        1    1    3    3  502    0 -0.10833227352E+04 -0.10071720086E+04  0.18040117430E+03  0.14901436801E+04  0.50400001928E-02 0.  1.
       -1    1    3    3    0  502  0.10833227352E+04  0.10071720086E+04 -0.31832745607E+03  0.15130485693E+04  0.50400001928E-02 0. -1.
</event>
<event>
 5   0  0.2602891E-07  0.2998046E+04  0.7818609E-02  0.8244289E-01
        1   -1    0    0  501    0  0.00000000000E+00  0.00000000000E+00  0.18497887495E+04  0.18497887495E+04  0.50400001928E-02 0. -1.
       -1   -1    0    0    0  501  0.00000000000E+00  0.00000000000E+00 -0.12147714455E+04  0.12147714455E+04  0.50400001928E-02 0.  1.
    10030    2    1    2    0    0  0.00000000000E+00  0.00000000000E+00  0.63501730399E+03  0.30645601950E+04  0.29980463993E+04 0.  0.
        5    1    3    3  502    0 -0.46241140502E+03 -0.24418421101E+03  0.17535243237E+04  0.18298414904E+04  0.46999998093E+01 0. -1.
       -5    1    3    3    0  502  0.46241140502E+03  0.24418421101E+03 -0.11185070197E+04  0.12347187046E+04  0.46999998093E+01 0.  1.
</event>
<event>
 5   0  0.7278657E-07  0.2996294E+04  0.7818609E-02  0.8244790E-01
       -2   -1    0    0    0  501  0.00000000000E+00  0.00000000000E+00  0.11189848235E+04  0.11189848235E+04  0.25500000920E-02 0. -1.
        2   -1    0    0  501    0  0.00000000000E+00  0.00000000000E+00 -0.20057861078E+04  0.20057861078E+04  0.25500000920E-02 0.  1.
    10030    2    1    2    0    0  0.00000000000E+00  0.00000000000E+00 -0.88680128432E+03  0.31247709312E+04  0.29962938532E+04 0.  0.
        2    1    3    3  502    0  0.10462025279E+04  0.19734166675E+03 -0.15426168933E+04  0.18743399752E+04  0.25500000920E-02 0.  1.
       -2    1    3    3    0  502 -0.10462025279E+04 -0.19734166675E+03  0.65581560901E+03  0.12504309561E+04  0.25500000920E-02 0. -1.
</event>
<event>
 5   0  0.2679935E-07  0.2992078E+04  0.7818609E-02  0.8245997E-01
        1   -1    0    0  501    0  0.00000000000E+00  0.00000000000E+00  0.24728748161E+04  0.24728748161E+04  0.50400001928E-02 0. -1.
       -1   -1    0    0    0  501  0.00000000000E+00  0.00000000000E+00 -0.90507293986E+03  0.90507293988E+03  0.50400001928E-02 0.  1.
    10030    2    1    2    0    0  0.00000000000E+00  0.00000000000E+00  0.15678018762E+04  0.33779477560E+04  0.29920775924E+04 0.  0.
        2    1    3    3  502    0 -0.65033878245E+02  0.12047506958E+04  0.17825577424E+04  0.21524789777E+04  0.25500000920E-02 0. -1.
       -2    1    3    3    0  502  0.65033878245E+02 -0.12047506958E+04 -0.21475586623E+03  0.12254687782E+04  0.25500000920E-02 0.  1.
</event>
<event>
 5   0  0.7585823E-07  0.2994334E+04  0.7818609E-02  0.8245351E-01
        2   -1    0    0  501    0  0.00000000000E+00  0.00000000000E+00  0.17705259022E+04  0.17705259022E+04  0.25500000920E-02 0. -1.
       -2   -1    0    0    0  501  0.00000000000E+00  0.00000000000E+00 -0.12660131004E+04  0.12660131004E+04  0.25500000920E-02 0.  1.
    10030    2    1    2    0    0  0.00000000000E+00  0.00000000000E+00  0.50451280178E+03  0.30365390026E+04  0.29943339739E+04 0.  0.
        5    1    3    3  502    0  0.10435824569E+04  0.99914824393E+03  0.65037791610E+03  0.15844163220E+04  0.46999998093E+01 0. -1.
       -5    1    3    3    0  502 -0.10435824569E+04 -0.99914824393E+03 -0.14586511432E+03  0.14521226805E+04  0.46999998093E+01 0.  1.
</event>
<event>
 5   0  0.7208273E-07  0.2997196E+04  0.7818609E-02  0.8244532E-01
       -2   -1    0    0    0  501  0.00000000000E+00  0.00000000000E+00  0.89118853603E+03  0.89118853603E+03  0.25500000920E-02 0.  1.
        2   -1    0    0  501    0  0.00000000000E+00  0.00000000000E+00 -0.25200016215E+04  0.25200016215E+04  0.25500000920E-02 0. -1.
    10030    2    1    2    0    0  0.00000000000E+00  0.00000000000E+00 -0.16288130855E+04  0.34111901575E+04  0.29971963939E+04 0.  0.
        4    1    3    3  502    0  0.62164483972E+03 -0.19304461257E+03 -0.23507036523E+04  0.24391633408E+04  0.12699999809E+01 0. -1.
       -4    1    3    3    0  502 -0.62164483972E+03  0.19304461257E+03  0.72189056680E+03  0.97202681677E+03  0.12699999809E+01 0.  1.
</event>
<event>
 5   0  0.7208273E-07  0.3000872E+04  0.7818609E-02  0.8243482E-01
       -2   -1    0    0    0  501  0.00000000000E+00  0.00000000000E+00  0.10709383821E+04  0.10709383821E+04  0.25500000920E-02 0.  1.
        2   -1    0    0  501    0  0.00000000000E+00  0.00000000000E+00 -0.21021824879E+04  0.21021824879E+04  0.25500000920E-02 0. -1.
    10030    2    1    2    0    0  0.00000000000E+00  0.00000000000E+00 -0.10312441058E+04  0.31731208701E+04  0.30008718151E+04 0.  0.
        4    1    3    3  502    0  0.12989523222E+03 -0.12714400104E+04  0.31554643774E+03  0.13164359607E+04  0.12699999809E+01 0.  1.
       -4    1    3    3    0  502 -0.12989523222E+03  0.12714400104E+04 -0.13467905435E+04  0.18566849093E+04  0.12699999809E+01 0. -1.
</event>
<event>
 5   0  0.2602891E-07  0.3009177E+04  0.7818609E-02  0.8241115E-01
        1   -1    0    0  501    0  0.00000000000E+00  0.00000000000E+00  0.29076832007E+04  0.29076832007E+04  0.50400001928E-02 0.  1.
       -1   -1    0    0    0  501  0.00000000000E+00  0.00000000000E+00 -0.77855316425E+03  0.77855316427E+03  0.50400001928E-02 0. -1.
    10030    2    1    2    0    0  0.00000000000E+00  0.00000000000E+00  0.21291300365E+04  0.36862363650E+04  0.30091766027E+04 0.  0.
        5    1    3    3  502    0 -0.13929028400E+04  0.53093423137E+03  0.81443011356E+03  0.16986429818E+04  0.46999998093E+01 0.  1.
       -5    1    3    3    0  502  0.13929028400E+04 -0.53093423137E+03  0.13146999229E+04  0.19875933832E+04  0.46999998093E+01 0. -1.
</event>
<event>
 5   0  0.2414250E-07  0.2990374E+04  0.7818609E-02  0.8246485E-01
       -3   -1    0    0    0  501  0.00000000000E+00  0.00000000000E+00  0.13638047468E+04  0.13638047506E+04  0.10100000352E+00 0.  1.
        3   -1    0    0  501    0  0.00000000000E+00  0.00000000000E+00 -0.16392265106E+04  0.16392265137E+04  0.10100000352E+00 0. -1.
    10030    2    1    2    0    0  0.00000000000E+00  0.00000000000E+00 -0.27542176372E+03  0.30030312642E+04  0.29903744960E+04 0.  0.
        4    1    3    3  502    0 -0.96802741796E+03 -0.24680133675E+03  0.97947027326E+03  0.13990538270E+04  0.12699999809E+01 0.  1.
       -4    1    3    3    0  502  0.96802741796E+03  0.24680133675E+03 -0.12548920370E+04  0.16039774372E+04  0.12699999809E+01 0. -1.
</event>
<event>
 5   0  0.2602891E-07  0.2997498E+04  0.7818609E-02  0.8244446E-01
       -1   -1    0    0    0  501  0.00000000000E+00  0.00000000000E+00  0.11289067625E+04  0.11289067625E+04  0.50400001928E-02 0. -1.
        1   -1    0    0  501    0  0.00000000000E+00  0.00000000000E+00 -0.19897562469E+04  0.19897562470E+04  0.50400001928E-02 0.  1.
    10030    2    1    2    0    0  0.00000000000E+00  0.00000000000E+00 -0.86084948449E+03  0.31186630094E+04  0.29974984790E+04 0.  0.
        5    1    3    3  502    0  0.86924907324E+03 -0.12185232538E+04 -0.35095447912E+03  0.15373952023E+04  0.46999998093E+01 0. -1.
       -5    1    3    3    0  502 -0.86924907324E+03  0.12185232538E+04 -0.50989500537E+03  0.15812678072E+04  0.46999998093E+01 0.  1.
</event>
<event>
 5   0  0.7208273E-07  0.2998713E+04  0.7818609E-02  0.8244099E-01
        2   -1    0    0  501    0  0.00000000000E+00  0.00000000000E+00  0.16286462836E+04  0.16286462836E+04  0.25500000920E-02 0. -1.
       -2   -1    0    0    0  501  0.00000000000E+00  0.00000000000E+00 -0.13803300977E+04  0.13803300977E+04  0.25500000920E-02 0.  1.
    10030    2    1    2    0    0  0.00000000000E+00  0.00000000000E+00  0.24831618584E+03  0.30089763813E+04  0.29987127130E+04 0.  0.
        4    1    3    3  502    0 -0.87544975797E+03 -0.62254195383E+03 -0.92541298071E+03  0.14178721948E+04  0.12699999809E+01 0.  1.
       -4    1    3    3    0  502  0.87544975797E+03  0.62254195383E+03  0.11737291666E+04  0.15911041865E+04  0.12699999809E+01 0. -1.
</event>
<event>
 5   0  0.7585823E-07  0.2965784E+04  0.7818609E-02  0.8253569E-01
       -2   -1    0    0    0  501  0.00000000000E+00  0.00000000000E+00  0.17365060181E+04  0.17365060181E+04  0.25500000920E-02 0.  1.
        2   -1    0    0  501    0  0.00000000000E+00  0.00000000000E+00 -0.12663179722E+04  0.12663179722E+04  0.25500000920E-02 0. -1.
    10030    2    1    2    0    0  0.00000000000E+00  0.00000000000E+00  0.47018804585E+03  0.30028239903E+04  0.29657840646E+04 0.  0.
        5    1    3    3  502    0 -0.84748786025E+03  0.96885408608E+03 -0.51032955222E+03  0.13846921157E+04  0.46999998093E+01 0.  1.
       -5    1    3    3    0  502  0.84748786025E+03 -0.96885408608E+03  0.98051759807E+03  0.16181318746E+04  0.46999998093E+01 0. -1.
</event>
<event>
 5   0  0.2602891E-07  0.3000308E+04  0.7818609E-02  0.8243643E-01
        1   -1    0    0  501    0  0.00000000000E+00  0.00000000000E+00  0.18523951669E+04  0.18523951669E+04  0.50400001928E-02 0. -1.
       -1   -1    0    0    0  501  0.00000000000E+00  0.00000000000E+00 -0.12148929721E+04  0.12148929721E+04  0.50400001928E-02 0.  1.
    10030    2    1    2    0    0  0.00000000000E+00  0.00000000000E+00  0.63750219477E+03  0.30672881390E+04  0.30003078974E+04 0.  0.
        5    1    3    3  502    0  0.12156681473E+04 -0.74388222454E+03  0.79742385736E+03  0.16331309521E+04  0.46999998093E+01 0.  1.
       -5    1    3    3    0  502 -0.12156681473E+04  0.74388222454E+03 -0.15992166260E+03  0.14341571869E+04  0.46999998093E+01 0. -1.
</event>
<event>
 5   0  0.7208273E-07  0.2998856E+04  0.7818609E-02  0.8244058E-01
        2   -1    0    0  501    0  0.00000000000E+00  0.00000000000E+00  0.17664964124E+04  0.17664964125E+04  0.25500000920E-02 0. -1.
       -2   -1    0    0    0  501  0.00000000000E+00  0.00000000000E+00 -0.12727366699E+04  0.12727366699E+04  0.25500000920E-02 0.  1.
    10030    2    1    2    0    0  0.00000000000E+00  0.00000000000E+00  0.49375974259E+03  0.30392330823E+04  0.29988562895E+04 0.  0.
        4    1    3    3  502    0  0.44891882649E+03 -0.45021233346E+03 -0.11293669715E+04  0.12960287911E+04  0.12699999809E+01 0.  1.
       -4    1    3    3    0  502 -0.44891882649E+03  0.45021233346E+03  0.16231267141E+04  0.17432042912E+04  0.12699999809E+01 0. -1.
</event>
<event>
 5   0  0.7307508E-07  0.2987021E+04  0.7818609E-02  0.8247447E-01
        2   -1    0    0  501    0  0.00000000000E+00  0.00000000000E+00  0.14047256014E+04  0.14047256014E+04  0.25500000920E-02 0. -1.
       -2   -1    0    0    0  501  0.00000000000E+00  0.00000000000E+00 -0.15879069802E+04  0.15879069802E+04  0.25500000920E-02 0.  1.
    10030    2    1    2    0    0  0.00000000000E+00  0.00000000000E+00 -0.18318137885E+03  0.29926325816E+04  0.29870209827E+04 0.  0.
        1    1    3    3  502    0 -0.12961166689E+04  0.37436285723E+03 -0.73350304899E+03  0.15356082480E+04  0.50400001928E-02 0.  1.
       -1    1    3    3    0  502  0.12961166689E+04 -0.37436285723E+03  0.55032167014E+03  0.14570243337E+04  0.50400001928E-02 0. -1.
</event>
<event>
 5   0  0.2621825E-07  0.2995407E+04  0.7818609E-02  0.8245044E-01
        1   -1    0    0  501    0  0.00000000000E+00  0.00000000000E+00  0.17907853202E+04  0.17907853202E+04  0.50400001928E-02 0.  1.
       -1   -1    0    0    0  501  0.00000000000E+00  0.00000000000E+00 -0.12525878524E+04  0.12525878524E+04  0.50400001928E-02 0. -1.
    10030    2    1    2    0    0  0.00000000000E+00  0.00000000000E+00  0.53819746776E+03  0.30433731726E+04  0.29954071098E+04 0.  0.
        3    1    3    3  502    0 -0.87324424923E+03  0.12127730145E+04  0.16881650797E+03  0.15039524351E+04  0.10100000352E+00 0.  1.
       -3    1    3    3    0  502  0.87324424923E+03 -0.12127730145E+04  0.36938095980E+03  0.15394207375E+04  0.10100000352E+00 0. -1.
</event>
<event>
 5   0  0.7399409E-07  0.3006020E+04  0.7818609E-02  0.8242014E-01
       -2   -1    0    0    0  501  0.00000000000E+00  0.00000000000E+00  0.11553474582E+04  0.11553474582E+04  0.25500000920E-02 0. -1.
        2   -1    0    0  501    0  0.00000000000E+00  0.00000000000E+00 -0.19552892890E+04  0.19552892890E+04  0.25500000920E-02 0.  1.
    10030    2    1    2    0    0  0.00000000000E+00  0.00000000000E+00 -0.79994183080E+03  0.31106367471E+04  0.30060196340E+04 0.  0.
        3    1    3    3  502    0  0.11552079294E+04  0.59513445323E+03 -0.11814682359E+04  0.17562908587E+04  0.10100000352E+00 0.  1.
       -3    1    3    3    0  502 -0.11552079294E+04 -0.59513445323E+03  0.38152640508E+03  0.13543458885E+04  0.10100000352E+00 0. -1.
</event>
<event>
 5   0  0.2621825E-07  0.3000320E+04  0.7818609E-02  0.8243640E-01
       -1   -1    0    0    0  501  0.00000000000E+00  0.00000000000E+00  0.10047550220E+04  0.10047550220E+04  0.50400001928E-02 0.  1.
        1   -1    0    0  501    0  0.00000000000E+00  0.00000000000E+00 -0.22398288570E+04  0.22398288570E+04  0.50400001928E-02 0. -1.
    10030    2    1    2    0    0  0.00000000000E+00  0.00000000000E+00 -0.12350738350E+04  0.32445838790E+04  0.30003195114E+04 0.  0.
        3    1    3    3  502    0 -0.90319520064E+03 -0.23100336716E+03  0.65345906074E+03  0.11384783179E+04  0.10100000352E+00 0.  1.
       -3    1    3    3    0  502  0.90319520064E+03  0.23100336716E+03 -0.18885328957E+04  0.21061055611E+04  0.10100000352E+00 0. -1.
</event>
<event>
 5   0  0.2602891E-07  0.2999947E+04  0.7818609E-02  0.8243746E-01
       -1   -1    0    0    0  501  0.00000000000E+00  0.00000000000E+00  0.17661464961E+04  0.17661464961E+04  0.50400001928E-02 0. -1.
        1   -1    0    0  501    0  0.00000000000E+00  0.00000000000E+00 -0.12739146461E+04  0.12739146461E+04  0.50400001928E-02 0.  1.
    10030    2    1    2    0    0  0.00000000000E+00  0.00000000000E+00  0.49223185002E+03  0.30400611422E+04  0.29999465919E+04 0.  0.
        5    1    3    3  502    0 -0.54355427810E+03  0.12524603536E+04  0.87554102511E+03  0.16219440087E+04  0.46999998093E+01 0. -1.
       -5    1    3    3    0  502  0.54355427810E+03 -0.12524603536E+04 -0.38330917509E+03  0.14181171335E+04  0.46999998093E+01 0.  1.
</event>
<event>
 5   0  0.2640081E-07  0.3000576E+04  0.7818609E-02  0.8243566E-01
       -1   -1    0    0    0  501  0.00000000000E+00  0.00000000000E+00  0.96984960295E+03  0.96984960297E+03  0.50400001928E-02 0.  1.
        1   -1    0    0  501    0  0.00000000000E+00  0.00000000000E+00 -0.23208388819E+04  0.23208388819E+04  0.50400001928E-02 0. -1.
    10030    2    1    2    0    0  0.00000000000E+00  0.00000000000E+00 -0.13509892790E+04  0.32906884849E+04  0.30005763901E+04 0.  0.
        1    1    3    3  502    0  0.49259015561E+03 -0.14088139016E+04 -0.50750835287E+03  0.15763776194E+04  0.50400001928E-02 0.  1.
       -1    1    3    3    0  502 -0.49259015561E+03  0.14088139016E+04 -0.84348092608E+03  0.17143108655E+04  0.50400001928E-02 0. -1.
</event>
<event>
 5   0  0.2640081E-07  0.2996754E+04  0.7818609E-02  0.8244658E-01
        1   -1    0    0  501    0  0.00000000000E+00  0.00000000000E+00  0.23692683761E+04  0.23692683762E+04  0.50400001928E-02 0.  1.
       -1   -1    0    0    0  501  0.00000000000E+00  0.00000000000E+00 -0.94760657662E+03  0.94760657663E+03  0.50400001928E-02 0. -1.
    10030    2    1    2    0    0  0.00000000000E+00  0.00000000000E+00  0.14216617995E+04  0.33168749528E+04  0.29967544411E+04 0.  0.
        1    1    3    3  502    0  0.11716028715E+04 -0.54410534528E+03 -0.12950200974E+03  0.12982583278E+04  0.50400001928E-02 0. -1.
       -1    1    3    3    0  502 -0.11716028715E+04  0.54410534528E+03  0.15511638093E+04  0.20186166249E+04  0.50400001928E-02 0.  1.
</event>
<event>
 5   0  0.7399409E-07  0.2993834E+04  0.7818609E-02  0.8245494E-01
        2   -1    0    0  501    0  0.00000000000E+00  0.00000000000E+00  0.23571565345E+04  0.23571565345E+04  0.25500000920E-02 0.  1.
       -2   -1    0    0    0  501  0.00000000000E+00  0.00000000000E+00 -0.95062018115E+03  0.95062018116E+03  0.25500000920E-02 0. -1.
    10030    2    1    2    0    0  0.00000000000E+00  0.00000000000E+00  0.14065363533E+04  0.33077767157E+04  0.29938340447E+04 0.  0.
        3    1    3    3  502    0  0.13601998975E+04 -0.58137844283E+03  0.44983294313E+03  0.15461223567E+04  0.10100000352E+00 0. -1.
       -3    1    3    3    0  502 -0.13601998975E+04  0.58137844283E+03  0.95670341022E+03  0.17616543589E+04  0.10100000352E+00 0.  1.
</event>
<event>
 5   0  0.2640081E-07  0.2996992E+04  0.7818609E-02  0.8244590E-01
       -1   -1    0    0    0  501  0.00000000000E+00  0.00000000000E+00  0.12650751104E+04  0.12650751104E+04  0.50400001928E-02 0.  1.
        1   -1    0    0  501    0  0.00000000000E+00  0.00000000000E+00 -0.17749852893E+04  0.17749852893E+04  0.50400001928E-02 0. -1.
    10030    2    1    2    0    0  0.00000000000E+00  0.00000000000E+00 -0.50991017889E+03  0.30400603998E+04  0.29969916322E+04 0.  0.
        1    1    3    3  502    0  0.37312239580E+03 -0.13078260495E+04 -0.89317113474E+03  0.16270783552E+04  0.50400001928E-02 0.  1.
       -1    1    3    3    0  502 -0.37312239580E+03  0.13078260495E+04  0.38326095585E+03  0.14129820446E+04  0.50400001928E-02 0. -1.
</event>
<event>
 5   0  0.2679935E-07  0.3004615E+04  0.7818609E-02  0.8242414E-01
       -1   -1    0    0    0  501  0.00000000000E+00  0.00000000000E+00  0.14160011841E+04  0.14160011841E+04  0.50400001928E-02 0.  1.
        1   -1    0    0  501    0  0.00000000000E+00  0.00000000000E+00 -0.15938747787E+04  0.15938747787E+04  0.50400001928E-02 0. -1.
    10030    2    1    2    0    0  0.00000000000E+00  0.00000000000E+00 -0.17787359458E+03  0.30098759628E+04  0.30046154988E+04 0.  0.
        2    1    3    3  502    0  0.10174146360E+04  0.10983281691E+04 -0.21353810926E+03  0.15123015019E+04  0.25500000920E-02 0.  1.
       -2    1    3    3    0  502 -0.10174146360E+04 -0.10983281691E+04  0.35664514676E+02  0.14975744609E+04  0.25500000920E-02 0. -1.
</event>
<event>
 5   0  0.2602891E-07  0.3000741E+04  0.7818609E-02  0.8243519E-01
       -1   -1    0    0    0  501  0.00000000000E+00  0.00000000000E+00  0.13659239320E+04  0.13659239320E+04  0.50400001928E-02 0.  1.
        1   -1    0    0  501    0  0.00000000000E+00  0.00000000000E+00 -0.16480506818E+04  0.16480506818E+04  0.50400001928E-02 0. -1.
    10030    2    1    2    0    0  0.00000000000E+00  0.00000000000E+00 -0.28212674978E+03  0.30139746139E+04  0.30007411534E+04 0.  0.
        5    1    3    3  502    0  0.78895894379E+03  0.12503940102E+04  0.11530406816E+03  0.14829897214E+04  0.46999998093E+01 0.  1.
       -5    1    3    3    0  502 -0.78895894379E+03 -0.12503940102E+04 -0.39743081794E+03  0.15309848924E+04  0.46999998093E+01 0. -1.
</event>
<event>
 5   0  0.7208273E-07  0.2997771E+04  0.7818609E-02  0.8244368E-01
        2   -1    0    0  501    0  0.00000000000E+00  0.00000000000E+00  0.10791282485E+04  0.10791282485E+04  0.25500000920E-02 0.  1.
       -2   -1    0    0    0  501  0.00000000000E+00  0.00000000000E+00 -0.20819188016E+04  0.20819188016E+04  0.25500000920E-02 0. -1.
    10030    2    1    2    0    0  0.00000000000E+00  0.00000000000E+00 -0.10027905531E+04  0.31610470501E+04  0.29977707650E+04 0.  0.
        4    1    3    3  502    0 -0.10157044528E+04  0.52109651846E+03  0.52282643476E+03  0.12556059138E+04  0.12699999809E+01 0.  1.
       -4    1    3    3    0  502  0.10157044528E+04 -0.52109651846E+03 -0.15256169879E+04  0.19054411363E+04  0.12699999809E+01 0. -1.
</event>
<event>
 5   0  0.7399409E-07  0.2991413E+04  0.7818609E-02  0.8246187E-01
       -2   -1    0    0    0  501  0.00000000000E+00  0.00000000000E+00  0.17467728406E+04  0.17467728406E+04  0.25500000920E-02 0.  1.
        2   -1    0    0  501    0  0.00000000000E+00  0.00000000000E+00 -0.12807265673E+04  0.12807265673E+04  0.25500000920E-02 0. -1.
    10030    2    1    2    0    0  0.00000000000E+00  0.00000000000E+00  0.46604627334E+03  0.30274994080E+04  0.29914133008E+04 0.  0.
        3    1    3    3  502    0  0.23511973484E+03 -0.77944279756E+03 -0.10368343442E+04  0.13182707734E+04  0.10100000352E+00 0. -1.
       -3    1    3    3    0  502 -0.23511973484E+03  0.77944279756E+03  0.15028806176E+04  0.17092286346E+04  0.10100000352E+00 0.  1.
</event>
<event>
 5   0  0.2640081E-07  0.3027529E+04  0.7818609E-02  0.8235913E-01
       -1   -1    0    0    0  501  0.00000000000E+00  0.00000000000E+00  0.84944093124E+03  0.84944093125E+03  0.50400001928E-02 0.  1.
        1   -1    0    0  501    0  0.00000000000E+00  0.00000000000E+00 -0.26976362885E+04  0.26976362885E+04  0.50400001928E-02 0. -1.
    10030    2    1    2    0    0  0.00000000000E+00  0.00000000000E+00 -0.18481953573E+04  0.35470772198E+04  0.30275288148E+04 0.  0.
        1    1    3    3  502    0  0.24186348104E+03 -0.80501166848E+03  0.55089172804E+03  0.10049992169E+04  0.50400001928E-02 0.  1.
       -1    1    3    3    0  502 -0.24186348104E+03  0.80501166848E+03 -0.23990870853E+04  0.25420780029E+04  0.50400001928E-02 0. -1.
</event>
<event>
 5   0  0.2679935E-07  0.2998480E+04  0.7818609E-02  0.8244165E-01
        1   -1    0    0  501    0  0.00000000000E+00  0.00000000000E+00  0.70110069771E+03  0.70110069773E+03  0.50400001928E-02 0.  1.
       -1   -1    0    0    0  501  0.00000000000E+00  0.00000000000E+00 -0.32059874622E+04  0.32059874622E+04  0.50400001928E-02 0. -1.
    10030    2    1    2    0    0  0.00000000000E+00  0.00000000000E+00 -0.25048867645E+04  0.39070881599E+04  0.29984796458E+04 0.  0.
        2    1    3    3  502    0 -0.26788983280E+03  0.11990452430E+04 -0.23720166910E+04  0.26713175850E+04  0.25500000920E-02 0. -1.
       -2    1    3    3    0  502  0.26788983280E+03 -0.11990452430E+04 -0.13287007343E+03  0.12357705749E+04  0.25500000920E-02 0.  1.
</event>
<event>
 5   0  0.2792361E-07  0.2999198E+04  0.7818609E-02  0.8243960E-01
       -1   -1    0    0    0  501  0.00000000000E+00  0.00000000000E+00  0.68817105852E+03  0.68817105854E+03  0.50400001928E-02 0.  1.
        1   -1    0    0  501    0  0.00000000000E+00  0.00000000000E+00 -0.32677872359E+04  0.32677872359E+04  0.50400001928E-02 0. -1.
    10030    2    1    2    0    0  0.00000000000E+00  0.00000000000E+00 -0.25796161774E+04  0.39559582945E+04  0.29991976268E+04 0.  0.
        4    1    3    3  502    0  0.11752420059E+03 -0.92128466071E+03  0.26315927435E+03  0.96531434277E+03  0.12699999809E+01 0.  1.
       -4    1    3    3    0  502 -0.11752420059E+03  0.92128466071E+03 -0.28427754518E+04  0.29906439517E+04  0.12699999809E+01 0. -1.
</event>
<event>
 5   0  0.2621825E-07  0.3000597E+04  0.7818609E-02  0.8243560E-01
       -1   -1    0    0    0  501  0.00000000000E+00  0.00000000000E+00  0.83262498773E+03  0.83262498775E+03  0.50400001928E-02 0.  1.
        1   -1    0    0  501    0  0.00000000000E+00  0.00000000000E+00 -0.27033724603E+04  0.27033724603E+04  0.50400001928E-02 0. -1.
    10030    2    1    2    0    0  0.00000000000E+00  0.00000000000E+00 -0.18707474726E+04  0.35359974481E+04  0.30005969151E+04 0.  0.
        3    1    3    3  502    0 -0.49897549583E+03  0.13917586334E+04 -0.12356467653E+04  0.19268605497E+04  0.10100000352E+00 0.  1.
       -3    1    3    3    0  502  0.49897549583E+03 -0.13917586334E+04 -0.63510070730E+03  0.16091368984E+04  0.10100000352E+00 0. -1.
</event>
<event>
 5   0  0.2640081E-07  0.3001007E+04  0.7818609E-02  0.8243443E-01
        1   -1    0    0  501    0  0.00000000000E+00  0.00000000000E+00  0.23246130634E+04  0.23246130634E+04  0.50400001928E-02 0.  1.
       -1   -1    0    0    0  501  0.00000000000E+00  0.00000000000E+00 -0.96855281825E+03  0.96855281826E+03  0.50400001928E-02 0. -1.
    10030    2    1    2    0    0  0.00000000000E+00  0.00000000000E+00  0.13560602451E+04  0.32931658817E+04  0.30010068537E+04 0.  0.
        1    1    3    3  502    0 -0.71955520684E+03  0.48960009646E+03  0.20193368663E+04  0.21989063940E+04  0.50400001928E-02 0. -1.
       -1    1    3    3    0  502  0.71955520684E+03 -0.48960009646E+03 -0.66327662112E+03  0.10942594876E+04  0.50400001928E-02 0.  1.
</event>
<event>
 5   0  0.7208273E-07  0.2991426E+04  0.7818609E-02  0.8246184E-01
       -2   -1    0    0    0  501  0.00000000000E+00  0.00000000000E+00  0.12292781279E+04  0.12292781279E+04  0.25500000920E-02 0. -1.
        2   -1    0    0  501    0  0.00000000000E+00  0.00000000000E+00 -0.18198950775E+04  0.18198950775E+04  0.25500000920E-02 0.  1.
    10030    2    1    2    0    0  0.00000000000E+00  0.00000000000E+00 -0.59061694961E+03  0.30491732054E+04  0.29914258900E+04 0.  0.
        4    1    3    3  502    0 -0.77212083635E+03 -0.13091703050E+03 -0.15942100177E+04  0.17761804662E+04  0.12699999809E+01 0.  1.
       -4    1    3    3    0  502  0.77212083635E+03  0.13091703050E+03  0.10035930681E+04  0.12729927392E+04  0.12699999809E+01 0. -1.
</event>
<event>
 5   0  0.7208273E-07  0.2999199E+04  0.7818609E-02  0.8243960E-01
        2   -1    0    0  501    0  0.00000000000E+00  0.00000000000E+00  0.20113512737E+04  0.20113512737E+04  0.25500000920E-02 0.  1.
       -2   -1    0    0    0  501  0.00000000000E+00  0.00000000000E+00 -0.11180536511E+04  0.11180536511E+04  0.25500000920E-02 0. -1.
    10030    2    1    2    0    0  0.00000000000E+00  0.00000000000E+00  0.89329762261E+03  0.31294049248E+04  0.29991989832E+04 0.  0.
        4    1    3    3  502    0 -0.25370524249E+03  0.12591311136E+04 -0.36091521682E+03  0.13341809915E+04  0.12699999809E+01 0. -1.
       -4    1    3    3    0  502  0.25370524249E+03 -0.12591311136E+04  0.12542128394E+04  0.17952239333E+04  0.12699999809E+01 0.  1.
</event>
<event>
 5   0  0.2640081E-07  0.3008305E+04  0.7818609E-02  0.8241363E-01
        1   -1    0    0  501    0  0.00000000000E+00  0.00000000000E+00  0.17335243927E+04  0.17335243927E+04  0.50400001928E-02 0. -1.
       -1   -1    0    0    0  501  0.00000000000E+00  0.00000000000E+00 -0.13051300273E+04  0.13051300273E+04  0.50400001928E-02 0.  1.
    10030    2    1    2    0    0  0.00000000000E+00  0.00000000000E+00  0.42839436538E+03  0.30386544200E+04  0.30083049965E+04 0.  0.
        1    1    3    3  502    0  0.25146748270E+03  0.94680257316E+03 -0.93872220705E+03  0.13567867885E+04  0.50400001928E-02 0.  1.
       -1    1    3    3    0  502 -0.25146748270E+03 -0.94680257316E+03  0.13671165724E+04  0.16818676315E+04  0.50400001928E-02 0. -1.
</event>
<event>
 5   0  0.2792361E-07  0.2995116E+04  0.7818609E-02  0.8245127E-01
       -1   -1    0    0    0  501  0.00000000000E+00  0.00000000000E+00  0.99290503679E+03  0.99290503681E+03  0.50400001928E-02 0. -1.
        1   -1    0    0  501    0  0.00000000000E+00  0.00000000000E+00 -0.22587059519E+04  0.22587059519E+04  0.50400001928E-02 0.  1.
    10030    2    1    2    0    0  0.00000000000E+00  0.00000000000E+00 -0.12658009151E+04  0.32516109887E+04  0.29951163692E+04 0.  0.
        4    1    3    3  502    0  0.59284376211E+03  0.12719094122E+04 -0.12006189965E+04  0.18468093748E+04  0.12699999809E+01 0.  1.
       -4    1    3    3    0  502 -0.59284376211E+03 -0.12719094122E+04 -0.65181918613E+02  0.14048016139E+04  0.12699999809E+01 0. -1.
</event>
<event>
 5   0  0.7208273E-07  0.2999563E+04  0.7818609E-02  0.8243856E-01
       -2   -1    0    0    0  501  0.00000000000E+00  0.00000000000E+00  0.12320097336E+04  0.12320097336E+04  0.25500000920E-02 0.  1.
        2   -1    0    0  501    0  0.00000000000E+00  0.00000000000E+00 -0.18257524036E+04  0.18257524036E+04  0.25500000920E-02 0. -1.
    10030    2    1    2    0    0  0.00000000000E+00  0.00000000000E+00 -0.59374267007E+03  0.30577621372E+04  0.29995631231E+04 0.  0.
        4    1    3    3  502    0 -0.17441107608E+03 -0.98229221942E+03 -0.14384318657E+04  0.17505442220E+04  0.12699999809E+01 0. -1.
       -4    1    3    3    0  502  0.17441107608E+03  0.98229221942E+03  0.84468919567E+03  0.13072179153E+04  0.12699999809E+01 0.  1.
</event>
<event>
 5   0  0.7208273E-07  0.3005456E+04  0.7818609E-02  0.8242175E-01
        2   -1    0    0  501    0  0.00000000000E+00  0.00000000000E+00  0.11342432442E+04  0.11342432442E+04  0.25500000920E-02 0. -1.
       -2   -1    0    0    0  501  0.00000000000E+00  0.00000000000E+00 -0.19909235785E+04  0.19909235785E+04  0.25500000920E-02 0.  1.
    10030    2    1    2    0    0  0.00000000000E+00  0.00000000000E+00 -0.85668033435E+03  0.31251668227E+04  0.30054561176E+04 0.  0.
        4    1    3    3  502    0  0.27258043096E+03 -0.14633318518E+04 -0.64283241738E+03  0.16213806862E+04  0.12699999809E+01 0. -1.
       -4    1    3    3    0  502 -0.27258043096E+03  0.14633318518E+04 -0.21384791697E+03  0.15037861365E+04  0.12699999809E+01 0.  1.
</event>
<event>
 5   0  0.7585823E-07  0.3006436E+04  0.7818609E-02  0.8241895E-01
       -2   -1    0    0    0  501  0.00000000000E+00  0.00000000000E+00  0.98523673214E+03  0.98523673215E+03  0.25500000920E-02 0. -1.
        2   -1    0    0  501    0  0.00000000000E+00  0.00000000000E+00 -0.22935248001E+04  0.22935248001E+04  0.25500000920E-02 0.  1.
    10030    2    1    2    0    0  0.00000000000E+00  0.00000000000E+00 -0.13082880679E+04  0.32787615322E+04  0.30064363483E+04 0.  0.
        5    1    3    3  502    0  0.48475468471E+03 -0.28767850255E+02  0.89733041619E+03  0.10203130203E+04  0.46999998093E+01 0. -1.
       -5    1    3    3    0  502 -0.48475468471E+03  0.28767850255E+02 -0.22056184841E+04  0.22584485119E+04  0.46999998093E+01 0.  1.
</event>
<event>
 5   0  0.7307508E-07  0.3007228E+04  0.7818609E-02  0.8241670E-01
        2   -1    0    0  501    0  0.00000000000E+00  0.00000000000E+00  0.12728928355E+04  0.12728928355E+04  0.25500000920E-02 0.  1.
       -2   -1    0    0    0  501  0.00000000000E+00  0.00000000000E+00 -0.17761548055E+04  0.17761548055E+04  0.25500000920E-02 0. -1.
    10030    2    1    2    0    0  0.00000000000E+00  0.00000000000E+00 -0.50326197007E+03  0.30490476410E+04  0.30072277777E+04 0.  0.
        1    1    3    3  502    0 -0.47523180967E+03  0.95179414953E+03 -0.13289977648E+04  0.17023490932E+04  0.50400001928E-02 0. -1.
       -1    1    3    3    0  502  0.47523180967E+03 -0.95179414953E+03  0.82573579477E+03  0.13466985479E+04  0.50400001928E-02 0.  1.
</event>
<event>
 5   0  0.2602891E-07  0.3004600E+04  0.7818609E-02  0.8242419E-01
       -1   -1    0    0    0  501  0.00000000000E+00  0.00000000000E+00  0.14621527437E+04  0.14621527437E+04  0.50400001928E-02 0. -1.
        1   -1    0    0  501    0  0.00000000000E+00  0.00000000000E+00 -0.15435491681E+04  0.15435491681E+04  0.50400001928E-02 0.  1.
    10030    2    1    2    0    0  0.00000000000E+00  0.00000000000E+00 -0.81396424360E+02  0.30057019118E+04  0.30045995747E+04 0.  0.
        5    1    3    3  502    0 -0.10404020209E+04 -0.96166538076E+03  0.45913086549E+03  0.14893152491E+04  0.46999998093E+01 0.  1.
       -5    1    3    3    0  502  0.10404020209E+04  0.96166538076E+03 -0.54052728985E+03  0.15163866626E+04  0.46999998093E+01 0. -1.
</event>
<event>
 5   0  0.7585823E-07  0.3000279E+04  0.7818609E-02  0.8243651E-01
       -2   -1    0    0    0  501  0.00000000000E+00  0.00000000000E+00  0.10098647765E+04  0.10098647765E+04  0.25500000920E-02 0.  1.
        2   -1    0    0  501    0  0.00000000000E+00  0.00000000000E+00 -0.22284361712E+04  0.22284361712E+04  0.25500000920E-02 0. -1.
    10030    2    1    2    0    0  0.00000000000E+00  0.00000000000E+00 -0.12185713947E+04  0.32383009477E+04  0.30002794510E+04 0.  0.
        5    1    3    3  502    0 -0.12655490307E+03 -0.15075767543E+03  0.99585831200E+03  0.10151354037E+04  0.46999998093E+01 0.  1.
       -5    1    3    3    0  502  0.12655490307E+03  0.15075767543E+03 -0.22144297067E+04  0.22231655440E+04  0.46999998093E+01 0. -1.
</event>
<event>
 5   0  0.2679935E-07  0.3005437E+04  0.7818609E-02  0.8242180E-01
        1   -1    0    0  501    0  0.00000000000E+00  0.00000000000E+00  0.80278026987E+03  0.80278026989E+03  0.50400001928E-02 0. -1.
       -1   -1    0    0    0  501  0.00000000000E+00  0.00000000000E+00 -0.28129281244E+04  0.28129281244E+04  0.50400001928E-02 0.  1.
    10030    2    1    2    0    0  0.00000000000E+00  0.00000000000E+00 -0.20101478546E+04  0.36157083943E+04  0.30054372054E+04 0.  0.
        2    1    3    3  502    0 -0.42899801088E+03  0.58120394305E+03  0.58018920156E+03  0.92652945251E+03  0.25500000920E-02 0. -1.
       -2    1    3    3    0  502  0.42899801088E+03 -0.58120394305E+03 -0.25903370561E+04  0.26891789418E+04  0.25500000920E-02 0.  1.
</event>
<event>
 5   0  0.7585823E-07  0.3000496E+04  0.7818609E-02  0.8243589E-01
       -2   -1    0    0    0  501  0.00000000000E+00  0.00000000000E+00  0.16043018532E+04  0.16043018532E+04  0.25500000920E-02 0.  1.
        2   -1    0    0  501    0  0.00000000000E+00  0.00000000000E+00 -0.14029429272E+04  0.14029429272E+04  0.25500000920E-02 0. -1.
    10030    2    1    2    0    0  0.00000000000E+00  0.00000000000E+00  0.20135892601E+03  0.30072447804E+04  0.30004959177E+04 0.  0.
        5    1    3    3  502    0  0.56031659343E+03  0.53481573054E+03  0.13883803198E+04  0.15898441914E+04  0.46999998093E+01 0.  1.
       -5    1    3    3    0  502 -0.56031659343E+03 -0.53481573054E+03 -0.11870213938E+04  0.14174005890E+04  0.46999998093E+01 0. -1.
</event>
<event>
 5   0  0.2621825E-07  0.3003175E+04  0.7818609E-02  0.8242825E-01
       -1   -1    0    0    0  501  0.00000000000E+00  0.00000000000E+00  0.13302040622E+04  0.13302040622E+04  0.50400001928E-02 0.  1.
        1   -1    0    0  501    0  0.00000000000E+00  0.00000000000E+00 -0.16950523808E+04  0.16950523808E+04  0.50400001928E-02 0. -1.
    10030    2    1    2    0    0  0.00000000000E+00  0.00000000000E+00 -0.36484831861E+03  0.30252564430E+04  0.30031753612E+04 0.  0.
        3    1    3    3  502    0 -0.75197523581E+03  0.10023406197E+04 -0.10159206604E+04  0.16131485584E+04  0.10100000352E+00 0. -1.
       -3    1    3    3    0  502  0.75197523581E+03 -0.10023406197E+04  0.65107234176E+03  0.14121078845E+04  0.10100000352E+00 0.  1.
</event>
<event>
 5   0  0.2792361E-07  0.3007282E+04  0.7818609E-02  0.8241654E-01
        1   -1    0    0  501    0  0.00000000000E+00  0.00000000000E+00  0.15427118538E+04  0.15427118538E+04  0.50400001928E-02 0. -1.
       -1   -1    0    0    0  501  0.00000000000E+00  0.00000000000E+00 -0.14655600091E+04  0.14655600091E+04  0.50400001928E-02 0.  1.
    10030    2    1    2    0    0  0.00000000000E+00  0.00000000000E+00  0.77151844659E+02  0.30082718629E+04  0.30072823602E+04 0.  0.
        4    1    3    3  502    0 -0.38416139854E+03  0.11123747127E+04 -0.89766883966E+03  0.14801244678E+04  0.12699999809E+01 0.  1.
       -4    1    3    3    0  502  0.38416139854E+03 -0.11123747127E+04  0.97482068432E+03  0.15281473951E+04  0.12699999809E+01 0. -1.
</event>
<event>
 5   0  0.2621825E-07  0.2993585E+04  0.7818609E-02  0.8245565E-01
        1   -1    0    0  501    0  0.00000000000E+00  0.00000000000E+00  0.14809405964E+04  0.14809405964E+04  0.50400001928E-02 0.  1.
       -1   -1    0    0    0  501  0.00000000000E+00  0.00000000000E+00 -0.15128139502E+04  0.15128139503E+04  0.50400001928E-02 0. -1.
    10030    2    1    2    0    0  0.00000000000E+00  0.00000000000E+00 -0.31873353832E+02  0.29937545467E+04  0.29935848702E+04 0.  0.
        3    1    3    3  502    0  0.14827774163E+04 -0.58743088072E+02  0.17979862794E+03  0.14947933548E+04  0.10100000352E+00 0.  1.
       -3    1    3    3    0  502 -0.14827774163E+04  0.58743088072E+02 -0.21167198178E+03  0.14989611919E+04  0.10100000352E+00 0. -1.
</event>
<event>
 5   0  0.2621825E-07  0.3004835E+04  0.7818609E-02  0.8242352E-01
        1   -1    0    0  501    0  0.00000000000E+00  0.00000000000E+00  0.86696325326E+03  0.86696325328E+03  0.50400001928E-02 0. -1.
       -1   -1    0    0    0  501  0.00000000000E+00  0.00000000000E+00 -0.26036380141E+04  0.26036380141E+04  0.50400001928E-02 0.  1.
    10030    2    1    2    0    0  0.00000000000E+00  0.00000000000E+00 -0.17366747608E+04  0.34706012674E+04  0.30048350924E+04 0.  0.
        3    1    3    3  502    0  0.39828686249E+02  0.70362352014E+03 -0.24008805318E+04  0.25021789945E+04  0.10100000352E+00 0.  1.
       -3    1    3    3    0  502 -0.39828686249E+02 -0.70362352014E+03  0.66420577093E+03  0.96842227292E+03  0.10100000352E+00 0. -1.
</event>
<event>
 5   0  0.7278657E-07  0.3003271E+04  0.7818609E-02  0.8242798E-01
       -2   -1    0    0    0  501  0.00000000000E+00  0.00000000000E+00  0.15069362260E+04  0.15069362260E+04  0.25500000920E-02 0.  1.
        2   -1    0    0  501    0  0.00000000000E+00  0.00000000000E+00 -0.14963530475E+04  0.14963530475E+04  0.25500000920E-02 0. -1.
    10030    2    1    2    0    0  0.00000000000E+00  0.00000000000E+00  0.10583178456E+02  0.30032892735E+04  0.30032706266E+04 0.  0.
        2    1    3    3  502    0  0.14972242172E+04 -0.39611235559E+02  0.11327007001E+03  0.15020251381E+04  0.25500000920E-02 0.  1.
       -2    1    3    3    0  502 -0.14972242172E+04  0.39611235559E+02 -0.10268689155E+03  0.15012641354E+04  0.25500000920E-02 0. -1.
</event>
<event>
 5   0  0.2602891E-07  0.2991393E+04  0.7818609E-02  0.8246193E-01
        1   -1    0    0  501    0  0.00000000000E+00  0.00000000000E+00  0.20393379767E+04  0.20393379767E+04  0.50400001928E-02 0.  1.
       -1   -1    0    0    0  501  0.00000000000E+00  0.00000000000E+00 -0.10969777679E+04  0.10969777679E+04  0.50400001928E-02 0. -1.
    10030    2    1    2    0    0  0.00000000000E+00  0.00000000000E+00  0.94236020880E+03  0.31363157447E+04  0.29913932686E+04 0.  0.
        5    1    3    3  502    0 -0.99484975220E+03  0.32677483163E+03 -0.64853840901E+03  0.12317191149E+04  0.46999998093E+01 0. -1.
       -5    1    3    3    0  502  0.99484975220E+03 -0.32677483163E+03  0.15908986178E+04  0.19045966298E+04  0.46999998093E+01 0.  1.
</event>
<event>
 5   0  0.2679935E-07  0.2996320E+04  0.7818609E-02  0.8244783E-01
        1   -1    0    0  501    0  0.00000000000E+00  0.00000000000E+00  0.11838233326E+04  0.11838233326E+04  0.50400001928E-02 0.  1.
       -1   -1    0    0    0  501  0.00000000000E+00  0.00000000000E+00 -0.18959613377E+04  0.18959613378E+04  0.50400001928E-02 0. -1.
    10030    2    1    2    0    0  0.00000000000E+00  0.00000000000E+00 -0.71213800518E+03  0.30797846703E+04  0.29963199224E+04 0.  0.
        2    1    3    3  502    0  0.12928056130E+04 -0.67596052569E+03 -0.70646725084E+03  0.16209148534E+04  0.25500000920E-02 0. -1.
       -2    1    3    3    0  502 -0.12928056130E+04  0.67596052569E+03 -0.56707543330E+01  0.14588698170E+04  0.25500000920E-02 0.  1.
</event>
<event>
 5   0  0.2621825E-07  0.2998954E+04  0.7818609E-02  0.8244030E-01
        1   -1    0    0  501    0  0.00000000000E+00  0.00000000000E+00  0.16006723865E+04  0.16006723865E+04  0.50400001928E-02 0. -1.
       -1   -1    0    0    0  501  0.00000000000E+00  0.00000000000E+00 -0.14046793068E+04  0.14046793068E+04  0.50400001928E-02 0.  1.
    10030    2    1    2    0    0  0.00000000000E+00  0.00000000000E+00  0.19599307965E+03  0.30053516933E+04  0.29989540698E+04 0.  0.
        3    1    3    3  502    0  0.12010775823E+04 -0.66212005473E+03 -0.50946574513E+03  0.14630603819E+04  0.10100000352E+00 0.  1.
       -3    1    3    3    0  502 -0.12010775823E+04  0.66212005473E+03  0.70545882479E+03  0.15422913114E+04  0.10100000352E+00 0. -1.
</event>
<event>
 5   0  0.7307508E-07  0.2998817E+04  0.7818609E-02  0.8244069E-01
        2   -1    0    0  501    0  0.00000000000E+00  0.00000000000E+00  0.14227706236E+04  0.14227706236E+04  0.25500000920E-02 0.  1.
       -2   -1    0    0    0  501  0.00000000000E+00  0.00000000000E+00 -0.15801740913E+04  0.15801740913E+04  0.25500000920E-02 0. -1.
    10030    2    1    2    0    0  0.00000000000E+00  0.00000000000E+00 -0.15740346765E+03  0.30029447149E+04  0.29988166181E+04 0.  0.
        1    1    3    3  502    0 -0.40558588917E+03 -0.71243937757E+03  0.11784768045E+04  0.14355756194E+04  0.50400001928E-02 0.  1.
       -1    1    3    3    0  502  0.40558588917E+03  0.71243937757E+03 -0.13358802721E+04  0.15673690956E+04  0.50400001928E-02 0. -1.
</event>
<event>
 5   0  0.7278657E-07  0.2991272E+04  0.7818609E-02  0.8246228E-01
       -2   -1    0    0    0  501  0.00000000000E+00  0.00000000000E+00  0.82111602548E+03  0.82111602548E+03  0.25500000920E-02 0. -1.
        2   -1    0    0  501    0  0.00000000000E+00  0.00000000000E+00 -0.27242521123E+04  0.27242521123E+04  0.25500000920E-02 0.  1.
    10030    2    1    2    0    0  0.00000000000E+00  0.00000000000E+00 -0.19031360868E+04  0.35453681377E+04  0.29912720149E+04 0.  0.
        2    1    3    3  502    0 -0.71362990942E+03  0.32179117332E+03  0.55890552823E+03  0.96186932394E+03  0.25500000920E-02 0. -1.
       -2    1    3    3    0  502  0.71362990942E+03 -0.32179117332E+03 -0.24620416150E+04  0.25834988138E+04  0.25500000920E-02 0.  1.
</event>
<event>
 5   0  0.2621825E-07  0.3000729E+04  0.7818609E-02  0.8243523E-01
        1   -1    0    0  501    0  0.00000000000E+00  0.00000000000E+00  0.20795294077E+04  0.20795294077E+04  0.50400001928E-02 0.  1.
       -1   -1    0    0    0  501  0.00000000000E+00  0.00000000000E+00 -0.10825012421E+04  0.10825012421E+04  0.50400001928E-02 0. -1.
    10030    2    1    2    0    0  0.00000000000E+00  0.00000000000E+00  0.99702816564E+03  0.31620306498E+04  0.30007286894E+04 0.  0.
        3    1    3    3  502    0  0.93292496018E+03  0.75086456154E+03  0.14509509015E+04  0.18813306727E+04  0.10100000352E+00 0.  1.
       -3    1    3    3    0  502 -0.93292496018E+03 -0.75086456154E+03 -0.45392273587E+03  0.12806999771E+04  0.10100000352E+00 0. -1.
</event>
<event>
 5   0  0.7307508E-07  0.2978786E+04  0.7818609E-02  0.8249815E-01
        2   -1    0    0  501    0  0.00000000000E+00  0.00000000000E+00  0.16616399361E+04  0.16616399361E+04  0.25500000920E-02 0. -1.
       -2   -1    0    0    0  501  0.00000000000E+00  0.00000000000E+00 -0.13350009265E+04  0.13350009265E+04  0.25500000920E-02 0.  1.
    10030    2    1    2    0    0  0.00000000000E+00  0.00000000000E+00  0.32663900966E+03  0.29966408626E+04  0.29787855607E+04 0.  0.
        1    1    3    3  502    0  0.33995639845E+03 -0.49961550812E+03 -0.12061282021E+04  0.13490482751E+04  0.50400001928E-02 0.  1.
       -1    1    3    3    0  502 -0.33995639845E+03  0.49961550812E+03  0.15327672117E+04  0.16475925874E+04  0.50400001928E-02 0. -1.
</event>
<event>
 5   0  0.2640081E-07  0.2997430E+04  0.7818609E-02  0.8244465E-01
        1   -1    0    0  501    0  0.00000000000E+00  0.00000000000E+00  0.18072108494E+04  0.18072108494E+04  0.50400001928E-02 0.  1.
       -1   -1    0    0    0  501  0.00000000000E+00  0.00000000000E+00 -0.12428801287E+04  0.12428801287E+04  0.50400001928E-02 0. -1.
    10030    2    1    2    0    0  0.00000000000E+00  0.00000000000E+00  0.56433072069E+03  0.30500909781E+04  0.29974298678E+04 0.  0.
        1    1    3    3  502    0  0.10493910775E+04  0.10206086521E+04  0.60918795676E+03  0.15855515195E+04  0.50400001928E-02 0.  1.
       -1    1    3    3    0  502 -0.10493910775E+04 -0.10206086521E+04 -0.44857236070E+02  0.14645394586E+04  0.50400001928E-02 0. -1.
</event>
<event>
 5   0  0.2621825E-07  0.3001603E+04  0.7818609E-02  0.8243273E-01
       -1   -1    0    0    0  501  0.00000000000E+00  0.00000000000E+00  0.14856763094E+04  0.14856763094E+04  0.50400001928E-02 0. -1.
        1   -1    0    0  501    0  0.00000000000E+00  0.00000000000E+00 -0.15160810834E+04  0.15160810834E+04  0.50400001928E-02 0.  1.
    10030    2    1    2    0    0  0.00000000000E+00  0.00000000000E+00 -0.30404773983E+02  0.30017573928E+04  0.30016034040E+04 0.  0.
        3    1    3    3  502    0 -0.12234065407E+04 -0.51748735424E+03  0.68332397166E+03  0.14938033291E+04  0.10100000352E+00 0. -1.
       -3    1    3    3    0  502  0.12234065407E+04  0.51748735424E+03 -0.71372874564E+03  0.15079540637E+04  0.10100000352E+00 0.  1.
</event>
<event>
 5   0  0.7208273E-07  0.2994573E+04  0.7818609E-02  0.8245282E-01
       -2   -1    0    0    0  501  0.00000000000E+00  0.00000000000E+00  0.14786752655E+04  0.14786752655E+04  0.25500000920E-02 0. -1.
        2   -1    0    0  501    0  0.00000000000E+00  0.00000000000E+00 -0.15161315270E+04  0.15161315270E+04  0.25500000920E-02 0.  1.
    10030    2    1    2    0    0  0.00000000000E+00  0.00000000000E+00 -0.37456261496E+02  0.29948067925E+04  0.29945725493E+04 0.  0.
        4    1    3    3  502    0  0.61971244552E+03 -0.13537286772E+04 -0.17761072089E+03  0.14993905521E+04  0.12699999809E+01 0.  1.
       -4    1    3    3    0  502 -0.61971244552E+03  0.13537286772E+04  0.14015445939E+03  0.14954162404E+04  0.12699999809E+01 0. -1.
</event>
<event>
 5   0  0.7585823E-07  0.2999722E+04  0.7818609E-02  0.8243810E-01
        2   -1    0    0  501    0  0.00000000000E+00  0.00000000000E+00  0.10286519283E+04  0.10286519283E+04  0.25500000920E-02 0. -1.
       -2   -1    0    0    0  501  0.00000000000E+00  0.00000000000E+00 -0.21869233346E+04  0.21869233346E+04  0.25500000920E-02 0.  1.
    10030    2    1    2    0    0  0.00000000000E+00  0.00000000000E+00 -0.11582714062E+04  0.32155752629E+04  0.29997219239E+04 0.  0.
        5    1    3    3  502    0  0.63166749663E+03  0.86545271568E+03  0.54593420896E+03  0.12025300328E+04  0.46999998093E+01 0. -1.
       -5    1    3    3    0  502 -0.63166749663E+03 -0.86545271568E+03 -0.17042056152E+04  0.20130452301E+04  0.46999998093E+01 0.  1.
</event>
<event>
 5   0  0.7307508E-07  0.2997206E+04  0.7818609E-02  0.8244529E-01
        2   -1    0    0  501    0  0.00000000000E+00  0.00000000000E+00  0.19680378031E+04  0.19680378031E+04  0.25500000920E-02 0.  1.
       -2   -1    0    0    0  501  0.00000000000E+00  0.00000000000E+00 -0.11411425204E+04  0.11411425204E+04  0.25500000920E-02 0. -1.
    10030    2    1    2    0    0  0.00000000000E+00  0.00000000000E+00  0.82689528271E+03  0.31091803235E+04  0.29972064452E+04 0.  0.
        1    1    3    3  502    0 -0.20512148444E+03  0.81655528962E+03  0.16995115457E+04  0.18966224870E+04  0.50400001928E-02 0.  1.
       -1    1    3    3    0  502  0.20512148444E+03 -0.81655528962E+03 -0.87261626296E+03  0.12125578365E+04  0.50400001928E-02 0. -1.
</event>
<event>
 5   0  0.7585823E-07  0.2997687E+04  0.7818609E-02  0.8244392E-01
        2   -1    0    0  501    0  0.00000000000E+00  0.00000000000E+00  0.25001145890E+04  0.25001145890E+04  0.25500000920E-02 0.  1.
       -2   -1    0    0    0  501  0.00000000000E+00  0.00000000000E+00 -0.89857158909E+03  0.89857158909E+03  0.25500000920E-02 0. -1.
    10030    2    1    2    0    0  0.00000000000E+00  0.00000000000E+00  0.16015429999E+04  0.33986861781E+04  0.29976870678E+04 0.  0.
        5    1    3    3  502    0  0.16802481993E+03 -0.14863804763E+04  0.69350834371E+03  0.16487980996E+04  0.46999998093E+01 0. -1.
       -5    1    3    3    0  502 -0.16802481993E+03  0.14863804763E+04  0.90803465622E+03  0.17498880785E+04  0.46999998093E+01 0.  1.
</event>
<event>
 5   0  0.7208273E-07  0.3041372E+04  0.7818609E-02  0.8232015E-01
        2   -1    0    0  501    0  0.00000000000E+00  0.00000000000E+00  0.20473841765E+04  0.20473841765E+04  0.25500000920E-02 0. -1.
       -2   -1    0    0    0  501  0.00000000000E+00  0.00000000000E+00 -0.11294827844E+04  0.11294827844E+04  0.25500000920E-02 0.  1.
    10030    2    1    2    0    0  0.00000000000E+00  0.00000000000E+00  0.91790139208E+03  0.31768669609E+04  0.30413715198E+04 0.  0.
        4    1    3    3  502    0 -0.31532672537E+03  0.12512317439E+04 -0.38155365185E+03  0.13455841196E+04  0.12699999809E+01 0.  1.
       -4    1    3    3    0  502  0.31532672537E+03 -0.12512317439E+04  0.12994550439E+04  0.18312828413E+04  0.12699999809E+01 0. -1.
</event>
<event>
 5   0  0.2621825E-07  0.3007260E+04  0.7818609E-02  0.8241661E-01
        1   -1    0    0  501    0  0.00000000000E+00  0.00000000000E+00  0.25527241780E+04  0.25527241780E+04  0.50400001928E-02 0. -1.
       -1   -1    0    0    0  501  0.00000000000E+00  0.00000000000E+00 -0.88568247140E+03  0.88568247142E+03  0.50400001928E-02 0.  1.
    10030    2    1    2    0    0  0.00000000000E+00  0.00000000000E+00  0.16670417066E+04  0.34384066494E+04  0.30072599214E+04 0.  0.
        3    1    3    3  502    0 -0.12864467357E+04 -0.76790032079E+03  0.97943790568E+03  0.17899482472E+04  0.10100000352E+00 0.  1.
       -3    1    3    3    0  502  0.12864467357E+04  0.76790032079E+03  0.68760380089E+03  0.16484584022E+04  0.10100000352E+00 0. -1.
</event>
<event>
 5   0  0.2621825E-07  0.2998585E+04  0.7818609E-02  0.8244135E-01
        1   -1    0    0  501    0  0.00000000000E+00  0.00000000000E+00  0.18881073714E+04  0.18881073714E+04  0.50400001928E-02 0. -1.
       -1   -1    0    0    0  501  0.00000000000E+00  0.00000000000E+00 -0.11905454411E+04  0.11905454411E+04  0.50400001928E-02 0.  1.
    10030    2    1    2    0    0  0.00000000000E+00  0.00000000000E+00  0.69756193026E+03  0.30786528125E+04  0.29985847484E+04 0.  0.
        3    1    3    3  502    0 -0.89673021423E+03  0.10976298929E+04 -0.15310845542E+03  0.14256081748E+04  0.10100000352E+00 0.  1.
       -3    1    3    3    0  502  0.89673021423E+03 -0.10976298929E+04  0.85067038568E+03  0.16530446377E+04  0.10100000352E+00 0. -1.
</event>
<event>
 5   0  0.7399409E-07  0.3001110E+04  0.7818609E-02  0.8243414E-01
       -2   -1    0    0    0  501  0.00000000000E+00  0.00000000000E+00  0.80316281550E+03  0.80316281550E+03  0.25500000920E-02 0. -1.
        2   -1    0    0  501    0  0.00000000000E+00  0.00000000000E+00 -0.28034987803E+04  0.28034987803E+04  0.25500000920E-02 0.  1.
    10030    2    1    2    0    0  0.00000000000E+00  0.00000000000E+00 -0.20003359648E+04  0.36066615958E+04  0.30011104436E+04 0.  0.
        3    1    3    3  502    0  0.10390352995E+04 -0.57185565506E+03  0.10458534734E+03  0.11906096543E+04  0.10100000352E+00 0. -1.
       -3    1    3    3    0  502 -0.10390352995E+04  0.57185565506E+03 -0.21049213122E+04  0.24160519416E+04  0.10100000352E+00 0.  1.
</event>
<event>
 5   0  0.7208273E-07  0.2996351E+04  0.7818609E-02  0.8244774E-01
        2   -1    0    0  501    0  0.00000000000E+00  0.00000000000E+00  0.16227120998E+04  0.16227120998E+04  0.25500000920E-02 0. -1.
       -2   -1    0    0    0  501  0.00000000000E+00  0.00000000000E+00 -0.13831961709E+04  0.13831961709E+04  0.25500000920E-02 0.  1.
    10030    2    1    2    0    0  0.00000000000E+00  0.00000000000E+00  0.23951592890E+03  0.30059082708E+04  0.29963505556E+04 0.  0.
        4    1    3    3  502    0  0.11980234192E+02 -0.14650239185E+04 -0.19443259172E+03  0.14779188927E+04  0.12699999809E+01 0.  1.
       -4    1    3    3    0  502 -0.11980234192E+02  0.14650239185E+04  0.43394852063E+03  0.15279893780E+04  0.12699999809E+01 0. -1.
</event>
<event>
 5   0  0.2679935E-07  0.3006253E+04  0.7818609E-02  0.8241948E-01
        1   -1    0    0  501    0  0.00000000000E+00  0.00000000000E+00  0.20412443792E+04  0.20412443792E+04  0.50400001928E-02 0.  1.
       -1   -1    0    0    0  501  0.00000000000E+00  0.00000000000E+00 -0.11068684973E+04  0.11068684973E+04  0.50400001928E-02 0. -1.
    10030    2    1    2    0    0  0.00000000000E+00  0.00000000000E+00  0.93437588194E+03  0.31481128765E+04  0.30062528826E+04 0.  0.
        2    1    3    3  502    0  0.50730618060E+03  0.21917097913E+03 -0.99662760863E+03  0.11395885526E+04  0.25500000920E-02 0. -1.
       -2    1    3    3    0  502 -0.50730618060E+03 -0.21917097913E+03  0.19310034906E+04  0.20085243239E+04  0.25500000920E-02 0.  1.
</event>
<event>
 5   0  0.2640081E-07  0.3000579E+04  0.7818609E-02  0.8243566E-01
       -1   -1    0    0    0  501  0.00000000000E+00  0.00000000000E+00  0.91790291718E+03  0.91790291719E+03  0.50400001928E-02 0. -1.
        1   -1    0    0  501    0  0.00000000000E+00  0.00000000000E+00 -0.24521857642E+04  0.24521857642E+04  0.50400001928E-02 0.  1.
    10030    2    1    2    0    0  0.00000000000E+00  0.00000000000E+00 -0.15342828470E+04  0.33700886814E+04  0.30005789217E+04 0.  0.
        1    1    3    3  502    0 -0.30269716045E+03 -0.14682484779E+04 -0.83348602478E+03  0.17152487042E+04  0.50400001928E-02 0. -1.
       -1    1    3    3    0  502  0.30269716045E+03  0.14682484779E+04 -0.70079682220E+03  0.16548399771E+04  0.50400001928E-02 0.  1.
</event>
<event>
 5   0  0.2679935E-07  0.2997384E+04  0.7818609E-02  0.8244478E-01
       -1   -1    0    0    0  501  0.00000000000E+00  0.00000000000E+00  0.10770570988E+04  0.10770570988E+04  0.50400001928E-02 0.  1.
        1   -1    0    0  501    0  0.00000000000E+00  0.00000000000E+00 -0.20853839597E+04  0.20853839597E+04  0.50400001928E-02 0. -1.
    10030    2    1    2    0    0  0.00000000000E+00  0.00000000000E+00 -0.10083268609E+04  0.31624410586E+04  0.29973839244E+04 0.  0.
        2    1    3    3  502    0 -0.80416725304E+03  0.68724677392E+03  0.61594045692E+03  0.12240815927E+04  0.25500000920E-02 0.  1.
       -2    1    3    3    0  502  0.80416725304E+03 -0.68724677392E+03 -0.16242673178E+04  0.19383594659E+04  0.25500000920E-02 0. -1.
</event>
<event>
 5   0  0.7208273E-07  0.2996898E+04  0.7818609E-02  0.8244617E-01
        2   -1    0    0  501    0  0.00000000000E+00  0.00000000000E+00  0.15518740288E+04  0.15518740288E+04  0.25500000920E-02 0.  1.
       -2   -1    0    0    0  501  0.00000000000E+00  0.00000000000E+00 -0.14468636010E+04  0.14468636010E+04  0.25500000920E-02 0. -1.
    10030    2    1    2    0    0  0.00000000000E+00  0.00000000000E+00  0.10501042785E+03  0.29987376298E+04  0.29968984272E+04 0.  0.
        4    1    3    3  502    0 -0.13036185158E+03  0.11655662816E+03  0.15416284537E+04  0.15515152471E+04  0.12699999809E+01 0.  1.
       -4    1    3    3    0  502  0.13036185158E+03 -0.11655662816E+03 -0.14366180258E+04  0.14472223827E+04  0.12699999809E+01 0. -1.
</event>
<event>
 5   0  0.7208273E-07  0.3003025E+04  0.7818609E-02  0.8242868E-01
        2   -1    0    0  501    0  0.00000000000E+00  0.00000000000E+00  0.14238219090E+04  0.14238219090E+04  0.25500000920E-02 0.  1.
       -2   -1    0    0    0  501  0.00000000000E+00  0.00000000000E+00 -0.15834423779E+04  0.15834423779E+04  0.25500000920E-02 0. -1.
    10030    2    1    2    0    0  0.00000000000E+00  0.00000000000E+00 -0.15962046885E+03  0.30072642869E+04  0.30030251076E+04 0.  0.
        4    1    3    3  502    0 -0.40309322724E+03 -0.96876198165E+02  0.13653725505E+04  0.14269243015E+04  0.12699999809E+01 0.  1.
       -4    1    3    3    0  502  0.40309322724E+03  0.96876198165E+02 -0.15249930193E+04  0.15803399854E+04  0.12699999809E+01 0. -1.
</event>
<event>
 5   0  0.7585823E-07  0.2996765E+04  0.7818609E-02  0.8244655E-01
       -2   -1    0    0    0  501  0.00000000000E+00  0.00000000000E+00  0.23971570252E+04  0.23971570252E+04  0.25500000920E-02 0.  1.
        2   -1    0    0  501    0  0.00000000000E+00  0.00000000000E+00 -0.93658894529E+03  0.93658894529E+03  0.25500000920E-02 0. -1.
    10030    2    1    2    0    0  0.00000000000E+00  0.00000000000E+00  0.14605680799E+04  0.33337459705E+04  0.29967654362E+04 0.  0.
        5    1    3    3  502    0  0.14972123042E+04  0.38527407797E+01  0.79580668830E+03  0.16955795182E+04  0.46999998093E+01 0. -1.
       -5    1    3    3    0  502 -0.14972123042E+04 -0.38527407797E+01  0.66476139161E+03  0.16381664522E+04  0.46999998093E+01 0.  1.
</event>
<event>
 5   0  0.2621825E-07  0.2998398E+04  0.7818609E-02  0.8244189E-01
        1   -1    0    0  501    0  0.00000000000E+00  0.00000000000E+00  0.17948992596E+04  0.17948992596E+04  0.50400001928E-02 0.  1.
       -1   -1    0    0    0  501  0.00000000000E+00  0.00000000000E+00 -0.12522135487E+04  0.12522135487E+04  0.50400001928E-02 0. -1.
    10030    2    1    2    0    0  0.00000000000E+00  0.00000000000E+00  0.54268571095E+03  0.30471128083E+04  0.29983976864E+04 0.  0.
        3    1    3    3  502    0 -0.66405351245E+03 -0.97893624539E+03 -0.66466090950E+03  0.13568556942E+04  0.10100000352E+00 0. -1.
       -3    1    3    3    0  502  0.66405351245E+03  0.97893624539E+03  0.12073466204E+04  0.16902571142E+04  0.10100000352E+00 0.  1.
</event>
<event>
 5   0  0.2679935E-07  0.3002063E+04  0.7818609E-02  0.8243142E-01
       -1   -1    0    0    0  501  0.00000000000E+00  0.00000000000E+00  0.14032739568E+04  0.14032739568E+04  0.50400001928E-02 0.  1.
        1   -1    0    0  501    0  0.00000000000E+00  0.00000000000E+00 -0.16055995203E+04  0.16055995203E+04  0.50400001928E-02 0. -1.
    10030    2    1    2    0    0  0.00000000000E+00  0.00000000000E+00 -0.20232556354E+03  0.30088734771E+04  0.30020632850E+04 0.  0.
        2    1    3    3  502    0 -0.96273042148E+03  0.54726333102E+03 -0.11167476505E+04  0.15727276728E+04  0.25500000920E-02 0. -1.
       -2    1    3    3    0  502  0.96273042148E+03 -0.54726333102E+03  0.91442208697E+03  0.14361458042E+04  0.25500000920E-02 0.  1.
</event>
<event>
 5   0  0.7307508E-07  0.2978784E+04  0.7818609E-02  0.8249815E-01
       -2   -1    0    0    0  501  0.00000000000E+00  0.00000000000E+00  0.11098317675E+04  0.11098317675E+04  0.25500000920E-02 0.  1.
        2   -1    0    0  501    0  0.00000000000E+00  0.00000000000E+00 -0.19987604337E+04  0.19987604337E+04  0.25500000920E-02 0. -1.
    10030    2    1    2    0    0  0.00000000000E+00  0.00000000000E+00 -0.88892866622E+03  0.31085922013E+04  0.29787835269E+04 0.  0.
        1    1    3    3  502    0 -0.32458938121E+03  0.32563116556E+03 -0.19228475253E+04  0.19770524849E+04  0.50400001928E-02 0. -1.
       -1    1    3    3    0  502  0.32458938121E+03 -0.32563116556E+03  0.10339188591E+04  0.11315397163E+04  0.50400001928E-02 0.  1.
</event>
<event>
 5   0  0.2792361E-07  0.3000928E+04  0.7818609E-02  0.8243466E-01
       -1   -1    0    0    0  501  0.00000000000E+00  0.00000000000E+00  0.15386115196E+04  0.15386115196E+04  0.50400001928E-02 0. -1.
        1   -1    0    0  501    0  0.00000000000E+00  0.00000000000E+00 -0.14632624410E+04  0.14632624410E+04  0.50400001928E-02 0.  1.
    10030    2    1    2    0    0  0.00000000000E+00  0.00000000000E+00  0.75349078630E+02  0.30018739606E+04  0.30009281550E+04 0.  0.
        4    1    3    3  502    0  0.67421444049E+03  0.93889350599E+03 -0.91934257315E+03  0.14769151997E+04  0.12699999809E+01 0.  1.
       -4    1    3    3    0  502 -0.67421444049E+03 -0.93889350599E+03  0.99469165178E+03  0.15249587609E+04  0.12699999809E+01 0. -1.
</event>
<event>
 5   0  0.7208273E-07  0.2997818E+04  0.7818609E-02  0.8244354E-01
       -2   -1    0    0    0  501  0.00000000000E+00  0.00000000000E+00  0.13684931407E+04  0.13684931407E+04  0.25500000920E-02 0.  1.
        2   -1    0    0  501    0  0.00000000000E+00  0.00000000000E+00 -0.16417533608E+04  0.16417533608E+04  0.25500000920E-02 0. -1.
    10030    2    1    2    0    0  0.00000000000E+00  0.00000000000E+00 -0.27326022004E+03  0.30102465015E+04  0.29978180151E+04 0.  0.
        4    1    3    3  502    0  0.11521691451E+04  0.23882374161E+03 -0.10690248559E+04  0.15897629616E+04  0.12699999809E+01 0. -1.
       -4    1    3    3    0  502 -0.11521691451E+04 -0.23882374161E+03  0.79576463585E+03  0.14204835399E+04  0.12699999809E+01 0.  1.
</event>
<event>
 5   0  0.7278657E-07  0.3001347E+04  0.7818609E-02  0.8243346E-01
       -2   -1    0    0    0  501  0.00000000000E+00  0.00000000000E+00  0.13114104115E+04  0.13114104115E+04  0.25500000920E-02 0.  1.
        2   -1    0    0  501    0  0.00000000000E+00  0.00000000000E+00 -0.17172511231E+04  0.17172511231E+04  0.25500000920E-02 0. -1.
    10030    2    1    2    0    0  0.00000000000E+00  0.00000000000E+00 -0.40584071161E+03  0.30286615345E+04  0.30013470322E+04 0.  0.
        2    1    3    3  502    0 -0.14021173059E+04  0.26970478892E+03 -0.66901938076E+03  0.15767880468E+04  0.25500000920E-02 0. -1.
       -2    1    3    3    0  502  0.14021173059E+04 -0.26970478892E+03  0.26317866915E+03  0.14518734878E+04  0.25500000920E-02 0.  1.
</event>
<event>
 5   0  0.2792361E-07  0.2999278E+04  0.7818609E-02  0.8243937E-01
        1   -1    0    0  501    0  0.00000000000E+00  0.00000000000E+00  0.25588100447E+04  0.25588100447E+04  0.50400001928E-02 0. -1.
       -1   -1    0    0    0  501  0.00000000000E+00  0.00000000000E+00 -0.87889199494E+03  0.87889199495E+03  0.50400001928E-02 0.  1.
    10030    2    1    2    0    0  0.00000000000E+00  0.00000000000E+00  0.16799180498E+04  0.34377020397E+04  0.29992783565E+04 0.  0.
        4    1    3    3  502    0  0.96463291729E+03 -0.74009564576E+03 -0.16623620393E+03  0.12271488575E+04  0.12699999809E+01 0.  1.
       -4    1    3    3    0  502 -0.96463291729E+03  0.74009564576E+03  0.18461542537E+04  0.22105531822E+04  0.12699999809E+01 0. -1.
</event>
<event>
 5   0  0.7208273E-07  0.3025858E+04  0.7818609E-02  0.8236385E-01
       -2   -1    0    0    0  501  0.00000000000E+00  0.00000000000E+00  0.16707250624E+04  0.16707250624E+04  0.25500000920E-02 0.  1.
        2   -1    0    0  501    0  0.00000000000E+00  0.00000000000E+00 -0.13700364411E+04  0.13700364411E+04  0.25500000920E-02 0. -1.
    10030    2    1    2    0    0  0.00000000000E+00  0.00000000000E+00  0.30068862129E+03  0.30407615034E+04  0.30258580393E+04 0.  0.
        4    1    3    3  502    0  0.15111611056E+04 -0.42620656944E+02  0.90653112510E+02  0.15144781303E+04  0.12699999809E+01 0. -1.
       -4    1    3    3    0  502 -0.15111611056E+04  0.42620656944E+02  0.21003550878E+03  0.15262833732E+04  0.12699999809E+01 0.  1.
</event>
<event>
 5   0  0.2621825E-07  0.3009467E+04  0.7818609E-02  0.8241033E-01
       -1   -1    0    0    0  501  0.00000000000E+00  0.00000000000E+00  0.88327188621E+03  0.88327188623E+03  0.50400001928E-02 0.  1.
        1   -1    0    0  501    0  0.00000000000E+00  0.00000000000E+00 -0.25634497288E+04  0.25634497288E+04  0.50400001928E-02 0. -1.
    10030    2    1    2    0    0  0.00000000000E+00  0.00000000000E+00 -0.16801778426E+04  0.34467216150E+04  0.30094671138E+04 0.  0.
        3    1    3    3  502    0 -0.89960815382E+03  0.62152129034E+03 -0.20240358133E+04  0.23005009299E+04  0.10100000352E+00 0. -1.
       -3    1    3    3    0  502  0.89960815382E+03 -0.62152129034E+03  0.34385797073E+03  0.11462206851E+04  0.10100000352E+00 0.  1.
</event>
<event>
 5   0  0.7585823E-07  0.3002081E+04  0.7818609E-02  0.8243137E-01
        2   -1    0    0  501    0  0.00000000000E+00  0.00000000000E+00  0.19544098671E+04  0.19544098671E+04  0.25500000920E-02 0.  1.
       -2   -1    0    0    0  501  0.00000000000E+00  0.00000000000E+00 -0.11528401912E+04  0.11528401912E+04  0.25500000920E-02 0. -1.
    10030    2    1    2    0    0  0.00000000000E+00  0.00000000000E+00  0.80156967594E+03  0.31072500583E+04  0.30020807749E+04 0.  0.
        5    1    3    3  502    0  0.14213648907E+04 -0.41913721347E+03  0.64821164130E+03  0.16174531147E+04  0.46999998093E+01 0.  1.
       -5    1    3    3    0  502 -0.14213648907E+04  0.41913721347E+03  0.15335803464E+03  0.14897969436E+04  0.46999998093E+01 0. -1.
</event>
<event>
 5   0  0.7585823E-07  0.3000635E+04  0.7818609E-02  0.8243550E-01
        2   -1    0    0  501    0  0.00000000000E+00  0.00000000000E+00  0.20096058676E+04  0.20096058676E+04  0.25500000920E-02 0. -1.
       -2   -1    0    0    0  501  0.00000000000E+00  0.00000000000E+00 -0.11200962544E+04  0.11200962544E+04  0.25500000920E-02 0.  1.
    10030    2    1    2    0    0  0.00000000000E+00  0.00000000000E+00  0.88950961316E+03  0.31297021220E+04  0.30006346029E+04 0.  0.
        5    1    3    3  502    0  0.76868081314E+03  0.24330690255E+03  0.17644291326E+04  0.19399228581E+04  0.46999998093E+01 0. -1.
       -5    1    3    3    0  502 -0.76868081314E+03 -0.24330690255E+03 -0.87491951943E+03  0.11897792639E+04  0.46999998093E+01 0.  1.
</event>
<event>
 5   0  0.7307508E-07  0.2999751E+04  0.7818609E-02  0.8243802E-01
        2   -1    0    0  501    0  0.00000000000E+00  0.00000000000E+00  0.23840483951E+04  0.23840483951E+04  0.25500000920E-02 0. -1.
       -2   -1    0    0    0  501  0.00000000000E+00  0.00000000000E+00 -0.94361598305E+03  0.94361598306E+03  0.25500000920E-02 0.  1.
    10030    2    1    2    0    0  0.00000000000E+00  0.00000000000E+00  0.14404324120E+04  0.33276643781E+04  0.29997507696E+04 0.  0.
        1    1    3    3  502    0  0.86785946327E+03  0.36047675193E+03 -0.57654371933E+03  0.11025090462E+04  0.50400001928E-02 0.  1.
       -1    1    3    3    0  502 -0.86785946327E+03 -0.36047675193E+03  0.20169761314E+04  0.22251553319E+04  0.50400001928E-02 0. -1.
</event>
<event>
 5   0  0.2792361E-07  0.3006544E+04  0.7818609E-02  0.8241865E-01
       -1   -1    0    0    0  501  0.00000000000E+00  0.00000000000E+00  0.11812375576E+04  0.11812375576E+04  0.50400001928E-02 0. -1.
        1   -1    0    0  501    0  0.00000000000E+00  0.00000000000E+00 -0.19131008638E+04  0.19131008638E+04  0.50400001928E-02 0.  1.
    10030    2    1    2    0    0  0.00000000000E+00  0.00000000000E+00 -0.73186330619E+03  0.30943384213E+04  0.30065439240E+04 0.  0.
        4    1    3    3  502    0 -0.12638585266E+04  0.74388615458E+03 -0.70591091041E+03  0.16275800480E+04  0.12699999809E+01 0.  1.
       -4    1    3    3    0  502  0.12638585266E+04 -0.74388615458E+03 -0.25952395785E+02  0.14667583734E+04  0.12699999809E+01 0. -1.
</event>
<event>
 5   0  0.2621825E-07  0.3000844E+04  0.7818609E-02  0.8243490E-01
       -1   -1    0    0    0  501  0.00000000000E+00  0.00000000000E+00  0.10085582608E+04  0.10085582608E+04  0.50400001928E-02 0. -1.
        1   -1    0    0  501    0  0.00000000000E+00  0.00000000000E+00 -0.22321621116E+04  0.22321621116E+04  0.50400001928E-02 0.  1.
    10030    2    1    2    0    0  0.00000000000E+00  0.00000000000E+00 -0.12236038508E+04  0.32407203724E+04  0.30008435728E+04 0.  0.
        3    1    3    3  502    0 -0.92568409869E+03 -0.89622367880E+03 -0.14421302221E+04  0.19338685376E+04  0.10100000352E+00 0.  1.
       -3    1    3    3    0  502  0.92568409869E+03  0.89622367880E+03  0.21852637126E+03  0.13068518348E+04  0.10100000352E+00 0. -1.
</event>
<event>
 5   0  0.2621825E-07  0.3000541E+04  0.7818609E-02  0.8243576E-01
       -1   -1    0    0    0  501  0.00000000000E+00  0.00000000000E+00  0.15647388392E+04  0.15647388392E+04  0.50400001928E-02 0. -1.
        1   -1    0    0  501    0  0.00000000000E+00  0.00000000000E+00 -0.14384583675E+04  0.14384583676E+04  0.50400001928E-02 0.  1.
    10030    2    1    2    0    0  0.00000000000E+00  0.00000000000E+00  0.12628047161E+03  0.30031972067E+04  0.30005410687E+04 0.  0.
        3    1    3    3  502    0 -0.12161695990E+04  0.54665683082E+03 -0.62515265965E+03  0.14726567972E+04  0.10100000352E+00 0.  1.
       -3    1    3    3    0  502  0.12161695990E+04 -0.54665683082E+03  0.75143313126E+03  0.15305404095E+04  0.10100000352E+00 0. -1.
</event>
<event>
 5   0  0.7208273E-07  0.2997867E+04  0.7818609E-02  0.8244340E-01
        2   -1    0    0  501    0  0.00000000000E+00  0.00000000000E+00  0.20563884151E+04  0.20563884151E+04  0.25500000920E-02 0. -1.
       -2   -1    0    0    0  501  0.00000000000E+00  0.00000000000E+00 -0.10925961765E+04  0.10925961765E+04  0.25500000920E-02 0.  1.
    10030    2    1    2    0    0  0.00000000000E+00  0.00000000000E+00  0.96379223862E+03  0.31489845915E+04  0.29978673217E+04 0.  0.
        4    1    3    3  502    0 -0.10583402786E+04 -0.10320607569E+04  0.74253065788E+03  0.16542632626E+04  0.12699999809E+01 0.  1.
       -4    1    3    3    0  502  0.10583402786E+04  0.10320607569E+04  0.22126158074E+03  0.14947213289E+04  0.12699999809E+01 0. -1.
</event>
<event>
 5   0  0.2602891E-07  0.3006314E+04  0.7818609E-02  0.8241930E-01
        1   -1    0    0  501    0  0.00000000000E+00  0.00000000000E+00  0.10517363680E+04  0.10517363681E+04  0.50400001928E-02 0.  1.
       -1   -1    0    0    0  501  0.00000000000E+00  0.00000000000E+00 -0.21483339038E+04  0.21483339039E+04  0.50400001928E-02 0. -1.
    10030    2    1    2    0    0  0.00000000000E+00  0.00000000000E+00 -0.10965975358E+04  0.32000702719E+04  0.30063139539E+04 0.  0.
        5    1    3    3  502    0 -0.14753478193E+04  0.45738729386E+02 -0.24588337650E+03  0.14964036701E+04  0.46999998093E+01 0.  1.
       -5    1    3    3    0  502  0.14753478193E+04 -0.45738729386E+02 -0.85071415931E+03  0.17036666018E+04  0.46999998093E+01 0. -1.
</event>
<event>
 5   0  0.2640081E-07  0.2954384E+04  0.7818609E-02  0.8256878E-01
       -1   -1    0    0    0  501  0.00000000000E+00  0.00000000000E+00  0.92826642691E+03  0.92826642693E+03  0.50400001928E-02 0. -1.
        1   -1    0    0  501    0  0.00000000000E+00  0.00000000000E+00 -0.23507219922E+04  0.23507219922E+04  0.50400001928E-02 0.  1.
    10030    2    1    2    0    0  0.00000000000E+00  0.00000000000E+00 -0.14224555653E+04  0.32789884192E+04  0.29543840674E+04 0.  0.
        1    1    3    3  502    0  0.13854067583E+04 -0.91241030837E+02 -0.15140815460E+03  0.13966392666E+04  0.50400001928E-02 0. -1.
       -1    1    3    3    0  502 -0.13854067583E+04  0.91241030837E+02 -0.12710474107E+04  0.18823491525E+04  0.50400001928E-02 0.  1.
</event>
<event>
 5   0  0.2679935E-07  0.2989975E+04  0.7818609E-02  0.8246599E-01
       -1   -1    0    0    0  501  0.00000000000E+00  0.00000000000E+00  0.34706832066E+04  0.34706832066E+04  0.50400001928E-02 0. -1.
        1   -1    0    0  501    0  0.00000000000E+00  0.00000000000E+00 -0.64396204108E+03  0.64396204110E+03  0.50400001928E-02 0.  1.
    10030    2    1    2    0    0  0.00000000000E+00  0.00000000000E+00  0.28267211656E+04  0.41146452477E+04  0.29899754124E+04 0.  0.
        2    1    3    3  502    0  0.51838994123E+03  0.12291279358E+04  0.48458416998E+03  0.14192622843E+04  0.25500000920E-02 0.  1.
       -2    1    3    3    0  502 -0.51838994123E+03 -0.12291279358E+04  0.23421369956E+04  0.26953829635E+04  0.25500000920E-02 0. -1.
</event>
<event>
 5   0  0.7399409E-07  0.3001684E+04  0.7818609E-02  0.8243250E-01
        2   -1    0    0  501    0  0.00000000000E+00  0.00000000000E+00  0.80023466917E+03  0.80023466918E+03  0.25500000920E-02 0. -1.
       -2   -1    0    0    0  501  0.00000000000E+00  0.00000000000E+00 -0.28148326415E+04  0.28148326415E+04  0.25500000920E-02 0.  1.
    10030    2    1    2    0    0  0.00000000000E+00  0.00000000000E+00 -0.20145979723E+04  0.36150673107E+04  0.30016839725E+04 0.  0.
        3    1    3    3  502    0  0.59605392958E+03  0.82874988647E+03 -0.23323099338E+04  0.25459332864E+04  0.10100000352E+00 0.  1.
       -3    1    3    3    0  502 -0.59605392958E+03 -0.82874988647E+03  0.31771196144E+03  0.10691340243E+04  0.10100000352E+00 0. -1.
</event>
<event>
 5   0  0.7208273E-07  0.3000822E+04  0.7818609E-02  0.8243496E-01
        2   -1    0    0  501    0  0.00000000000E+00  0.00000000000E+00  0.13238102996E+04  0.13238102996E+04  0.25500000920E-02 0. -1.
       -2   -1    0    0    0  501  0.00000000000E+00  0.00000000000E+00 -0.17005711417E+04  0.17005711417E+04  0.25500000920E-02 0.  1.
    10030    2    1    2    0    0  0.00000000000E+00  0.00000000000E+00 -0.37676084218E+03  0.30243814413E+04  0.30008222824E+04 0.  0.
        4    1    3    3  502    0 -0.28019222714E+03 -0.14739422554E+04 -0.20327900901E+03  0.15140467050E+04  0.12699999809E+01 0.  1.
       -4    1    3    3    0  502  0.28019222714E+03  0.14739422554E+04 -0.17348183317E+03  0.15103347363E+04  0.12699999809E+01 0. -1.
</event>
<event>
 5   0  0.7307508E-07  0.2996886E+04  0.7818609E-02  0.8244621E-01
        2   -1    0    0  501    0  0.00000000000E+00  0.00000000000E+00  0.12174399003E+04  0.12174399003E+04  0.25500000920E-02 0. -1.
       -2   -1    0    0    0  501  0.00000000000E+00  0.00000000000E+00 -0.18443061887E+04  0.18443061887E+04  0.25500000920E-02 0.  1.
    10030    2    1    2    0    0  0.00000000000E+00  0.00000000000E+00 -0.62686628833E+03  0.30617460890E+04  0.29968863459E+04 0.  0.
        1    1    3    3  502    0 -0.46990474592E+03  0.72723839772E+03  0.93600072495E+03  0.12750621610E+04  0.50400001928E-02 0. -1.
       -1    1    3    3    0  502  0.46990474592E+03 -0.72723839772E+03 -0.15628670133E+04  0.17866839280E+04  0.50400001928E-02 0.  1.
</event>
<event>
 5   0  0.7399409E-07  0.2990148E+04  0.7818609E-02  0.8246550E-01
        2   -1    0    0  501    0  0.00000000000E+00  0.00000000000E+00  0.15551951788E+04  0.15551951788E+04  0.25500000920E-02 0.  1.
       -2   -1    0    0    0  501  0.00000000000E+00  0.00000000000E+00 -0.14372769729E+04  0.14372769729E+04  0.25500000920E-02 0. -1.
    10030    2    1    2    0    0  0.00000000000E+00  0.00000000000E+00  0.11791820590E+03  0.29924721518E+04  0.29901479689E+04 0.  0.
        3    1    3    3  502    0  0.13689460282E+04 -0.53519346035E+03 -0.21475108774E+03  0.14854505404E+04  0.10100000352E+00 0. -1.
       -3    1    3    3    0  502 -0.13689460282E+04  0.53519346035E+03  0.33266929364E+03  0.15070216114E+04  0.10100000352E+00 0.  1.
</event>
<event>
 5   0  0.2602891E-07  0.2992196E+04  0.7818609E-02  0.8245963E-01
       -1   -1    0    0    0  501  0.00000000000E+00  0.00000000000E+00  0.95634904754E+03  0.95634904755E+03  0.50400001928E-02 0. -1.
        1   -1    0    0  501    0  0.00000000000E+00  0.00000000000E+00 -0.23404733234E+04  0.23404733234E+04  0.50400001928E-02 0.  1.
    10030    2    1    2    0    0  0.00000000000E+00  0.00000000000E+00 -0.13841242759E+04  0.32968223710E+04  0.29921961391E+04 0.  0.
        5    1    3    3  502    0 -0.77504726013E+03 -0.82516573584E+03  0.38562138516E+03  0.11959609901E+04  0.46999998093E+01 0. -1.
       -5    1    3    3    0  502  0.77504726013E+03  0.82516573584E+03 -0.17697456610E+04  0.21008613809E+04  0.46999998093E+01 0.  1.
</event>
<event>
 5   0  0.2792361E-07  0.2999737E+04  0.7818609E-02  0.8243806E-01
       -1   -1    0    0    0  501  0.00000000000E+00  0.00000000000E+00  0.12080999814E+04  0.12080999815E+04  0.50400001928E-02 0. -1.
        1   -1    0    0  501    0  0.00000000000E+00  0.00000000000E+00 -0.18621026371E+04  0.18621026371E+04  0.50400001928E-02 0.  1.
    10030    2    1    2    0    0  0.00000000000E+00  0.00000000000E+00 -0.65400265562E+03  0.30702026185E+04  0.29997374294E+04 0.  0.
        4    1    3    3  502    0 -0.13488421075E+04 -0.38638995642E+03 -0.86948247245E+03  0.16506585390E+04  0.12699999809E+01 0. -1.
       -4    1    3    3    0  502  0.13488421075E+04  0.38638995642E+03  0.21547981684E+03  0.14195440796E+04  0.12699999809E+01 0.  1.
</event>
<event>
 5   0  0.2602891E-07  0.3004742E+04  0.7818609E-02  0.8242378E-01
        1   -1    0    0  501    0  0.00000000000E+00  0.00000000000E+00  0.22731234445E+04  0.22731234445E+04  0.50400001928E-02 0. -1.
       -1   -1    0    0    0  501  0.00000000000E+00  0.00000000000E+00 -0.99295932482E+03  0.99295932483E+03  0.50400001928E-02 0.  1.
    10030    2    1    2    0    0  0.00000000000E+00  0.00000000000E+00  0.12801641197E+04  0.32660827693E+04  0.30047423322E+04 0.  0.
        5    1    3    3  502    0 -0.12453456937E+04 -0.31556335839E+03 -0.20652564244E+03  0.13012075395E+04  0.46999998093E+01 0.  1.
       -5    1    3    3    0  502  0.12453456937E+04  0.31556335839E+03  0.14866897621E+04  0.19648752298E+04  0.46999998093E+01 0. -1.
</event>
<event>
 5   0  0.2621825E-07  0.3008397E+04  0.7818609E-02  0.8241337E-01
        1   -1    0    0  501    0  0.00000000000E+00  0.00000000000E+00  0.24063835558E+04  0.24063835559E+04  0.50400001928E-02 0.  1.
       -1   -1    0    0    0  501  0.00000000000E+00  0.00000000000E+00 -0.94025470713E+03  0.94025470715E+03  0.50400001928E-02 0. -1.
    10030    2    1    2    0    0  0.00000000000E+00  0.00000000000E+00  0.14661288487E+04  0.33466382630E+04  0.30083972248E+04 0.  0.
        3    1    3    3  502    0  0.37743432572E+03 -0.14310393333E+04  0.10321478270E+04  0.18043445876E+04  0.10100000352E+00 0.  1.
       -3    1    3    3    0  502 -0.37743432572E+03  0.14310393333E+04  0.43398102168E+03  0.15422936754E+04  0.10100000352E+00 0. -1.
</event>
<event>
 5   0  0.7208273E-07  0.3000386E+04  0.7818609E-02  0.8243621E-01
       -2   -1    0    0    0  501  0.00000000000E+00  0.00000000000E+00  0.11943833622E+04  0.11943833622E+04  0.25500000920E-02 0. -1.
        2   -1    0    0  501    0  0.00000000000E+00  0.00000000000E+00 -0.18843026216E+04  0.18843026216E+04  0.25500000920E-02 0.  1.
    10030    2    1    2    0    0  0.00000000000E+00  0.00000000000E+00 -0.68991925945E+03  0.30786859838E+04  0.30003864422E+04 0.  0.
        4    1    3    3  502    0  0.58698707811E+03 -0.84569902818E+03  0.77476385790E+03  0.12884181482E+04  0.12699999809E+01 0. -1.
       -4    1    3    3    0  502 -0.58698707811E+03  0.84569902818E+03 -0.14646831173E+04  0.17902678356E+04  0.12699999809E+01 0.  1.
</event>
<event>
 5   0  0.7307508E-07  0.3005970E+04  0.7818609E-02  0.8242028E-01
        2   -1    0    0  501    0  0.00000000000E+00  0.00000000000E+00  0.19541974981E+04  0.19541974981E+04  0.25500000920E-02 0. -1.
       -2   -1    0    0    0  501  0.00000000000E+00  0.00000000000E+00 -0.11559550868E+04  0.11559550868E+04  0.25500000920E-02 0.  1.
    10030    2    1    2    0    0  0.00000000000E+00  0.00000000000E+00  0.79824241134E+03  0.31101525849E+04  0.30059704180E+04 0.  0.
        1    1    3    3  502    0  0.52241330827E+03 -0.42104368903E+03 -0.99239669417E+03  0.11979334920E+04  0.50400001928E-02 0.  1.
       -1    1    3    3    0  502 -0.52241330827E+03  0.42104368903E+03  0.17906391055E+04  0.19122190928E+04  0.50400001928E-02 0. -1.
</event>
<event>
 5   0  0.7278657E-07  0.2994856E+04  0.7818609E-02  0.8245201E-01
        2   -1    0    0  501    0  0.00000000000E+00  0.00000000000E+00  0.27606645438E+04  0.27606645438E+04  0.25500000920E-02 0. -1.
       -2   -1    0    0    0  501  0.00000000000E+00  0.00000000000E+00 -0.81222855916E+03  0.81222855917E+03  0.25500000920E-02 0.  1.
    10030    2    1    2    0    0  0.00000000000E+00  0.00000000000E+00  0.19484359847E+04  0.35728931030E+04  0.29948559797E+04 0.  0.
        2    1    3    3  502    0  0.76137249209E+03  0.12856373255E+04  0.85648307479E+03  0.17222411741E+04  0.25500000920E-02 0.  1.
       -2    1    3    3    0  502 -0.76137249209E+03 -0.12856373255E+04  0.10919529099E+04  0.18506519289E+04  0.25500000920E-02 0. -1.
</event>
<event>
 5   0  0.2621825E-07  0.3026696E+04  0.7818609E-02  0.8236149E-01
       -1   -1    0    0    0  501  0.00000000000E+00  0.00000000000E+00  0.16883876988E+04  0.16883876988E+04  0.50400001928E-02 0. -1.
        1   -1    0    0  501    0  0.00000000000E+00  0.00000000000E+00 -0.13564549347E+04  0.13564549347E+04  0.50400001928E-02 0.  1.
    10030    2    1    2    0    0  0.00000000000E+00  0.00000000000E+00  0.33193276417E+03  0.30448426335E+04  0.30266957731E+04 0.  0.
        3    1    3    3  502    0 -0.58530945080E+03 -0.28389924878E+03  0.15405539560E+04  0.16722716400E+04  0.10100000352E+00 0. -1.
       -3    1    3    3    0  502  0.58530945080E+03  0.28389924878E+03 -0.12086211918E+04  0.13725709935E+04  0.10100000352E+00 0.  1.
</event>
<event>
 5   0  0.7399409E-07  0.3000413E+04  0.7818609E-02  0.8243613E-01
        2   -1    0    0  501    0  0.00000000000E+00  0.00000000000E+00  0.11675057664E+04  0.11675057664E+04  0.25500000920E-02 0. -1.
       -2   -1    0    0    0  501  0.00000000000E+00  0.00000000000E+00 -0.19277160645E+04  0.19277160645E+04  0.25500000920E-02 0.  1.
    10030    2    1    2    0    0  0.00000000000E+00  0.00000000000E+00 -0.76021029817E+03  0.30952218309E+04  0.30004130524E+04 0.  0.
        3    1    3    3  502    0 -0.67865462128E+03  0.64835698840E+03 -0.15874196222E+04  0.18441366398E+04  0.10100000352E+00 0.  1.
       -3    1    3    3    0  502  0.67865462128E+03 -0.64835698840E+03  0.82720932400E+03  0.12510851911E+04  0.10100000352E+00 0. -1.
</event>
<event>
 5   0  0.7585823E-07  0.2997695E+04  0.7818609E-02  0.8244389E-01
        2   -1    0    0  501    0  0.00000000000E+00  0.00000000000E+00  0.16957498904E+04  0.16957498904E+04  0.25500000920E-02 0.  1.
       -2   -1    0    0    0  501  0.00000000000E+00  0.00000000000E+00 -0.13248085229E+04  0.13248085229E+04  0.25500000920E-02 0. -1.
    10030    2    1    2    0    0  0.00000000000E+00  0.00000000000E+00  0.37094136754E+03  0.30205584133E+04  0.29976950529E+04 0.  0.
        5    1    3    3  502    0  0.13919067699E+03 -0.98841600078E+03  0.13121137180E+04  0.16486372354E+04  0.46999998093E+01 0.  1.
       -5    1    3    3    0  502 -0.13919067699E+03  0.98841600078E+03 -0.94117235044E+03  0.13719211779E+04  0.46999998093E+01 0. -1.
</event>
<event>
 5   0  0.7307508E-07  0.3000338E+04  0.7818609E-02  0.8243634E-01
        2   -1    0    0  501    0  0.00000000000E+00  0.00000000000E+00  0.17400980869E+04  0.17400980870E+04  0.25500000920E-02 0.  1.
       -2   -1    0    0    0  501  0.00000000000E+00  0.00000000000E+00 -0.12933222451E+04  0.12933222451E+04  0.25500000920E-02 0. -1.
    10030    2    1    2    0    0  0.00000000000E+00  0.00000000000E+00  0.44677584185E+03  0.30334203320E+04  0.30003383573E+04 0.  0.
        1    1    3    3  502    0 -0.60837595508E+03 -0.17201124909E+03 -0.11520529208E+04  0.13141290290E+04  0.50400001928E-02 0. -1.
       -1    1    3    3    0  502  0.60837595508E+03  0.17201124909E+03  0.15988287626E+04  0.17192913031E+04  0.50400001928E-02 0.  1.
</event>
<event>
 5   0  0.2621825E-07  0.2996981E+04  0.7818609E-02  0.8244593E-01
       -1   -1    0    0    0  501  0.00000000000E+00  0.00000000000E+00  0.69975661820E+03  0.69975661822E+03  0.50400001928E-02 0.  1.
        1   -1    0    0  501    0  0.00000000000E+00  0.00000000000E+00 -0.32089360246E+04  0.32089360246E+04  0.50400001928E-02 0. -1.
    10030    2    1    2    0    0  0.00000000000E+00  0.00000000000E+00 -0.25091794064E+04  0.39086926428E+04  0.29969812950E+04 0.  0.
        3    1    3    3  502    0 -0.13508009127E+04 -0.45441987198E+03 -0.18583609688E+04  0.23419363840E+04  0.10100000352E+00 0. -1.
       -3    1    3    3    0  502  0.13508009127E+04  0.45441987198E+03 -0.65081843760E+03  0.15667562589E+04  0.10100000352E+00 0.  1.
</event>
<event>
 5   0  0.2792361E-07  0.2998660E+04  0.7818609E-02  0.8244114E-01
        1   -1    0    0  501    0  0.00000000000E+00  0.00000000000E+00  0.18208042377E+04  0.18208042377E+04  0.50400001928E-02 0.  1.
       -1   -1    0    0    0  501  0.00000000000E+00  0.00000000000E+00 -0.12346140122E+04  0.12346140123E+04  0.50400001928E-02 0. -1.
    10030    2    1    2    0    0  0.00000000000E+00  0.00000000000E+00  0.58619022546E+03  0.30554182500E+04  0.29986599844E+04 0.  0.
        4    1    3    3  502    0  0.12582915766E+04  0.33627911653E+03  0.10498557185E+04  0.16728956866E+04  0.12699999809E+01 0. -1.
       -4    1    3    3    0  502 -0.12582915766E+04 -0.33627911653E+03 -0.46366549301E+03  0.13825225633E+04  0.12699999809E+01 0.  1.
</event>
<event>
 5   0  0.2621825E-07  0.2996595E+04  0.7818609E-02  0.8244704E-01
       -1   -1    0    0    0  501  0.00000000000E+00  0.00000000000E+00  0.10434492662E+04  0.10434492662E+04  0.50400001928E-02 0. -1.
        1   -1    0    0  501    0  0.00000000000E+00  0.00000000000E+00 -0.21514178817E+04  0.21514178818E+04  0.50400001928E-02 0.  1.
    10030    2    1    2    0    0  0.00000000000E+00  0.00000000000E+00 -0.11079686155E+04  0.31948671480E+04  0.29965950077E+04 0.  0.
        3    1    3    3  502    0 -0.11562299890E+04 -0.24015629893E+03 -0.15371444525E+04  0.19383900313E+04  0.10100000352E+00 0.  1.
       -3    1    3    3    0  502  0.11562299890E+04  0.24015629893E+03  0.42917583697E+03  0.12564771166E+04  0.10100000352E+00 0. -1.
</event>
<event>
 5   0  0.7208273E-07  0.3021480E+04  0.7818609E-02  0.8237623E-01
       -2   -1    0    0    0  501  0.00000000000E+00  0.00000000000E+00  0.16287103478E+04  0.16287103478E+04  0.25500000920E-02 0. -1.
        2   -1    0    0  501    0  0.00000000000E+00  0.00000000000E+00 -0.14013148808E+04  0.14013148808E+04  0.25500000920E-02 0.  1.
    10030    2    1    2    0    0  0.00000000000E+00  0.00000000000E+00  0.22739546697E+03  0.30300252286E+04  0.30214804629E+04 0.  0.
        4    1    3    3  502    0  0.13260131518E+04  0.62475958882E+03 -0.25298507754E+03  0.14874940286E+04  0.12699999809E+01 0.  1.
       -4    1    3    3    0  502 -0.13260131518E+04 -0.62475958882E+03  0.48038054451E+03  0.15425312000E+04  0.12699999809E+01 0. -1.
</event>
<event>
 5   0  0.7585823E-07  0.3001208E+04  0.7818609E-02  0.8243386E-01
        2   -1    0    0  501    0  0.00000000000E+00  0.00000000000E+00  0.21431492089E+04  0.21431492089E+04  0.25500000920E-02 0.  1.
       -2   -1    0    0    0  501  0.00000000000E+00  0.00000000000E+00 -0.10507028966E+04  0.10507028966E+04  0.25500000920E-02 0. -1.
    10030    2    1    2    0    0  0.00000000000E+00  0.00000000000E+00  0.10924463123E+04  0.31938521054E+04  0.30012084776E+04 0.  0.
        5    1    3    3  502    0  0.14517797320E+04 -0.27181141037E+03  0.26417268101E+03  0.15004516415E+04  0.46999998093E+01 0. -1.
       -5    1    3    3    0  502 -0.14517797320E+04  0.27181141037E+03  0.82827363130E+03  0.16934004640E+04  0.46999998093E+01 0.  1.
</event>
<event>
 5   0  0.7278657E-07  0.3003026E+04  0.7818609E-02  0.8242867E-01
        2   -1    0    0  501    0  0.00000000000E+00  0.00000000000E+00  0.28177710916E+04  0.28177710916E+04  0.25500000920E-02 0. -1.
       -2   -1    0    0    0  501  0.00000000000E+00  0.00000000000E+00 -0.80011510391E+03  0.80011510392E+03  0.25500000920E-02 0.  1.
    10030    2    1    2    0    0  0.00000000000E+00  0.00000000000E+00  0.20176559877E+04  0.36178861956E+04  0.30030259471E+04 0.  0.
        2    1    3    3  502    0  0.11838618999E+04 -0.72453859575E+03  0.16988609491E+04  0.21937670111E+04  0.25500000920E-02 0.  1.
       -2    1    3    3    0  502 -0.11838618999E+04  0.72453859575E+03  0.31879503864E+03  0.14241191844E+04  0.25500000920E-02 0. -1.
</event>
<event>
 5   0  0.7399409E-07  0.3029448E+04  0.7818609E-02  0.8235371E-01
        2   -1    0    0  501    0  0.00000000000E+00  0.00000000000E+00  0.97751150678E+03  0.97751150678E+03  0.25500000920E-02 0.  1.
       -2   -1    0    0    0  501  0.00000000000E+00  0.00000000000E+00 -0.23471733820E+04  0.23471733820E+04  0.25500000920E-02 0. -1.
    10030    2    1    2    0    0  0.00000000000E+00  0.00000000000E+00 -0.13696618752E+04  0.33246848888E+04  0.30294481275E+04 0.  0.
        3    1    3    3  502    0  0.93978183363E+03  0.13384034105E+03 -0.19802404497E+04  0.21960089665E+04  0.10100000352E+00 0. -1.
       -3    1    3    3    0  502 -0.93978183363E+03 -0.13384034105E+03  0.61057857454E+03  0.11286759223E+04  0.10100000352E+00 0.  1.
</event>
<event>
 5   0  0.7278657E-07  0.3008356E+04  0.7818609E-02  0.8241349E-01
       -2   -1    0    0    0  501  0.00000000000E+00  0.00000000000E+00  0.10772086668E+04  0.10772086668E+04  0.25500000920E-02 0. -1.
        2   -1    0    0  501    0  0.00000000000E+00  0.00000000000E+00 -0.21003841897E+04  0.21003841897E+04  0.25500000920E-02 0.  1.
    10030    2    1    2    0    0  0.00000000000E+00  0.00000000000E+00 -0.10231755229E+04  0.31775928564E+04  0.30083563969E+04 0.  0.
        2    1    3    3  502    0 -0.19165096610E+03  0.87359595234E+02  0.10615558182E+04  0.10822488378E+04  0.25500000920E-02 0. -1.
       -2    1    3    3    0  502  0.19165096610E+03 -0.87359595234E+02 -0.20847313412E+04  0.20953440187E+04  0.25500000920E-02 0.  1.
</event>
<event>
 5   0  0.7399409E-07  0.2997757E+04  0.7818609E-02  0.8244372E-01
        2   -1    0    0  501    0  0.00000000000E+00  0.00000000000E+00  0.21604513587E+04  0.21604513587E+04  0.25500000920E-02 0.  1.
       -2   -1    0    0    0  501  0.00000000000E+00  0.00000000000E+00 -0.10398922832E+04  0.10398922832E+04  0.25500000920E-02 0. -1.
    10030    2    1    2    0    0  0.00000000000E+00  0.00000000000E+00  0.11205590756E+04  0.32003436419E+04  0.29977569589E+04 0.  0.
        3    1    3    3  502    0 -0.42378677122E+03 -0.12130177754E+04  0.13842055865E+04  0.18886589070E+04  0.10100000352E+00 0.  1.
       -3    1    3    3    0  502  0.42378677122E+03  0.12130177754E+04 -0.26364651095E+03  0.13116847349E+04  0.10100000352E+00 0. -1.
</event>
<event>
 5   0  0.7399409E-07  0.2994575E+04  0.7818609E-02  0.8245282E-01
       -2   -1    0    0    0  501  0.00000000000E+00  0.00000000000E+00  0.14225843100E+04  0.14225843100E+04  0.25500000920E-02 0. -1.
        2   -1    0    0  501    0  0.00000000000E+00  0.00000000000E+00 -0.15759133776E+04  0.15759133776E+04  0.25500000920E-02 0.  1.
    10030    2    1    2    0    0  0.00000000000E+00  0.00000000000E+00 -0.15332906765E+03  0.29984976876E+04  0.29945748579E+04 0.  0.
        3    1    3    3  502    0  0.11057525615E+04 -0.26853613177E+03 -0.10511142041E+04  0.15490776164E+04  0.10100000352E+00 0.  1.
       -3    1    3    3    0  502 -0.11057525615E+04  0.26853613177E+03  0.89778513645E+03  0.14494200712E+04  0.10100000352E+00 0. -1.
</event>
<event>
 5   0  0.7208273E-07  0.2993064E+04  0.7818609E-02  0.8245714E-01
       -2   -1    0    0    0  501  0.00000000000E+00  0.00000000000E+00  0.92425277774E+03  0.92425277775E+03  0.25500000920E-02 0. -1.
        2   -1    0    0  501    0  0.00000000000E+00  0.00000000000E+00 -0.24231559202E+04  0.24231559202E+04  0.25500000920E-02 0.  1.
    10030    2    1    2    0    0  0.00000000000E+00  0.00000000000E+00 -0.14989031424E+04  0.33474086979E+04  0.29930643763E+04 0.  0.
        4    1    3    3  502    0 -0.11105130440E+04  0.39848310759E+02 -0.18705097329E+04  0.21756919319E+04  0.12699999809E+01 0.  1.
       -4    1    3    3    0  502  0.11105130440E+04 -0.39848310759E+02  0.37160659045E+03  0.11717167660E+04  0.12699999809E+01 0. -1.
</event>
<event>
 5   0  0.2602891E-07  0.2997377E+04  0.7818609E-02  0.8244480E-01
       -1   -1    0    0    0  501  0.00000000000E+00  0.00000000000E+00  0.12782396743E+04  0.12782396743E+04  0.50400001928E-02 0. -1.
        1   -1    0    0  501    0  0.00000000000E+00  0.00000000000E+00 -0.17571560489E+04  0.17571560489E+04  0.50400001928E-02 0.  1.
    10030    2    1    2    0    0  0.00000000000E+00  0.00000000000E+00 -0.47891637461E+03  0.30353957232E+04  0.29973765701E+04 0.  0.
        5    1    3    3  502    0 -0.11761429899E+04 -0.91888669673E+03 -0.37674839923E+03  0.15393591330E+04  0.46999998093E+01 0. -1.
       -5    1    3    3    0  502  0.11761429899E+04  0.91888669673E+03 -0.10216797537E+03  0.14960365902E+04  0.46999998093E+01 0.  1.
</event>
<event>
 5   0  0.2679935E-07  0.3004619E+04  0.7818609E-02  0.8242413E-01
       -1   -1    0    0    0  501  0.00000000000E+00  0.00000000000E+00  0.15955912409E+04  0.15955912409E+04  0.50400001928E-02 0.  1.
        1   -1    0    0  501    0  0.00000000000E+00  0.00000000000E+00 -0.14144811637E+04  0.14144811637E+04  0.50400001928E-02 0. -1.
    10030    2    1    2    0    0  0.00000000000E+00  0.00000000000E+00  0.18111007724E+03  0.30100724046E+04  0.30046189477E+04 0.  0.
        2    1    3    3  502    0  0.14186982104E+04 -0.15464322009E+03 -0.37967373136E+03  0.14767434713E+04  0.25500000920E-02 0. -1.
       -2    1    3    3    0  502 -0.14186982104E+04  0.15464322009E+03  0.56078380860E+03  0.15333289333E+04  0.25500000920E-02 0.  1.
</event>
<event>
 5   0  0.2679935E-07  0.3001372E+04  0.7818609E-02  0.8243339E-01
       -1   -1    0    0    0  501  0.00000000000E+00  0.00000000000E+00  0.10596131872E+04  0.10596131872E+04  0.50400001928E-02 0.  1.
        1   -1    0    0  501    0  0.00000000000E+00  0.00000000000E+00 -0.21253584415E+04  0.21253584415E+04  0.50400001928E-02 0. -1.
    10030    2    1    2    0    0  0.00000000000E+00  0.00000000000E+00 -0.10657452543E+04  0.31849716287E+04  0.30013715746E+04 0.  0.
        2    1    3    3  502    0 -0.49853172752E+03 -0.14015037198E+04 -0.74327195702E+03  0.16628889807E+04  0.25500000920E-02 0. -1.
       -2    1    3    3    0  502  0.49853172752E+03  0.14015037198E+04 -0.32247329727E+03  0.15220826480E+04  0.25500000920E-02 0.  1.
</event>
<event>
 5   0  0.2621825E-07  0.3000118E+04  0.7818609E-02  0.8243697E-01
        1   -1    0    0  501    0  0.00000000000E+00  0.00000000000E+00  0.30755513083E+04  0.30755513083E+04  0.50400001928E-02 0. -1.
       -1   -1    0    0    0  501  0.00000000000E+00  0.00000000000E+00 -0.73163381008E+03  0.73163381010E+03  0.50400001928E-02 0.  1.
    10030    2    1    2    0    0  0.00000000000E+00  0.00000000000E+00  0.23439174982E+04  0.38071851184E+04  0.30001182122E+04 0.  0.
        3    1    3    3  502    0  0.11295320739E+04 -0.97605270626E+03  0.13587050219E+04  0.20185640783E+04  0.10100000352E+00 0.  1.
       -3    1    3    3    0  502 -0.11295320739E+04  0.97605270626E+03  0.98521247627E+03  0.17886210401E+04  0.10100000352E+00 0. -1.
</event>
<event>
 5   0  0.7307508E-07  0.2994635E+04  0.7818609E-02  0.8245265E-01
       -2   -1    0    0    0  501  0.00000000000E+00  0.00000000000E+00  0.10476500604E+04  0.10476500604E+04  0.25500000920E-02 0.  1.
        2   -1    0    0  501    0  0.00000000000E+00  0.00000000000E+00 -0.21399892405E+04  0.21399892405E+04  0.25500000920E-02 0. -1.
    10030    2    1    2    0    0  0.00000000000E+00  0.00000000000E+00 -0.10923391802E+04  0.31876393009E+04  0.29946351077E+04 0.  0.
        1    1    3    3  502    0 -0.10114155316E+04  0.86527414362E+03 -0.12761519262E+04  0.18439697557E+04  0.50400001928E-02 0. -1.
       -1    1    3    3    0  502  0.10114155316E+04 -0.86527414362E+03  0.18381274603E+03  0.13436695452E+04  0.50400001928E-02 0.  1.
</event>
<event>
 5   0  0.2621825E-07  0.3003332E+04  0.7818609E-02  0.8242780E-01
       -1   -1    0    0    0  501  0.00000000000E+00  0.00000000000E+00  0.11084384573E+04  0.11084384573E+04  0.50400001928E-02 0. -1.
        1   -1    0    0  501    0  0.00000000000E+00  0.00000000000E+00 -0.20343939539E+04  0.20343939539E+04  0.50400001928E-02 0.  1.
    10030    2    1    2    0    0  0.00000000000E+00  0.00000000000E+00 -0.92595549664E+03  0.31428324113E+04  0.30033318137E+04 0.  0.
        3    1    3    3  502    0 -0.69204448187E+03  0.84952819783E+03  0.61154550809E+03  0.12548353049E+04  0.10100000352E+00 0. -1.
       -3    1    3    3    0  502  0.69204448187E+03 -0.84952819783E+03 -0.15375010047E+04  0.18879971063E+04  0.10100000352E+00 0.  1.
</event>
<event>
 5   0  0.7399409E-07  0.2998377E+04  0.7818609E-02  0.8244195E-01
       -2   -1    0    0    0  501  0.00000000000E+00  0.00000000000E+00  0.11772262842E+04  0.11772262842E+04  0.25500000920E-02 0.  1.
        2   -1    0    0  501    0  0.00000000000E+00  0.00000000000E+00 -0.19092042779E+04  0.19092042779E+04  0.25500000920E-02 0. -1.
    10030    2    1    2    0    0  0.00000000000E+00  0.00000000000E+00 -0.73197799375E+03  0.30864305621E+04  0.29983765326E+04 0.  0.
        3    1    3    3  502    0 -0.59889947283E+03 -0.45566064890E+03  0.96872296846E+03  0.12266749387E+04  0.10100000352E+00 0.  1.
       -3    1    3    3    0  502  0.59889947283E+03  0.45566064890E+03 -0.17007009622E+04  0.18597556233E+04  0.10100000352E+00 0. -1.
</event>
<event>
 5   0  0.2640081E-07  0.3010745E+04  0.7818609E-02  0.8240669E-01
        1   -1    0    0  501    0  0.00000000000E+00  0.00000000000E+00  0.17495614498E+04  0.17495614498E+04  0.50400001928E-02 0. -1.
       -1   -1    0    0    0  501  0.00000000000E+00  0.00000000000E+00 -0.12952657878E+04  0.12952657878E+04  0.50400001928E-02 0.  1.
    10030    2    1    2    0    0  0.00000000000E+00  0.00000000000E+00  0.45429566202E+03  0.30448272376E+04  0.30107454822E+04 0.  0.
        1    1    3    3  502    0 -0.14420701454E+04 -0.22348012470E+03  0.60097721729E+03  0.15781898765E+04  0.50400001928E-02 0.  1.
       -1    1    3    3    0  502  0.14420701454E+04  0.22348012470E+03 -0.14668155527E+03  0.14666373611E+04  0.50400001928E-02 0. -1.
</event>
<event>
 5   0  0.7208273E-07  0.2966188E+04  0.7818609E-02  0.8253453E-01
        2   -1    0    0  501    0  0.00000000000E+00  0.00000000000E+00  0.20906119531E+04  0.20906119531E+04  0.25500000920E-02 0. -1.
       -2   -1    0    0    0  501  0.00000000000E+00  0.00000000000E+00 -0.10521164034E+04  0.10521164034E+04  0.25500000920E-02 0.  1.
    10030    2    1    2    0    0  0.00000000000E+00  0.00000000000E+00  0.10384955497E+04  0.31427283565E+04  0.29661875389E+04 0.  0.
        4    1    3    3  502    0  0.94577600700E+03 -0.11308148675E+04  0.69117390321E+03  0.16281761260E+04  0.12699999809E+01 0. -1.
       -4    1    3    3    0  502 -0.94577600700E+03  0.11308148675E+04  0.34732164648E+03  0.15145522305E+04  0.12699999809E+01 0.  1.
</event>
<event>
 5   0  0.7208273E-07  0.3000356E+04  0.7818609E-02  0.8243629E-01
        2   -1    0    0  501    0  0.00000000000E+00  0.00000000000E+00  0.14666436533E+04  0.14666436533E+04  0.25500000920E-02 0. -1.
       -2   -1    0    0    0  501  0.00000000000E+00  0.00000000000E+00 -0.15344789021E+04  0.15344789021E+04  0.25500000920E-02 0.  1.
    10030    2    1    2    0    0  0.00000000000E+00  0.00000000000E+00 -0.67835248824E+02  0.30011225554E+04  0.30003558075E+04 0.  0.
        4    1    3    3  502    0 -0.33399849929E+03 -0.47773727832E+03 -0.14165675947E+04  0.15318137184E+04  0.12699999809E+01 0.  1.
       -4    1    3    3    0  502  0.33399849929E+03  0.47773727832E+03  0.13487323459E+04  0.14693088370E+04  0.12699999809E+01 0. -1.
</event>
<event>
 5   0  0.2602891E-07  0.3001564E+04  0.7818609E-02  0.8243284E-01
        1   -1    0    0  501    0  0.00000000000E+00  0.00000000000E+00  0.72428662206E+03  0.72428662208E+03  0.50400001928E-02 0. -1.
       -1   -1    0    0    0  501  0.00000000000E+00  0.00000000000E+00 -0.31097449835E+04  0.31097449835E+04  0.50400001928E-02 0.  1.
    10030    2    1    2    0    0  0.00000000000E+00  0.00000000000E+00 -0.23854583614E+04  0.38340316056E+04  0.30015640520E+04 0.  0.
        5    1    3    3  502    0 -0.36917554359E+03  0.13416125565E+04 -0.19108988007E+04  0.23638466850E+04  0.46999998093E+01 0. -1.
       -5    1    3    3    0  502  0.36917554359E+03 -0.13416125565E+04 -0.47455956072E+03  0.14701849205E+04  0.46999998093E+01 0.  1.
</event>
<event>
 5   0  0.2621825E-07  0.3000751E+04  0.7818609E-02  0.8243516E-01
       -1   -1    0    0    0  501  0.00000000000E+00  0.00000000000E+00  0.12102178260E+04  0.12102178260E+04  0.50400001928E-02 0. -1.
        1   -1    0    0  501    0  0.00000000000E+00  0.00000000000E+00 -0.18601005521E+04  0.18601005521E+04  0.50400001928E-02 0.  1.
    10030    2    1    2    0    0  0.00000000000E+00  0.00000000000E+00 -0.64988272614E+03  0.30703183781E+04  0.30007511368E+04 0.  0.
        3    1    3    3  502    0 -0.84314539998E+03  0.70389648979E+03  0.72089129780E+03  0.13137917290E+04  0.10100000352E+00 0. -1.
       -3    1    3    3    0  502  0.84314539998E+03 -0.70389648979E+03 -0.13707740239E+04  0.17565266490E+04  0.10100000352E+00 0.  1.
</event>
<event>
 5   0  0.2679935E-07  0.2981591E+04  0.7818609E-02  0.8249007E-01
       -1   -1    0    0    0  501  0.00000000000E+00  0.00000000000E+00  0.15076192630E+04  0.15076192630E+04  0.50400001928E-02 0. -1.
        1   -1    0    0  501    0  0.00000000000E+00  0.00000000000E+00 -0.14741599053E+04  0.14741599053E+04  0.50400001928E-02 0.  1.
    10030    2    1    2    0    0  0.00000000000E+00  0.00000000000E+00  0.33459357759E+02  0.29817791683E+04  0.29815914341E+04 0.  0.
        2    1    3    3  502    0 -0.29774472889E+03 -0.80383695963E+03 -0.12030462984E+04  0.14772021450E+04  0.25500000920E-02 0.  1.
       -2    1    3    3    0  502  0.29774472889E+03  0.80383695963E+03  0.12365056562E+04  0.15045770233E+04  0.25500000920E-02 0. -1.
</event>
<event>
 5   0  0.7208273E-07  0.3022786E+04  0.7818609E-02  0.8237254E-01
       -2   -1    0    0    0  501  0.00000000000E+00  0.00000000000E+00  0.12292103411E+04  0.12292103411E+04  0.25500000920E-02 0.  1.
        2   -1    0    0  501    0  0.00000000000E+00  0.00000000000E+00 -0.18583544126E+04  0.18583544126E+04  0.25500000920E-02 0. -1.
    10030    2    1    2    0    0  0.00000000000E+00  0.00000000000E+00 -0.62914407151E+03  0.30875647536E+04  0.30227857756E+04 0.  0.
        4    1    3    3  502    0  0.11994971388E+03 -0.51958601367E+03 -0.17590741990E+04  0.18381243728E+04  0.12699999809E+01 0. -1.
       -4    1    3    3    0  502 -0.11994971388E+03  0.51958601367E+03  0.11299301274E+04  0.12494403808E+04  0.12699999809E+01 0.  1.
</event>
<event>
 5   0  0.2621825E-07  0.3002370E+04  0.7818609E-02  0.8243054E-01
       -1   -1    0    0    0  501  0.00000000000E+00  0.00000000000E+00  0.14633888859E+04  0.14633888859E+04  0.50400001928E-02 0. -1.
        1   -1    0    0  501    0  0.00000000000E+00  0.00000000000E+00 -0.15399571750E+04  0.15399571750E+04  0.50400001928E-02 0.  1.
    10030    2    1    2    0    0  0.00000000000E+00  0.00000000000E+00 -0.76568289081E+02  0.30033460609E+04  0.30023698737E+04 0.  0.
        3    1    3    3  502    0 -0.10141918111E+04 -0.10019494804E+04  0.43204785809E+03  0.14896822322E+04  0.10100000352E+00 0. -1.
       -3    1    3    3    0  502  0.10141918111E+04  0.10019494804E+04 -0.50861614717E+03  0.15136638287E+04  0.10100000352E+00 0.  1.
</event>
<event>
 5   0  0.7278657E-07  0.3005195E+04  0.7818609E-02  0.8242249E-01
        2   -1    0    0  501    0  0.00000000000E+00  0.00000000000E+00  0.14938582099E+04  0.14938582099E+04  0.25500000920E-02 0. -1.
       -2   -1    0    0    0  501  0.00000000000E+00  0.00000000000E+00 -0.15113876896E+04  0.15113876897E+04  0.25500000920E-02 0.  1.
    10030    2    1    2    0    0  0.00000000000E+00  0.00000000000E+00 -0.17529479771E+02  0.30052458995E+04  0.30051947747E+04 0.  0.
        2    1    3    3  502    0  0.10635588989E+04 -0.32830265585E+03  0.10006377614E+04  0.14967351451E+04  0.25500000920E-02 0. -1.
       -2    1    3    3    0  502 -0.10635588989E+04  0.32830265585E+03 -0.10181672411E+04  0.15085107544E+04  0.25500000920E-02 0.  1.
</event>
<event>
 5   0  0.7208273E-07  0.3005315E+04  0.7818609E-02  0.8242215E-01
       -2   -1    0    0    0  501  0.00000000000E+00  0.00000000000E+00  0.13857651636E+04  0.13857651636E+04  0.25500000920E-02 0.  1.
        2   -1    0    0  501    0  0.00000000000E+00  0.00000000000E+00 -0.16294105026E+04  0.16294105026E+04  0.25500000920E-02 0. -1.
    10030    2    1    2    0    0  0.00000000000E+00  0.00000000000E+00 -0.24364533908E+03  0.30151756662E+04  0.30053154987E+04 0.  0.
        4    1    3    3  502    0  0.35891237820E+02  0.46290906864E+02 -0.16282641292E+04  0.16293178684E+04  0.12699999809E+01 0. -1.
       -4    1    3    3    0  502 -0.35891237820E+02 -0.46290906864E+02  0.13846187901E+04  0.13858577978E+04  0.12699999809E+01 0.  1.
</event>
<event>
 5   0  0.2602891E-07  0.3001024E+04  0.7818609E-02  0.8243439E-01
       -1   -1    0    0    0  501  0.00000000000E+00  0.00000000000E+00  0.90766724666E+03  0.90766724668E+03  0.50400001928E-02 0.  1.
        1   -1    0    0  501    0  0.00000000000E+00  0.00000000000E+00 -0.24805746452E+04  0.24805746452E+04  0.50400001928E-02 0. -1.
    10030    2    1    2    0    0  0.00000000000E+00  0.00000000000E+00 -0.15729073985E+04  0.33882418919E+04  0.30010240641E+04 0.  0.
        5    1    3    3  502    0 -0.72914861998E+03 -0.63476607246E+03 -0.20820987582E+04  0.22955920817E+04  0.46999998093E+01 0. -1.
       -5    1    3    3    0  502  0.72914861998E+03  0.63476607246E+03  0.50919135970E+03  0.10926498101E+04  0.46999998093E+01 0.  1.
</event>
<event>
 5   0  0.2679935E-07  0.3005658E+04  0.7818609E-02  0.8242117E-01
        1   -1    0    0  501    0  0.00000000000E+00  0.00000000000E+00  0.13494789565E+04  0.13494789565E+04  0.50400001928E-02 0. -1.
       -1   -1    0    0    0  501  0.00000000000E+00  0.00000000000E+00 -0.16736048036E+04  0.16736048037E+04  0.50400001928E-02 0.  1.
    10030    2    1    2    0    0  0.00000000000E+00  0.00000000000E+00 -0.32412584712E+03  0.30230837602E+04  0.30056576412E+04 0.  0.
        2    1    3    3  502    0  0.13525080036E+04 -0.61549247868E+03  0.63705796442E+02  0.14873356445E+04  0.25500000920E-02 0. -1.
       -2    1    3    3    0  502 -0.13525080036E+04  0.61549247868E+03 -0.38783164356E+03  0.15357481157E+04  0.25500000920E-02 0.  1.
</event>
<event>
 5   0  0.7278657E-07  0.3008229E+04  0.7818609E-02  0.8241385E-01
        2   -1    0    0  501    0  0.00000000000E+00  0.00000000000E+00  0.17195895485E+04  0.17195895485E+04  0.25500000920E-02 0.  1.
       -2   -1    0    0    0  501  0.00000000000E+00  0.00000000000E+00 -0.13156393988E+04  0.13156393988E+04  0.25500000920E-02 0. -1.
    10030    2    1    2    0    0  0.00000000000E+00  0.00000000000E+00  0.40395014973E+03  0.30352289473E+04  0.30082285550E+04 0.  0.
        2    1    3    3  502    0  0.97771135829E+02 -0.12695731814E+04  0.10097760824E+04  0.16251224553E+04  0.25500000920E-02 0.  1.
       -2    1    3    3    0  502 -0.97771135829E+02  0.12695731814E+04 -0.60582593271E+03  0.14101064920E+04  0.25500000920E-02 0. -1.
</event>
<event>
 5   0  0.7399409E-07  0.3001099E+04  0.7818609E-02  0.8243417E-01
       -2   -1    0    0    0  501  0.00000000000E+00  0.00000000000E+00  0.14243127689E+04  0.14243127689E+04  0.25500000920E-02 0.  1.
        2   -1    0    0  501    0  0.00000000000E+00  0.00000000000E+00 -0.15808668121E+04  0.15808668121E+04  0.25500000920E-02 0. -1.
    10030    2    1    2    0    0  0.00000000000E+00  0.00000000000E+00 -0.15655404321E+03  0.30051795810E+04  0.30010989897E+04 0.  0.
        3    1    3    3  502    0 -0.14597737653E+03 -0.15770239311E+03 -0.15653785526E+04  0.15800599553E+04  0.10100000352E+00 0. -1.
       -3    1    3    3    0  502  0.14597737653E+03  0.15770239311E+03  0.14088245094E+04  0.14251196257E+04  0.10100000352E+00 0.  1.
</event>
<event>
 5   0  0.7585823E-07  0.3000088E+04  0.7818609E-02  0.8243706E-01
       -2   -1    0    0    0  501  0.00000000000E+00  0.00000000000E+00  0.89703206373E+03  0.89703206374E+03  0.25500000920E-02 0.  1.
        2   -1    0    0  501    0  0.00000000000E+00  0.00000000000E+00 -0.25084189697E+04  0.25084189697E+04  0.25500000920E-02 0. -1.
    10030    2    1    2    0    0  0.00000000000E+00  0.00000000000E+00 -0.16113869059E+04  0.34054510334E+04  0.30000881621E+04 0.  0.
        5    1    3    3  502    0 -0.32785666082E+03 -0.11734492332E+04 -0.17989286399E+04  0.21727032551E+04  0.46999998093E+01 0. -1.
       -5    1    3    3    0  502  0.32785666082E+03  0.11734492332E+04  0.18754173398E+03  0.12327477783E+04  0.46999998093E+01 0.  1.
</event>
<event>
 5   0  0.2679935E-07  0.3000520E+04  0.7818609E-02  0.8243583E-01
        1   -1    0    0  501    0  0.00000000000E+00  0.00000000000E+00  0.17869208252E+04  0.17869208252E+04  0.50400001928E-02 0.  1.
       -1   -1    0    0    0  501  0.00000000000E+00  0.00000000000E+00 -0.12595854147E+04  0.12595854147E+04  0.50400001928E-02 0. -1.
    10030    2    1    2    0    0  0.00000000000E+00  0.00000000000E+00  0.52733541049E+03  0.30465062398E+04  0.30005195607E+04 0.  0.
        2    1    3    3  502    0  0.99939317358E+03  0.11097605589E+04  0.11856413952E+03  0.14981363985E+04  0.25500000920E-02 0. -1.
       -2    1    3    3    0  502 -0.99939317358E+03 -0.11097605589E+04  0.40877127097E+03  0.15483698413E+04  0.25500000920E-02 0.  1.
</event>
<event>
 5   0  0.7278657E-07  0.2996406E+04  0.7818609E-02  0.8244758E-01
       -2   -1    0    0    0  501  0.00000000000E+00  0.00000000000E+00  0.10893574130E+04  0.10893574130E+04  0.25500000920E-02 0. -1.
        2   -1    0    0  501    0  0.00000000000E+00  0.00000000000E+00 -0.20604923016E+04  0.20604923016E+04  0.25500000920E-02 0.  1.
    10030    2    1    2    0    0  0.00000000000E+00  0.00000000000E+00 -0.97113488858E+03  0.31498497147E+04  0.29964062230E+04 0.  0.
        2    1    3    3  502    0  0.36617162476E+03  0.70065075657E+02  0.10398170450E+04  0.11046312782E+04  0.25500000920E-02 0. -1.
       -2    1    3    3    0  502 -0.36617162476E+03 -0.70065075657E+02 -0.20109519336E+04  0.20452184365E+04  0.25500000920E-02 0.  1.
</event>
<event>
 5   0  0.2679935E-07  0.2996129E+04  0.7818609E-02  0.8244837E-01
        1   -1    0    0  501    0  0.00000000000E+00  0.00000000000E+00  0.16037545741E+04  0.16037545741E+04  0.50400001928E-02 0.  1.
       -1   -1    0    0    0  501  0.00000000000E+00  0.00000000000E+00 -0.13993398517E+04  0.13993398517E+04  0.50400001928E-02 0. -1.
    10030    2    1    2    0    0  0.00000000000E+00  0.00000000000E+00  0.20441472242E+03  0.30030944258E+04  0.29961292948E+04 0.  0.
        2    1    3    3  502    0 -0.74214803614E+03  0.12172498149E+04 -0.35898931380E+03  0.14701544636E+04  0.25500000920E-02 0. -1.
       -2    1    3    3    0  502  0.74214803614E+03 -0.12172498149E+04  0.56340403623E+03  0.15329399621E+04  0.25500000920E-02 0.  1.
</event>
<event>
 5   0  0.7585823E-07  0.2999414E+04  0.7818609E-02  0.8243898E-01
       -2   -1    0    0    0  501  0.00000000000E+00  0.00000000000E+00  0.13453757942E+04  0.13453757942E+04  0.25500000920E-02 0. -1.
        2   -1    0    0  501    0  0.00000000000E+00  0.00000000000E+00 -0.16717420933E+04  0.16717420933E+04  0.25500000920E-02 0.  1.
    10030    2    1    2    0    0  0.00000000000E+00  0.00000000000E+00 -0.32636629912E+03  0.30171178874E+04  0.29994141737E+04 0.  0.
        5    1    3    3  502    0 -0.51839087942E+03 -0.26521966599E+02 -0.15784941536E+04  0.16616553197E+04  0.46999998093E+01 0.  1.
       -5    1    3    3    0  502  0.51839087942E+03  0.26521966599E+02  0.12521278545E+04  0.13554625677E+04  0.46999998093E+01 0. -1.
</event>
<event>
 5   0  0.2640081E-07  0.3000921E+04  0.7818609E-02  0.8243468E-01
        1   -1    0    0  501    0  0.00000000000E+00  0.00000000000E+00  0.20305737444E+04  0.20305737445E+04  0.50400001928E-02 0. -1.
       -1   -1    0    0    0  501  0.00000000000E+00  0.00000000000E+00 -0.11087416574E+04  0.11087416574E+04  0.50400001928E-02 0.  1.
    10030    2    1    2    0    0  0.00000000000E+00  0.00000000000E+00  0.92183208706E+03  0.31393154019E+04  0.30009209912E+04 0.  0.
        1    1    3    3  502    0  0.79387107966E+03 -0.10592341380E+04 -0.27818893518E+03  0.13526260880E+04  0.50400001928E-02 0.  1.
       -1    1    3    3    0  502 -0.79387107966E+03  0.10592341380E+04  0.12000210222E+04  0.17866893138E+04  0.50400001928E-02 0. -1.
</event>
<event>
 5   0  0.2679935E-07  0.2998940E+04  0.7818609E-02  0.8244034E-01
       -1   -1    0    0    0  501  0.00000000000E+00  0.00000000000E+00  0.10888809814E+04  0.10888809814E+04  0.50400001928E-02 0.  1.
        1   -1    0    0  501    0  0.00000000000E+00  0.00000000000E+00 -0.20648820472E+04  0.20648820472E+04  0.50400001928E-02 0. -1.
    10030    2    1    2    0    0  0.00000000000E+00  0.00000000000E+00 -0.97600106586E+03  0.31537630286E+04  0.29989403395E+04 0.  0.
        2    1    3    3  502    0 -0.53195286205E+03 -0.13877333436E+04 -0.27864217393E+03  0.15120909832E+04  0.25500000920E-02 0.  1.
       -2    1    3    3    0  502  0.53195286205E+03  0.13877333436E+04 -0.69735889194E+03  0.16416720454E+04  0.25500000920E-02 0. -1.
</event>
<event>
 5   0  0.2640081E-07  0.2994864E+04  0.7818609E-02  0.8245199E-01
       -1   -1    0    0    0  501  0.00000000000E+00  0.00000000000E+00  0.13812886386E+04  0.13812886386E+04  0.50400001928E-02 0.  1.
        1   -1    0    0  501    0  0.00000000000E+00  0.00000000000E+00 -0.16233412602E+04  0.16233412602E+04  0.50400001928E-02 0. -1.
    10030    2    1    2    0    0  0.00000000000E+00  0.00000000000E+00 -0.24205262153E+03  0.30046298988E+04  0.29948641634E+04 0.  0.
        1    1    3    3  502    0  0.89120748179E+02  0.14888936978E+04  0.11904378992E+02  0.14916060691E+04  0.50400001928E-02 0.  1.
       -1    1    3    3    0  502 -0.89120748179E+02 -0.14888936978E+04 -0.25395700052E+03  0.15130238297E+04  0.50400001928E-02 0. -1.
</event>
<event>
 5   0  0.7585823E-07  0.3007190E+04  0.7818609E-02  0.8241681E-01
       -2   -1    0    0    0  501  0.00000000000E+00  0.00000000000E+00  0.27780056122E+04  0.27780056122E+04  0.25500000920E-02 0. -1.
        2   -1    0    0  501    0  0.00000000000E+00  0.00000000000E+00 -0.81382055941E+03  0.81382055941E+03  0.25500000920E-02 0.  1.
    10030    2    1    2    0    0  0.00000000000E+00  0.00000000000E+00  0.19641850528E+04  0.35918261716E+04  0.30071901047E+04 0.  0.
        5    1    3    3  502    0  0.33131846510E+03  0.13632629645E+04  0.16280900307E+04  0.21491759058E+04  0.46999998093E+01 0. -1.
       -5    1    3    3    0  502 -0.33131846510E+03 -0.13632629645E+04  0.33609502209E+03  0.14426502659E+04  0.46999998093E+01 0.  1.
</event>
<event>
 5   0  0.2602891E-07  0.3000187E+04  0.7818609E-02  0.8243677E-01
       -1   -1    0    0    0  501  0.00000000000E+00  0.00000000000E+00  0.10115566458E+04  0.10115566458E+04  0.50400001928E-02 0. -1.
        1   -1    0    0  501    0  0.00000000000E+00  0.00000000000E+00 -0.22245724278E+04  0.22245724278E+04  0.50400001928E-02 0.  1.
    10030    2    1    2    0    0  0.00000000000E+00  0.00000000000E+00 -0.12130157820E+04  0.32361290736E+04  0.30001873431E+04 0.  0.
        5    1    3    3  502    0 -0.27603606996E+03  0.57400760887E+03  0.85845291851E+03  0.10689453448E+04  0.46999998093E+01 0. -1.
       -5    1    3    3    0  502  0.27603606996E+03 -0.57400760887E+03 -0.20714687005E+04  0.21671837288E+04  0.46999998093E+01 0.  1.
</event>
<event>
 5   0  0.2621825E-07  0.2997178E+04  0.7818609E-02  0.8244537E-01
       -1   -1    0    0    0  501  0.00000000000E+00  0.00000000000E+00  0.14416396798E+04  0.14416396799E+04  0.50400001928E-02 0. -1.
        1   -1    0    0  501    0  0.00000000000E+00  0.00000000000E+00 -0.15577881846E+04  0.15577881847E+04  0.50400001928E-02 0.  1.
    10030    2    1    2    0    0  0.00000000000E+00  0.00000000000E+00 -0.11614850480E+03  0.29994278645E+04  0.29971781794E+04 0.  0.
        3    1    3    3  502    0  0.95818967661E+03  0.95890661253E+03 -0.69741205992E+03  0.15244713639E+04  0.10100000352E+00 0. -1.
       -3    1    3    3    0  502 -0.95818967661E+03 -0.95890661253E+03  0.58126355512E+03  0.14749565006E+04  0.10100000352E+00 0.  1.
</event>
<event>
 5   0  0.7307508E-07  0.2998843E+04  0.7818609E-02  0.8244061E-01
        2   -1    0    0  501    0  0.00000000000E+00  0.00000000000E+00  0.24475252033E+04  0.24475252033E+04  0.25500000920E-02 0. -1.
       -2   -1    0    0    0  501  0.00000000000E+00  0.00000000000E+00 -0.91858708767E+03  0.91858708768E+03  0.25500000920E-02 0.  1.
    10030    2    1    2    0    0  0.00000000000E+00  0.00000000000E+00  0.15289381156E+04  0.33661122910E+04  0.29988431426E+04 0.  0.
        1    1    3    3  502    0  0.10166272457E+04 -0.10124874879E+04  0.27570680660E+03  0.14610530836E+04  0.50400001928E-02 0. -1.
       -1    1    3    3    0  502 -0.10166272457E+04  0.10124874879E+04  0.12532313090E+04  0.19050592074E+04  0.50400001928E-02 0.  1.
</event>
<event>
 5   0  0.2621825E-07  0.2999206E+04  0.7818609E-02  0.8243958E-01
       -1   -1    0    0    0  501  0.00000000000E+00  0.00000000000E+00  0.22124064576E+04  0.22124064576E+04  0.50400001928E-02 0.  1.
        1   -1    0    0  501    0  0.00000000000E+00  0.00000000000E+00 -0.10164540091E+04  0.10164540091E+04  0.50400001928E-02 0. -1.
    10030    2    1    2    0    0  0.00000000000E+00  0.00000000000E+00  0.11959524486E+04  0.32288604667E+04  0.29992061707E+04 0.  0.
        3    1    3    3  502    0 -0.14102120134E+04 -0.40659397495E+03  0.26651656546E+03  0.14916593689E+04  0.10100000352E+00 0.  1.
       -3    1    3    3    0  502  0.14102120134E+04  0.40659397495E+03  0.92943588309E+03  0.17372010978E+04  0.10100000352E+00 0. -1.
</event>
<event>
 5   0  0.7399409E-07  0.2999224E+04  0.7818609E-02  0.8243953E-01
       -2   -1    0    0    0  501  0.00000000000E+00  0.00000000000E+00  0.13788350541E+04  0.13788350541E+04  0.25500000920E-02 0.  1.
        2   -1    0    0  501    0  0.00000000000E+00  0.00000000000E+00 -0.16309680459E+04  0.16309680459E+04  0.25500000920E-02 0. -1.
    10030    2    1    2    0    0  0.00000000000E+00  0.00000000000E+00 -0.25213299184E+03  0.30098031000E+04  0.29992238421E+04 0.  0.
        3    1    3    3  502    0 -0.71944860127E+03  0.93933013587E+03 -0.10506678665E+04  0.15823559555E+04  0.10100000352E+00 0. -1.
       -3    1    3    3    0  502  0.71944860127E+03 -0.93933013587E+03  0.79853487465E+03  0.14274471445E+04  0.10100000352E+00 0.  1.
</event>
<event>
 5   0  0.2640081E-07  0.2999750E+04  0.7818609E-02  0.8243802E-01
       -1   -1    0    0    0  501  0.00000000000E+00  0.00000000000E+00  0.13257979308E+04  0.13257979308E+04  0.50400001928E-02 0. -1.
        1   -1    0    0  501    0  0.00000000000E+00  0.00000000000E+00 -0.16968085697E+04  0.16968085697E+04  0.50400001928E-02 0.  1.
    10030    2    1    2    0    0  0.00000000000E+00  0.00000000000E+00 -0.37101063889E+03  0.30226065005E+04  0.29997501833E+04 0.  0.
        1    1    3    3  502    0  0.67734614464E+03 -0.13270482669E+04 -0.35936095522E+03  0.15326432065E+04  0.50400001928E-02 0.  1.
       -1    1    3    3    0  502 -0.67734614464E+03  0.13270482669E+04 -0.11649683673E+02  0.14899632940E+04  0.50400001928E-02 0. -1.
</event>
<event>
 5   0  0.2640081E-07  0.2966491E+04  0.7818609E-02  0.8253365E-01
       -1   -1    0    0    0  501  0.00000000000E+00  0.00000000000E+00  0.13859714878E+04  0.13859714878E+04  0.50400001928E-02 0. -1.
        1   -1    0    0  501    0  0.00000000000E+00  0.00000000000E+00 -0.15873468823E+04  0.15873468823E+04  0.50400001928E-02 0.  1.
    10030    2    1    2    0    0  0.00000000000E+00  0.00000000000E+00 -0.20137539455E+03  0.29733183701E+04  0.29664912069E+04 0.  0.
        1    1    3    3  502    0  0.11820310898E+04  0.23674879007E+03 -0.96683506469E+03  0.15453211735E+04  0.50400001928E-02 0.  1.
       -1    1    3    3    0  502 -0.11820310898E+04 -0.23674879007E+03  0.76545967014E+03  0.14279971966E+04  0.50400001928E-02 0. -1.
</event>
<event>
 5   0  0.7307508E-07  0.2998448E+04  0.7818609E-02  0.8244174E-01
        2   -1    0    0  501    0  0.00000000000E+00  0.00000000000E+00  0.15118422866E+04  0.15118422866E+04  0.25500000920E-02 0.  1.
       -2   -1    0    0    0  501  0.00000000000E+00  0.00000000000E+00 -0.14867109108E+04  0.14867109108E+04  0.25500000920E-02 0. -1.
    10030    2    1    2    0    0  0.00000000000E+00  0.00000000000E+00  0.25131375823E+02  0.29985531973E+04  0.29984478804E+04 0.  0.
        1    1    3    3  502    0 -0.12107378721E+03 -0.28650707054E+03 -0.14540898134E+04  0.14869843136E+04  0.50400001928E-02 0. -1.
       -1    1    3    3    0  502  0.12107378721E+03  0.28650707054E+03  0.14792211893E+04  0.15115688837E+04  0.50400001928E-02 0.  1.
</event>
<event>
 5   0  0.2621825E-07  0.2998060E+04  0.7818609E-02  0.8244285E-01
        1   -1    0    0  501    0  0.00000000000E+00  0.00000000000E+00  0.31655255898E+04  0.31655255898E+04  0.50400001928E-02 0. -1.
       -1   -1    0    0    0  501  0.00000000000E+00  0.00000000000E+00 -0.70986337146E+03  0.70986337148E+03  0.50400001928E-02 0.  1.
    10030    2    1    2    0    0  0.00000000000E+00  0.00000000000E+00  0.24556622183E+04  0.38753889613E+04  0.29980598177E+04 0.  0.
        3    1    3    3  502    0  0.12546442700E+04  0.18342773776E+03  0.22613815171E+04  0.25926095647E+04  0.10100000352E+00 0.  1.
       -3    1    3    3    0  502 -0.12546442700E+04 -0.18342773776E+03  0.19428070128E+03  0.12827793966E+04  0.10100000352E+00 0. -1.
</event>
<event>
 5   0  0.2640081E-07  0.3002294E+04  0.7818609E-02  0.8243076E-01
        1   -1    0    0  501    0  0.00000000000E+00  0.00000000000E+00  0.19678339536E+04  0.19678339536E+04  0.50400001928E-02 0. -1.
       -1   -1    0    0    0  501  0.00000000000E+00  0.00000000000E+00 -0.11451385337E+04  0.11451385337E+04  0.50400001928E-02 0.  1.
    10030    2    1    2    0    0  0.00000000000E+00  0.00000000000E+00  0.82269541991E+03  0.31129724873E+04  0.30022941150E+04 0.  0.
        1    1    3    3  502    0 -0.79833188430E+03  0.80523265597E+03  0.14313342742E+04  0.18260479819E+04  0.50400001928E-02 0. -1.
       -1    1    3    3    0  502  0.79833188430E+03 -0.80523265597E+03 -0.60863885426E+03  0.12869245054E+04  0.50400001928E-02 0.  1.
</event>
<event>
 5   0  0.7399409E-07  0.2999596E+04  0.7818609E-02  0.8243846E-01
       -2   -1    0    0    0  501  0.00000000000E+00  0.00000000000E+00  0.10193411116E+04  0.10193411116E+04  0.25500000920E-02 0.  1.
        2   -1    0    0  501    0  0.00000000000E+00  0.00000000000E+00 -0.22067141226E+04  0.22067141226E+04  0.25500000920E-02 0. -1.
    10030    2    1    2    0    0  0.00000000000E+00  0.00000000000E+00 -0.11873730109E+04  0.32260552342E+04  0.29995962573E+04 0.  0.
        3    1    3    3  502    0  0.13708758829E+03  0.10325366727E+04 -0.17542610520E+04  0.20401854906E+04  0.10100000352E+00 0. -1.
       -3    1    3    3    0  502 -0.13708758829E+03 -0.10325366727E+04  0.56688804111E+03  0.11858697436E+04  0.10100000352E+00 0.  1.
</event>
<event>
 5   0  0.7585823E-07  0.3007318E+04  0.7818609E-02  0.8241644E-01
       -2   -1    0    0    0  501  0.00000000000E+00  0.00000000000E+00  0.10250630214E+04  0.10250630214E+04  0.25500000920E-02 0. -1.
        2   -1    0    0  501    0  0.00000000000E+00  0.00000000000E+00 -0.22057092213E+04  0.22057092213E+04  0.25500000920E-02 0.  1.
    10030    2    1    2    0    0  0.00000000000E+00  0.00000000000E+00 -0.11806462000E+04  0.32307722427E+04  0.30073183793E+04 0.  0.
        5    1    3    3  502    0 -0.56032015094E+03  0.53902734713E+03  0.79234318713E+03  0.11101076383E+04  0.46999998093E+01 0. -1.
       -5    1    3    3    0  502  0.56032015094E+03 -0.53902734713E+03 -0.19729893871E+04  0.21206646043E+04  0.46999998093E+01 0.  1.
</event>
<event>
 5   0  0.7278657E-07  0.3007342E+04  0.7818609E-02  0.8241637E-01
        2   -1    0    0  501    0  0.00000000000E+00  0.00000000000E+00  0.19377924749E+04  0.19377924749E+04  0.25500000920E-02 0.  1.
       -2   -1    0    0    0  501  0.00000000000E+00  0.00000000000E+00 -0.11668055076E+04  0.11668055076E+04  0.25500000920E-02 0. -1.
    10030    2    1    2    0    0  0.00000000000E+00  0.00000000000E+00  0.77098696722E+03  0.31045979825E+04  0.30073423033E+04 0.  0.
        2    1    3    3  502    0  0.11849157557E+04 -0.76776295684E+03 -0.14847815300E+03  0.14196940050E+04  0.25500000920E-02 0. -1.
       -2    1    3    3    0  502 -0.11849157557E+04  0.76776295684E+03  0.91946512022E+03  0.16849039775E+04  0.25500000920E-02 0.  1.
</event>
<event>
 5   0  0.7278657E-07  0.2951270E+04  0.7818609E-02  0.8257785E-01
        2   -1    0    0  501    0  0.00000000000E+00  0.00000000000E+00  0.20018350664E+04  0.20018350664E+04  0.25500000920E-02 0.  1.
       -2   -1    0    0    0  501  0.00000000000E+00  0.00000000000E+00 -0.10877513197E+04  0.10877513197E+04  0.25500000920E-02 0. -1.
    10030    2    1    2    0    0  0.00000000000E+00  0.00000000000E+00  0.91408374668E+03  0.30895863862E+04  0.29512700557E+04 0.  0.
        2    1    3    3  502    0 -0.27317982515E+03 -0.12311161704E+04  0.12592618498E+04  0.17821376626E+04  0.25500000920E-02 0.  1.
       -2    1    3    3    0  502  0.27317982515E+03  0.12311161704E+04 -0.34517810316E+03  0.13074487236E+04  0.25500000920E-02 0. -1.
</event>
<event>
 5   0  0.7399409E-07  0.3000591E+04  0.7818609E-02  0.8243562E-01
       -2   -1    0    0    0  501  0.00000000000E+00  0.00000000000E+00  0.15657934064E+04  0.15657934064E+04  0.25500000920E-02 0. -1.
        2   -1    0    0  501    0  0.00000000000E+00  0.00000000000E+00 -0.14375376929E+04  0.14375376929E+04  0.25500000920E-02 0.  1.
    10030    2    1    2    0    0  0.00000000000E+00  0.00000000000E+00  0.12825571354E+03  0.30033310993E+04  0.30005913024E+04 0.  0.
        3    1    3    3  502    0  0.58841928459E+03  0.75053203128E+03 -0.10950969283E+04  0.14521614500E+04  0.10100000352E+00 0.  1.
       -3    1    3    3    0  502 -0.58841928459E+03 -0.75053203128E+03  0.12233526418E+04  0.15511696493E+04  0.10100000352E+00 0. -1.
</event>
<event>
 5   0  0.2679935E-07  0.2996497E+04  0.7818609E-02  0.8244732E-01
       -1   -1    0    0    0  501  0.00000000000E+00  0.00000000000E+00  0.12243907341E+04  0.12243907341E+04  0.50400001928E-02 0. -1.
        1   -1    0    0  501    0  0.00000000000E+00  0.00000000000E+00 -0.18333591448E+04  0.18333591448E+04  0.50400001928E-02 0.  1.
    10030    2    1    2    0    0  0.00000000000E+00  0.00000000000E+00 -0.60896841070E+03  0.30577498789E+04  0.29964965872E+04 0.  0.
        2    1    3    3  502    0  0.16280250105E+03 -0.30704814228E+03 -0.17916583313E+04  0.18250541888E+04  0.25500000920E-02 0.  1.
       -2    1    3    3    0  502 -0.16280250105E+03  0.30704814228E+03  0.11826899206E+04  0.12326956901E+04  0.25500000920E-02 0. -1.
</event>
<event>
 5   0  0.7307508E-07  0.3004193E+04  0.7818609E-02  0.8242535E-01
       -2   -1    0    0    0  501  0.00000000000E+00  0.00000000000E+00  0.13947758082E+04  0.13947758082E+04  0.25500000920E-02 0. -1.
        2   -1    0    0  501    0  0.00000000000E+00  0.00000000000E+00 -0.16176746573E+04  0.16176746573E+04  0.25500000920E-02 0.  1.
    10030    2    1    2    0    0  0.00000000000E+00  0.00000000000E+00 -0.22289884907E+03  0.30124504654E+04  0.30041927218E+04 0.  0.
        1    1    3    3  502    0  0.90600475966E+03  0.14649267069E+03 -0.13038305749E+04  0.15944525377E+04  0.50400001928E-02 0.  1.
       -1    1    3    3    0  502 -0.90600475966E+03 -0.14649267069E+03  0.10809317258E+04  0.14179979277E+04  0.50400001928E-02 0. -1.
</event>
<event>
 5   0  0.2621825E-07  0.3008738E+04  0.7818609E-02  0.8241240E-01
        1   -1    0    0  501    0  0.00000000000E+00  0.00000000000E+00  0.16410159700E+04  0.16410159700E+04  0.50400001928E-02 0. -1.
       -1   -1    0    0    0  501  0.00000000000E+00  0.00000000000E+00 -0.13791004451E+04  0.13791004451E+04  0.50400001928E-02 0.  1.
    10030    2    1    2    0    0  0.00000000000E+00  0.00000000000E+00  0.26191552491E+03  0.30201164151E+04  0.30087378448E+04 0.  0.
        3    1    3    3  502    0 -0.35777315533E+03 -0.17440861279E+03  0.15872047472E+04  0.16363492643E+04  0.10100000352E+00 0. -1.
       -3    1    3    3    0  502  0.35777315533E+03  0.17440861279E+03 -0.13252892223E+04  0.13837671509E+04  0.10100000352E+00 0.  1.
</event>
<event>
 5   0  0.2621825E-07  0.2984328E+04  0.7818609E-02  0.8248220E-01
        1   -1    0    0  501    0  0.00000000000E+00  0.00000000000E+00  0.11336711229E+04  0.11336711229E+04  0.50400001928E-02 0.  1.
       -1   -1    0    0    0  501  0.00000000000E+00  0.00000000000E+00 -0.19640210924E+04  0.19640210924E+04  0.50400001928E-02 0. -1.
    10030    2    1    2    0    0  0.00000000000E+00  0.00000000000E+00 -0.83034996945E+03  0.30976922153E+04  0.29843283983E+04 0.  0.
        3    1    3    3  502    0  0.17775049635E+03  0.10962205960E+04  0.61930702083E+03  0.12715486740E+04  0.10100000352E+00 0.  1.
       -3    1    3    3    0  502 -0.17775049635E+03 -0.10962205960E+04 -0.14496569903E+04  0.18261435414E+04  0.10100000352E+00 0. -1.
</event>
<event>
 5   0  0.2792361E-07  0.2998827E+04  0.7818609E-02  0.8244066E-01
       -1   -1    0    0    0  501  0.00000000000E+00  0.00000000000E+00  0.30433184202E+04  0.30433184202E+04  0.50400001928E-02 0.  1.
        1   -1    0    0  501    0  0.00000000000E+00  0.00000000000E+00 -0.73874664559E+03  0.73874664560E+03  0.50400001928E-02 0. -1.
    10030    2    1    2    0    0  0.00000000000E+00  0.00000000000E+00  0.23045717746E+04  0.37820650658E+04  0.29988272871E+04 0.  0.
        4    1    3    3  502    0  0.10999180119E+04  0.90702888496E+03  0.17380481234E+04  0.22479621712E+04  0.12699999809E+01 0.  1.
       -4    1    3    3    0  502 -0.10999180119E+04 -0.90702888496E+03  0.56652365120E+03  0.15341028946E+04  0.12699999809E+01 0. -1.
</event>
<event>
 5   0  0.7208273E-07  0.3004567E+04  0.7818609E-02  0.8242428E-01
        2   -1    0    0  501    0  0.00000000000E+00  0.00000000000E+00  0.29027183373E+04  0.29027183373E+04  0.25500000920E-02 0.  1.
       -2   -1    0    0    0  501  0.00000000000E+00  0.00000000000E+00 -0.77749731602E+03  0.77749731602E+03  0.25500000920E-02 0. -1.
    10030    2    1    2    0    0  0.00000000000E+00  0.00000000000E+00  0.21252210213E+04  0.36802156533E+04  0.30045670014E+04 0.  0.
        4    1    3    3  502    0  0.47259122844E+03  0.99179071373E+03  0.23176507539E+04  0.25648582649E+04  0.12699999809E+01 0.  1.
       -4    1    3    3    0  502 -0.47259122844E+03 -0.99179071373E+03 -0.19242973262E+03  0.11153573884E+04  0.12699999809E+01 0. -1.
</event>
<event>
 5   0  0.2621825E-07  0.3004146E+04  0.7818609E-02  0.8242548E-01
        1   -1    0    0  501    0  0.00000000000E+00  0.00000000000E+00  0.19871399989E+04  0.19871399990E+04  0.50400001928E-02 0.  1.
       -1   -1    0    0    0  501  0.00000000000E+00  0.00000000000E+00 -0.11354126821E+04  0.11354126822E+04  0.50400001928E-02 0. -1.
    10030    2    1    2    0    0  0.00000000000E+00  0.00000000000E+00  0.85172731681E+03  0.31225526811E+04  0.30041464385E+04 0.  0.
        3    1    3    3  502    0 -0.31530295850E+03 -0.13658282123E+04  0.98687905941E+03  0.17143024672E+04  0.10100000352E+00 0.  1.
       -3    1    3    3    0  502  0.31530295850E+03  0.13658282123E+04 -0.13515174260E+03  0.14082502139E+04  0.10100000352E+00 0. -1.
</event>
<event>
 5   0  0.7585823E-07  0.2999104E+04  0.7818609E-02  0.8243987E-01
        2   -1    0    0  501    0  0.00000000000E+00  0.00000000000E+00  0.16189921093E+04  0.16189921093E+04  0.25500000920E-02 0.  1.
       -2   -1    0    0    0  501  0.00000000000E+00  0.00000000000E+00 -0.13889234393E+04  0.13889234393E+04  0.25500000920E-02 0. -1.
    10030    2    1    2    0    0  0.00000000000E+00  0.00000000000E+00  0.23006867005E+03  0.30079155486E+04  0.29991039253E+04 0.  0.
        5    1    3    3  502    0  0.11690248500E+03  0.36786994220E+02  0.16139535811E+04  0.16186067237E+04  0.46999998093E+01 0.  1.
       -5    1    3    3    0  502 -0.11690248500E+03 -0.36786994220E+02 -0.13838849111E+04  0.13893088249E+04  0.46999998093E+01 0. -1.
</event>
<event>
 5   0  0.2621825E-07  0.3008147E+04  0.7818609E-02  0.8241408E-01
       -1   -1    0    0    0  501  0.00000000000E+00  0.00000000000E+00  0.83549219835E+03  0.83549219837E+03  0.50400001928E-02 0.  1.
        1   -1    0    0  501    0  0.00000000000E+00  0.00000000000E+00 -0.27076704514E+04  0.27076704514E+04  0.50400001928E-02 0. -1.
    10030    2    1    2    0    0  0.00000000000E+00  0.00000000000E+00 -0.18721782530E+04  0.35431626497E+04  0.30081472955E+04 0.  0.
        3    1    3    3  502    0 -0.32306347947E+03 -0.30271857675E+03 -0.26291836909E+04  0.26661986871E+04  0.10100000352E+00 0. -1.
       -3    1    3    3    0  502  0.32306347947E+03  0.30271857675E+03  0.75700543791E+03  0.87696396260E+03  0.10100000352E+00 0.  1.
</event>
<event>
 5   0  0.7307508E-07  0.2997982E+04  0.7818609E-02  0.8244307E-01
        2   -1    0    0  501    0  0.00000000000E+00  0.00000000000E+00  0.12349967236E+04  0.12349967236E+04  0.25500000920E-02 0. -1.
       -2   -1    0    0    0  501  0.00000000000E+00  0.00000000000E+00 -0.18194173187E+04  0.18194173187E+04  0.25500000920E-02 0.  1.
    10030    2    1    2    0    0  0.00000000000E+00  0.00000000000E+00 -0.58442059507E+03  0.30544140423E+04  0.29979822731E+04 0.  0.
        1    1    3    3  502    0  0.11511119990E+04  0.70957443507E+03  0.36681929518E+03  0.14011106696E+04  0.50400001928E-02 0. -1.
       -1    1    3    3    0  502 -0.11511119990E+04 -0.70957443507E+03 -0.95123989026E+03  0.16533033727E+04  0.50400001928E-02 0.  1.
</event>
<event>
 5   0  0.2621825E-07  0.3002460E+04  0.7818609E-02  0.8243029E-01
        1   -1    0    0  501    0  0.00000000000E+00  0.00000000000E+00  0.17984033118E+04  0.17984033118E+04  0.50400001928E-02 0. -1.
       -1   -1    0    0    0  501  0.00000000000E+00  0.00000000000E+00 -0.12531621670E+04  0.12531621670E+04  0.50400001928E-02 0.  1.
    10030    2    1    2    0    0  0.00000000000E+00  0.00000000000E+00  0.54524114476E+03  0.30515654788E+04  0.30024596526E+04 0.  0.
        3    1    3    3  502    0  0.12658210476E+04  0.73326249218E+03 -0.70109974476E+02  0.14645450576E+04  0.10100000352E+00 0.  1.
       -3    1    3    3    0  502 -0.12658210476E+04 -0.73326249218E+03  0.61535111923E+03  0.15870204212E+04  0.10100000352E+00 0. -1.
</event>
<event>
 5   0  0.7585823E-07  0.3004293E+04  0.7818609E-02  0.8242506E-01
        2   -1    0    0  501    0  0.00000000000E+00  0.00000000000E+00  0.73712617439E+03  0.73712617439E+03  0.25500000920E-02 0. -1.
       -2   -1    0    0    0  501  0.00000000000E+00  0.00000000000E+00 -0.30611371140E+04  0.30611371140E+04  0.25500000920E-02 0.  1.
    10030    2    1    2    0    0  0.00000000000E+00  0.00000000000E+00 -0.23240109396E+04  0.37982632884E+04  0.30042931216E+04 0.  0.
        5    1    3    3  502    0 -0.85260761448E+03  0.63445684415E+03  0.18012427763E+03  0.10779341709E+04  0.46999998093E+01 0. -1.
       -5    1    3    3    0  502  0.85260761448E+03 -0.63445684415E+03 -0.25041352172E+04  0.27203291175E+04  0.46999998093E+01 0.  1.
</event>
<event>
 5   0  0.7399409E-07  0.3001592E+04  0.7818609E-02  0.8243276E-01
        2   -1    0    0  501    0  0.00000000000E+00  0.00000000000E+00  0.14047333038E+04  0.14047333038E+04  0.25500000920E-02 0.  1.
       -2   -1    0    0    0  501  0.00000000000E+00  0.00000000000E+00 -0.16034284076E+04  0.16034284076E+04  0.25500000920E-02 0. -1.
    10030    2    1    2    0    0  0.00000000000E+00  0.00000000000E+00 -0.19869510381E+03  0.30081617113E+04  0.30015924336E+04 0.  0.
        3    1    3    3  502    0  0.58193651915E+03  0.53777727904E+03 -0.13767094610E+04  0.15884531672E+04  0.10100000352E+00 0. -1.
       -3    1    3    3    0  502 -0.58193651915E+03 -0.53777727904E+03  0.11780143572E+04  0.14197085441E+04  0.10100000352E+00 0.  1.
</event>
<event>
 5   0  0.7399409E-07  0.2999032E+04  0.7818609E-02  0.8244007E-01
        2   -1    0    0  501    0  0.00000000000E+00  0.00000000000E+00  0.15244649659E+04  0.15244649659E+04  0.25500000920E-02 0. -1.
       -2   -1    0    0    0  501  0.00000000000E+00  0.00000000000E+00 -0.14749749101E+04  0.14749749101E+04  0.25500000920E-02 0.  1.
    10030    2    1    2    0    0  0.00000000000E+00  0.00000000000E+00  0.49490055726E+02  0.29994398760E+04  0.29990315611E+04 0.  0.
        3    1    3    3  502    0 -0.10057079534E+04  0.60452931387E+03 -0.90900052090E+03  0.14843133551E+04  0.10100000352E+00 0.  1.
       -3    1    3    3    0  502  0.10057079534E+04 -0.60452931387E+03  0.95849057662E+03  0.15151265210E+04  0.10100000352E+00 0. -1.
</event>
<event>
 5   0  0.2640081E-07  0.2993941E+04  0.7818609E-02  0.8245463E-01
        1   -1    0    0  501    0  0.00000000000E+00  0.00000000000E+00  0.12356214189E+04  0.12356214189E+04  0.50400001928E-02 0. -1.
       -1   -1    0    0    0  501  0.00000000000E+00  0.00000000000E+00 -0.18135986128E+04  0.18135986128E+04  0.50400001928E-02 0.  1.
    10030    2    1    2    0    0  0.00000000000E+00  0.00000000000E+00 -0.57797719385E+03  0.30492200317E+04  0.29939414098E+04 0.  0.
        1    1    3    3  502    0 -0.12921692502E+02 -0.14085259763E+04  0.22713117710E+03  0.14267799296E+04  0.50400001928E-02 0. -1.
       -1    1    3    3    0  502  0.12921692502E+02  0.14085259763E+04 -0.80510837096E+03  0.16224401021E+04  0.50400001928E-02 0.  1.
</event>
<event>
 5   0  0.2792361E-07  0.3005619E+04  0.7818609E-02  0.8242128E-01
       -1   -1    0    0    0  501  0.00000000000E+00  0.00000000000E+00  0.20773275028E+04  0.20773275028E+04  0.50400001928E-02 0.  1.
        1   -1    0    0  501    0  0.00000000000E+00  0.00000000000E+00 -0.10871835764E+04  0.10871835764E+04  0.50400001928E-02 0. -1.
    10030    2    1    2    0    0  0.00000000000E+00  0.00000000000E+00  0.99014392636E+03  0.31645110792E+04  0.30056189671E+04 0.  0.
        4    1    3    3  502    0  0.11106099637E+03 -0.12628255931E+04 -0.35467015169E+03  0.13163797146E+04  0.12699999809E+01 0. -1.
       -4    1    3    3    0  502 -0.11106099637E+03  0.12628255931E+04  0.13448140780E+04  0.18481313646E+04  0.12699999809E+01 0.  1.
</event>
<event>
 5   0  0.2640081E-07  0.3002139E+04  0.7818609E-02  0.8243120E-01
        1   -1    0    0  501    0  0.00000000000E+00  0.00000000000E+00  0.13208946701E+04  0.13208946701E+04  0.50400001928E-02 0.  1.
       -1   -1    0    0    0  501  0.00000000000E+00  0.00000000000E+00 -0.17058204869E+04  0.17058204869E+04  0.50400001928E-02 0. -1.
    10030    2    1    2    0    0  0.00000000000E+00  0.00000000000E+00 -0.38492581676E+03  0.30267151570E+04  0.30021386972E+04 0.  0.
        1    1    3    3  502    0  0.47807565345E+02  0.14908524522E+03  0.13126404829E+04  0.13219444054E+04  0.50400001928E-02 0.  1.
       -1    1    3    3    0  502 -0.47807565345E+02 -0.14908524522E+03 -0.16975662997E+04  0.17047707516E+04  0.50400001928E-02 0. -1.
</event>
<event>
 5   0  0.2414250E-07  0.2993728E+04  0.7818609E-02  0.8245524E-01
       -3   -1    0    0    0  501  0.00000000000E+00  0.00000000000E+00  0.13686652289E+04  0.13686652326E+04  0.10100000352E+00 0. -1.
        3   -1    0    0  501    0  0.00000000000E+00  0.00000000000E+00 -0.16370705091E+04  0.16370705122E+04  0.10100000352E+00 0.  1.
    10030    2    1    2    0    0  0.00000000000E+00  0.00000000000E+00 -0.26840528023E+03  0.30057357448E+04  0.29937277721E+04 0.  0.
        1    1    3    3  502    0  0.78514267740E+03  0.65270538674E+03 -0.12331834917E+04  0.16010043317E+04  0.50400001928E-02 0.  1.
       -1    1    3    3    0  502 -0.78514267740E+03 -0.65270538674E+03  0.96477821148E+03  0.14047314132E+04  0.50400001928E-02 0. -1.
</event>
<event>
 5   0  0.2602891E-07  0.3008761E+04  0.7818609E-02  0.8241234E-01
       -1   -1    0    0    0  501  0.00000000000E+00  0.00000000000E+00  0.12560531296E+04  0.12560531297E+04  0.50400001928E-02 0. -1.
        1   -1    0    0  501    0  0.00000000000E+00  0.00000000000E+00 -0.18018027373E+04  0.18018027373E+04  0.50400001928E-02 0.  1.
    10030    2    1    2    0    0  0.00000000000E+00  0.00000000000E+00 -0.54574960766E+03  0.30578558670E+04  0.30087605204E+04 0.  0.
        5    1    3    3  502    0 -0.61545418975E+03  0.28737298270E+02  0.11219364759E+04  0.12799895460E+04  0.46999998093E+01 0. -1.
       -5    1    3    3    0  502  0.61545418975E+03 -0.28737298270E+02 -0.16676860835E+04  0.17778663210E+04  0.46999998093E+01 0.  1.
</event>
<event>
 5   0  0.2792361E-07  0.2999907E+04  0.7818609E-02  0.8243757E-01
        1   -1    0    0  501    0  0.00000000000E+00  0.00000000000E+00  0.21040934015E+04  0.21040934015E+04  0.50400001928E-02 0. -1.
       -1   -1    0    0    0  501  0.00000000000E+00  0.00000000000E+00 -0.10692781100E+04  0.10692781100E+04  0.50400001928E-02 0.  1.
    10030    2    1    2    0    0  0.00000000000E+00  0.00000000000E+00  0.10348152916E+04  0.31733715115E+04  0.29999073423E+04 0.  0.
        4    1    3    3  502    0 -0.88249593675E+03 -0.10066206722E+04  0.12331211027E+04  0.18200751421E+04  0.12699999809E+01 0. -1.
       -4    1    3    3    0  502  0.88249593675E+03  0.10066206722E+04 -0.19830581109E+03  0.13532963695E+04  0.12699999809E+01 0.  1.
</event>
<event>
 5   0  0.2679935E-07  0.2995456E+04  0.7818609E-02  0.8245030E-01
        1   -1    0    0  501    0  0.00000000000E+00  0.00000000000E+00  0.21843566535E+04  0.21843566535E+04  0.50400001928E-02 0. -1.
       -1   -1    0    0    0  501  0.00000000000E+00  0.00000000000E+00 -0.10269337000E+04  0.10269337001E+04  0.50400001928E-02 0.  1.
    10030    2    1    2    0    0  0.00000000000E+00  0.00000000000E+00  0.11574229535E+04  0.32112903536E+04  0.29954561993E+04 0.  0.
        2    1    3    3  502    0 -0.55669292504E+03 -0.72017754585E+02 -0.90989846694E+03  0.10691158917E+04  0.25500000920E-02 0.  1.
       -2    1    3    3    0  502  0.55669292504E+03  0.72017754585E+02  0.20673214204E+04  0.21421744619E+04  0.25500000920E-02 0. -1.
</event>
<event>
 5   0  0.7278657E-07  0.3012129E+04  0.7818609E-02  0.8240276E-01
        2   -1    0    0  501    0  0.00000000000E+00  0.00000000000E+00  0.20301103009E+04  0.20301103009E+04  0.25500000920E-02 0.  1.
       -2   -1    0    0    0  501  0.00000000000E+00  0.00000000000E+00 -0.11172937509E+04  0.11172937509E+04  0.25500000920E-02 0. -1.
    10030    2    1    2    0    0  0.00000000000E+00  0.00000000000E+00  0.91281654997E+03  0.31474040518E+04  0.30121285184E+04 0.  0.
        2    1    3    3  502    0 -0.11623881601E+04  0.60966646053E+03  0.12280800875E+04  0.17975038607E+04  0.25500000920E-02 0.  1.
       -2    1    3    3    0  502  0.11623881601E+04 -0.60966646053E+03 -0.31526353756E+03  0.13499001911E+04  0.25500000920E-02 0. -1.
</event>
<event>
 5   0  0.2602891E-07  0.2994445E+04  0.7818609E-02  0.8245319E-01
       -1   -1    0    0    0  501  0.00000000000E+00  0.00000000000E+00  0.17379186780E+04  0.17379186780E+04  0.50400001928E-02 0.  1.
        1   -1    0    0  501    0  0.00000000000E+00  0.00000000000E+00 -0.12898623910E+04  0.12898623910E+04  0.50400001928E-02 0. -1.
    10030    2    1    2    0    0  0.00000000000E+00  0.00000000000E+00  0.44805628695E+03  0.30277810690E+04  0.29944454855E+04 0.  0.
        5    1    3    3  502    0 -0.88674512162E+03  0.12460688705E+03  0.14373070876E+04  0.16934336542E+04  0.46999998093E+01 0.  1.
       -5    1    3    3    0  502  0.88674512162E+03 -0.12460688705E+03 -0.98925080064E+03  0.13343474149E+04  0.46999998093E+01 0. -1.
</event>
<event>
 5   0  0.2621825E-07  0.3003707E+04  0.7818609E-02  0.8242673E-01
       -1   -1    0    0    0  501  0.00000000000E+00  0.00000000000E+00  0.14910525913E+04  0.14910525913E+04  0.50400001928E-02 0.  1.
        1   -1    0    0  501    0  0.00000000000E+00  0.00000000000E+00 -0.15127322467E+04  0.15127322468E+04  0.50400001928E-02 0. -1.
    10030    2    1    2    0    0  0.00000000000E+00  0.00000000000E+00 -0.21679655431E+02  0.30037848381E+04  0.30037066012E+04 0.  0.
        3    1    3    3  502    0 -0.20381318231E+03 -0.12335619720E+04 -0.84293624132E+03  0.15078980301E+04  0.10100000352E+00 0. -1.
       -3    1    3    3    0  502  0.20381318231E+03  0.12335619720E+04  0.82125658589E+03  0.14958868080E+04  0.10100000352E+00 0.  1.
</event>
<event>
 5   0  0.7278657E-07  0.3000532E+04  0.7818609E-02  0.8243579E-01
       -2   -1    0    0    0  501  0.00000000000E+00  0.00000000000E+00  0.10407422990E+04  0.10407422990E+04  0.25500000920E-02 0.  1.
        2   -1    0    0  501    0  0.00000000000E+00  0.00000000000E+00 -0.21626849247E+04  0.21626849247E+04  0.25500000920E-02 0. -1.
    10030    2    1    2    0    0  0.00000000000E+00  0.00000000000E+00 -0.11219426258E+04  0.32034272237E+04  0.30005317399E+04 0.  0.
        2    1    3    3  502    0  0.89570517881E+03  0.83725673000E+03 -0.14840217971E+04  0.19249954009E+04  0.25500000920E-02 0. -1.
       -2    1    3    3    0  502 -0.89570517881E+03 -0.83725673000E+03  0.36207917132E+03  0.12784318228E+04  0.25500000920E-02 0.  1.
</event>
<event>
 5   0  0.2679935E-07  0.2904686E+04  0.7818609E-02  0.8271485E-01
       -1   -1    0    0    0  501  0.00000000000E+00  0.00000000000E+00  0.15441553252E+04  0.15441553252E+04  0.50400001928E-02 0.  1.
        1   -1    0    0  501    0  0.00000000000E+00  0.00000000000E+00 -0.13659892085E+04  0.13659892085E+04  0.50400001928E-02 0. -1.
    10030    2    1    2    0    0  0.00000000000E+00  0.00000000000E+00  0.17816611676E+03  0.29101445337E+04  0.29046855323E+04 0.  0.
        2    1    3    3  502    0 -0.11058807085E+03 -0.51184007825E+03  0.14462837281E+04  0.15381633883E+04  0.25500000920E-02 0.  1.
       -2    1    3    3    0  502  0.11058807085E+03  0.51184007825E+03 -0.12681176113E+04  0.13719811454E+04  0.25500000920E-02 0. -1.
</event>
<event>
 5   0  0.2602891E-07  0.2996977E+04  0.7818609E-02  0.8244595E-01
       -1   -1    0    0    0  501  0.00000000000E+00  0.00000000000E+00  0.15619241518E+04  0.15619241518E+04  0.50400001928E-02 0.  1.
        1   -1    0    0  501    0  0.00000000000E+00  0.00000000000E+00 -0.14376295880E+04  0.14376295880E+04  0.50400001928E-02 0. -1.
    10030    2    1    2    0    0  0.00000000000E+00  0.00000000000E+00  0.12429456382E+03  0.29995537398E+04  0.29969773938E+04 0.  0.
        5    1    3    3  502    0 -0.58937514227E+03  0.58045548355E+03  0.13126831267E+04  0.15515961806E+04  0.46999998093E+01 0.  1.
       -5    1    3    3    0  502  0.58937514227E+03 -0.58045548355E+03 -0.11883885629E+04  0.14479575591E+04  0.46999998093E+01 0. -1.
</event>
<event>
 5   0  0.7307508E-07  0.2995272E+04  0.7818609E-02  0.8245082E-01
        2   -1    0    0  501    0  0.00000000000E+00  0.00000000000E+00  0.23303301055E+04  0.23303301055E+04  0.25500000920E-02 0. -1.
       -2   -1    0    0    0  501  0.00000000000E+00  0.00000000000E+00 -0.96248743998E+03  0.96248743998E+03  0.25500000920E-02 0.  1.
    10030    2    1    2    0    0  0.00000000000E+00  0.00000000000E+00  0.13678426655E+04  0.32928175454E+04  0.29952719125E+04 0.  0.
        1    1    3    3  502    0 -0.49509982780E+03 -0.35285737694E+03  0.21885623989E+04  0.22714395308E+04  0.50400001928E-02 0. -1.
       -1    1    3    3    0  502  0.49509982780E+03  0.35285737694E+03 -0.82071973345E+03  0.10213780147E+04  0.50400001928E-02 0.  1.
</event>
<event>
 5   0  0.7278657E-07  0.3000069E+04  0.7818609E-02  0.8243711E-01
        2   -1    0    0  501    0  0.00000000000E+00  0.00000000000E+00  0.18913247145E+04  0.18913247145E+04  0.25500000920E-02 0. -1.
       -2   -1    0    0    0  501  0.00000000000E+00  0.00000000000E+00 -0.11896972700E+04  0.11896972700E+04  0.25500000920E-02 0.  1.
    10030    2    1    2    0    0  0.00000000000E+00  0.00000000000E+00  0.70162744456E+03  0.30810219845E+04  0.30000692322E+04 0.  0.
        2    1    3    3  502    0  0.11290809409E+04  0.27138381245E+03 -0.62435084990E+03  0.13184410979E+04  0.25500000920E-02 0.  1.
       -2    1    3    3    0  502 -0.11290809409E+04 -0.27138381245E+03  0.13259782945E+04  0.17625808867E+04  0.25500000920E-02 0. -1.
</event>
<event>
 5   0  0.7208273E-07  0.2998664E+04  0.7818609E-02  0.8244112E-01
        2   -1    0    0  501    0  0.00000000000E+00  0.00000000000E+00  0.23053277158E+04  0.23053277158E+04  0.25500000920E-02 0.  1.
       -2   -1    0    0    0  501  0.00000000000E+00  0.00000000000E+00 -0.97513117536E+03  0.97513117536E+03  0.25500000920E-02 0. -1.
    10030    2    1    2    0    0  0.00000000000E+00  0.00000000000E+00  0.13301965405E+04  0.32804588912E+04  0.29986643194E+04 0.  0.
        4    1    3    3  502    0  0.60860983888E+03 -0.38976719437E+03  0.21021941255E+04  0.22229588741E+04  0.12699999809E+01 0.  1.
       -4    1    3    3    0  502 -0.60860983888E+03  0.38976719437E+03 -0.77199758507E+03  0.10575000170E+04  0.12699999809E+01 0. -1.
</event>
<event>
 5   0  0.7585823E-07  0.2969568E+04  0.7818609E-02  0.8252475E-01
        2   -1    0    0  501    0  0.00000000000E+00  0.00000000000E+00  0.13567405548E+04  0.13567405548E+04  0.25500000920E-02 0. -1.
       -2   -1    0    0    0  501  0.00000000000E+00  0.00000000000E+00 -0.16249118753E+04  0.16249118753E+04  0.25500000920E-02 0.  1.
    10030    2    1    2    0    0  0.00000000000E+00  0.00000000000E+00 -0.26817132053E+03  0.29816524302E+04  0.29695682106E+04 0.  0.
        5    1    3    3  502    0  0.45973398136E+03 -0.13732775084E+04 -0.46300888132E+03  0.15204097352E+04  0.46999998093E+01 0.  1.
       -5    1    3    3    0  502 -0.45973398136E+03  0.13732775084E+04  0.19483756079E+03  0.14612426950E+04  0.46999998093E+01 0. -1.
</event>
<event>
 5   0  0.7208273E-07  0.2999475E+04  0.7818609E-02  0.8243881E-01
       -2   -1    0    0    0  501  0.00000000000E+00  0.00000000000E+00  0.10526635974E+04  0.10526635974E+04  0.25500000920E-02 0. -1.
        2   -1    0    0  501    0  0.00000000000E+00  0.00000000000E+00 -0.21366870226E+04  0.21366870226E+04  0.25500000920E-02 0.  1.
    10030    2    1    2    0    0  0.00000000000E+00  0.00000000000E+00 -0.10840234252E+04  0.31893506201E+04  0.29994750526E+04 0.  0.
        4    1    3    3  502    0  0.14453279362E+04 -0.39579845650E+03 -0.47837524333E+03  0.15730460094E+04  0.12699999809E+01 0. -1.
       -4    1    3    3    0  502 -0.14453279362E+04  0.39579845650E+03 -0.60564818184E+03  0.16163046107E+04  0.12699999809E+01 0.  1.
</event>
<event>
 5   0  0.7307508E-07  0.3009403E+04  0.7818609E-02  0.8241051E-01
       -2   -1    0    0    0  501  0.00000000000E+00  0.00000000000E+00  0.23196588887E+04  0.23196588887E+04  0.25500000920E-02 0.  1.
        2   -1    0    0  501    0  0.00000000000E+00  0.00000000000E+00 -0.97606019006E+03  0.97606019006E+03  0.25500000920E-02 0. -1.
    10030    2    1    2    0    0  0.00000000000E+00  0.00000000000E+00  0.13435986987E+04  0.32957190788E+04  0.30094030609E+04 0.  0.
        1    1    3    3  502    0  0.20995196719E+03  0.41325481996E+03  0.22395216459E+04  0.22869885389E+04  0.50400001928E-02 0.  1.
       -1    1    3    3    0  502 -0.20995196719E+03 -0.41325481996E+03 -0.89592294720E+03  0.10087305399E+04  0.50400001928E-02 0. -1.
</event>
<event>
 5   0  0.2792361E-07  0.3003420E+04  0.7818609E-02  0.8242755E-01
        1   -1    0    0  501    0  0.00000000000E+00  0.00000000000E+00  0.21142962056E+04  0.21142962056E+04  0.50400001928E-02 0. -1.
       -1   -1    0    0    0  501  0.00000000000E+00  0.00000000000E+00 -0.10666117201E+04  0.10666117201E+04  0.50400001928E-02 0.  1.
    10030    2    1    2    0    0  0.00000000000E+00  0.00000000000E+00  0.10476844855E+04  0.31809079257E+04  0.30034201256E+04 0.  0.
        4    1    3    3  502    0 -0.26078740819E+03 -0.50715001537E+03 -0.94746948798E+03  0.11058531792E+04  0.12699999809E+01 0.  1.
       -4    1    3    3    0  502  0.26078740819E+03  0.50715001537E+03  0.19951539734E+04  0.20750547465E+04  0.12699999809E+01 0. -1.
</event>
<event>
 5   0  0.7278657E-07  0.3002722E+04  0.7818609E-02  0.8242954E-01
        2   -1    0    0  501    0  0.00000000000E+00  0.00000000000E+00  0.11894741509E+04  0.11894741509E+04  0.25500000920E-02 0.  1.
       -2   -1    0    0    0  501  0.00000000000E+00  0.00000000000E+00 -0.18950259713E+04  0.18950259713E+04  0.25500000920E-02 0. -1.
    10030    2    1    2    0    0  0.00000000000E+00  0.00000000000E+00 -0.70555182040E+03  0.30845001222E+04  0.30027217042E+04 0.  0.
        2    1    3    3  502    0 -0.14410317814E+04 -0.30570294829E+03 -0.54953073300E+02  0.14741257504E+04  0.25500000920E-02 0. -1.
       -2    1    3    3    0  502  0.14410317814E+04  0.30570294829E+03 -0.65059874710E+03  0.16103743718E+04  0.25500000920E-02 0.  1.
</event>
<event>
 5   0  0.7399409E-07  0.2999996E+04  0.7818609E-02  0.8243732E-01
        2   -1    0    0  501    0  0.00000000000E+00  0.00000000000E+00  0.17810049598E+04  0.17810049598E+04  0.25500000920E-02 0.  1.
       -2   -1    0    0    0  501  0.00000000000E+00  0.00000000000E+00 -0.12633281452E+04  0.12633281452E+04  0.25500000920E-02 0. -1.
    10030    2    1    2    0    0  0.00000000000E+00  0.00000000000E+00  0.51767681459E+03  0.30443331051E+04  0.29999957950E+04 0.  0.
        3    1    3    3  502    0 -0.84793592674E+03 -0.11503778702E+04 -0.20355926314E+03  0.14435376559E+04  0.10100000352E+00 0. -1.
       -3    1    3    3    0  502  0.84793592674E+03  0.11503778702E+04  0.72123607773E+03  0.16007954492E+04  0.10100000352E+00 0.  1.
</event>
<event>
 5   0  0.7585823E-07  0.3003447E+04  0.7818609E-02  0.8242747E-01
       -2   -1    0    0    0  501  0.00000000000E+00  0.00000000000E+00  0.11383018445E+04  0.11383018445E+04  0.25500000920E-02 0.  1.
        2   -1    0    0  501    0  0.00000000000E+00  0.00000000000E+00 -0.19811736842E+04  0.19811736842E+04  0.25500000920E-02 0. -1.
    10030    2    1    2    0    0  0.00000000000E+00  0.00000000000E+00 -0.84287183968E+03  0.31194755287E+04  0.30034471256E+04 0.  0.
        5    1    3    3  502    0 -0.20993288132E+03  0.11835379100E+03  0.11180784617E+04  0.11437661348E+04  0.46999998093E+01 0.  1.
       -5    1    3    3    0  502  0.20993288132E+03 -0.11835379100E+03 -0.19609503014E+04  0.19757093939E+04  0.46999998093E+01 0. -1.
</event>
<event>
 5   0  0.7307508E-07  0.2999975E+04  0.7818609E-02  0.8243738E-01
       -2   -1    0    0    0  501  0.00000000000E+00  0.00000000000E+00  0.13394977097E+04  0.13394977097E+04  0.25500000920E-02 0.  1.
        2   -1    0    0  501    0  0.00000000000E+00  0.00000000000E+00 -0.16797064653E+04  0.16797064653E+04  0.25500000920E-02 0. -1.
    10030    2    1    2    0    0  0.00000000000E+00  0.00000000000E+00 -0.34020875567E+03  0.30192041750E+04  0.29999753087E+04 0.  0.
        1    1    3    3  502    0 -0.68741052890E+03 -0.10660944871E+04 -0.97578059557E+03  0.16003869724E+04  0.50400001928E-02 0. -1.
       -1    1    3    3    0  502  0.68741052890E+03  0.10660944871E+04  0.63557183990E+03  0.14188172026E+04  0.50400001928E-02 0.  1.
</event>
<event>
 5   0  0.2640081E-07  0.3011432E+04  0.7818609E-02  0.8240474E-01
       -1   -1    0    0    0  501  0.00000000000E+00  0.00000000000E+00  0.90966580261E+03  0.90966580262E+03  0.50400001928E-02 0.  1.
        1   -1    0    0  501    0  0.00000000000E+00  0.00000000000E+00 -0.24923220526E+04  0.24923220526E+04  0.50400001928E-02 0. -1.
    10030    2    1    2    0    0  0.00000000000E+00  0.00000000000E+00 -0.15826562500E+04  0.34019878552E+04  0.30114316465E+04 0.  0.
        1    1    3    3  502    0  0.32753033547E+03 -0.10938179333E+04 -0.19001914612E+04  0.22168539378E+04  0.50400001928E-02 0. -1.
       -1    1    3    3    0  502 -0.32753033547E+03  0.10938179333E+04  0.31753521127E+03  0.11851339175E+04  0.50400001928E-02 0.  1.
</event>
<event>
 5   0  0.7278657E-07  0.2999042E+04  0.7818609E-02  0.8244004E-01
        2   -1    0    0  501    0  0.00000000000E+00  0.00000000000E+00  0.86068725102E+03  0.86068725103E+03  0.25500000920E-02 0.  1.
       -2   -1    0    0    0  501  0.00000000000E+00  0.00000000000E+00 -0.26125207999E+04  0.26125207999E+04  0.25500000920E-02 0. -1.
    10030    2    1    2    0    0  0.00000000000E+00  0.00000000000E+00 -0.17518335488E+04  0.34732080509E+04  0.29990420774E+04 0.  0.
        2    1    3    3  502    0  0.58831590455E+03  0.77923234622E+03 -0.21939433001E+04  0.24013966472E+04  0.25500000920E-02 0. -1.
       -2    1    3    3    0  502 -0.58831590455E+03 -0.77923234622E+03  0.44210975128E+03  0.10718114037E+04  0.25500000920E-02 0.  1.
</event>
<event>
 5   0  0.2602891E-07  0.2998793E+04  0.7818609E-02  0.8244076E-01
       -1   -1    0    0    0  501  0.00000000000E+00  0.00000000000E+00  0.11047392780E+04  0.11047392780E+04  0.50400001928E-02 0. -1.
        1   -1    0    0  501    0  0.00000000000E+00  0.00000000000E+00 -0.20350409346E+04  0.20350409346E+04  0.50400001928E-02 0.  1.
    10030    2    1    2    0    0  0.00000000000E+00  0.00000000000E+00 -0.93030165664E+03  0.31397802126E+04  0.29987928590E+04 0.  0.
        5    1    3    3  502    0  0.12320329793E+04 -0.28414430459E+03  0.37867047780E+03  0.13198699438E+04  0.46999998093E+01 0. -1.
       -5    1    3    3    0  502 -0.12320329793E+04  0.28414430459E+03 -0.13089721344E+04  0.18199102688E+04  0.46999998093E+01 0.  1.
</event>
<event>
 5   0  0.7585823E-07  0.3003732E+04  0.7818609E-02  0.8242666E-01
       -2   -1    0    0    0  501  0.00000000000E+00  0.00000000000E+00  0.14331920117E+04  0.14331920117E+04  0.25500000920E-02 0.  1.
        2   -1    0    0  501    0  0.00000000000E+00  0.00000000000E+00 -0.15738310539E+04  0.15738310539E+04  0.25500000920E-02 0. -1.
    10030    2    1    2    0    0  0.00000000000E+00  0.00000000000E+00 -0.14063904217E+03  0.30070230656E+04  0.30037324076E+04 0.  0.
        5    1    3    3  502    0  0.31580393277E+03 -0.98092583786E+03 -0.11640512601E+04  0.15546655748E+04  0.46999998093E+01 0. -1.
       -5    1    3    3    0  502 -0.31580393277E+03  0.98092583786E+03  0.10234122179E+04  0.14523574908E+04  0.46999998093E+01 0.  1.
</event>
<event>
 5   0  0.2792361E-07  0.2990321E+04  0.7818609E-02  0.8246500E-01
        1   -1    0    0  501    0  0.00000000000E+00  0.00000000000E+00  0.15118234478E+04  0.15118234478E+04  0.50400001928E-02 0.  1.
       -1   -1    0    0    0  501  0.00000000000E+00  0.00000000000E+00 -0.14786816085E+04  0.14786816085E+04  0.50400001928E-02 0. -1.
    10030    2    1    2    0    0  0.00000000000E+00  0.00000000000E+00  0.33141839320E+02  0.29905050564E+04  0.29903214059E+04 0.  0.
        4    1    3    3  502    0 -0.56759663286E+03  0.47556717338E+03 -0.12824214138E+04  0.14808566337E+04  0.12699999809E+01 0. -1.
       -4    1    3    3    0  502  0.56759663286E+03 -0.47556717338E+03  0.13155632532E+04  0.15096484227E+04  0.12699999809E+01 0.  1.
</event>
<event>
 5   0  0.7208273E-07  0.2986766E+04  0.7818609E-02  0.8247520E-01
       -2   -1    0    0    0  501  0.00000000000E+00  0.00000000000E+00  0.17806939168E+04  0.17806939168E+04  0.25500000920E-02 0. -1.
        2   -1    0    0  501    0  0.00000000000E+00  0.00000000000E+00 -0.12524286331E+04  0.12524286331E+04  0.25500000920E-02 0.  1.
    10030    2    1    2    0    0  0.00000000000E+00  0.00000000000E+00  0.52826528367E+03  0.30331225499E+04  0.29867655068E+04 0.  0.
        4    1    3    3  502    0  0.14090474541E+04 -0.38315917694E+02  0.76505067452E+03  0.16038039110E+04  0.12699999809E+01 0. -1.
       -4    1    3    3    0  502 -0.14090474541E+04  0.38315917694E+02 -0.23678539085E+03  0.14293186389E+04  0.12699999809E+01 0.  1.
</event>
<event>
 5   0  0.2640081E-07  0.3028202E+04  0.7818609E-02  0.8235723E-01
        1   -1    0    0  501    0  0.00000000000E+00  0.00000000000E+00  0.23211280993E+04  0.23211280993E+04  0.50400001928E-02 0. -1.
       -1   -1    0    0    0  501  0.00000000000E+00  0.00000000000E+00 -0.98766692511E+03  0.98766692512E+03  0.50400001928E-02 0.  1.
    10030    2    1    2    0    0  0.00000000000E+00  0.00000000000E+00  0.13334611742E+04  0.33087950245E+04  0.30282017454E+04 0.  0.
        1    1    3    3  502    0 -0.48194043559E+03  0.13205970846E+04  0.12812080550E+04  0.19020350479E+04  0.50400001928E-02 0. -1.
       -1    1    3    3    0  502  0.48194043559E+03 -0.13205970846E+04  0.52253119244E+02  0.14067599766E+04  0.50400001928E-02 0.  1.
</event>
<event>
 5   0  0.7307508E-07  0.2998670E+04  0.7818609E-02  0.8244111E-01
        2   -1    0    0  501    0  0.00000000000E+00  0.00000000000E+00  0.20552245662E+04  0.20552245662E+04  0.25500000920E-02 0. -1.
       -2   -1    0    0    0  501  0.00000000000E+00  0.00000000000E+00 -0.10938002755E+04  0.10938002755E+04  0.25500000920E-02 0.  1.
    10030    2    1    2    0    0  0.00000000000E+00  0.00000000000E+00  0.96142429072E+03  0.31490248416E+04  0.29986698362E+04 0.  0.
        1    1    3    3  502    0  0.67696671271E+03 -0.65036175930E+03 -0.74698744707E+03  0.11996852063E+04  0.50400001928E-02 0.  1.
       -1    1    3    3    0  502 -0.67696671271E+03  0.65036175930E+03  0.17084117378E+04  0.19493396353E+04  0.50400001928E-02 0. -1.
</event>
<event>
 5   0  0.2792361E-07  0.2996432E+04  0.7818609E-02  0.8244750E-01
        1   -1    0    0  501    0  0.00000000000E+00  0.00000000000E+00  0.14161567350E+04  0.14161567350E+04  0.50400001928E-02 0. -1.
       -1   -1    0    0    0  501  0.00000000000E+00  0.00000000000E+00 -0.15850303826E+04  0.15850303826E+04  0.50400001928E-02 0.  1.
    10030    2    1    2    0    0  0.00000000000E+00  0.00000000000E+00 -0.16887364753E+03  0.30011871176E+04  0.29964321795E+04 0.  0.
        4    1    3    3  502    0 -0.93350500576E+03 -0.11300618819E+04 -0.39505535602E+03  0.15180717374E+04  0.12699999809E+01 0.  1.
       -4    1    3    3    0  502  0.93350500576E+03  0.11300618819E+04  0.22618170849E+03  0.14831153802E+04  0.12699999809E+01 0. -1.
</event>
<event>
 5   0  0.7399409E-07  0.3001000E+04  0.7818609E-02  0.8243445E-01
       -2   -1    0    0    0  501  0.00000000000E+00  0.00000000000E+00  0.11255318269E+04  0.11255318269E+04  0.25500000920E-02 0.  1.
        2   -1    0    0  501    0  0.00000000000E+00  0.00000000000E+00 -0.20003874751E+04  0.20003874751E+04  0.25500000920E-02 0. -1.
    10030    2    1    2    0    0  0.00000000000E+00  0.00000000000E+00 -0.87485564819E+03  0.31259193019E+04  0.30009996796E+04 0.  0.
        3    1    3    3  502    0 -0.20983277504E+03  0.31861486322E+03 -0.19490258240E+04  0.19860128140E+04  0.10100000352E+00 0. -1.
       -3    1    3    3    0  502  0.20983277504E+03 -0.31861486322E+03  0.10741701758E+04  0.11399064880E+04  0.10100000352E+00 0.  1.
</event>
<event>
 5   0  0.2621825E-07  0.3005465E+04  0.7818609E-02  0.8242172E-01
       -1   -1    0    0    0  501  0.00000000000E+00  0.00000000000E+00  0.87838575228E+03  0.87838575229E+03  0.50400001928E-02 0.  1.
        1   -1    0    0  501    0  0.00000000000E+00  0.00000000000E+00 -0.25708572201E+04  0.25708572201E+04  0.50400001928E-02 0. -1.
    10030    2    1    2    0    0  0.00000000000E+00  0.00000000000E+00 -0.16924714678E+04  0.34492429724E+04  0.30054645919E+04 0.  0.
        3    1    3    3  502    0  0.10967658765E+04  0.10258107216E+04 -0.90931845911E+03  0.17555748616E+04  0.10100000352E+00 0. -1.
       -3    1    3    3    0  502 -0.10967658765E+04 -0.10258107216E+04 -0.78315300869E+03  0.16936681108E+04  0.10100000352E+00 0.  1.
</event>
<event>
 5   0  0.7307508E-07  0.2999603E+04  0.7818609E-02  0.8243844E-01
        2   -1    0    0  501    0  0.00000000000E+00  0.00000000000E+00  0.15683996799E+04  0.15683996799E+04  0.25500000920E-02 0. -1.
       -2   -1    0    0    0  501  0.00000000000E+00  0.00000000000E+00 -0.14342036783E+04  0.14342036783E+04  0.25500000920E-02 0.  1.
    10030    2    1    2    0    0  0.00000000000E+00  0.00000000000E+00  0.13419600157E+03  0.30026033581E+04  0.29996030337E+04 0.  0.
        1    1    3    3  502    0 -0.10231092436E+02  0.14339817940E+04  0.50685066681E+03  0.15209556401E+04  0.50400001928E-02 0. -1.
       -1    1    3    3    0  502  0.10231092436E+02 -0.14339817940E+04 -0.37265466523E+03  0.14816477180E+04  0.50400001928E-02 0.  1.
</event>
<event>
 5   0  0.2792361E-07  0.3004918E+04  0.7818609E-02  0.8242328E-01
       -1   -1    0    0    0  501  0.00000000000E+00  0.00000000000E+00  0.98258442360E+03  0.98258442362E+03  0.50400001928E-02 0. -1.
        1   -1    0    0  501    0  0.00000000000E+00  0.00000000000E+00 -0.22973935161E+04  0.22973935161E+04  0.50400001928E-02 0.  1.
    10030    2    1    2    0    0  0.00000000000E+00  0.00000000000E+00 -0.13148090925E+04  0.32799779397E+04  0.30049180247E+04 0.  0.
        4    1    3    3  502    0  0.10786630373E+04  0.80060019251E+03  0.77181612216E+02  0.13455234039E+04  0.12699999809E+01 0. -1.
       -4    1    3    3    0  502 -0.10786630373E+04 -0.80060019251E+03 -0.13919907047E+04  0.19344545358E+04  0.12699999809E+01 0.  1.
</event>
<event>
 5   0  0.7399409E-07  0.2997798E+04  0.7818609E-02  0.8244360E-01
       -2   -1    0    0    0  501  0.00000000000E+00  0.00000000000E+00  0.21754658938E+04  0.21754658938E+04  0.25500000920E-02 0. -1.
        2   -1    0    0  501    0  0.00000000000E+00  0.00000000000E+00 -0.10327432549E+04  0.10327432549E+04  0.25500000920E-02 0.  1.
    10030    2    1    2    0    0  0.00000000000E+00  0.00000000000E+00  0.11427226389E+04  0.32082091486E+04  0.29977976769E+04 0.  0.
        3    1    3    3  502    0  0.62227654349E+03 -0.12851866332E+04  0.10591665857E+04  0.17778545062E+04  0.10100000352E+00 0. -1.
       -3    1    3    3    0  502 -0.62227654349E+03  0.12851866332E+04  0.83556053170E+02  0.14303546424E+04  0.10100000352E+00 0.  1.
</event>
<event>
 5   0  0.2792361E-07  0.2995390E+04  0.7818609E-02  0.8245049E-01
        1   -1    0    0  501    0  0.00000000000E+00  0.00000000000E+00  0.17522767016E+04  0.17522767016E+04  0.50400001928E-02 0.  1.
       -1   -1    0    0    0  501  0.00000000000E+00  0.00000000000E+00 -0.12801002981E+04  0.12801002981E+04  0.50400001928E-02 0. -1.
    10030    2    1    2    0    0  0.00000000000E+00  0.00000000000E+00  0.47217640353E+03  0.30323769997E+04  0.29953897429E+04 0.  0.
        4    1    3    3  502    0 -0.12053065835E+04  0.87070830898E+03  0.54453110129E+02  0.14879058014E+04  0.12699999809E+01 0.  1.
       -4    1    3    3    0  502  0.12053065835E+04 -0.87070830898E+03  0.41772329340E+03  0.15444711983E+04  0.12699999809E+01 0. -1.
</event>
<event>
 5   0  0.2414250E-07  0.2992686E+04  0.7818609E-02  0.8245822E-01
        3   -1    0    0  501    0  0.00000000000E+00  0.00000000000E+00  0.14408224095E+04  0.14408224130E+04  0.10100000352E+00 0. -1.
       -3   -1    0    0    0  501  0.00000000000E+00  0.00000000000E+00 -0.15540033248E+04  0.15540033281E+04  0.10100000352E+00 0.  1.
    10030    2    1    2    0    0  0.00000000000E+00  0.00000000000E+00 -0.11318091534E+03  0.29948257411E+04  0.29926863017E+04 0.  0.
        1    1    3    3  502    0 -0.30211908808E+03 -0.59046715769E+03  0.12856795128E+04  0.14466855973E+04  0.50400001928E-02 0. -1.
       -1    1    3    3    0  502  0.30211908808E+03  0.59046715769E+03 -0.13988604281E+04  0.15481401439E+04  0.50400001928E-02 0.  1.
</event>
<event>
 5   0  0.2792361E-07  0.3000012E+04  0.7818609E-02  0.8243727E-01
       -1   -1    0    0    0  501  0.00000000000E+00  0.00000000000E+00  0.13713462378E+04  0.13713462378E+04  0.50400001928E-02 0.  1.
        1   -1    0    0  501    0  0.00000000000E+00  0.00000000000E+00 -0.16407367364E+04  0.16407367364E+04  0.50400001928E-02 0. -1.
    10030    2    1    2    0    0  0.00000000000E+00  0.00000000000E+00 -0.26939049861E+03  0.30120829743E+04  0.30000121005E+04 0.  0.
        4    1    3    3  502    0  0.58277687665E+03  0.11713901991E+04 -0.87129055189E+03  0.15719200760E+04  0.12699999809E+01 0. -1.
       -4    1    3    3    0  502 -0.58277687665E+03 -0.11713901991E+04  0.60190005329E+03  0.14401628983E+04  0.12699999809E+01 0.  1.
</event>
<event>
 5   0  0.2602891E-07  0.2989859E+04  0.7818609E-02  0.8246633E-01
        1   -1    0    0  501    0  0.00000000000E+00  0.00000000000E+00  0.81533995523E+03  0.81533995524E+03  0.50400001928E-02 0.  1.
       -1   -1    0    0    0  501  0.00000000000E+00  0.00000000000E+00 -0.27409603455E+04  0.27409603455E+04  0.50400001928E-02 0. -1.
    10030    2    1    2    0    0  0.00000000000E+00  0.00000000000E+00 -0.19256203902E+04  0.35563003007E+04  0.29898591842E+04 0.  0.
        5    1    3    3  502    0 -0.81186575597E+03 -0.11051936722E+03 -0.24500806432E+04  0.25834584928E+04  0.46999998093E+01 0. -1.
       -5    1    3    3    0  502  0.81186575597E+03  0.11051936722E+03  0.52446025293E+03  0.97284180787E+03  0.46999998093E+01 0.  1.
</event>
<event>
 5   0  0.7278657E-07  0.3000771E+04  0.7818609E-02  0.8243511E-01
        2   -1    0    0  501    0  0.00000000000E+00  0.00000000000E+00  0.22204500209E+04  0.22204500209E+04  0.25500000920E-02 0.  1.
       -2   -1    0    0    0  501  0.00000000000E+00  0.00000000000E+00 -0.10138291482E+04  0.10138291482E+04  0.25500000920E-02 0. -1.
    10030    2    1    2    0    0  0.00000000000E+00  0.00000000000E+00  0.12066208727E+04  0.32342791691E+04  0.30007712031E+04 0.  0.
        2    1    3    3  502    0  0.22951240646E+03  0.85437667163E+03 -0.70281466685E+03  0.11298601231E+04  0.25500000920E-02 0. -1.
       -2    1    3    3    0  502 -0.22951240646E+03 -0.85437667163E+03  0.19094355395E+04  0.21044190461E+04  0.25500000920E-02 0.  1.
</event>
<event>
 5   0  0.7208273E-07  0.3002456E+04  0.7818609E-02  0.8243030E-01
        2   -1    0    0  501    0  0.00000000000E+00  0.00000000000E+00  0.16973735884E+04  0.16973735885E+04  0.25500000920E-02 0.  1.
       -2   -1    0    0    0  501  0.00000000000E+00  0.00000000000E+00 -0.13277484595E+04  0.13277484595E+04  0.25500000920E-02 0. -1.
    10030    2    1    2    0    0  0.00000000000E+00  0.00000000000E+00  0.36962512899E+03  0.30251220479E+04  0.30024557730E+04 0.  0.
        4    1    3    3  502    0  0.11452207584E+04  0.91887332297E+03  0.49994327836E+03  0.15510653319E+04  0.12699999809E+01 0.  1.
       -4    1    3    3    0  502 -0.11452207584E+04 -0.91887332297E+03 -0.13031814937E+03  0.14740567161E+04  0.12699999809E+01 0. -1.
</event>
<event>
 5   0  0.7585823E-07  0.3002178E+04  0.7818609E-02  0.8243109E-01
       -2   -1    0    0    0  501  0.00000000000E+00  0.00000000000E+00  0.12999243326E+04  0.12999243326E+04  0.25500000920E-02 0.  1.
        2   -1    0    0  501    0  0.00000000000E+00  0.00000000000E+00 -0.17333845531E+04  0.17333845531E+04  0.25500000920E-02 0. -1.
    10030    2    1    2    0    0  0.00000000000E+00  0.00000000000E+00 -0.43346022051E+03  0.30333088857E+04  0.30021783813E+04 0.  0.
        5    1    3    3  502    0  0.27015583467E+03 -0.78285963927E+02 -0.17065140154E+04  0.17295447499E+04  0.46999998093E+01 0. -1.
       -5    1    3    3    0  502 -0.27015583467E+03  0.78285963927E+02  0.12730537949E+04  0.13037641358E+04  0.46999998093E+01 0.  1.
</event>
<event>
 5   0  0.7585823E-07  0.3003820E+04  0.7818609E-02  0.8242641E-01
        2   -1    0    0  501    0  0.00000000000E+00  0.00000000000E+00  0.18781599665E+04  0.18781599665E+04  0.25500000920E-02 0. -1.
       -2   -1    0    0    0  501  0.00000000000E+00  0.00000000000E+00 -0.12010339401E+04  0.12010339401E+04  0.25500000920E-02 0.  1.
    10030    2    1    2    0    0  0.00000000000E+00  0.00000000000E+00  0.67712602638E+03  0.30791939066E+04  0.30038201443E+04 0.  0.
        5    1    3    3  502    0 -0.41075791727E+03 -0.14441911528E+04  0.37554630851E+03  0.15477297155E+04  0.46999998093E+01 0.  1.
       -5    1    3    3    0  502  0.41075791727E+03  0.14441911528E+04  0.30157971788E+03  0.15314641911E+04  0.46999998093E+01 0. -1.
</event>
<event>
 5   0  0.2792361E-07  0.3016938E+04  0.7818609E-02  0.8238910E-01
        1   -1    0    0  501    0  0.00000000000E+00  0.00000000000E+00  0.18893327021E+04  0.18893327021E+04  0.50400001928E-02 0. -1.
       -1   -1    0    0    0  501  0.00000000000E+00  0.00000000000E+00 -0.12043825873E+04  0.12043825873E+04  0.50400001928E-02 0.  1.
    10030    2    1    2    0    0  0.00000000000E+00  0.00000000000E+00  0.68495011479E+03  0.30937152893E+04  0.30169384534E+04 0.  0.
        4    1    3    3  502    0 -0.12043030023E+04 -0.77972247955E+03  0.82034392511E+03  0.16526580514E+04  0.12699999809E+01 0. -1.
       -4    1    3    3    0  502  0.12043030023E+04  0.77972247955E+03 -0.13539381033E+03  0.14410572380E+04  0.12699999809E+01 0.  1.
</event>
<event>
 5   0  0.2640081E-07  0.3026588E+04  0.7818609E-02  0.8236179E-01
        1   -1    0    0  501    0  0.00000000000E+00  0.00000000000E+00  0.18056276738E+04  0.18056276739E+04  0.50400001928E-02 0.  1.
       -1   -1    0    0    0  501  0.00000000000E+00  0.00000000000E+00 -0.12682893491E+04  0.12682893491E+04  0.50400001928E-02 0. -1.
    10030    2    1    2    0    0  0.00000000000E+00  0.00000000000E+00  0.53733832476E+03  0.30739170229E+04  0.30265877467E+04 0.  0.
        1    1    3    3  502    0 -0.47805716083E+03  0.92869331048E+03  0.13808034578E+04  0.17313659645E+04  0.50400001928E-02 0.  1.
       -1    1    3    3    0  502  0.47805716083E+03 -0.92869331048E+03 -0.84346513301E+03  0.13425510585E+04  0.50400001928E-02 0. -1.
</event>
<event>
 5   0  0.7399409E-07  0.2983815E+04  0.7818609E-02  0.8248368E-01
       -2   -1    0    0    0  501  0.00000000000E+00  0.00000000000E+00  0.17256200626E+04  0.17256200626E+04  0.25500000920E-02 0. -1.
        2   -1    0    0  501    0  0.00000000000E+00  0.00000000000E+00 -0.12898481590E+04  0.12898481590E+04  0.25500000920E-02 0.  1.
    10030    2    1    2    0    0  0.00000000000E+00  0.00000000000E+00  0.43577190363E+03  0.30154682217E+04  0.29838149145E+04 0.  0.
        3    1    3    3  502    0  0.15580157101E+03 -0.12257177096E+04 -0.62712393068E+03  0.13856198858E+04  0.10100000352E+00 0.  1.
       -3    1    3    3    0  502 -0.15580157101E+03  0.12257177096E+04  0.10628958343E+04  0.16298483359E+04  0.10100000352E+00 0. -1.
</event>
<event>
 5   0  0.7307508E-07  0.2995466E+04  0.7818609E-02  0.8245027E-01
       -2   -1    0    0    0  501  0.00000000000E+00  0.00000000000E+00  0.13549237348E+04  0.13549237348E+04  0.25500000920E-02 0.  1.
        2   -1    0    0  501    0  0.00000000000E+00  0.00000000000E+00 -0.16555941604E+04  0.16555941604E+04  0.25500000920E-02 0. -1.
    10030    2    1    2    0    0  0.00000000000E+00  0.00000000000E+00 -0.30067042560E+03  0.30105178952E+04  0.29954657889E+04 0.  0.
        1    1    3    3  502    0  0.72566571764E+03  0.28130669000E+03 -0.14364057914E+04  0.16337030897E+04  0.50400001928E-02 0. -1.
       -1    1    3    3    0  502 -0.72566571764E+03 -0.28130669000E+03  0.11357353658E+04  0.13768148055E+04  0.50400001928E-02 0.  1.
</event>
<event>
 5   0  0.7585823E-07  0.3004703E+04  0.7818609E-02  0.8242389E-01
       -2   -1    0    0    0  501  0.00000000000E+00  0.00000000000E+00  0.10503318013E+04  0.10503318013E+04  0.25500000920E-02 0.  1.
        2   -1    0    0  501    0  0.00000000000E+00  0.00000000000E+00 -0.21489023141E+04  0.21489023141E+04  0.25500000920E-02 0. -1.
    10030    2    1    2    0    0  0.00000000000E+00  0.00000000000E+00 -0.10985705128E+04  0.31992341154E+04  0.30047032721E+04 0.  0.
        5    1    3    3  502    0  0.11236690275E+04 -0.84084468705E+03  0.21506374468E+02  0.14036155048E+04  0.46999998093E+01 0.  1.
       -5    1    3    3    0  502 -0.11236690275E+04  0.84084468705E+03 -0.11200768873E+04  0.17956186106E+04  0.46999998093E+01 0. -1.
</event>
<event>
 5   0  0.2621825E-07  0.2997945E+04  0.7818609E-02  0.8244318E-01
       -1   -1    0    0    0  501  0.00000000000E+00  0.00000000000E+00  0.20615088892E+04  0.20615088892E+04  0.50400001928E-02 0. -1.
        1   -1    0    0  501    0  0.00000000000E+00  0.00000000000E+00 -0.10899389489E+04  0.10899389489E+04  0.50400001928E-02 0.  1.
    10030    2    1    2    0    0  0.00000000000E+00  0.00000000000E+00  0.97156994034E+03  0.31514478381E+04  0.29979451842E+04 0.  0.
        3    1    3    3  502    0  0.31055081101E+03  0.28250225562E+03 -0.10268767888E+04  0.11093805840E+04  0.10100000352E+00 0.  1.
       -3    1    3    3    0  502 -0.31055081101E+03 -0.28250225562E+03  0.19984467291E+04  0.20420672541E+04  0.10100000352E+00 0. -1.
</event>
<event>
 5   0  0.7278657E-07  0.3005213E+04  0.7818609E-02  0.8242244E-01
        2   -1    0    0  501    0  0.00000000000E+00  0.00000000000E+00  0.17792146022E+04  0.17792146022E+04  0.25500000920E-02 0. -1.
       -2   -1    0    0    0  501  0.00000000000E+00  0.00000000000E+00 -0.12690019604E+04  0.12690019604E+04  0.25500000920E-02 0.  1.
    10030    2    1    2    0    0  0.00000000000E+00  0.00000000000E+00  0.51021264179E+03  0.30482165627E+04  0.30052133490E+04 0.  0.
        2    1    3    3  502    0 -0.11832880435E+03 -0.12536052655E+04  0.10867776423E+04  0.16633140147E+04  0.25500000920E-02 0. -1.
       -2    1    3    3    0  502  0.11832880435E+03  0.12536052655E+04 -0.57656500055E+03  0.13849025480E+04  0.25500000920E-02 0.  1.
</event>
<event>
 5   0  0.2640081E-07  0.2999669E+04  0.7818609E-02  0.8243826E-01
       -1   -1    0    0    0  501  0.00000000000E+00  0.00000000000E+00  0.12103340187E+04  0.12103340187E+04  0.50400001928E-02 0.  1.
        1   -1    0    0  501    0  0.00000000000E+00  0.00000000000E+00 -0.18585803561E+04  0.18585803561E+04  0.50400001928E-02 0. -1.
    10030    2    1    2    0    0  0.00000000000E+00  0.00000000000E+00 -0.64824633747E+03  0.30689143748E+04  0.29996686694E+04 0.  0.
        1    1    3    3  502    0  0.77568556546E+03 -0.86505197304E+03 -0.12944366666E+04  0.17394163666E+04  0.50400001928E-02 0. -1.
       -1    1    3    3    0  502 -0.77568556546E+03  0.86505197304E+03  0.64619032910E+03  0.13294980083E+04  0.50400001928E-02 0.  1.
</event>
<event>
 5   0  0.7399409E-07  0.2999165E+04  0.7818609E-02  0.8243969E-01
       -2   -1    0    0    0  501  0.00000000000E+00  0.00000000000E+00  0.14358679384E+04  0.14358679384E+04  0.25500000920E-02 0.  1.
        2   -1    0    0  501    0  0.00000000000E+00  0.00000000000E+00 -0.15661243798E+04  0.15661243798E+04  0.25500000920E-02 0. -1.
    10030    2    1    2    0    0  0.00000000000E+00  0.00000000000E+00 -0.13025644136E+03  0.30019923183E+04  0.29991650735E+04 0.  0.
        3    1    3    3  502    0 -0.43933392769E+03 -0.10206339659E+04 -0.10730729154E+04  0.15447308776E+04  0.10100000352E+00 0. -1.
       -3    1    3    3    0  502  0.43933392769E+03  0.10206339659E+04  0.94281647404E+03  0.14572614406E+04  0.10100000352E+00 0.  1.
</event>
<event>
 5   0  0.7278657E-07  0.2994933E+04  0.7818609E-02  0.8245179E-01
       -2   -1    0    0    0  501  0.00000000000E+00  0.00000000000E+00  0.96290456750E+03  0.96290456750E+03  0.25500000920E-02 0. -1.
        2   -1    0    0  501    0  0.00000000000E+00  0.00000000000E+00 -0.23287941112E+04  0.23287941112E+04  0.25500000920E-02 0.  1.
    10030    2    1    2    0    0  0.00000000000E+00  0.00000000000E+00 -0.13658895437E+04  0.32916986787E+04  0.29949333792E+04 0.  0.
        2    1    3    3  502    0  0.13400889423E+04 -0.66642386339E+03 -0.73731744933E+03  0.16684112683E+04  0.25500000920E-02 0. -1.
       -2    1    3    3    0  502 -0.13400889423E+04  0.66642386339E+03 -0.62857209433E+03  0.16232874104E+04  0.25500000920E-02 0.  1.
</event>
<event>
 5   0  0.2640081E-07  0.3000070E+04  0.7818609E-02  0.8243711E-01
       -1   -1    0    0    0  501  0.00000000000E+00  0.00000000000E+00  0.10706792658E+04  0.10706792658E+04  0.50400001928E-02 0.  1.
        1   -1    0    0  501    0  0.00000000000E+00  0.00000000000E+00 -0.21015678284E+04  0.21015678284E+04  0.50400001928E-02 0. -1.
    10030    2    1    2    0    0  0.00000000000E+00  0.00000000000E+00 -0.10308885626E+04  0.31722470943E+04  0.30000700656E+04 0.  0.
        1    1    3    3  502    0  0.93567413636E+03  0.83008855543E+03  0.36006780671E+03  0.13016074388E+04  0.50400001928E-02 0.  1.
       -1    1    3    3    0  502 -0.93567413636E+03 -0.83008855543E+03 -0.13909563693E+04  0.18706396555E+04  0.50400001928E-02 0. -1.
</event>
<event>
 5   0  0.7585823E-07  0.3000561E+04  0.7818609E-02  0.8243571E-01
       -2   -1    0    0    0  501  0.00000000000E+00  0.00000000000E+00  0.18635051769E+04  0.18635051769E+04  0.25500000920E-02 0.  1.
        2   -1    0    0  501    0  0.00000000000E+00  0.00000000000E+00 -0.12078535932E+04  0.12078535932E+04  0.25500000920E-02 0. -1.
    10030    2    1    2    0    0  0.00000000000E+00  0.00000000000E+00  0.65565158373E+03  0.30713587701E+04  0.30005608968E+04 0.  0.
        5    1    3    3  502    0 -0.10226199534E+04  0.10522553282E+04  0.76737040780E+01  0.14673356196E+04  0.46999998093E+01 0. -1.
       -5    1    3    3    0  502  0.10226199534E+04 -0.10522553282E+04  0.64797787965E+03  0.16040231505E+04  0.46999998093E+01 0.  1.
</event>
<event>
 5   0  0.7278657E-07  0.3009431E+04  0.7818609E-02  0.8241043E-01
       -2   -1    0    0    0  501  0.00000000000E+00  0.00000000000E+00  0.88417532282E+03  0.88417532282E+03  0.25500000920E-02 0.  1.
        2   -1    0    0  501    0  0.00000000000E+00  0.00000000000E+00 -0.25607682288E+04  0.25607682288E+04  0.25500000920E-02 0. -1.
    10030    2    1    2    0    0  0.00000000000E+00  0.00000000000E+00 -0.16765929059E+04  0.34449435516E+04  0.30094305610E+04 0.  0.
        2    1    3    3  502    0 -0.11143715738E+04 -0.93920571848E+03 -0.40962100722E+03  0.15138430420E+04  0.25500000920E-02 0. -1.
       -2    1    3    3    0  502  0.11143715738E+04  0.93920571848E+03 -0.12669718987E+04  0.19311005096E+04  0.25500000920E-02 0.  1.
</event>
<event>
 5   0  0.7585823E-07  0.2994728E+04  0.7818609E-02  0.8245238E-01
       -2   -1    0    0    0  501  0.00000000000E+00  0.00000000000E+00  0.12928015827E+04  0.12928015827E+04  0.25500000920E-02 0. -1.
        2   -1    0    0  501    0  0.00000000000E+00  0.00000000000E+00 -0.17342944310E+04  0.17342944310E+04  0.25500000920E-02 0.  1.
    10030    2    1    2    0    0  0.00000000000E+00  0.00000000000E+00 -0.44149284831E+03  0.30270960137E+04  0.29947277574E+04 0.  0.
        5    1    3    3  502    0  0.84502300576E+03 -0.87151469080E+03 -0.11068482916E+04  0.16427832989E+04  0.46999998093E+01 0.  1.
       -5    1    3    3    0  502 -0.84502300576E+03  0.87151469080E+03  0.66535544326E+03  0.13843127148E+04  0.46999998093E+01 0. -1.
</event>
<event>
 5   0  0.2640081E-07  0.2994141E+04  0.7818609E-02  0.8245406E-01
        1   -1    0    0  501    0  0.00000000000E+00  0.00000000000E+00  0.17388197681E+04  0.17388197681E+04  0.50400001928E-02 0.  1.
       -1   -1    0    0    0  501  0.00000000000E+00  0.00000000000E+00 -0.12889320380E+04  0.12889320380E+04  0.50400001928E-02 0. -1.
    10030    2    1    2    0    0  0.00000000000E+00  0.00000000000E+00  0.44988773016E+03  0.30277518061E+04  0.29941412842E+04 0.  0.
        1    1    3    3  502    0  0.11052206554E+03  0.38477512129E+03 -0.12338004241E+04  0.12971239368E+04  0.50400001928E-02 0. -1.
       -1    1    3    3    0  502 -0.11052206554E+03 -0.38477512129E+03  0.16836881543E+04  0.17306278692E+04  0.50400001928E-02 0.  1.
</event>
<event>
 5   0  0.7208273E-07  0.3000295E+04  0.7818609E-02  0.8243647E-01
        2   -1    0    0  501    0  0.00000000000E+00  0.00000000000E+00  0.31739052852E+04  0.31739052852E+04  0.25500000920E-02 0.  1.
       -2   -1    0    0    0  501  0.00000000000E+00  0.00000000000E+00 -0.70904532705E+03  0.70904532705E+03  0.25500000920E-02 0. -1.
    10030    2    1    2    0    0  0.00000000000E+00  0.00000000000E+00  0.24648599581E+04  0.38829506122E+04  0.30002951261E+04 0.  0.
        4    1    3    3  502    0 -0.59828659882E+03 -0.71888590821E+02 -0.54552755264E+03  0.81284484830E+03  0.12699999809E+01 0. -1.
       -4    1    3    3    0  502  0.59828659882E+03  0.71888590821E+02  0.30103875108E+04  0.30701057639E+04  0.12699999809E+01 0.  1.
</event>
<event>
 5   0  0.7399409E-07  0.3001287E+04  0.7818609E-02  0.8243363E-01
       -2   -1    0    0    0  501  0.00000000000E+00  0.00000000000E+00  0.14061043272E+04  0.14061043272E+04  0.25500000920E-02 0.  1.
        2   -1    0    0  501    0  0.00000000000E+00  0.00000000000E+00 -0.16015389209E+04  0.16015389209E+04  0.25500000920E-02 0. -1.
    10030    2    1    2    0    0  0.00000000000E+00  0.00000000000E+00 -0.19543459376E+03  0.30076432481E+04  0.30012869286E+04 0.  0.
        3    1    3    3  502    0 -0.99955356950E+03 -0.11154064061E+04 -0.42889089622E+01  0.14977507115E+04  0.10100000352E+00 0. -1.
       -3    1    3    3    0  502  0.99955356950E+03  0.11154064061E+04 -0.19114568480E+03  0.15098925366E+04  0.10100000352E+00 0.  1.
</event>
<event>
 5   0  0.7585823E-07  0.3000164E+04  0.7818609E-02  0.8243684E-01
       -2   -1    0    0    0  501  0.00000000000E+00  0.00000000000E+00  0.14856036734E+04  0.14856036734E+04  0.25500000920E-02 0. -1.
        2   -1    0    0  501    0  0.00000000000E+00  0.00000000000E+00 -0.15147012360E+04  0.15147012360E+04  0.25500000920E-02 0.  1.
    10030    2    1    2    0    0  0.00000000000E+00  0.00000000000E+00 -0.29097562592E+02  0.30003049094E+04  0.30001638091E+04 0.  0.
        5    1    3    3  502    0  0.11148001881E+04  0.20884959322E+03 -0.99634136617E+03  0.15096740773E+04  0.46999998093E+01 0.  1.
       -5    1    3    3    0  502 -0.11148001881E+04 -0.20884959322E+03  0.96724380358E+03  0.14906308320E+04  0.46999998093E+01 0. -1.
</event>
<event>
 5   0  0.7399409E-07  0.3003508E+04  0.7818609E-02  0.8242730E-01
       -2   -1    0    0    0  501  0.00000000000E+00  0.00000000000E+00  0.16167901887E+04  0.16167901887E+04  0.25500000920E-02 0.  1.
        2   -1    0    0  501    0  0.00000000000E+00  0.00000000000E+00 -0.13949025225E+04  0.13949025225E+04  0.25500000920E-02 0. -1.
    10030    2    1    2    0    0  0.00000000000E+00  0.00000000000E+00  0.22188766615E+03  0.30116927112E+04  0.30035077577E+04 0.  0.
        3    1    3    3  502    0 -0.11180794858E+04  0.10004528624E+04  0.45520063175E+02  0.15010262332E+04  0.10100000352E+00 0.  1.
       -3    1    3    3    0  502  0.11180794858E+04 -0.10004528624E+04  0.17636760297E+03  0.15106664781E+04  0.10100000352E+00 0. -1.
</event>
<event>
 5   0  0.2621825E-07  0.2998278E+04  0.7818609E-02  0.8244223E-01
       -1   -1    0    0    0  501  0.00000000000E+00  0.00000000000E+00  0.13868499731E+04  0.13868499731E+04  0.50400001928E-02 0. -1.
        1   -1    0    0  501    0  0.00000000000E+00  0.00000000000E+00 -0.16205198225E+04  0.16205198225E+04  0.50400001928E-02 0.  1.
    10030    2    1    2    0    0  0.00000000000E+00  0.00000000000E+00 -0.23366984935E+03  0.30073697956E+04  0.29982780873E+04 0.  0.
        3    1    3    3  502    0 -0.10678877727E+03  0.83272788674E+03 -0.13626068221E+04  0.16004802211E+04  0.10100000352E+00 0.  1.
       -3    1    3    3    0  502  0.10678877727E+03 -0.83272788674E+03  0.11289369727E+04  0.14068895745E+04  0.10100000352E+00 0. -1.
</event>
<event>
 5   0  0.2621825E-07  0.3004864E+04  0.7818609E-02  0.8242343E-01
        1   -1    0    0  501    0  0.00000000000E+00  0.00000000000E+00  0.10756172559E+04  0.10756172559E+04  0.50400001928E-02 0. -1.
       -1   -1    0    0    0  501  0.00000000000E+00  0.00000000000E+00 -0.20986111509E+04  0.20986111509E+04  0.50400001928E-02 0.  1.
    10030    2    1    2    0    0  0.00000000000E+00  0.00000000000E+00 -0.10229938950E+04  0.31742284068E+04  0.30048643013E+04 0.  0.
        3    1    3    3  502    0 -0.43215174120E+02  0.13961083878E+04  0.73156177253E+02  0.13986915379E+04  0.10100000352E+00 0.  1.
       -3    1    3    3    0  502  0.43215174120E+02 -0.13961083878E+04 -0.10961500723E+04  0.17755368689E+04  0.10100000352E+00 0. -1.
</event>
<event>
 5   0  0.7208273E-07  0.3003496E+04  0.7818609E-02  0.8242733E-01
        2   -1    0    0  501    0  0.00000000000E+00  0.00000000000E+00  0.20796093964E+04  0.20796093964E+04  0.25500000920E-02 0.  1.
       -2   -1    0    0    0  501  0.00000000000E+00  0.00000000000E+00 -0.10844567505E+04  0.10844567505E+04  0.25500000920E-02 0. -1.
    10030    2    1    2    0    0  0.00000000000E+00  0.00000000000E+00  0.99515264590E+03  0.31640661468E+04  0.30034955956E+04 0.  0.
        4    1    3    3  502    0 -0.13813830958E+03  0.66539368661E+03  0.19083547777E+04  0.20257469046E+04  0.12699999809E+01 0.  1.
       -4    1    3    3    0  502  0.13813830958E+03 -0.66539368661E+03 -0.91320213184E+03  0.11383192422E+04  0.12699999809E+01 0. -1.
</event>
<event>
 5   0  0.2602891E-07  0.3075076E+04  0.7818609E-02  0.8222611E-01
       -1   -1    0    0    0  501  0.00000000000E+00  0.00000000000E+00  0.13771198745E+04  0.13771198746E+04  0.50400001928E-02 0.  1.
        1   -1    0    0  501    0  0.00000000000E+00  0.00000000000E+00 -0.17166431995E+04  0.17166431995E+04  0.50400001928E-02 0. -1.
    10030    2    1    2    0    0  0.00000000000E+00  0.00000000000E+00 -0.33952332495E+03  0.30937630741E+04  0.30750762381E+04 0.  0.
        5    1    3    3  502    0 -0.68477891918E+03  0.97129710205E+03 -0.11512210517E+04  0.16545912573E+04  0.46999998093E+01 0. -1.
       -5    1    3    3    0  502  0.68477891918E+03 -0.97129710205E+03  0.81169772679E+03  0.14391718168E+04  0.46999998093E+01 0.  1.
</event>
<event>
 5   0  0.2602891E-07  0.3002287E+04  0.7818609E-02  0.8243078E-01
       -1   -1    0    0    0  501  0.00000000000E+00  0.00000000000E+00  0.11220084587E+04  0.11220084587E+04  0.50400001928E-02 0.  1.
        1   -1    0    0  501    0  0.00000000000E+00  0.00000000000E+00 -0.20083914879E+04  0.20083914879E+04  0.50400001928E-02 0. -1.
    10030    2    1    2    0    0  0.00000000000E+00  0.00000000000E+00 -0.88638302922E+03  0.31303999466E+04  0.30022872865E+04 0.  0.
        5    1    3    3  502    0 -0.65220014361E+03  0.74821151095E+03  0.73101821932E+03  0.12327186295E+04  0.46999998093E+01 0.  1.
       -5    1    3    3    0  502  0.65220014361E+03 -0.74821151095E+03 -0.16174012485E+04  0.18976813171E+04  0.46999998093E+01 0. -1.
</event>
<event>
 5   0  0.2414250E-07  0.2992292E+04  0.7818609E-02  0.8245935E-01
       -3   -1    0    0    0  501  0.00000000000E+00  0.00000000000E+00  0.99174977932E+03  0.99174978446E+03  0.10100000352E+00 0. -1.
        3   -1    0    0  501    0  0.00000000000E+00  0.00000000000E+00 -0.22570740234E+04  0.22570740257E+04  0.10100000352E+00 0.  1.
    10030    2    1    2    0    0  0.00000000000E+00  0.00000000000E+00 -0.12653242441E+04  0.32488238102E+04  0.29922918819E+04 0.  0.
        3    1    3    3  502    0 -0.51087080727E+03 -0.12464350601E+04 -0.13395249204E+04  0.18997148111E+04  0.10100000352E+00 0.  1.
       -3    1    3    3    0  502  0.51087080727E+03  0.12464350601E+04  0.74200676275E+02  0.13491089991E+04  0.10100000352E+00 0. -1.
</event>
<event>
 5   0  0.2621825E-07  0.2909308E+04  0.7818609E-02  0.8270113E-01
        1   -1    0    0  501    0  0.00000000000E+00  0.00000000000E+00  0.18015607001E+04  0.18015607001E+04  0.50400001928E-02 0. -1.
       -1   -1    0    0    0  501  0.00000000000E+00  0.00000000000E+00 -0.11745474325E+04  0.11745474325E+04  0.50400001928E-02 0.  1.
    10030    2    1    2    0    0  0.00000000000E+00  0.00000000000E+00  0.62701326762E+03  0.29761081326E+04  0.29093081616E+04 0.  0.
        3    1    3    3  502    0 -0.18097987258E+03 -0.86700114743E+03 -0.86692706420E+03  0.12393575952E+04  0.10100000352E+00 0.  1.
       -3    1    3    3    0  502  0.18097987258E+03  0.86700114743E+03  0.14939403318E+04  0.17367505374E+04  0.10100000352E+00 0. -1.
</event>
<event>
 5   0  0.7307508E-07  0.3015027E+04  0.7818609E-02  0.8239453E-01
        2   -1    0    0  501    0  0.00000000000E+00  0.00000000000E+00  0.17064574811E+04  0.17064574811E+04  0.25500000920E-02 0.  1.
       -2   -1    0    0    0  501  0.00000000000E+00  0.00000000000E+00 -0.13317628788E+04  0.13317628788E+04  0.25500000920E-02 0. -1.
    10030    2    1    2    0    0  0.00000000000E+00  0.00000000000E+00  0.37469460227E+03  0.30382203600E+04  0.30150268507E+04 0.  0.
        1    1    3    3  502    0  0.48922776570E+03 -0.11342313254E+04 -0.68346020297E+03  0.14117161029E+04  0.50400001928E-02 0. -1.
       -1    1    3    3    0  502 -0.48922776570E+03  0.11342313254E+04  0.10581548052E+04  0.16265042570E+04  0.50400001928E-02 0.  1.
</event>
<event>
 5   0  0.2679935E-07  0.3001728E+04  0.7818609E-02  0.8243238E-01
        1   -1    0    0  501    0  0.00000000000E+00  0.00000000000E+00  0.23170634818E+04  0.23170634818E+04  0.50400001928E-02 0. -1.
       -1   -1    0    0    0  501  0.00000000000E+00  0.00000000000E+00 -0.97217540200E+03  0.97217540201E+03  0.50400001928E-02 0.  1.
    10030    2    1    2    0    0  0.00000000000E+00  0.00000000000E+00  0.13448880798E+04  0.32892388838E+04  0.30017275838E+04 0.  0.
        2    1    3    3  502    0 -0.67765494941E+02 -0.11185584114E+04  0.17664861653E+04  0.20919460926E+04  0.25500000920E-02 0. -1.
       -2    1    3    3    0  502  0.67765494941E+02  0.11185584114E+04 -0.42159808553E+03  0.11972927912E+04  0.25500000920E-02 0.  1.
</event>
<event>
 5   0  0.2621825E-07  0.3002748E+04  0.7818609E-02  0.8242947E-01
       -1   -1    0    0    0  501  0.00000000000E+00  0.00000000000E+00  0.13032689053E+04  0.13032689053E+04  0.50400001928E-02 0. -1.
        1   -1    0    0  501    0  0.00000000000E+00  0.00000000000E+00 -0.17295927006E+04  0.17295927006E+04  0.50400001928E-02 0.  1.
    10030    2    1    2    0    0  0.00000000000E+00  0.00000000000E+00 -0.42632379523E+03  0.30328616059E+04  0.30027483315E+04 0.  0.
        3    1    3    3  502    0  0.83487853222E+03  0.12476391988E+04 -0.23571611768E+03  0.15196012083E+04  0.10100000352E+00 0. -1.
       -3    1    3    3    0  502 -0.83487853222E+03 -0.12476391988E+04 -0.19060767756E+03  0.15132603976E+04  0.10100000352E+00 0.  1.
</event>
<event>
 5   0  0.2679935E-07  0.2998576E+04  0.7818609E-02  0.8244138E-01
       -1   -1    0    0    0  501  0.00000000000E+00  0.00000000000E+00  0.26490308645E+04  0.26490308645E+04  0.50400001928E-02 0.  1.
        1   -1    0    0  501    0  0.00000000000E+00  0.00000000000E+00 -0.84856089243E+03  0.84856089244E+03  0.50400001928E-02 0. -1.
    10030    2    1    2    0    0  0.00000000000E+00  0.00000000000E+00  0.18004699721E+04  0.34975917570E+04  0.29985756582E+04 0.  0.
        2    1    3    3  502    0 -0.43024854077E+03  0.41872962507E+03 -0.70222755364E+03  0.92388951874E+03  0.25500000920E-02 0. -1.
       -2    1    3    3    0  502  0.43024854077E+03 -0.41872962507E+03  0.25026975257E+04  0.25737022382E+04  0.25500000920E-02 0.  1.
</event>
<event>
 5   0  0.2621825E-07  0.3001731E+04  0.7818609E-02  0.8243237E-01
       -1   -1    0    0    0  501  0.00000000000E+00  0.00000000000E+00  0.16250119451E+04  0.16250119451E+04  0.50400001928E-02 0.  1.
        1   -1    0    0  501    0  0.00000000000E+00  0.00000000000E+00 -0.13862037142E+04  0.13862037142E+04  0.50400001928E-02 0. -1.
    10030    2    1    2    0    0  0.00000000000E+00  0.00000000000E+00  0.23880823094E+03  0.30112156593E+04  0.30017312297E+04 0.  0.
        3    1    3    3  502    0  0.77566560336E+03 -0.10712240807E+04  0.83116651384E+03  0.15620550385E+04  0.10100000352E+00 0.  1.
       -3    1    3    3    0  502 -0.77566560336E+03  0.10712240807E+04 -0.59235828290E+03  0.14491606208E+04  0.10100000352E+00 0. -1.
</event>
<event>
 5   0  0.7585823E-07  0.2985680E+04  0.7818609E-02  0.8247832E-01
       -2   -1    0    0    0  501  0.00000000000E+00  0.00000000000E+00  0.17139310715E+04  0.17139310715E+04  0.25500000920E-02 0. -1.
        2   -1    0    0  501    0  0.00000000000E+00  0.00000000000E+00 -0.13002689264E+04  0.13002689264E+04  0.25500000920E-02 0.  1.
    10030    2    1    2    0    0  0.00000000000E+00  0.00000000000E+00  0.41366214515E+03  0.30141999979E+04  0.29856800326E+04 0.  0.
        5    1    3    3  502    0 -0.10807478236E+04 -0.10176666323E+04  0.36609731244E+03  0.15289573457E+04  0.46999998093E+01 0. -1.
       -5    1    3    3    0  502  0.10807478236E+04  0.10176666323E+04  0.47564832706E+02  0.14852426522E+04  0.46999998093E+01 0.  1.
</event>
<event>
 5   0  0.7307508E-07  0.2999774E+04  0.7818609E-02  0.8243795E-01
        2   -1    0    0  501    0  0.00000000000E+00  0.00000000000E+00  0.12698533353E+04  0.12698533353E+04  0.25500000920E-02 0.  1.
       -2   -1    0    0    0  501  0.00000000000E+00  0.00000000000E+00 -0.17715912678E+04  0.17715912678E+04  0.25500000920E-02 0. -1.
    10030    2    1    2    0    0  0.00000000000E+00  0.00000000000E+00 -0.50173793248E+03  0.30414446031E+04  0.29997740450E+04 0.  0.
        1    1    3    3  502    0  0.14537172927E+04  0.14940553901E+03 -0.59326575160E+03  0.15772064654E+04  0.50400001928E-02 0. -1.
       -1    1    3    3    0  502 -0.14537172927E+04 -0.14940553901E+03  0.91527819113E+02  0.14642381377E+04  0.50400001928E-02 0.  1.
</event>
<event>
 5   0  0.2640081E-07  0.3002981E+04  0.7818609E-02  0.8242880E-01
       -1   -1    0    0    0  501  0.00000000000E+00  0.00000000000E+00  0.10943895122E+04  0.10943895122E+04  0.50400001928E-02 0.  1.
        1   -1    0    0  501    0  0.00000000000E+00  0.00000000000E+00 -0.20600289106E+04  0.20600289106E+04  0.50400001928E-02 0. -1.
    10030    2    1    2    0    0  0.00000000000E+00  0.00000000000E+00 -0.96563939846E+03  0.31544184228E+04  0.30029812084E+04 0.  0.
        1    1    3    3  502    0  0.42443723539E+03 -0.13514420211E+04  0.40217487484E+02  0.14170956035E+04  0.50400001928E-02 0.  1.
       -1    1    3    3    0  502 -0.42443723539E+03  0.13514420211E+04 -0.10058568859E+04  0.17373228193E+04  0.50400001928E-02 0. -1.
</event>
<event>
 5   0  0.7278657E-07  0.3002126E+04  0.7818609E-02  0.8243124E-01
        2   -1    0    0  501    0  0.00000000000E+00  0.00000000000E+00  0.21980627646E+04  0.21980627646E+04  0.25500000920E-02 0.  1.
       -2   -1    0    0    0  501  0.00000000000E+00  0.00000000000E+00 -0.10250797299E+04  0.10250797299E+04  0.25500000920E-02 0. -1.
    10030    2    1    2    0    0  0.00000000000E+00  0.00000000000E+00  0.11729830347E+04  0.32231424946E+04  0.30021256371E+04 0.  0.
        2    1    3    3  502    0  0.13000264378E+04  0.74731581030E+03  0.65962330123E+03  0.16381857522E+04  0.25500000920E-02 0.  1.
       -2    1    3    3    0  502 -0.13000264378E+04 -0.74731581030E+03  0.51335973346E+03  0.15849567424E+04  0.25500000920E-02 0. -1.
</event>
<event>
 5   0  0.7585823E-07  0.3005624E+04  0.7818609E-02  0.8242127E-01
        2   -1    0    0  501    0  0.00000000000E+00  0.00000000000E+00  0.16877224889E+04  0.16877224889E+04  0.25500000920E-02 0. -1.
       -2   -1    0    0    0  501  0.00000000000E+00  0.00000000000E+00 -0.13381607860E+04  0.13381607860E+04  0.25500000920E-02 0.  1.
    10030    2    1    2    0    0  0.00000000000E+00  0.00000000000E+00  0.34956170290E+03  0.30258832749E+04  0.30056240964E+04 0.  0.
        5    1    3    3  502    0 -0.12525359655E+03  0.96067737343E+02  0.16793457371E+04  0.16867547742E+04  0.46999998093E+01 0. -1.
       -5    1    3    3    0  502  0.12525359655E+03 -0.96067737343E+02 -0.13297840342E+04  0.13391285007E+04  0.46999998093E+01 0.  1.
</event>
<event>
 5   0  0.2679935E-07  0.2991434E+04  0.7818609E-02  0.8246181E-01
       -1   -1    0    0    0  501  0.00000000000E+00  0.00000000000E+00  0.11593502299E+04  0.11593502299E+04  0.50400001928E-02 0.  1.
        1   -1    0    0  501    0  0.00000000000E+00  0.00000000000E+00 -0.19296756721E+04  0.19296756721E+04  0.50400001928E-02 0. -1.
    10030    2    1    2    0    0  0.00000000000E+00  0.00000000000E+00 -0.77032544214E+03  0.30890259020E+04  0.29914343945E+04 0.  0.
        2    1    3    3  502    0 -0.76715055851E+03 -0.29415737359E+02 -0.17107010682E+04  0.18750689080E+04  0.25500000920E-02 0. -1.
       -2    1    3    3    0  502  0.76715055851E+03  0.29415737359E+02  0.94037562609E+03  0.12139569940E+04  0.25500000920E-02 0.  1.
</event>
<event>
 5   0  0.7278657E-07  0.3004303E+04  0.7818609E-02  0.8242503E-01
       -2   -1    0    0    0  501  0.00000000000E+00  0.00000000000E+00  0.11166624062E+04  0.11166624062E+04  0.25500000920E-02 0. -1.
        2   -1    0    0  501    0  0.00000000000E+00  0.00000000000E+00 -0.20207172232E+04  0.20207172233E+04  0.25500000920E-02 0.  1.
    10030    2    1    2    0    0  0.00000000000E+00  0.00000000000E+00 -0.90405481708E+03  0.31373796294E+04  0.30043028853E+04 0.  0.
        2    1    3    3  502    0 -0.63766637021E+03  0.77783190612E+03 -0.16171625516E+04  0.19044305165E+04  0.25500000920E-02 0.  1.
       -2    1    3    3    0  502  0.63766637021E+03 -0.77783190612E+03  0.71310773457E+03  0.12329491129E+04  0.25500000920E-02 0. -1.
</event>
<event>
 5   0  0.7399409E-07  0.3002175E+04  0.7818609E-02  0.8243110E-01
       -2   -1    0    0    0  501  0.00000000000E+00  0.00000000000E+00  0.11375930499E+04  0.11375930499E+04  0.25500000920E-02 0.  1.
        2   -1    0    0  501    0  0.00000000000E+00  0.00000000000E+00 -0.19807295351E+04  0.19807295351E+04  0.25500000920E-02 0. -1.
    10030    2    1    2    0    0  0.00000000000E+00  0.00000000000E+00 -0.84313648518E+03  0.31183225850E+04  0.30021753133E+04 0.  0.
        3    1    3    3  502    0  0.10450850943E+04  0.55533727566E+03 -0.13806892286E+04  0.18184897856E+04  0.10100000352E+00 0. -1.
       -3    1    3    3    0  502 -0.10450850943E+04 -0.55533727566E+03  0.53755274344E+03  0.12998327994E+04  0.10100000352E+00 0.  1.
</event>
<event>
 5   0  0.2414250E-07  0.2997252E+04  0.7818609E-02  0.8244516E-01
        3   -1    0    0  501    0  0.00000000000E+00  0.00000000000E+00  0.18756891135E+04  0.18756891162E+04  0.10100000352E+00 0. -1.
       -3   -1    0    0    0  501  0.00000000000E+00  0.00000000000E+00 -0.11973625441E+04  0.11973625484E+04  0.10100000352E+00 0.  1.
    10030    2    1    2    0    0  0.00000000000E+00  0.00000000000E+00  0.67832656936E+03  0.30730516645E+04  0.29972520078E+04 0.  0.
        4    1    3    3  502    0 -0.27613345769E+03  0.16337747545E+03  0.18400615060E+04  0.18678248967E+04  0.12699999809E+01 0. -1.
       -4    1    3    3    0  502  0.27613345769E+03 -0.16337747545E+03 -0.11617349367E+04  0.12052267678E+04  0.12699999809E+01 0.  1.
</event>
<event>
 5   0  0.2602891E-07  0.2998989E+04  0.7818609E-02  0.8244020E-01
        1   -1    0    0  501    0  0.00000000000E+00  0.00000000000E+00  0.20713800558E+04  0.20713800558E+04  0.50400001928E-02 0.  1.
       -1   -1    0    0    0  501  0.00000000000E+00  0.00000000000E+00 -0.10855003043E+04  0.10855003043E+04  0.50400001928E-02 0. -1.
    10030    2    1    2    0    0  0.00000000000E+00  0.00000000000E+00  0.98587975145E+03  0.31568803601E+04  0.29989889502E+04 0.  0.
        5    1    3    3  502    0 -0.59386297925E+03 -0.58345486284E+03 -0.81986428883E+03  0.11684572552E+04  0.46999998093E+01 0. -1.
       -5    1    3    3    0  502  0.59386297925E+03  0.58345486284E+03  0.18057440403E+04  0.19884231049E+04  0.46999998093E+01 0.  1.
</event>
<event>
 5   0  0.7307508E-07  0.2990047E+04  0.7818609E-02  0.8246579E-01
        2   -1    0    0  501    0  0.00000000000E+00  0.00000000000E+00  0.16318442070E+04  0.16318442070E+04  0.25500000920E-02 0. -1.
       -2   -1    0    0    0  501  0.00000000000E+00  0.00000000000E+00 -0.13696742780E+04  0.13696742780E+04  0.25500000920E-02 0.  1.
    10030    2    1    2    0    0  0.00000000000E+00  0.00000000000E+00  0.26216992895E+03  0.30015184850E+04  0.29900468465E+04 0.  0.
        1    1    3    3  502    0 -0.14169206889E+04  0.24813528458E+02 -0.34699329903E+03  0.14590011307E+04  0.50400001928E-02 0.  1.
       -1    1    3    3    0  502  0.14169206889E+04 -0.24813528458E+02  0.60916322798E+03  0.15425173543E+04  0.50400001928E-02 0. -1.
</event>
<event>
 5   0  0.2792361E-07  0.2991205E+04  0.7818609E-02  0.8246247E-01
       -1   -1    0    0    0  501  0.00000000000E+00  0.00000000000E+00  0.13606010555E+04  0.13606010555E+04  0.50400001928E-02 0. -1.
        1   -1    0    0  501    0  0.00000000000E+00  0.00000000000E+00 -0.16439994379E+04  0.16439994379E+04  0.50400001928E-02 0.  1.
    10030    2    1    2    0    0  0.00000000000E+00  0.00000000000E+00 -0.28339838240E+03  0.30046004933E+04  0.29912053559E+04 0.  0.
        4    1    3    3  502    0  0.47494601897E+03 -0.40022810555E+03  0.12249336941E+04  0.13733974025E+04  0.12699999809E+01 0. -1.
       -4    1    3    3    0  502 -0.47494601897E+03  0.40022810555E+03 -0.15083320765E+04  0.16312030908E+04  0.12699999809E+01 0.  1.
</event>
<event>
 5   0  0.2679935E-07  0.2989638E+04  0.7818609E-02  0.8246696E-01
       -1   -1    0    0    0  501  0.00000000000E+00  0.00000000000E+00  0.14636091945E+04  0.14636091945E+04  0.50400001928E-02 0.  1.
        1   -1    0    0  501    0  0.00000000000E+00  0.00000000000E+00 -0.15266940769E+04  0.15266940769E+04  0.50400001928E-02 0. -1.
    10030    2    1    2    0    0  0.00000000000E+00  0.00000000000E+00 -0.63084882371E+02  0.29903032714E+04  0.29896377628E+04 0.  0.
        2    1    3    3  502    0  0.93105504792E+03  0.11504816574E+04 -0.24137937444E+03  0.14995784570E+04  0.25500000920E-02 0. -1.
       -2    1    3    3    0  502 -0.93105504792E+03 -0.11504816574E+04  0.17829449207E+03  0.14907248144E+04  0.25500000920E-02 0.  1.
</event>
<event>
 5   0  0.7208273E-07  0.3011407E+04  0.7818609E-02  0.8240481E-01
       -2   -1    0    0    0  501  0.00000000000E+00  0.00000000000E+00  0.17329289257E+04  0.17329289257E+04  0.25500000920E-02 0. -1.
        2   -1    0    0  501    0  0.00000000000E+00  0.00000000000E+00 -0.13082722902E+04  0.13082722902E+04  0.25500000920E-02 0.  1.
    10030    2    1    2    0    0  0.00000000000E+00  0.00000000000E+00  0.42465663556E+03  0.30412012159E+04  0.30114069100E+04 0.  0.
        4    1    3    3  502    0  0.15023945205E+04 -0.82473358378E+02  0.26900965018E+03  0.15285152779E+04  0.12699999809E+01 0.  1.
       -4    1    3    3    0  502 -0.15023945205E+04  0.82473358378E+02  0.15564698537E+03  0.15126859380E+04  0.12699999809E+01 0. -1.
</event>
<event>
 5   0  0.7278657E-07  0.2998690E+04  0.7818609E-02  0.8244105E-01
       -2   -1    0    0    0  501  0.00000000000E+00  0.00000000000E+00  0.13553948318E+04  0.13553948318E+04  0.25500000920E-02 0. -1.
        2   -1    0    0  501    0  0.00000000000E+00  0.00000000000E+00 -0.16585837087E+04  0.16585837087E+04  0.25500000920E-02 0.  1.
    10030    2    1    2    0    0  0.00000000000E+00  0.00000000000E+00 -0.30318887696E+03  0.30139785405E+04  0.29986902387E+04 0.  0.
        2    1    3    3  502    0 -0.42593474349E+03 -0.18539348674E+03  0.12812417537E+04  0.13628542042E+04  0.25500000920E-02 0. -1.
       -2    1    3    3    0  502  0.42593474349E+03  0.18539348674E+03 -0.15844306306E+04  0.16511243363E+04  0.25500000920E-02 0.  1.
</event>
<event>
 5   0  0.7399409E-07  0.3027702E+04  0.7818609E-02  0.8235864E-01
       -2   -1    0    0    0  501  0.00000000000E+00  0.00000000000E+00  0.11502652855E+04  0.11502652855E+04  0.25500000920E-02 0. -1.
        2   -1    0    0  501    0  0.00000000000E+00  0.00000000000E+00 -0.19923623768E+04  0.19923623768E+04  0.25500000920E-02 0.  1.
    10030    2    1    2    0    0  0.00000000000E+00  0.00000000000E+00 -0.84209709132E+03  0.31426276622E+04  0.30277022826E+04 0.  0.
        3    1    3    3  502    0  0.11307313629E+04  0.60077946235E+03  0.41723079984E+03  0.13466888757E+04  0.10100000352E+00 0. -1.
       -3    1    3    3    0  502 -0.11307313629E+04 -0.60077946235E+03 -0.12593278912E+04  0.17959387865E+04  0.10100000352E+00 0.  1.
</event>
<event>
 5   0  0.2679935E-07  0.3000074E+04  0.7818609E-02  0.8243710E-01
       -1   -1    0    0    0  501  0.00000000000E+00  0.00000000000E+00  0.89327525259E+03  0.89327525261E+03  0.50400001928E-02 0.  1.
        1   -1    0    0  501    0  0.00000000000E+00  0.00000000000E+00 -0.25189453995E+04  0.25189453995E+04  0.50400001928E-02 0. -1.
    10030    2    1    2    0    0  0.00000000000E+00  0.00000000000E+00 -0.16256701469E+04  0.34122206521E+04  0.30000743911E+04 0.  0.
        2    1    3    3  502    0  0.41781750212E+02  0.13206295907E+04 -0.16205368035E+04  0.20909203146E+04  0.25500000920E-02 0.  1.
       -2    1    3    3    0  502 -0.41781750212E+02 -0.13206295907E+04 -0.51333433944E+01  0.13213003375E+04  0.25500000920E-02 0. -1.
</event>
<event>
 5   0  0.7208273E-07  0.3006333E+04  0.7818609E-02  0.8241925E-01
       -2   -1    0    0    0  501  0.00000000000E+00  0.00000000000E+00  0.11038891373E+04  0.11038891373E+04  0.25500000920E-02 0. -1.
        2   -1    0    0  501    0  0.00000000000E+00  0.00000000000E+00 -0.20468626506E+04  0.20468626506E+04  0.25500000920E-02 0.  1.
    10030    2    1    2    0    0  0.00000000000E+00  0.00000000000E+00 -0.94297351330E+03  0.31507517880E+04  0.30063329461E+04 0.  0.
        4    1    3    3  502    0 -0.14850956701E+04  0.13622198056E+03 -0.27418189345E+03  0.15163254601E+04  0.12699999809E+01 0. -1.
       -4    1    3    3    0  502  0.14850956701E+04 -0.13622198056E+03 -0.66879161985E+03  0.16344263278E+04  0.12699999809E+01 0.  1.
</event>
<event>
 5   0  0.7399409E-07  0.3002532E+04  0.7818609E-02  0.8243008E-01
       -2   -1    0    0    0  501  0.00000000000E+00  0.00000000000E+00  0.11068453995E+04  0.11068453995E+04  0.25500000920E-02 0. -1.
        2   -1    0    0  501    0  0.00000000000E+00  0.00000000000E+00 -0.20362365100E+04  0.20362365100E+04  0.25500000920E-02 0.  1.
    10030    2    1    2    0    0  0.00000000000E+00  0.00000000000E+00 -0.92939111052E+03  0.31430819094E+04  0.30025316073E+04 0.  0.
        3    1    3    3  502    0 -0.12835439668E+04 -0.28118912629E+03  0.29541189631E+03  0.13467815851E+04  0.10100000352E+00 0.  1.
       -3    1    3    3    0  502  0.12835439668E+04  0.28118912629E+03 -0.12248030068E+04  0.17963003243E+04  0.10100000352E+00 0. -1.
</event>
<event>
 5   0  0.2621825E-07  0.3002840E+04  0.7818609E-02  0.8242920E-01
       -1   -1    0    0    0  501  0.00000000000E+00  0.00000000000E+00  0.95319042229E+03  0.95319042230E+03  0.50400001928E-02 0.  1.
        1   -1    0    0  501    0  0.00000000000E+00  0.00000000000E+00 -0.23649655234E+04  0.23649655234E+04  0.50400001928E-02 0. -1.
    10030    2    1    2    0    0  0.00000000000E+00  0.00000000000E+00 -0.14117751011E+04  0.33181559457E+04  0.30028403127E+04 0.  0.
        3    1    3    3  502    0 -0.46421888594E+03  0.13919931394E+04 -0.35450543501E+03  0.15095754992E+04  0.10100000352E+00 0.  1.
       -3    1    3    3    0  502  0.46421888594E+03 -0.13919931394E+04 -0.10572696661E+04  0.18085804464E+04  0.10100000352E+00 0. -1.
</event>
<event>
 5   0  0.7307508E-07  0.2999582E+04  0.7818609E-02  0.8243850E-01
       -2   -1    0    0    0  501  0.00000000000E+00  0.00000000000E+00  0.85258185523E+03  0.85258185524E+03  0.25500000920E-02 0. -1.
        2   -1    0    0  501    0  0.00000000000E+00  0.00000000000E+00 -0.26383082927E+04  0.26383082927E+04  0.25500000920E-02 0.  1.
    10030    2    1    2    0    0  0.00000000000E+00  0.00000000000E+00 -0.17857264375E+04  0.34908901479E+04  0.29995824902E+04 0.  0.
        1    1    3    3  502    0 -0.74695609894E+03  0.12788420660E+04 -0.11682502861E+04  0.18863162976E+04  0.50400001928E-02 0.  1.
       -1    1    3    3    0  502  0.74695609894E+03 -0.12788420660E+04 -0.61747615135E+03  0.16045738503E+04  0.50400001928E-02 0. -1.
</event>
<event>
 5   0  0.2679935E-07  0.3003886E+04  0.7818609E-02  0.8242622E-01
       -1   -1    0    0    0  501  0.00000000000E+00  0.00000000000E+00  0.84863150552E+03  0.84863150554E+03  0.50400001928E-02 0.  1.
        1   -1    0    0  501    0  0.00000000000E+00  0.00000000000E+00 -0.26582012168E+04  0.26582012168E+04  0.50400001928E-02 0. -1.
    10030    2    1    2    0    0  0.00000000000E+00  0.00000000000E+00 -0.18095697113E+04  0.35068327223E+04  0.30038863498E+04 0.  0.
        2    1    3    3  502    0 -0.59243831720E+03 -0.97081112454E+03  0.24047469626E+03  0.11624480542E+04  0.25500000920E-02 0.  1.
       -2    1    3    3    0  502  0.59243831720E+03  0.97081112454E+03 -0.20500444075E+04  0.23443846681E+04  0.25500000920E-02 0. -1.
</event>
<event>
 5   0  0.2640081E-07  0.2995912E+04  0.7818609E-02  0.8244899E-01
       -1   -1    0    0    0  501  0.00000000000E+00  0.00000000000E+00  0.97228248162E+03  0.97228248163E+03  0.50400001928E-02 0.  1.
        1   -1    0    0  501    0  0.00000000000E+00  0.00000000000E+00 -0.23078399578E+04  0.23078399578E+04  0.50400001928E-02 0. -1.
    10030    2    1    2    0    0  0.00000000000E+00  0.00000000000E+00 -0.13355574762E+04  0.32801224394E+04  0.29959121224E+04 0.  0.
        1    1    3    3  502    0  0.12380685213E+04 -0.69405065178E+03 -0.11921182925E+04  0.18535549612E+04  0.50400001928E-02 0. -1.
       -1    1    3    3    0  502 -0.12380685213E+04  0.69405065178E+03 -0.14343918361E+03  0.14265674783E+04  0.50400001928E-02 0.  1.
</event>
<event>
 5   0  0.7208273E-07  0.3002342E+04  0.7818609E-02  0.8243062E-01
        2   -1    0    0  501    0  0.00000000000E+00  0.00000000000E+00  0.27788588723E+04  0.27788588723E+04  0.25500000920E-02 0.  1.
       -2   -1    0    0    0  501  0.00000000000E+00  0.00000000000E+00 -0.81094982338E+03  0.81094982338E+03  0.25500000920E-02 0. -1.
    10030    2    1    2    0    0  0.00000000000E+00  0.00000000000E+00  0.19679090489E+04  0.35898086957E+04  0.30023424932E+04 0.  0.
        4    1    3    3  502    0 -0.40951225580E+02  0.12987297274E+03  0.27714579110E+04  0.27748017150E+04  0.12699999809E+01 0.  1.
       -4    1    3    3    0  502  0.40951225580E+02 -0.12987297274E+03 -0.80354886210E+03  0.81500698071E+03  0.12699999809E+01 0. -1.
</event>
<event>
 5   0  0.7208273E-07  0.2996562E+04  0.7818609E-02  0.8244713E-01
        2   -1    0    0  501    0  0.00000000000E+00  0.00000000000E+00  0.21647970177E+04  0.21647970177E+04  0.25500000920E-02 0.  1.
       -2   -1    0    0    0  501  0.00000000000E+00  0.00000000000E+00 -0.10369772970E+04  0.10369772970E+04  0.25500000920E-02 0. -1.
    10030    2    1    2    0    0  0.00000000000E+00  0.00000000000E+00  0.11278197207E+04  0.32017743147E+04  0.29965616029E+04 0.  0.
        4    1    3    3  502    0 -0.10215831492E+04 -0.10184373517E+04  0.13121132272E+03  0.14484698113E+04  0.12699999809E+01 0. -1.
       -4    1    3    3    0  502  0.10215831492E+04  0.10184373517E+04  0.99660839794E+03  0.17533045034E+04  0.12699999809E+01 0.  1.
</event>
<event>
 5   0  0.7208273E-07  0.3001775E+04  0.7818609E-02  0.8243224E-01
       -2   -1    0    0    0  501  0.00000000000E+00  0.00000000000E+00  0.14441158788E+04  0.14441158788E+04  0.25500000920E-02 0.  1.
        2   -1    0    0  501    0  0.00000000000E+00  0.00000000000E+00 -0.15598914574E+04  0.15598914574E+04  0.25500000920E-02 0. -1.
    10030    2    1    2    0    0  0.00000000000E+00  0.00000000000E+00 -0.11577557862E+03  0.30040073361E+04  0.30017754898E+04 0.  0.
        4    1    3    3  502    0  0.12609877866E+04 -0.63414050069E+03  0.45282294786E+03  0.14823206831E+04  0.12699999809E+01 0.  1.
       -4    1    3    3    0  502 -0.12609877866E+04  0.63414050069E+03 -0.56859852648E+03  0.15216866530E+04  0.12699999809E+01 0. -1.
</event>
<event>
 5   0  0.2640081E-07  0.2998611E+04  0.7818609E-02  0.8244128E-01
       -1   -1    0    0    0  501  0.00000000000E+00  0.00000000000E+00  0.13707723818E+04  0.13707723818E+04  0.50400001928E-02 0. -1.
        1   -1    0    0  501    0  0.00000000000E+00  0.00000000000E+00 -0.16398904595E+04  0.16398904595E+04  0.50400001928E-02 0.  1.
    10030    2    1    2    0    0  0.00000000000E+00  0.00000000000E+00 -0.26911807769E+03  0.30106628414E+04  0.29986107124E+04 0.  0.
        1    1    3    3  502    0  0.65849713577E+03  0.67370129996E+02  0.12161208936E+04  0.13845964177E+04  0.50400001928E-02 0. -1.
       -1    1    3    3    0  502 -0.65849713577E+03 -0.67370129996E+02 -0.14852389713E+04  0.16260664236E+04  0.50400001928E-02 0.  1.
</event>
<event>
 5   0  0.7399409E-07  0.2998198E+04  0.7818609E-02  0.8244246E-01
       -2   -1    0    0    0  501  0.00000000000E+00  0.00000000000E+00  0.76372749359E+03  0.76372749360E+03  0.25500000920E-02 0. -1.
        2   -1    0    0  501    0  0.00000000000E+00  0.00000000000E+00 -0.29425384720E+04  0.29425384720E+04  0.25500000920E-02 0.  1.
    10030    2    1    2    0    0  0.00000000000E+00  0.00000000000E+00 -0.21788109784E+04  0.37062659656E+04  0.29981978134E+04 0.  0.
        3    1    3    3  502    0  0.17657425382E+02 -0.12739188086E+04 -0.20659885063E+04  0.24272390558E+04  0.10100000352E+00 0.  1.
       -3    1    3    3    0  502 -0.17657425382E+02  0.12739188086E+04 -0.11282247212E+03  0.12790269098E+04  0.10100000352E+00 0. -1.
</event>
<event>
 5   0  0.7307508E-07  0.3001923E+04  0.7818609E-02  0.8243182E-01
       -2   -1    0    0    0  501  0.00000000000E+00  0.00000000000E+00  0.10126266150E+04  0.10126266151E+04  0.25500000920E-02 0.  1.
        2   -1    0    0  501    0  0.00000000000E+00  0.00000000000E+00 -0.22247935454E+04  0.22247935454E+04  0.25500000920E-02 0. -1.
    10030    2    1    2    0    0  0.00000000000E+00  0.00000000000E+00 -0.12121669304E+04  0.32374201605E+04  0.30019228219E+04 0.  0.
        1    1    3    3  502    0  0.10386074522E+04  0.10828818058E+04 -0.64849698139E+03  0.16345907072E+04  0.50400001928E-02 0.  1.
       -1    1    3    3    0  502 -0.10386074522E+04 -0.10828818058E+04 -0.56366994900E+03  0.16028294533E+04  0.50400001928E-02 0. -1.
</event>
<event>
 5   0  0.2679935E-07  0.3001187E+04  0.7818609E-02  0.8243392E-01
       -1   -1    0    0    0  501  0.00000000000E+00  0.00000000000E+00  0.17244778368E+04  0.17244778368E+04  0.50400001928E-02 0. -1.
        1   -1    0    0  501    0  0.00000000000E+00  0.00000000000E+00 -0.13057753793E+04  0.13057753793E+04  0.50400001928E-02 0.  1.
    10030    2    1    2    0    0  0.00000000000E+00  0.00000000000E+00  0.41870245749E+03  0.30302532161E+04  0.30011868995E+04 0.  0.
        2    1    3    3  502    0  0.52630222295E+03  0.12090829535E+04 -0.51375879263E+03  0.14152115444E+04  0.25500000920E-02 0.  1.
       -2    1    3    3    0  502 -0.52630222295E+03 -0.12090829535E+04  0.93246125013E+03  0.16150416717E+04  0.25500000920E-02 0. -1.
</event>
<event>
 5   0  0.2640081E-07  0.3015133E+04  0.7818609E-02  0.8239423E-01
       -1   -1    0    0    0  501  0.00000000000E+00  0.00000000000E+00  0.96811777202E+03  0.96811777203E+03  0.50400001928E-02 0. -1.
        1   -1    0    0  501    0  0.00000000000E+00  0.00000000000E+00 -0.23476035575E+04  0.23476035575E+04  0.50400001928E-02 0.  1.
    10030    2    1    2    0    0  0.00000000000E+00  0.00000000000E+00 -0.13794857855E+04  0.33157213296E+04  0.30151329826E+04 0.  0.
        1    1    3    3  502    0  0.10663836005E+03  0.14627469371E+04 -0.30602025413E+03  0.14982151841E+04  0.50400001928E-02 0. -1.
       -1    1    3    3    0  502 -0.10663836005E+03 -0.14627469371E+04 -0.10734655314E+04  0.18175061455E+04  0.50400001928E-02 0.  1.
</event>
<event>
 5   0  0.2679935E-07  0.2986966E+04  0.7818609E-02  0.8247463E-01
        1   -1    0    0  501    0  0.00000000000E+00  0.00000000000E+00  0.13722194677E+04  0.13722194677E+04  0.50400001928E-02 0. -1.
       -1   -1    0    0    0  501  0.00000000000E+00  0.00000000000E+00 -0.16254624204E+04  0.16254624204E+04  0.50400001928E-02 0.  1.
    10030    2    1    2    0    0  0.00000000000E+00  0.00000000000E+00 -0.25324295272E+03  0.29976818881E+04  0.29869658032E+04 0.  0.
        2    1    3    3  502    0 -0.52408709182E+02 -0.98098685791E+03 -0.12555613243E+04  0.15942133255E+04  0.25500000920E-02 0.  1.
       -2    1    3    3    0  502  0.52408709182E+02  0.98098685791E+03  0.10023183716E+04  0.14034685626E+04  0.25500000920E-02 0. -1.
</event>
<event>
 5   0  0.7399409E-07  0.2996314E+04  0.7818609E-02  0.8244784E-01
       -2   -1    0    0    0  501  0.00000000000E+00  0.00000000000E+00  0.11860714729E+04  0.11860714729E+04  0.25500000920E-02 0.  1.
        2   -1    0    0  501    0  0.00000000000E+00  0.00000000000E+00 -0.18923607100E+04  0.18923607100E+04  0.25500000920E-02 0. -1.
    10030    2    1    2    0    0  0.00000000000E+00  0.00000000000E+00 -0.70628923708E+03  0.30784321830E+04  0.29963144392E+04 0.  0.
        3    1    3    3  502    0 -0.10067764485E+04 -0.31907707807E+03  0.73855177851E+03  0.12887465766E+04  0.10100000352E+00 0.  1.
       -3    1    3    3    0  502  0.10067764485E+04  0.31907707807E+03 -0.14448410156E+04  0.17896856063E+04  0.10100000352E+00 0. -1.
</event>
<event>
 5   0  0.2679935E-07  0.2991818E+04  0.7818609E-02  0.8246071E-01
       -1   -1    0    0    0  501  0.00000000000E+00  0.00000000000E+00  0.14164223836E+04  0.14164223836E+04  0.50400001928E-02 0. -1.
        1   -1    0    0  501    0  0.00000000000E+00  0.00000000000E+00 -0.15798561090E+04  0.15798561090E+04  0.50400001928E-02 0.  1.
    10030    2    1    2    0    0  0.00000000000E+00  0.00000000000E+00 -0.16343372546E+03  0.29962784926E+04  0.29918178793E+04 0.  0.
        2    1    3    3  502    0  0.14018597594E+04 -0.15405560508E+03 -0.58125873664E+03  0.15253870438E+04  0.25500000920E-02 0.  1.
       -2    1    3    3    0  502 -0.14018597594E+04  0.15405560508E+03  0.41782501117E+03  0.14708914489E+04  0.25500000920E-02 0. -1.
</event>
<event>
 5   0  0.7278657E-07  0.3003232E+04  0.7818609E-02  0.8242809E-01
       -2   -1    0    0    0  501  0.00000000000E+00  0.00000000000E+00  0.20105504693E+04  0.20105504693E+04  0.25500000920E-02 0. -1.
        2   -1    0    0  501    0  0.00000000000E+00  0.00000000000E+00 -0.11215088640E+04  0.11215088640E+04  0.25500000920E-02 0.  1.
    10030    2    1    2    0    0  0.00000000000E+00  0.00000000000E+00  0.88904160532E+03  0.31320593334E+04  0.30032317080E+04 0.  0.
        2    1    3    3  502    0  0.12904066915E+04 -0.26630104830E+03 -0.30664296923E+03  0.13528102559E+04  0.25500000920E-02 0.  1.
       -2    1    3    3    0  502 -0.12904066915E+04  0.26630104830E+03  0.11956845746E+04  0.17792490775E+04  0.25500000920E-02 0. -1.
</event>
<event>
 5   0  0.2621825E-07  0.2998323E+04  0.7818609E-02  0.8244210E-01
       -1   -1    0    0    0  501  0.00000000000E+00  0.00000000000E+00  0.88089847066E+03  0.88089847068E+03  0.50400001928E-02 0. -1.
        1   -1    0    0  501    0  0.00000000000E+00  0.00000000000E+00 -0.25513558178E+04  0.25513558178E+04  0.50400001928E-02 0.  1.
    10030    2    1    2    0    0  0.00000000000E+00  0.00000000000E+00 -0.16704573471E+04  0.34322542884E+04  0.29983231567E+04 0.  0.
        3    1    3    3  502    0 -0.13063333918E+04  0.72939327253E+03 -0.72684827134E+03  0.16633790597E+04  0.10100000352E+00 0.  1.
       -3    1    3    3    0  502  0.13063333918E+04 -0.72939327253E+03 -0.94360907575E+03  0.17688752287E+04  0.10100000352E+00 0. -1.
</event>
<event>
 5   0  0.2640081E-07  0.3001676E+04  0.7818609E-02  0.8243253E-01
        1   -1    0    0  501    0  0.00000000000E+00  0.00000000000E+00  0.25280708519E+04  0.25280708519E+04  0.50400001928E-02 0.  1.
       -1   -1    0    0    0  501  0.00000000000E+00  0.00000000000E+00 -0.89100127004E+03  0.89100127006E+03  0.50400001928E-02 0. -1.
    10030    2    1    2    0    0  0.00000000000E+00  0.00000000000E+00  0.16370695819E+04  0.34190721220E+04  0.30016757585E+04 0.  0.
        1    1    3    3  502    0 -0.14811846209E+04  0.18164583566E+03  0.10008235394E+04  0.17968168654E+04  0.50400001928E-02 0. -1.
       -1    1    3    3    0  502  0.14811846209E+04 -0.18164583566E+03  0.63624604252E+03  0.16222552566E+04  0.50400001928E-02 0.  1.
</event>
<event>
 5   0  0.7208273E-07  0.3002308E+04  0.7818609E-02  0.8243072E-01
        2   -1    0    0  501    0  0.00000000000E+00  0.00000000000E+00  0.10817122335E+04  0.10817122335E+04  0.25500000920E-02 0.  1.
       -2   -1    0    0    0  501  0.00000000000E+00  0.00000000000E+00 -0.20832375060E+04  0.20832375060E+04  0.25500000920E-02 0. -1.
    10030    2    1    2    0    0  0.00000000000E+00  0.00000000000E+00 -0.10015252725E+04  0.31649497395E+04  0.30023081091E+04 0.  0.
        4    1    3    3  502    0  0.27271021265E+03 -0.10487456006E+04  0.59437144051E+03  0.12359276747E+04  0.12699999809E+01 0.  1.
       -4    1    3    3    0  502 -0.27271021265E+03  0.10487456006E+04 -0.15958967130E+04  0.19290220648E+04  0.12699999809E+01 0. -1.
</event>
<event>
 5   0  0.7585823E-07  0.3000138E+04  0.7818609E-02  0.8243691E-01
        2   -1    0    0  501    0  0.00000000000E+00  0.00000000000E+00  0.18219842875E+04  0.18219842875E+04  0.25500000920E-02 0. -1.
       -2   -1    0    0    0  501  0.00000000000E+00  0.00000000000E+00 -0.12350309454E+04  0.12350309454E+04  0.25500000920E-02 0.  1.
    10030    2    1    2    0    0  0.00000000000E+00  0.00000000000E+00  0.58695334201E+03  0.30570152329E+04  0.30001379816E+04 0.  0.
        5    1    3    3  502    0  0.78915134615E+02  0.71352285934E+03  0.16355813481E+04  0.17861945318E+04  0.46999998093E+01 0. -1.
       -5    1    3    3    0  502 -0.78915134615E+02 -0.71352285934E+03 -0.10486280061E+04  0.12708207011E+04  0.46999998093E+01 0.  1.
</event>
<event>
 5   0  0.2679935E-07  0.3003081E+04  0.7818609E-02  0.8242852E-01
        1   -1    0    0  501    0  0.00000000000E+00  0.00000000000E+00  0.16271743224E+04  0.16271743224E+04  0.50400001928E-02 0.  1.
       -1   -1    0    0    0  501  0.00000000000E+00  0.00000000000E+00 -0.13856068502E+04  0.13856068502E+04  0.50400001928E-02 0. -1.
    10030    2    1    2    0    0  0.00000000000E+00  0.00000000000E+00  0.24156747221E+03  0.30127811726E+04  0.30030810096E+04 0.  0.
        2    1    3    3  502    0 -0.28445447982E+03  0.12450282209E+04  0.91302701190E+03  0.15699133563E+04  0.25500000920E-02 0. -1.
       -2    1    3    3    0  502  0.28445447982E+03 -0.12450282209E+04 -0.67145953969E+03  0.14428678163E+04  0.25500000920E-02 0.  1.
</event>
<event>
 5   0  0.2679935E-07  0.2999977E+04  0.7818609E-02  0.8243738E-01
       -1   -1    0    0    0  501  0.00000000000E+00  0.00000000000E+00  0.96982608256E+03  0.96982608257E+03  0.50400001928E-02 0. -1.
        1   -1    0    0  501    0  0.00000000000E+00  0.00000000000E+00 -0.23199677192E+04  0.23199677192E+04  0.50400001928E-02 0.  1.
    10030    2    1    2    0    0  0.00000000000E+00  0.00000000000E+00 -0.13501416366E+04  0.32897938018E+04  0.29999768031E+04 0.  0.
        2    1    3    3  502    0 -0.56840381124E+03 -0.13739696174E+04 -0.89188242110E+03  0.17338770589E+04  0.25500000920E-02 0. -1.
       -2    1    3    3    0  502  0.56840381124E+03  0.13739696174E+04 -0.45825921551E+03  0.15559167429E+04  0.25500000920E-02 0.  1.
</event>
<event>
 5   0  0.2640081E-07  0.3008414E+04  0.7818609E-02  0.8241332E-01
        1   -1    0    0  501    0  0.00000000000E+00  0.00000000000E+00  0.14882615985E+04  0.14882615985E+04  0.50400001928E-02 0.  1.
       -1   -1    0    0    0  501  0.00000000000E+00  0.00000000000E+00 -0.15203233677E+04  0.15203233677E+04  0.50400001928E-02 0. -1.
    10030    2    1    2    0    0  0.00000000000E+00  0.00000000000E+00 -0.32061769219E+02  0.30085849663E+04  0.30084141241E+04 0.  0.
        1    1    3    3  502    0 -0.54503562921E+03  0.96842206943E+03  0.99779872301E+03  0.14934883439E+04  0.50400001928E-02 0.  1.
       -1    1    3    3    0  502  0.54503562921E+03 -0.96842206943E+03 -0.10298604922E+04  0.15150966224E+04  0.50400001928E-02 0. -1.
</event>
<event>
 5   0  0.2602891E-07  0.3007168E+04  0.7818609E-02  0.8241687E-01
        1   -1    0    0  501    0  0.00000000000E+00  0.00000000000E+00  0.75158999420E+03  0.75158999422E+03  0.50400001928E-02 0. -1.
       -1   -1    0    0    0  501  0.00000000000E+00  0.00000000000E+00 -0.30079769499E+04  0.30079769499E+04  0.50400001928E-02 0.  1.
    10030    2    1    2    0    0  0.00000000000E+00  0.00000000000E+00 -0.22563869557E+04  0.37595669442E+04  0.30071683547E+04 0.  0.
        5    1    3    3  502    0 -0.77959665136E+03 -0.94274894985E+02 -0.27312253592E+04  0.28418783837E+04  0.46999998093E+01 0.  1.
       -5    1    3    3    0  502  0.77959665136E+03  0.94274894985E+02  0.47483840349E+03  0.91768856049E+03  0.46999998093E+01 0. -1.
</event>
<event>
 5   0  0.2621825E-07  0.2999157E+04  0.7818609E-02  0.8243972E-01
       -1   -1    0    0    0  501  0.00000000000E+00  0.00000000000E+00  0.20886146409E+04  0.20886146409E+04  0.50400001928E-02 0.  1.
        1   -1    0    0  501    0  0.00000000000E+00  0.00000000000E+00 -0.10766635581E+04  0.10766635582E+04  0.50400001928E-02 0. -1.
    10030    2    1    2    0    0  0.00000000000E+00  0.00000000000E+00  0.10119510828E+04  0.31652781991E+04  0.29991567288E+04 0.  0.
        3    1    3    3  502    0 -0.80038978313E+03  0.55266752706E+03  0.17105397115E+04  0.19677426954E+04  0.10100000352E+00 0.  1.
       -3    1    3    3    0  502  0.80038978313E+03 -0.55266752706E+03 -0.69858862867E+03  0.11975355037E+04  0.10100000352E+00 0. -1.
</event>
<event>
 5   0  0.7307508E-07  0.2966996E+04  0.7818609E-02  0.8253219E-01
       -2   -1    0    0    0  501  0.00000000000E+00  0.00000000000E+00  0.12934216712E+04  0.12934216712E+04  0.25500000920E-02 0. -1.
        2   -1    0    0  501    0  0.00000000000E+00  0.00000000000E+00 -0.17015076422E+04  0.17015076422E+04  0.25500000920E-02 0.  1.
    10030    2    1    2    0    0  0.00000000000E+00  0.00000000000E+00 -0.40808597098E+03  0.29949293134E+04  0.29669963654E+04 0.  0.
        1    1    3    3  502    0 -0.10869998205E+04  0.35144801035E+03  0.75127205981E+03  0.13672944166E+04  0.50400001928E-02 0. -1.
       -1    1    3    3    0  502  0.10869998205E+04 -0.35144801035E+03 -0.11593580308E+04  0.16276348968E+04  0.50400001928E-02 0.  1.
</event>
<event>
 5   0  0.2602891E-07  0.2998985E+04  0.7818609E-02  0.8244021E-01
        1   -1    0    0  501    0  0.00000000000E+00  0.00000000000E+00  0.16301944107E+04  0.16301944107E+04  0.50400001928E-02 0. -1.
       -1   -1    0    0    0  501  0.00000000000E+00  0.00000000000E+00 -0.13792697194E+04  0.13792697194E+04  0.50400001928E-02 0.  1.
    10030    2    1    2    0    0  0.00000000000E+00  0.00000000000E+00  0.25092469130E+03  0.30094641300E+04  0.29989850199E+04 0.  0.
        5    1    3    3  502    0 -0.69892709332E+03  0.12608158588E+04 -0.28865381677E+03  0.14702036687E+04  0.46999998093E+01 0.  1.
       -5    1    3    3    0  502  0.69892709332E+03 -0.12608158588E+04  0.53957850806E+03  0.15392604613E+04  0.46999998093E+01 0. -1.
</event>
<event>
 5   0  0.2640081E-07  0.3019041E+04  0.7818609E-02  0.8238314E-01
       -1   -1    0    0    0  501  0.00000000000E+00  0.00000000000E+00  0.11857425302E+04  0.11857425302E+04  0.50400001928E-02 0.  1.
        1   -1    0    0  501    0  0.00000000000E+00  0.00000000000E+00 -0.19217096345E+04  0.19217096345E+04  0.50400001928E-02 0. -1.
    10030    2    1    2    0    0  0.00000000000E+00  0.00000000000E+00 -0.73596710434E+03  0.31074521647E+04  0.30190414666E+04 0.  0.
        1    1    3    3  502    0 -0.88029445495E+03  0.37284933632E+03  0.83443817760E+03  0.12689452420E+04  0.50400001928E-02 0.  1.
       -1    1    3    3    0  502  0.88029445495E+03 -0.37284933632E+03 -0.15704052819E+04  0.18385069226E+04  0.50400001928E-02 0. -1.
</event>
<event>
 5   0  0.2621825E-07  0.3001601E+04  0.7818609E-02  0.8243274E-01
       -1   -1    0    0    0  501  0.00000000000E+00  0.00000000000E+00  0.18411539619E+04  0.18411539619E+04  0.50400001928E-02 0. -1.
        1   -1    0    0  501    0  0.00000000000E+00  0.00000000000E+00 -0.12233644788E+04  0.12233644788E+04  0.50400001928E-02 0.  1.
    10030    2    1    2    0    0  0.00000000000E+00  0.00000000000E+00  0.61778948309E+03  0.30645184407E+04  0.30016011440E+04 0.  0.
        3    1    3    3  502    0 -0.11412741085E+04 -0.93549524061E+03  0.29769817365E+02  0.14759892236E+04  0.10100000352E+00 0. -1.
       -3    1    3    3    0  502  0.11412741085E+04  0.93549524061E+03  0.58801966572E+03  0.15885292171E+04  0.10100000352E+00 0.  1.
</event>
<event>
 5   0  0.2792361E-07  0.2993335E+04  0.7818609E-02  0.8245637E-01
       -1   -1    0    0    0  501  0.00000000000E+00  0.00000000000E+00  0.88606001241E+03  0.88606001242E+03  0.50400001928E-02 0.  1.
        1   -1    0    0  501    0  0.00000000000E+00  0.00000000000E+00 -0.25280614300E+04  0.25280614300E+04  0.50400001928E-02 0. -1.
    10030    2    1    2    0    0  0.00000000000E+00  0.00000000000E+00 -0.16420014176E+04  0.34141214424E+04  0.29933353585E+04 0.  0.
        4    1    3    3  502    0  0.93216298433E+03  0.94692794990E+03 -0.16066007442E+04  0.20848903894E+04  0.12699999809E+01 0. -1.
       -4    1    3    3    0  502 -0.93216298433E+03 -0.94692794990E+03 -0.35400673349E+02  0.13292310530E+04  0.12699999809E+01 0.  1.
</event>
<event>
 5   0  0.2621825E-07  0.3002402E+04  0.7818609E-02  0.8243045E-01
        1   -1    0    0  501    0  0.00000000000E+00  0.00000000000E+00  0.13557264893E+04  0.13557264893E+04  0.50400001928E-02 0.  1.
       -1   -1    0    0    0  501  0.00000000000E+00  0.00000000000E+00 -0.16622854796E+04  0.16622854796E+04  0.50400001928E-02 0. -1.
    10030    2    1    2    0    0  0.00000000000E+00  0.00000000000E+00 -0.30655899035E+03  0.30180119689E+04  0.30024020101E+04 0.  0.
        3    1    3    3  502    0  0.80546848962E+03  0.29191921929E+03 -0.13924124855E+04  0.16348727346E+04  0.10100000352E+00 0. -1.
       -3    1    3    3    0  502 -0.80546848962E+03 -0.29191921929E+03  0.10858534952E+04  0.13831392343E+04  0.10100000352E+00 0.  1.
</event>
<event>
 5   0  0.7307508E-07  0.2999046E+04  0.7818609E-02  0.8244003E-01
       -2   -1    0    0    0  501  0.00000000000E+00  0.00000000000E+00  0.12005486393E+04  0.12005486393E+04  0.25500000920E-02 0.  1.
        2   -1    0    0  501    0  0.00000000000E+00  0.00000000000E+00 -0.18729508744E+04  0.18729508744E+04  0.25500000920E-02 0. -1.
    10030    2    1    2    0    0  0.00000000000E+00  0.00000000000E+00 -0.67240223508E+03  0.30734995138E+04  0.29990455974E+04 0.  0.
        1    1    3    3  502    0 -0.16859785669E+03 -0.72361683781E+03 -0.16710430325E+04  0.18287786585E+04  0.50400001928E-02 0. -1.
       -1    1    3    3    0  502  0.16859785669E+03  0.72361683781E+03  0.99864079742E+03  0.12447208553E+04  0.50400001928E-02 0.  1.
</event>
<event>
 5   0  0.7399409E-07  0.2987951E+04  0.7818609E-02  0.8247180E-01
        2   -1    0    0  501    0  0.00000000000E+00  0.00000000000E+00  0.13276808229E+04  0.13276808230E+04  0.25500000920E-02 0.  1.
       -2   -1    0    0    0  501  0.00000000000E+00  0.00000000000E+00 -0.16810988670E+04  0.16810988670E+04  0.25500000920E-02 0. -1.
    10030    2    1    2    0    0  0.00000000000E+00  0.00000000000E+00 -0.35341804401E+03  0.30087796899E+04  0.29879509549E+04 0.  0.
        3    1    3    3  502    0 -0.14789838612E+04  0.14983017544E+03 -0.32647499639E+03  0.15219816939E+04  0.10100000352E+00 0.  1.
       -3    1    3    3    0  502  0.14789838612E+04 -0.14983017544E+03 -0.26943047626E+02  0.14867979960E+04  0.10100000352E+00 0. -1.
</event>
<event>
 5   0  0.2621825E-07  0.3003717E+04  0.7818609E-02  0.8242670E-01
       -1   -1    0    0    0  501  0.00000000000E+00  0.00000000000E+00  0.11792089816E+04  0.11792089816E+04  0.50400001928E-02 0.  1.
        1   -1    0    0  501    0  0.00000000000E+00  0.00000000000E+00 -0.19127892507E+04  0.19127892507E+04  0.50400001928E-02 0. -1.
    10030    2    1    2    0    0  0.00000000000E+00  0.00000000000E+00 -0.73358026912E+03  0.30919982323E+04  0.30037165408E+04 0.  0.
        3    1    3    3  502    0 -0.35152084965E+03  0.15162677108E+03  0.11281393542E+04  0.11913253116E+04  0.10100000352E+00 0.  1.
       -3    1    3    3    0  502  0.35152084965E+03 -0.15162677108E+03 -0.18617196233E+04  0.19006729207E+04  0.10100000352E+00 0. -1.
</event>
<event>
 5   0  0.2414250E-07  0.2999927E+04  0.7818609E-02  0.8243752E-01
       -4   -1    0    0    0  501  0.00000000000E+00  0.00000000000E+00  0.11564670682E+04  0.11564677655E+04  0.12699999809E+01 0.  1.
        4   -1    0    0  501    0  0.00000000000E+00  0.00000000000E+00 -0.19454846355E+04  0.19454850501E+04  0.12699999809E+01 0. -1.
    10030    2    1    2    0    0  0.00000000000E+00  0.00000000000E+00 -0.78901756733E+03  0.31019528156E+04  0.29999270906E+04 0.  0.
        2    1    3    3  502    0  0.61454810368E+03 -0.65159985371E+03 -0.16386068334E+04  0.18674271326E+04  0.25500000920E-02 0. -1.
       -2    1    3    3    0  502 -0.61454810368E+03  0.65159985371E+03  0.84958926603E+03  0.12345256830E+04  0.25500000920E-02 0.  1.
</event>
<event>
 5   0  0.2792361E-07  0.3002131E+04  0.7818609E-02  0.8243123E-01
       -1   -1    0    0    0  501  0.00000000000E+00  0.00000000000E+00  0.12139420815E+04  0.12139420815E+04  0.50400001928E-02 0. -1.
        1   -1    0    0  501    0  0.00000000000E+00  0.00000000000E+00 -0.18560994730E+04  0.18560994730E+04  0.50400001928E-02 0.  1.
    10030    2    1    2    0    0  0.00000000000E+00  0.00000000000E+00 -0.64215739148E+03  0.30700415545E+04  0.30021307484E+04 0.  0.
        4    1    3    3  502    0 -0.70304883270E+03 -0.10648097236E+04  0.48743761933E+03  0.13659042625E+04  0.12699999809E+01 0. -1.
       -4    1    3    3    0  502  0.70304883270E+03  0.10648097236E+04 -0.11295950108E+04  0.17041372920E+04  0.12699999809E+01 0.  1.
</event>
<event>
 5   0  0.2679935E-07  0.3000635E+04  0.7818609E-02  0.8243550E-01
       -1   -1    0    0    0  501  0.00000000000E+00  0.00000000000E+00  0.12720729536E+04  0.12720729536E+04  0.50400001928E-02 0. -1.
        1   -1    0    0  501    0  0.00000000000E+00  0.00000000000E+00 -0.17695154139E+04  0.17695154139E+04  0.50400001928E-02 0.  1.
    10030    2    1    2    0    0  0.00000000000E+00  0.00000000000E+00 -0.49744246030E+03  0.30415883676E+04  0.30006350655E+04 0.  0.
        2    1    3    3  502    0 -0.86805726676E+02  0.12826208919E+04  0.53533491623E+03  0.13925642028E+04  0.25500000920E-02 0. -1.
       -2    1    3    3    0  502  0.86805726676E+02 -0.12826208919E+04 -0.10327773765E+04  0.16490241647E+04  0.25500000920E-02 0.  1.
</event>
<event>
 5   0  0.2640081E-07  0.3008451E+04  0.7818609E-02  0.8241322E-01
       -1   -1    0    0    0  501  0.00000000000E+00  0.00000000000E+00  0.11704179990E+04  0.11704179990E+04  0.50400001928E-02 0.  1.
        1   -1    0    0  501    0  0.00000000000E+00  0.00000000000E+00 -0.19332360644E+04  0.19332360644E+04  0.50400001928E-02 0. -1.
    10030    2    1    2    0    0  0.00000000000E+00  0.00000000000E+00 -0.76281806536E+03  0.31036540634E+04  0.30084509543E+04 0.  0.
        1    1    3    3  502    0  0.74394946774E+03  0.12855488237E+04 -0.13597784226E+03  0.14915047980E+04  0.50400001928E-02 0.  1.
       -1    1    3    3    0  502 -0.74394946774E+03 -0.12855488237E+04 -0.62684022310E+03  0.16121492655E+04  0.50400001928E-02 0. -1.
</event>
<event>
 5   0  0.2602891E-07  0.2998958E+04  0.7818609E-02  0.8244029E-01
       -1   -1    0    0    0  501  0.00000000000E+00  0.00000000000E+00  0.14609672403E+04  0.14609672403E+04  0.50400001928E-02 0. -1.
        1   -1    0    0  501    0  0.00000000000E+00  0.00000000000E+00 -0.15390055213E+04  0.15390055213E+04  0.50400001928E-02 0.  1.
    10030    2    1    2    0    0  0.00000000000E+00  0.00000000000E+00 -0.78038281084E+02  0.29999727616E+04  0.29989575851E+04 0.  0.
        5    1    3    3  502    0  0.11153956976E+04  0.34774926687E+03  0.90118063050E+03  0.14755289674E+04  0.46999998093E+01 0. -1.
       -5    1    3    3    0  502 -0.11153956976E+04 -0.34774926687E+03 -0.97921891159E+03  0.15244437942E+04  0.46999998093E+01 0.  1.
</event>
<event>
 5   0  0.7585823E-07  0.2998161E+04  0.7818609E-02  0.8244256E-01
       -2   -1    0    0    0  501  0.00000000000E+00  0.00000000000E+00  0.25424286505E+04  0.25424286505E+04  0.25500000920E-02 0.  1.
        2   -1    0    0  501    0  0.00000000000E+00  0.00000000000E+00 -0.88389564362E+03  0.88389564362E+03  0.25500000920E-02 0. -1.
    10030    2    1    2    0    0  0.00000000000E+00  0.00000000000E+00  0.16585330069E+04  0.34263242942E+04  0.29981605083E+04 0.  0.
        5    1    3    3  502    0 -0.14453763269E+04 -0.62224853042E+02  0.12780789142E+04  0.19304125102E+04  0.46999998093E+01 0.  1.
       -5    1    3    3    0  502  0.14453763269E+04  0.62224853042E+02  0.38045409268E+03  0.14959117839E+04  0.46999998093E+01 0. -1.
</event>
<event>
 5   0  0.7208273E-07  0.2985810E+04  0.7818609E-02  0.8247795E-01
       -2   -1    0    0    0  501  0.00000000000E+00  0.00000000000E+00  0.15489497856E+04  0.15489497856E+04  0.25500000920E-02 0.  1.
        2   -1    0    0  501    0  0.00000000000E+00  0.00000000000E+00 -0.14388878715E+04  0.14388878715E+04  0.25500000920E-02 0. -1.
    10030    2    1    2    0    0  0.00000000000E+00  0.00000000000E+00  0.11006191409E+03  0.29878376572E+04  0.29858098132E+04 0.  0.
        4    1    3    3  502    0 -0.89994832377E+03 -0.11340163496E+04 -0.30972089419E+03  0.14804825942E+04  0.12699999809E+01 0. -1.
       -4    1    3    3    0  502  0.89994832377E+03  0.11340163496E+04  0.41978280828E+03  0.15073550629E+04  0.12699999809E+01 0.  1.
</event>
<event>
 5   0  0.2602891E-07  0.3002481E+04  0.7818609E-02  0.8243023E-01
        1   -1    0    0  501    0  0.00000000000E+00  0.00000000000E+00  0.20128179307E+04  0.20128179307E+04  0.50400001928E-02 0.  1.
       -1   -1    0    0    0  501  0.00000000000E+00  0.00000000000E+00 -0.11196851936E+04  0.11196851936E+04  0.50400001928E-02 0. -1.
    10030    2    1    2    0    0  0.00000000000E+00  0.00000000000E+00  0.89313273713E+03  0.31325031243E+04  0.30024805974E+04 0.  0.
        5    1    3    3  502    0  0.80892635219E+03 -0.98765996841E+03  0.12706230070E+04  0.18012048668E+04  0.46999998093E+01 0.  1.
       -5    1    3    3    0  502 -0.80892635219E+03  0.98765996841E+03 -0.37749026985E+03  0.13312982575E+04  0.46999998093E+01 0. -1.
</event>
<event>
 5   0  0.2414250E-07  0.3004710E+04  0.7818609E-02  0.8242387E-01
       -3   -1    0    0    0  501  0.00000000000E+00  0.00000000000E+00  0.13045657557E+04  0.13045657596E+04  0.10100000352E+00 0. -1.
        3   -1    0    0  501    0  0.00000000000E+00  0.00000000000E+00 -0.17301321973E+04  0.17301322002E+04  0.10100000352E+00 0.  1.
    10030    2    1    2    0    0  0.00000000000E+00  0.00000000000E+00 -0.42556644160E+03  0.30346979598E+04  0.30047104538E+04 0.  0.
        3    1    3    3  502    0 -0.13730040702E+03  0.83963249248E+03 -0.14633805692E+04  0.16927246748E+04  0.10100000352E+00 0.  1.
       -3    1    3    3    0  502  0.13730040702E+03 -0.83963249248E+03  0.10378141276E+04  0.13419732850E+04  0.10100000352E+00 0. -1.
</event>
<event>
 5   0  0.7307508E-07  0.2993397E+04  0.7818609E-02  0.8245619E-01
       -2   -1    0    0    0  501  0.00000000000E+00  0.00000000000E+00  0.86891288552E+03  0.86891288553E+03  0.25500000920E-02 0. -1.
        2   -1    0    0  501    0  0.00000000000E+00  0.00000000000E+00 -0.25780558369E+04  0.25780558369E+04  0.25500000920E-02 0.  1.
    10030    2    1    2    0    0  0.00000000000E+00  0.00000000000E+00 -0.17091429514E+04  0.34469687225E+04  0.29933966903E+04 0.  0.
        1    1    3    3  502    0 -0.14953307938E+04  0.63859335931E+02 -0.85030327416E+03  0.17213680187E+04  0.50400001928E-02 0. -1.
       -1    1    3    3    0  502  0.14953307938E+04 -0.63859335931E+02 -0.85883967726E+03  0.17256007038E+04  0.50400001928E-02 0.  1.
</event>
<event>
 5   0  0.7208273E-07  0.2995999E+04  0.7818609E-02  0.8244874E-01
        2   -1    0    0  501    0  0.00000000000E+00  0.00000000000E+00  0.78194452644E+03  0.78194452645E+03  0.25500000920E-02 0.  1.
       -2   -1    0    0    0  501  0.00000000000E+00  0.00000000000E+00 -0.28697714177E+04  0.28697714177E+04  0.25500000920E-02 0. -1.
    10030    2    1    2    0    0  0.00000000000E+00  0.00000000000E+00 -0.20878268913E+04  0.36517159442E+04  0.29959986998E+04 0.  0.
        4    1    3    3  502    0  0.13103844652E+04  0.33273441467E+03 -0.25759875680E+03  0.13762915279E+04  0.12699999809E+01 0.  1.
       -4    1    3    3    0  502 -0.13103844652E+04 -0.33273441467E+03 -0.18302281345E+04  0.22754244163E+04  0.12699999809E+01 0. -1.
</event>
<event>
 5   0  0.7208273E-07  0.2997202E+04  0.7818609E-02  0.8244530E-01
       -2   -1    0    0    0  501  0.00000000000E+00  0.00000000000E+00  0.12073945663E+04  0.12073945663E+04  0.25500000920E-02 0.  1.
        2   -1    0    0  501    0  0.00000000000E+00  0.00000000000E+00 -0.18600419855E+04  0.18600419855E+04  0.25500000920E-02 0. -1.
    10030    2    1    2    0    0  0.00000000000E+00  0.00000000000E+00 -0.65264741927E+03  0.30674365518E+04  0.29972017525E+04 0.  0.
        4    1    3    3  502    0  0.91637915561E+03 -0.59464129248E+02  0.88570681882E+03  0.12758389088E+04  0.12699999809E+01 0.  1.
       -4    1    3    3    0  502 -0.91637915561E+03  0.59464129248E+02 -0.15383542381E+04  0.17915976430E+04  0.12699999809E+01 0. -1.
</event>
<event>
 5   0  0.2640081E-07  0.3003268E+04  0.7818609E-02  0.8242798E-01
        1   -1    0    0  501    0  0.00000000000E+00  0.00000000000E+00  0.15489842652E+04  0.15489842652E+04  0.50400001928E-02 0.  1.
       -1   -1    0    0    0  501  0.00000000000E+00  0.00000000000E+00 -0.14557310605E+04  0.14557310605E+04  0.50400001928E-02 0. -1.
    10030    2    1    2    0    0  0.00000000000E+00  0.00000000000E+00  0.93253204726E+02  0.30047153257E+04  0.30032678915E+04 0.  0.
        1    1    3    3  502    0  0.10834054538E+04 -0.48850719924E+03  0.96494579008E+03  0.15308582687E+04  0.50400001928E-02 0.  1.
       -1    1    3    3    0  502 -0.10834054538E+04  0.48850719924E+03 -0.87169258536E+03  0.14738570570E+04  0.50400001928E-02 0. -1.
</event>
<event>
 5   0  0.2621825E-07  0.3004235E+04  0.7818609E-02  0.8242522E-01
       -1   -1    0    0    0  501  0.00000000000E+00  0.00000000000E+00  0.20384124818E+04  0.20384124818E+04  0.50400001928E-02 0. -1.
        1   -1    0    0  501    0  0.00000000000E+00  0.00000000000E+00 -0.11069190597E+04  0.11069190597E+04  0.50400001928E-02 0.  1.
    10030    2    1    2    0    0  0.00000000000E+00  0.00000000000E+00  0.93149342210E+03  0.31453315415E+04  0.30042354286E+04 0.  0.
        3    1    3    3  502    0  0.11892942382E+04  0.85963612091E+03  0.80169478714E+03  0.16721571658E+04  0.10100000352E+00 0.  1.
       -3    1    3    3    0  502 -0.11892942382E+04 -0.85963612091E+03  0.12979863496E+03  0.14731743757E+04  0.10100000352E+00 0. -1.
</event>
<event>
 5   0  0.2621825E-07  0.3001893E+04  0.7818609E-02  0.8243191E-01
        1   -1    0    0  501    0  0.00000000000E+00  0.00000000000E+00  0.15854104533E+04  0.15854104533E+04  0.50400001928E-02 0.  1.
       -1   -1    0    0    0  501  0.00000000000E+00  0.00000000000E+00 -0.14209824518E+04  0.14209824518E+04  0.50400001928E-02 0. -1.
    10030    2    1    2    0    0  0.00000000000E+00  0.00000000000E+00  0.16442800145E+03  0.30063929051E+04  0.30018930248E+04 0.  0.
        3    1    3    3  502    0 -0.12708428991E+02  0.14317956892E+04 -0.36861634327E+03  0.14785392854E+04  0.10100000352E+00 0.  1.
       -3    1    3    3    0  502  0.12708428991E+02 -0.14317956892E+04  0.53304434472E+03  0.15278536197E+04  0.10100000352E+00 0. -1.
</event>
<event>
 5   0  0.7208273E-07  0.2957716E+04  0.7818609E-02  0.8255909E-01
        2   -1    0    0  501    0  0.00000000000E+00  0.00000000000E+00  0.92183328638E+03  0.92183328638E+03  0.25500000920E-02 0. -1.
       -2   -1    0    0    0  501  0.00000000000E+00  0.00000000000E+00 -0.23724698084E+04  0.23724698084E+04  0.25500000920E-02 0.  1.
    10030    2    1    2    0    0  0.00000000000E+00  0.00000000000E+00 -0.14506365220E+04  0.32943030948E+04  0.29577164437E+04 0.  0.
        4    1    3    3  502    0  0.86478886003E+03 -0.73615093999E+03 -0.17803410180E+04  0.21117276653E+04  0.12699999809E+01 0.  1.
       -4    1    3    3    0  502 -0.86478886003E+03  0.73615093999E+03  0.32970449602E+03  0.11825754295E+04  0.12699999809E+01 0. -1.
</event>
<event>
 5   0  0.2792361E-07  0.2996030E+04  0.7818609E-02  0.8244866E-01
       -1   -1    0    0    0  501  0.00000000000E+00  0.00000000000E+00  0.11824123831E+04  0.11824123831E+04  0.50400001928E-02 0.  1.
        1   -1    0    0  501    0  0.00000000000E+00  0.00000000000E+00 -0.18978560876E+04  0.18978560876E+04  0.50400001928E-02 0. -1.
    10030    2    1    2    0    0  0.00000000000E+00  0.00000000000E+00 -0.71544370452E+03  0.30802684707E+04  0.29960297324E+04 0.  0.
        4    1    3    3  502    0  0.40257709399E+03  0.57946919240E+03  0.10008690606E+04  0.12245788463E+04  0.12699999809E+01 0.  1.
       -4    1    3    3    0  502 -0.40257709399E+03 -0.57946919240E+03 -0.17163127651E+04  0.18556896244E+04  0.12699999809E+01 0. -1.
</event>
<event>
 5   0  0.7307508E-07  0.3001276E+04  0.7818609E-02  0.8243367E-01
       -2   -1    0    0    0  501  0.00000000000E+00  0.00000000000E+00  0.12756532723E+04  0.12756532723E+04  0.25500000920E-02 0. -1.
        2   -1    0    0  501    0  0.00000000000E+00  0.00000000000E+00 -0.17653027798E+04  0.17653027798E+04  0.25500000920E-02 0.  1.
    10030    2    1    2    0    0  0.00000000000E+00  0.00000000000E+00 -0.48964950757E+03  0.30409560521E+04  0.30012759071E+04 0.  0.
        1    1    3    3  502    0  0.12151666661E+04 -0.86096189673E+02  0.64304354375E+03  0.13775150015E+04  0.50400001928E-02 0. -1.
       -1    1    3    3    0  502 -0.12151666661E+04  0.86096189673E+02 -0.11326930513E+04  0.16634410506E+04  0.50400001928E-02 0.  1.
</event>
<event>
 5   0  0.2602891E-07  0.2997335E+04  0.7818609E-02  0.8244492E-01
       -1   -1    0    0    0  501  0.00000000000E+00  0.00000000000E+00  0.14821990521E+04  0.14821990521E+04  0.50400001928E-02 0. -1.
        1   -1    0    0  501    0  0.00000000000E+00  0.00000000000E+00 -0.15153191821E+04  0.15153191821E+04  0.50400001928E-02 0.  1.
    10030    2    1    2    0    0  0.00000000000E+00  0.00000000000E+00 -0.33120129999E+02  0.29975182343E+04  0.29973352535E+04 0.  0.
        5    1    3    3  502    0 -0.10012331013E+04 -0.43821847084E+03 -0.10420393671E+04  0.15100898265E+04  0.46999998093E+01 0.  1.
       -5    1    3    3    0  502  0.10012331013E+04  0.43821847084E+03  0.10089192371E+04  0.14874284078E+04  0.46999998093E+01 0. -1.
</event>
<event>
 5   0  0.7399409E-07  0.3010100E+04  0.7818609E-02  0.8240853E-01
        2   -1    0    0  501    0  0.00000000000E+00  0.00000000000E+00  0.22853155788E+04  0.22853155788E+04  0.25500000920E-02 0.  1.
       -2   -1    0    0    0  501  0.00000000000E+00  0.00000000000E+00 -0.99118719125E+03  0.99118719125E+03  0.25500000920E-02 0. -1.
    10030    2    1    2    0    0  0.00000000000E+00  0.00000000000E+00  0.12941283875E+04  0.32765027700E+04  0.30101000180E+04 0.  0.
        3    1    3    3  502    0  0.10316018280E+03  0.61463888849E+03 -0.84412627261E+03  0.10492722053E+04  0.10100000352E+00 0. -1.
       -3    1    3    3    0  502 -0.10316018280E+03 -0.61463888849E+03  0.21382546601E+04  0.22272305647E+04  0.10100000352E+00 0.  1.
</event>
<event>
 5   0  0.7307508E-07  0.2999961E+04  0.7818609E-02  0.8243742E-01
        2   -1    0    0  501    0  0.00000000000E+00  0.00000000000E+00  0.20050158215E+04  0.20050158215E+04  0.25500000920E-02 0.  1.
       -2   -1    0    0    0  501  0.00000000000E+00  0.00000000000E+00 -0.11221565758E+04  0.11221565758E+04  0.25500000920E-02 0. -1.
    10030    2    1    2    0    0  0.00000000000E+00  0.00000000000E+00  0.88285924574E+03  0.31271723973E+04  0.29999611255E+04 0.  0.
        1    1    3    3  502    0 -0.13590697307E+04 -0.61356701602E+03  0.61082167801E+03  0.16114087434E+04  0.50400001928E-02 0.  1.
       -1    1    3    3    0  502  0.13590697307E+04  0.61356701602E+03  0.27203756773E+03  0.15157636538E+04  0.50400001928E-02 0. -1.
</event>
<event>
 5   0  0.2602891E-07  0.2999840E+04  0.7818609E-02  0.8243777E-01
       -1   -1    0    0    0  501  0.00000000000E+00  0.00000000000E+00  0.16266816876E+04  0.16266816876E+04  0.50400001928E-02 0.  1.
        1   -1    0    0  501    0  0.00000000000E+00  0.00000000000E+00 -0.13830365316E+04  0.13830365316E+04  0.50400001928E-02 0. -1.
    10030    2    1    2    0    0  0.00000000000E+00  0.00000000000E+00  0.24364515598E+03  0.30097182192E+04  0.29998401286E+04 0.  0.
        5    1    3    3  502    0  0.11325258835E+04  0.49810118557E+03  0.97256431881E+03  0.15737290466E+04  0.46999998093E+01 0.  1.
       -5    1    3    3    0  502 -0.11325258835E+04 -0.49810118557E+03 -0.72891916283E+03  0.14359891726E+04  0.46999998093E+01 0. -1.
</event>
<event>
 5   0  0.2679935E-07  0.2999083E+04  0.7818609E-02  0.8243993E-01
        1   -1    0    0  501    0  0.00000000000E+00  0.00000000000E+00  0.23797004095E+04  0.23797004095E+04  0.50400001928E-02 0.  1.
       -1   -1    0    0    0  501  0.00000000000E+00  0.00000000000E+00 -0.94491920721E+03  0.94491920722E+03  0.50400001928E-02 0. -1.
    10030    2    1    2    0    0  0.00000000000E+00  0.00000000000E+00  0.14347812023E+04  0.33246196167E+04  0.29990829427E+04 0.  0.
        2    1    3    3  502    0 -0.97893318106E+03 -0.48745363240E+03  0.18547729933E+04  0.21531614137E+04  0.25500000920E-02 0.  1.
       -2    1    3    3    0  502  0.97893318106E+03  0.48745363240E+03 -0.41999179108E+03  0.11714582030E+04  0.25500000920E-02 0. -1.
</event>
<event>
 5   0  0.7278657E-07  0.3001329E+04  0.7818609E-02  0.8243351E-01
       -2   -1    0    0    0  501  0.00000000000E+00  0.00000000000E+00  0.91890097281E+03  0.91890097282E+03  0.25500000920E-02 0.  1.
        2   -1    0    0  501    0  0.00000000000E+00  0.00000000000E+00 -0.24507477035E+04  0.24507477035E+04  0.25500000920E-02 0. -1.
    10030    2    1    2    0    0  0.00000000000E+00  0.00000000000E+00 -0.15318467307E+04  0.33696486764E+04  0.30013293381E+04 0.  0.
        2    1    3    3  502    0 -0.61717088386E+03 -0.28229262684E+02 -0.23013403296E+04  0.23828269144E+04  0.25500000920E-02 0. -1.
       -2    1    3    3    0  502  0.61717088386E+03  0.28229262684E+02  0.76949359889E+03  0.98682176197E+03  0.25500000920E-02 0.  1.
</event>
<event>
 5   0  0.7278657E-07  0.2998312E+04  0.7818609E-02  0.8244213E-01
        2   -1    0    0  501    0  0.00000000000E+00  0.00000000000E+00  0.20353329110E+04  0.20353329110E+04  0.25500000920E-02 0. -1.
       -2   -1    0    0    0  501  0.00000000000E+00  0.00000000000E+00 -0.11042266104E+04  0.11042266104E+04  0.25500000920E-02 0.  1.
    10030    2    1    2    0    0  0.00000000000E+00  0.00000000000E+00  0.93110630062E+03  0.31395595214E+04  0.29983120326E+04 0.  0.
        2    1    3    3  502    0  0.78768637261E+03 -0.10079637612E+04 -0.35295394392E+03  0.13270332520E+04  0.25500000920E-02 0. -1.
       -2    1    3    3    0  502 -0.78768637261E+03  0.10079637612E+04  0.12840602445E+04  0.18125262693E+04  0.25500000920E-02 0.  1.
</event>
<event>
 5   0  0.2621825E-07  0.3000774E+04  0.7818609E-02  0.8243510E-01
        1   -1    0    0  501    0  0.00000000000E+00  0.00000000000E+00  0.15075997470E+04  0.15075997470E+04  0.50400001928E-02 0. -1.
       -1   -1    0    0    0  501  0.00000000000E+00  0.00000000000E+00 -0.14932084040E+04  0.14932084040E+04  0.50400001928E-02 0.  1.
    10030    2    1    2    0    0  0.00000000000E+00  0.00000000000E+00  0.14391342983E+02  0.30008081510E+04  0.30007736416E+04 0.  0.
        3    1    3    3  502    0 -0.71266259510E+03  0.78866366586E+03 -0.10517226632E+04  0.14953256912E+04  0.10100000352E+00 0. -1.
       -3    1    3    3    0  502  0.71266259510E+03 -0.78866366586E+03  0.10661140062E+04  0.15054824598E+04  0.10100000352E+00 0.  1.
</event>
<event>
 5   0  0.2679935E-07  0.3002099E+04  0.7818609E-02  0.8243132E-01
       -1   -1    0    0    0  501  0.00000000000E+00  0.00000000000E+00  0.11631638926E+04  0.11631638926E+04  0.50400001928E-02 0. -1.
        1   -1    0    0  501    0  0.00000000000E+00  0.00000000000E+00 -0.19370872234E+04  0.19370872234E+04  0.50400001928E-02 0.  1.
    10030    2    1    2    0    0  0.00000000000E+00  0.00000000000E+00 -0.77392333077E+03  0.31002511160E+04  0.30020992089E+04 0.  0.
        2    1    3    3  502    0 -0.26531554263E+03 -0.43444810171E+03  0.10713010182E+04  0.11860958485E+04  0.25500000920E-02 0. -1.
       -2    1    3    3    0  502  0.26531554263E+03  0.43444810171E+03 -0.18452243489E+04  0.19141552675E+04  0.25500000920E-02 0.  1.
</event>
<event>
 5   0  0.7307508E-07  0.2998977E+04  0.7818609E-02  0.8244023E-01
        2   -1    0    0  501    0  0.00000000000E+00  0.00000000000E+00  0.17322938660E+04  0.17322938660E+04  0.25500000920E-02 0. -1.
       -2   -1    0    0    0  501  0.00000000000E+00  0.00000000000E+00 -0.12979703216E+04  0.12979703216E+04  0.25500000920E-02 0.  1.
    10030    2    1    2    0    0  0.00000000000E+00  0.00000000000E+00  0.43432354441E+03  0.30302641875E+04  0.29989771765E+04 0.  0.
        1    1    3    3  502    0  0.52765451285E+02 -0.16516267675E+02  0.17312635405E+04  0.17321461909E+04  0.50400001928E-02 0. -1.
       -1    1    3    3    0  502 -0.52765451285E+02  0.16516267675E+02 -0.12969399960E+04  0.12981179967E+04  0.50400001928E-02 0.  1.
</event>
<event>
 5   0  0.2792361E-07  0.3005120E+04  0.7818609E-02  0.8242270E-01
        1   -1    0    0  501    0  0.00000000000E+00  0.00000000000E+00  0.11125915915E+04  0.11125915915E+04  0.50400001928E-02 0.  1.
       -1   -1    0    0    0  501  0.00000000000E+00  0.00000000000E+00 -0.20292142878E+04  0.20292142878E+04  0.50400001928E-02 0. -1.
    10030    2    1    2    0    0  0.00000000000E+00  0.00000000000E+00 -0.91662269634E+03  0.31418058793E+04  0.30051201334E+04 0.  0.
        4    1    3    3  502    0 -0.35720446045E+03  0.48072087983E+03  0.98240907347E+03  0.11505723756E+04  0.12699999809E+01 0.  1.
       -4    1    3    3    0  502  0.35720446045E+03 -0.48072087983E+03 -0.18990317698E+04  0.19912335038E+04  0.12699999809E+01 0. -1.
</event>
<event>
 5   0  0.7307508E-07  0.2988635E+04  0.7818609E-02  0.8246984E-01
        2   -1    0    0  501    0  0.00000000000E+00  0.00000000000E+00  0.20571669356E+04  0.20571669356E+04  0.25500000920E-02 0.  1.
       -2   -1    0    0    0  501  0.00000000000E+00  0.00000000000E+00 -0.10854660917E+04  0.10854660917E+04  0.25500000920E-02 0. -1.
    10030    2    1    2    0    0  0.00000000000E+00  0.00000000000E+00  0.97170084391E+03  0.31426330273E+04  0.29886351089E+04 0.  0.
        1    1    3    3  502    0 -0.11460530372E+04  0.66064994283E+03  0.12167107186E+04  0.17972982178E+04  0.50400001928E-02 0.  1.
       -1    1    3    3    0  502  0.11460530372E+04 -0.66064994283E+03 -0.24500987469E+03  0.13453348095E+04  0.50400001928E-02 0. -1.
</event>
<event>
 5   0  0.2640081E-07  0.3013687E+04  0.7818609E-02  0.8239833E-01
       -1   -1    0    0    0  501  0.00000000000E+00  0.00000000000E+00  0.22058376142E+04  0.22058376142E+04  0.50400001928E-02 0. -1.
        1   -1    0    0  501    0  0.00000000000E+00  0.00000000000E+00 -0.10293491461E+04  0.10293491461E+04  0.50400001928E-02 0.  1.
    10030    2    1    2    0    0  0.00000000000E+00  0.00000000000E+00  0.11764884681E+04  0.32351867604E+04  0.30136868216E+04 0.  0.
        1    1    3    3  502    0 -0.12889594735E+04  0.72022895601E+03  0.26542499984E+03  0.15001988881E+04  0.50400001928E-02 0.  1.
       -1    1    3    3    0  502  0.12889594735E+04 -0.72022895601E+03  0.91106346829E+03  0.17349878722E+04  0.50400001928E-02 0. -1.
</event>
<event>
 5   0  0.7208273E-07  0.2999538E+04  0.7818609E-02  0.8243863E-01
       -2   -1    0    0    0  501  0.00000000000E+00  0.00000000000E+00  0.13306290305E+04  0.13306290305E+04  0.25500000920E-02 0.  1.
        2   -1    0    0  501    0  0.00000000000E+00  0.00000000000E+00 -0.16904084770E+04  0.16904084770E+04  0.25500000920E-02 0. -1.
    10030    2    1    2    0    0  0.00000000000E+00  0.00000000000E+00 -0.35977944657E+03  0.30210375075E+04  0.29995376930E+04 0.  0.
        4    1    3    3  502    0 -0.49136509607E+03 -0.76441425465E+03  0.10217825667E+04  0.13674099739E+04  0.12699999809E+01 0.  1.
       -4    1    3    3    0  502  0.49136509607E+03  0.76441425465E+03 -0.13815620133E+04  0.16536275336E+04  0.12699999809E+01 0. -1.
</event>
<event>
 5   0  0.2414250E-07  0.2999072E+04  0.7818609E-02  0.8243996E-01
       -3   -1    0    0    0  501  0.00000000000E+00  0.00000000000E+00  0.14139644765E+04  0.14139644801E+04  0.10100000352E+00 0.  1.
        3   -1    0    0  501    0  0.00000000000E+00  0.00000000000E+00 -0.15902857649E+04  0.15902857682E+04  0.10100000352E+00 0. -1.
    10030    2    1    2    0    0  0.00000000000E+00  0.00000000000E+00 -0.17632128845E+03  0.30042502483E+04  0.29990715826E+04 0.  0.
        1    1    3    3  502    0 -0.16254580262E+03 -0.14409039450E+04 -0.47089666220E+03  0.15245881356E+04  0.50400001928E-02 0. -1.
       -1    1    3    3    0  502  0.16254580262E+03  0.14409039450E+04  0.29457537375E+03  0.14796621126E+04  0.50400001928E-02 0.  1.
</event>
<event>
 5   0  0.7399409E-07  0.3003273E+04  0.7818609E-02  0.8242797E-01
       -2   -1    0    0    0  501  0.00000000000E+00  0.00000000000E+00  0.13953354321E+04  0.13953354321E+04  0.25500000920E-02 0. -1.
        2   -1    0    0  501    0  0.00000000000E+00  0.00000000000E+00 -0.16160360117E+04  0.16160360117E+04  0.25500000920E-02 0.  1.
    10030    2    1    2    0    0  0.00000000000E+00  0.00000000000E+00 -0.22070057958E+03  0.30113714438E+04  0.30032730856E+04 0.  0.
        3    1    3    3  502    0  0.13435176754E+04  0.58304232996E+03 -0.44280761124E+03  0.15300512062E+04  0.10100000352E+00 0.  1.
       -3    1    3    3    0  502 -0.13435176754E+04 -0.58304232996E+03  0.22210703166E+03  0.14813202376E+04  0.10100000352E+00 0. -1.
</event>
<event>
 5   0  0.7278657E-07  0.3000205E+04  0.7818609E-02  0.8243672E-01
       -2   -1    0    0    0  501  0.00000000000E+00  0.00000000000E+00  0.13627664677E+04  0.13627664677E+04  0.25500000920E-02 0.  1.
        2   -1    0    0  501    0  0.00000000000E+00  0.00000000000E+00 -0.16512793506E+04  0.16512793506E+04  0.25500000920E-02 0. -1.
    10030    2    1    2    0    0  0.00000000000E+00  0.00000000000E+00 -0.28851288291E+03  0.30140458183E+04  0.30002054115E+04 0.  0.
        2    1    3    3  502    0 -0.64047727695E+03 -0.11205443795E+04  0.62378150271E+03  0.14335041723E+04  0.25500000920E-02 0.  1.
       -2    1    3    3    0  502  0.64047727695E+03  0.11205443795E+04 -0.91229438562E+03  0.15805416460E+04  0.25500000920E-02 0. -1.
</event>
<event>
 5   0  0.7307508E-07  0.2996208E+04  0.7818609E-02  0.8244815E-01
        2   -1    0    0  501    0  0.00000000000E+00  0.00000000000E+00  0.17901923860E+04  0.17901923860E+04  0.25500000920E-02 0.  1.
       -2   -1    0    0    0  501  0.00000000000E+00  0.00000000000E+00 -0.12536724666E+04  0.12536724666E+04  0.25500000920E-02 0. -1.
    10030    2    1    2    0    0  0.00000000000E+00  0.00000000000E+00  0.53651991938E+03  0.30438648526E+04  0.29962075391E+04 0.  0.
        1    1    3    3  502    0  0.83554299446E+03 -0.43286991793E+03  0.14524796342E+04  0.17306662154E+04  0.50400001928E-02 0.  1.
       -1    1    3    3    0  502 -0.83554299446E+03  0.43286991793E+03 -0.91595971485E+03  0.13131986372E+04  0.50400001928E-02 0. -1.
</event>
<event>
 5   0  0.2792361E-07  0.2998809E+04  0.7818609E-02  0.8244071E-01
       -1   -1    0    0    0  501  0.00000000000E+00  0.00000000000E+00  0.15775927644E+04  0.15775927644E+04  0.50400001928E-02 0.  1.
        1   -1    0    0  501    0  0.00000000000E+00  0.00000000000E+00 -0.14250911711E+04  0.14250911711E+04  0.50400001928E-02 0. -1.
    10030    2    1    2    0    0  0.00000000000E+00  0.00000000000E+00  0.15250159335E+03  0.30026839355E+04  0.29988087769E+04 0.  0.
        4    1    3    3  502    0  0.58409351663E+03 -0.13396942927E+04  0.41174477281E+03  0.15183811790E+04  0.12699999809E+01 0.  1.
       -4    1    3    3    0  502 -0.58409351663E+03  0.13396942927E+04 -0.25924317946E+03  0.14843027565E+04  0.12699999809E+01 0. -1.
</event>
<event>
 5   0  0.7278657E-07  0.3003979E+04  0.7818609E-02  0.8242595E-01
        2   -1    0    0  501    0  0.00000000000E+00  0.00000000000E+00  0.14356661013E+04  0.14356661013E+04  0.25500000920E-02 0.  1.
       -2   -1    0    0    0  501  0.00000000000E+00  0.00000000000E+00 -0.15713771918E+04  0.15713771918E+04  0.25500000920E-02 0. -1.
    10030    2    1    2    0    0  0.00000000000E+00  0.00000000000E+00 -0.13571109051E+03  0.30070432931E+04  0.30039793385E+04 0.  0.
        2    1    3    3  502    0  0.56130597422E+03 -0.59769750128E+03  0.11918660444E+04  0.14466690595E+04  0.25500000920E-02 0.  1.
       -2    1    3    3    0  502 -0.56130597422E+03  0.59769750128E+03 -0.13275771349E+04  0.15603742336E+04  0.25500000920E-02 0. -1.
</event>
<event>
 5   0  0.2602891E-07  0.2999552E+04  0.7818609E-02  0.8243859E-01
        1   -1    0    0  501    0  0.00000000000E+00  0.00000000000E+00  0.20794347799E+04  0.20794347799E+04  0.50400001928E-02 0. -1.
       -1   -1    0    0    0  501  0.00000000000E+00  0.00000000000E+00 -0.10817019324E+04  0.10817019324E+04  0.50400001928E-02 0.  1.
    10030    2    1    2    0    0  0.00000000000E+00  0.00000000000E+00  0.99773284750E+03  0.31611367123E+04  0.29995523797E+04 0.  0.
        5    1    3    3  502    0  0.92347676016E+03 -0.11790733814E+04  0.58240287810E+03  0.16069345250E+04  0.46999998093E+01 0.  1.
       -5    1    3    3    0  502 -0.92347676016E+03  0.11790733814E+04  0.41532996940E+03  0.15542021872E+04  0.46999998093E+01 0. -1.
</event>
<event>
 5   0  0.2792361E-07  0.3000441E+04  0.7818609E-02  0.8243605E-01
       -1   -1    0    0    0  501  0.00000000000E+00  0.00000000000E+00  0.98500459889E+03  0.98500459891E+03  0.50400001928E-02 0.  1.
        1   -1    0    0  501    0  0.00000000000E+00  0.00000000000E+00 -0.22849241822E+04  0.22849241822E+04  0.50400001928E-02 0. -1.
    10030    2    1    2    0    0  0.00000000000E+00  0.00000000000E+00 -0.12999195833E+04  0.32699287811E+04  0.30004405194E+04 0.  0.
        4    1    3    3  502    0  0.68996851020E+03  0.13318490164E+04 -0.61950596747E+03  0.16228578509E+04  0.12699999809E+01 0. -1.
       -4    1    3    3    0  502 -0.68996851020E+03 -0.13318490164E+04 -0.68041361580E+03  0.16470709302E+04  0.12699999809E+01 0.  1.
</event>
<event>
 5   0  0.2679935E-07  0.3001178E+04  0.7818609E-02  0.8243395E-01
        1   -1    0    0  501    0  0.00000000000E+00  0.00000000000E+00  0.19955352503E+04  0.19955352503E+04  0.50400001928E-02 0.  1.
       -1   -1    0    0    0  501  0.00000000000E+00  0.00000000000E+00 -0.11284025120E+04  0.11284025120E+04  0.50400001928E-02 0. -1.
    10030    2    1    2    0    0  0.00000000000E+00  0.00000000000E+00  0.86713273830E+03  0.31239377623E+04  0.30011777617E+04 0.  0.
        2    1    3    3  502    0  0.14147106209E+04 -0.77081125274E+02  0.94817663334E+03  0.17048127665E+04  0.25500000920E-02 0.  1.
       -2    1    3    3    0  502 -0.14147106209E+04  0.77081125274E+02 -0.81043895035E+02  0.14191249958E+04  0.25500000920E-02 0. -1.
</event>
<event>
 5   0  0.2602891E-07  0.2990146E+04  0.7818609E-02  0.8246550E-01
       -1   -1    0    0    0  501  0.00000000000E+00  0.00000000000E+00  0.11754546456E+04  0.11754546456E+04  0.50400001928E-02 0. -1.
        1   -1    0    0  501    0  0.00000000000E+00  0.00000000000E+00 -0.19015988305E+04  0.19015988305E+04  0.50400001928E-02 0.  1.
    10030    2    1    2    0    0  0.00000000000E+00  0.00000000000E+00 -0.72614418485E+03  0.30770534761E+04  0.29901459359E+04 0.  0.
        5    1    3    3  502    0 -0.59114031401E+03  0.70332294583E+02 -0.17743649777E+04  0.18715733132E+04  0.46999998093E+01 0.  1.
       -5    1    3    3    0  502  0.59114031401E+03 -0.70332294583E+02  0.10482207929E+04  0.12054801629E+04  0.46999998093E+01 0. -1.
</event>
<event>
 5   0  0.7307508E-07  0.2997447E+04  0.7818609E-02  0.8244460E-01
        2   -1    0    0  501    0  0.00000000000E+00  0.00000000000E+00  0.19258244511E+04  0.19258244511E+04  0.25500000920E-02 0.  1.
       -2   -1    0    0    0  501  0.00000000000E+00  0.00000000000E+00 -0.11663432905E+04  0.11663432905E+04  0.25500000920E-02 0. -1.
    10030    2    1    2    0    0  0.00000000000E+00  0.00000000000E+00  0.75948116062E+03  0.30921677416E+04  0.29974471987E+04 0.  0.
        1    1    3    3  502    0 -0.95076655912E+02 -0.42133789006E+02  0.19220979330E+04  0.19249091643E+04  0.50400001928E-02 0.  1.
       -1    1    3    3    0  502  0.95076655912E+02  0.42133789006E+02 -0.11626167724E+04  0.11672585773E+04  0.50400001928E-02 0. -1.
</event>
<event>
 5   0  0.7208273E-07  0.3012840E+04  0.7818609E-02  0.8240074E-01
        2   -1    0    0  501    0  0.00000000000E+00  0.00000000000E+00  0.17370592397E+04  0.17370592397E+04  0.25500000920E-02 0.  1.
       -2   -1    0    0    0  501  0.00000000000E+00  0.00000000000E+00 -0.13064037462E+04  0.13064037462E+04  0.25500000920E-02 0. -1.
    10030    2    1    2    0    0  0.00000000000E+00  0.00000000000E+00  0.43065549345E+03  0.30434629859E+04  0.30128396560E+04 0.  0.
        4    1    3    3  502    0  0.10258910998E+04  0.10660050691E+04 -0.71245245904E+02  0.14811808984E+04  0.12699999809E+01 0. -1.
       -4    1    3    3    0  502 -0.10258910998E+04 -0.10660050691E+04  0.50190073935E+03  0.15622820875E+04  0.12699999809E+01 0.  1.
</event>
<event>
 5   0  0.7399409E-07  0.3004153E+04  0.7818609E-02  0.8242546E-01
       -2   -1    0    0    0  501  0.00000000000E+00  0.00000000000E+00  0.72123876247E+03  0.72123876247E+03  0.25500000920E-02 0.  1.
        2   -1    0    0  501    0  0.00000000000E+00  0.00000000000E+00 -0.31282757053E+04  0.31282757053E+04  0.25500000920E-02 0. -1.
    10030    2    1    2    0    0  0.00000000000E+00  0.00000000000E+00 -0.24070369429E+04  0.38495144678E+04  0.30041529245E+04 0.  0.
        3    1    3    3  502    0  0.10891962558E+04 -0.95376842539E+03 -0.69062156574E+03  0.16040513864E+04  0.10100000352E+00 0.  1.
       -3    1    3    3    0  502 -0.10891962558E+04  0.95376842539E+03 -0.17164153771E+04  0.22454630814E+04  0.10100000352E+00 0. -1.
</event>
<event>
 5   0  0.2679935E-07  0.3001969E+04  0.7818609E-02  0.8243169E-01
        1   -1    0    0  501    0  0.00000000000E+00  0.00000000000E+00  0.13169835182E+04  0.13169835182E+04  0.50400001928E-02 0.  1.
       -1   -1    0    0    0  501  0.00000000000E+00  0.00000000000E+00 -0.17106927823E+04  0.17106927823E+04  0.50400001928E-02 0. -1.
    10030    2    1    2    0    0  0.00000000000E+00  0.00000000000E+00 -0.39370926409E+03  0.30276763005E+04  0.30019688200E+04 0.  0.
        2    1    3    3  502    0 -0.78380856383E+02  0.23576810070E+03 -0.16898094220E+04  0.17079771775E+04  0.25500000920E-02 0. -1.
       -2    1    3    3    0  502  0.78380856383E+02 -0.23576810070E+03  0.12961001579E+04  0.13196991230E+04  0.25500000920E-02 0.  1.
</event>
<event>
 5   0  0.2679935E-07  0.2996552E+04  0.7818609E-02  0.8244716E-01
       -1   -1    0    0    0  501  0.00000000000E+00  0.00000000000E+00  0.95116597001E+03  0.95116597002E+03  0.50400001928E-02 0.  1.
        1   -1    0    0  501    0  0.00000000000E+00  0.00000000000E+00 -0.23600840804E+04  0.23600840804E+04  0.50400001928E-02 0. -1.
    10030    2    1    2    0    0  0.00000000000E+00  0.00000000000E+00 -0.14089181103E+04  0.33112500504E+04  0.29965524615E+04 0.  0.
        2    1    3    3  502    0 -0.92552525539E+03  0.95840057033E+03  0.52865023327E+02  0.13333879264E+04  0.25500000920E-02 0.  1.
       -2    1    3    3    0  502  0.92552525539E+03 -0.95840057033E+03 -0.14617831337E+04  0.19778621240E+04  0.25500000920E-02 0. -1.
</event>
<event>
 5   0  0.2414250E-07  0.2999589E+04  0.7818609E-02  0.8243848E-01
       -3   -1    0    0    0  501  0.00000000000E+00  0.00000000000E+00  0.22315478227E+04  0.22315478250E+04  0.10100000352E+00 0. -1.
        3   -1    0    0  501    0  0.00000000000E+00  0.00000000000E+00 -0.10079924634E+04  0.10079924684E+04  0.10100000352E+00 0.  1.
    10030    2    1    2    0    0  0.00000000000E+00  0.00000000000E+00  0.12235553594E+04  0.32395402935E+04  0.29995889044E+04 0.  0.
        1    1    3    3  502    0  0.14063173938E+04  0.37250368798E+03  0.21806694368E+03  0.14710679120E+04  0.50400001928E-02 0. -1.
       -1    1    3    3    0  502 -0.14063173938E+04 -0.37250368798E+03  0.10054884157E+04  0.17684723814E+04  0.50400001928E-02 0.  1.
</event>
<event>
 5   0  0.2792361E-07  0.2998797E+04  0.7818609E-02  0.8244074E-01
       -1   -1    0    0    0  501  0.00000000000E+00  0.00000000000E+00  0.99077301401E+03  0.99077301402E+03  0.50400001928E-02 0. -1.
        1   -1    0    0  501    0  0.00000000000E+00  0.00000000000E+00 -0.22691333240E+04  0.22691333240E+04  0.50400001928E-02 0.  1.
    10030    2    1    2    0    0  0.00000000000E+00  0.00000000000E+00 -0.12783603100E+04  0.32599063380E+04  0.29987971339E+04 0.  0.
        4    1    3    3  502    0  0.78306767346E+03 -0.15662831416E+03  0.74035875927E+03  0.10889720453E+04  0.12699999809E+01 0. -1.
       -4    1    3    3    0  502 -0.78306767346E+03  0.15662831416E+03 -0.20187190692E+04  0.21709342927E+04  0.12699999809E+01 0.  1.
</event>
<event>
 5   0  0.2621825E-07  0.3006090E+04  0.7818609E-02  0.8241994E-01
       -1   -1    0    0    0  501  0.00000000000E+00  0.00000000000E+00  0.16000960589E+04  0.16000960589E+04  0.50400001928E-02 0.  1.
        1   -1    0    0  501    0  0.00000000000E+00  0.00000000000E+00 -0.14118805464E+04  0.14118805464E+04  0.50400001928E-02 0. -1.
    10030    2    1    2    0    0  0.00000000000E+00  0.00000000000E+00  0.18821551250E+03  0.30119766054E+04  0.30060901504E+04 0.  0.
        3    1    3    3  502    0  0.44751147595E+03 -0.14207960339E+04 -0.10682569867E+03  0.14934321649E+04  0.10100000352E+00 0.  1.
       -3    1    3    3    0  502 -0.44751147595E+03  0.14207960339E+04  0.29504121117E+03  0.15185444404E+04  0.10100000352E+00 0. -1.
</event>
<event>
 5   0  0.7208273E-07  0.3007776E+04  0.7818609E-02  0.8241514E-01
       -2   -1    0    0    0  501  0.00000000000E+00  0.00000000000E+00  0.13070534898E+04  0.13070534898E+04  0.25500000920E-02 0. -1.
        2   -1    0    0  501    0  0.00000000000E+00  0.00000000000E+00 -0.17303640948E+04  0.17303640948E+04  0.25500000920E-02 0.  1.
    10030    2    1    2    0    0  0.00000000000E+00  0.00000000000E+00 -0.42331060499E+03  0.30374175846E+04  0.30077755427E+04 0.  0.
        4    1    3    3  502    0  0.12406352466E+04  0.84996452687E+03 -0.20374845468E+03  0.15176068521E+04  0.12699999809E+01 0. -1.
       -4    1    3    3    0  502 -0.12406352466E+04 -0.84996452687E+03 -0.21956215031E+03  0.15198107325E+04  0.12699999809E+01 0.  1.
</event>
<event>
 5   0  0.7585823E-07  0.3000976E+04  0.7818609E-02  0.8243452E-01
       -2   -1    0    0    0  501  0.00000000000E+00  0.00000000000E+00  0.79720458872E+03  0.79720458872E+03  0.25500000920E-02 0. -1.
        2   -1    0    0  501    0  0.00000000000E+00  0.00000000000E+00 -0.28241980978E+04  0.28241980978E+04  0.25500000920E-02 0.  1.
    10030    2    1    2    0    0  0.00000000000E+00  0.00000000000E+00 -0.20269935091E+04  0.36214026865E+04  0.30009756300E+04 0.  0.
        5    1    3    3  502    0 -0.60396010426E+03  0.92532261084E+03 -0.22384745109E+04  0.24963533339E+04  0.46999998093E+01 0.  1.
       -5    1    3    3    0  502  0.60396010426E+03 -0.92532261084E+03  0.21148100184E+03  0.11250493526E+04  0.46999998093E+01 0. -1.
</event>
<event>
 5   0  0.2602891E-07  0.2998832E+04  0.7818609E-02  0.8244065E-01
        1   -1    0    0  501    0  0.00000000000E+00  0.00000000000E+00  0.14317693039E+04  0.14317693040E+04  0.50400001928E-02 0. -1.
       -1   -1    0    0    0  501  0.00000000000E+00  0.00000000000E+00 -0.15702583787E+04  0.15702583787E+04  0.50400001928E-02 0.  1.
    10030    2    1    2    0    0  0.00000000000E+00  0.00000000000E+00 -0.13848907471E+03  0.30020276826E+04  0.29988316030E+04 0.  0.
        5    1    3    3  502    0 -0.59401744158E+03 -0.21869158502E+03 -0.14299366973E+04  0.15637850807E+04  0.46999998093E+01 0.  1.
       -5    1    3    3    0  502  0.59401744158E+03  0.21869158502E+03  0.12914476226E+04  0.14382426020E+04  0.46999998093E+01 0. -1.
</event>
<event>
 5   0  0.7307508E-07  0.3009937E+04  0.7818609E-02  0.8240899E-01
       -2   -1    0    0    0  501  0.00000000000E+00  0.00000000000E+00  0.10309713292E+04  0.10309713292E+04  0.25500000920E-02 0. -1.
        2   -1    0    0  501    0  0.00000000000E+00  0.00000000000E+00 -0.21968889322E+04  0.21968889322E+04  0.25500000920E-02 0.  1.
    10030    2    1    2    0    0  0.00000000000E+00  0.00000000000E+00 -0.11659176031E+04  0.32278602614E+04  0.30099365459E+04 0.  0.
        1    1    3    3  502    0 -0.11600080974E+04 -0.31829861103E+03 -0.15528726580E+04  0.19642673656E+04  0.50400001928E-02 0.  1.
       -1    1    3    3    0  502  0.11600080974E+04  0.31829861103E+03  0.38695505491E+03  0.12635928958E+04  0.50400001928E-02 0. -1.
</event>
<event>
 5   0  0.7278657E-07  0.3002845E+04  0.7818609E-02  0.8242919E-01
        2   -1    0    0  501    0  0.00000000000E+00  0.00000000000E+00  0.17204659014E+04  0.17204659014E+04  0.25500000920E-02 0. -1.
       -2   -1    0    0    0  501  0.00000000000E+00  0.00000000000E+00 -0.13102667129E+04  0.13102667129E+04  0.25500000920E-02 0.  1.
    10030    2    1    2    0    0  0.00000000000E+00  0.00000000000E+00  0.41019918845E+03  0.30307326143E+04  0.30028447854E+04 0.  0.
        2    1    3    3  502    0 -0.60459008977E+03  0.56545171623E+03  0.14693317029E+04  0.16864757553E+04  0.25500000920E-02 0. -1.
       -2    1    3    3    0  502  0.60459008977E+03 -0.56545171623E+03 -0.10591325144E+04  0.13442568591E+04  0.25500000920E-02 0.  1.
</event>
<event>
 5   0  0.7278657E-07  0.2996212E+04  0.7818609E-02  0.8244814E-01
        2   -1    0    0  501    0  0.00000000000E+00  0.00000000000E+00  0.25951589527E+04  0.25951589527E+04  0.25500000920E-02 0. -1.
       -2   -1    0    0    0  501  0.00000000000E+00  0.00000000000E+00 -0.86481059268E+03  0.86481059269E+03  0.25500000920E-02 0.  1.
    10030    2    1    2    0    0  0.00000000000E+00  0.00000000000E+00  0.17303483600E+04  0.34599695454E+04  0.29962115760E+04 0.  0.
        2    1    3    3  502    0 -0.96792229098E+03  0.51617410585E+03  0.20433974622E+04  0.23192202262E+04  0.25500000920E-02 0. -1.
       -2    1    3    3    0  502  0.96792229098E+03 -0.51617410585E+03 -0.31304910217E+03  0.11407493192E+04  0.25500000920E-02 0.  1.
</event>
<event>
 5   0  0.2792361E-07  0.2999328E+04  0.7818609E-02  0.8243923E-01
       -1   -1    0    0    0  501  0.00000000000E+00  0.00000000000E+00  0.12200196761E+04  0.12200196761E+04  0.50400001928E-02 0.  1.
        1   -1    0    0  501    0  0.00000000000E+00  0.00000000000E+00 -0.18434068039E+04  0.18434068039E+04  0.50400001928E-02 0. -1.
    10030    2    1    2    0    0  0.00000000000E+00  0.00000000000E+00 -0.62338712779E+03  0.30634264799E+04  0.29993283059E+04 0.  0.
        4    1    3    3  502    0  0.46363213081E+03 -0.44531380476E+03  0.10721534278E+04  0.12501094845E+04  0.12699999809E+01 0.  1.
       -4    1    3    3    0  502 -0.46363213081E+03  0.44531380476E+03 -0.16955405556E+04  0.18133169955E+04  0.12699999809E+01 0. -1.
</event>
<event>
 5   0  0.2640081E-07  0.2997342E+04  0.7818609E-02  0.8244490E-01
        1   -1    0    0  501    0  0.00000000000E+00  0.00000000000E+00  0.14231805250E+04  0.14231805250E+04  0.50400001928E-02 0. -1.
       -1   -1    0    0    0  501  0.00000000000E+00  0.00000000000E+00 -0.15781656519E+04  0.15781656519E+04  0.50400001928E-02 0.  1.
    10030    2    1    2    0    0  0.00000000000E+00  0.00000000000E+00 -0.15498512696E+03  0.30013461769E+04  0.29973419031E+04 0.  0.
        1    1    3    3  502    0  0.22541503750E+03  0.10240540010E+04  0.99469281607E+03  0.14453070036E+04  0.50400001928E-02 0. -1.
       -1    1    3    3    0  502 -0.22541503750E+03 -0.10240540010E+04 -0.11496779430E+04  0.15560391733E+04  0.50400001928E-02 0.  1.
</event>
<event>
 5   0  0.7585823E-07  0.3003864E+04  0.7818609E-02  0.8242628E-01
       -2   -1    0    0    0  501  0.00000000000E+00  0.00000000000E+00  0.10820541443E+04  0.10820541443E+04  0.25500000920E-02 0. -1.
        2   -1    0    0  501    0  0.00000000000E+00  0.00000000000E+00 -0.20847388057E+04  0.20847388057E+04  0.25500000920E-02 0.  1.
    10030    2    1    2    0    0  0.00000000000E+00  0.00000000000E+00 -0.10026846614E+04  0.31667929500E+04  0.30038643542E+04 0.  0.
        5    1    3    3  502    0 -0.11260233279E+04 -0.45924797667E+03  0.42790934786E+03  0.12891725016E+04  0.46999998093E+01 0. -1.
       -5    1    3    3    0  502  0.11260233279E+04  0.45924797667E+03 -0.14305940092E+04  0.18776204484E+04  0.46999998093E+01 0.  1.
</event>
<event>
 5   0  0.2602891E-07  0.2988267E+04  0.7818609E-02  0.8247089E-01
       -1   -1    0    0    0  501  0.00000000000E+00  0.00000000000E+00  0.13711818609E+04  0.13711818609E+04  0.50400001928E-02 0. -1.
        1   -1    0    0  501    0  0.00000000000E+00  0.00000000000E+00 -0.16281097205E+04  0.16281097205E+04  0.50400001928E-02 0.  1.
    10030    2    1    2    0    0  0.00000000000E+00  0.00000000000E+00 -0.25692785959E+03  0.29992915814E+04  0.29882667326E+04 0.  0.
        5    1    3    3  502    0 -0.23504484360E+03  0.20240576858E+03  0.13385022661E+04  0.13739812881E+04  0.46999998093E+01 0. -1.
       -5    1    3    3    0  502  0.23504484360E+03 -0.20240576858E+03 -0.15954301257E+04  0.16253102933E+04  0.46999998093E+01 0.  1.
</event>
<event>
 5   0  0.7278657E-07  0.2958482E+04  0.7818609E-02  0.8255687E-01
       -2   -1    0    0    0  501  0.00000000000E+00  0.00000000000E+00  0.10469144350E+04  0.10469144350E+04  0.25500000920E-02 0.  1.
        2   -1    0    0  501    0  0.00000000000E+00  0.00000000000E+00 -0.20900978210E+04  0.20900978210E+04  0.25500000920E-02 0. -1.
    10030    2    1    2    0    0  0.00000000000E+00  0.00000000000E+00 -0.10431833860E+04  0.31370122560E+04  0.29584817588E+04 0.  0.
        2    1    3    3  502    0  0.88324304837E+03 -0.82256525404E+03  0.38524950071E+03  0.12669447728E+04  0.25500000920E-02 0.  1.
       -2    1    3    3    0  502 -0.88324304837E+03  0.82256525404E+03 -0.14284328867E+04  0.18700674831E+04  0.25500000920E-02 0. -1.
</event>
<event>
 5   0  0.7208273E-07  0.2997122E+04  0.7818609E-02  0.8244553E-01
        2   -1    0    0  501    0  0.00000000000E+00  0.00000000000E+00  0.14970814269E+04  0.14970814269E+04  0.25500000920E-02 0. -1.
       -2   -1    0    0    0  501  0.00000000000E+00  0.00000000000E+00 -0.15000424872E+04  0.15000424873E+04  0.25500000920E-02 0.  1.
    10030    2    1    2    0    0  0.00000000000E+00  0.00000000000E+00 -0.29610603809E+01  0.29971239141E+04  0.29971224514E+04 0.  0.
        4    1    3    3  502    0  0.51805739982E+01 -0.68146520859E+03  0.13331595726E+04  0.14972433763E+04  0.12699999809E+01 0. -1.
       -4    1    3    3    0  502 -0.51805739982E+01  0.68146520859E+03 -0.13361206330E+04  0.14998805378E+04  0.12699999809E+01 0.  1.
</event>
<event>
 5   0  0.2792361E-07  0.3010430E+04  0.7818609E-02  0.8240759E-01
       -1   -1    0    0    0  501  0.00000000000E+00  0.00000000000E+00  0.14133772991E+04  0.14133772991E+04  0.50400001928E-02 0. -1.
        1   -1    0    0  501    0  0.00000000000E+00  0.00000000000E+00 -0.16030199143E+04  0.16030199144E+04  0.50400001928E-02 0.  1.
    10030    2    1    2    0    0  0.00000000000E+00  0.00000000000E+00 -0.18964261528E+03  0.30163972134E+04  0.30104298410E+04 0.  0.
        4    1    3    3  502    0 -0.11283881274E+04  0.52501663298E+03 -0.94312109649E+03  0.15615316988E+04  0.12699999809E+01 0.  1.
       -4    1    3    3    0  502  0.11283881274E+04 -0.52501663298E+03  0.75347848121E+03  0.14548655146E+04  0.12699999809E+01 0. -1.
</event>
<event>
 5   0  0.7585823E-07  0.2924244E+04  0.7818609E-02  0.8265700E-01
        2   -1    0    0  501    0  0.00000000000E+00  0.00000000000E+00  0.14023600406E+04  0.14023600406E+04  0.25500000920E-02 0. -1.
       -2   -1    0    0    0  501  0.00000000000E+00  0.00000000000E+00 -0.15244309813E+04  0.15244309813E+04  0.25500000920E-02 0.  1.
    10030    2    1    2    0    0  0.00000000000E+00  0.00000000000E+00 -0.12207094067E+03  0.29267910219E+04  0.29242442393E+04 0.  0.
        5    1    3    3  502    0 -0.59477312243E+03  0.14576436600E+03 -0.13898877936E+04  0.15188194383E+04  0.46999998093E+01 0.  1.
       -5    1    3    3    0  502  0.59477312243E+03 -0.14576436600E+03  0.12678168529E+04  0.14079715836E+04  0.46999998093E+01 0. -1.
</event>
<event>
 5   0  0.7399409E-07  0.3000889E+04  0.7818609E-02  0.8243477E-01
       -2   -1    0    0    0  501  0.00000000000E+00  0.00000000000E+00  0.95597091627E+03  0.95597091627E+03  0.25500000920E-02 0. -1.
        2   -1    0    0  501    0  0.00000000000E+00  0.00000000000E+00 -0.23550226812E+04  0.23550226812E+04  0.25500000920E-02 0.  1.
    10030    2    1    2    0    0  0.00000000000E+00  0.00000000000E+00 -0.13990517649E+04  0.33109935975E+04  0.30008886620E+04 0.  0.
        3    1    3    3  502    0  0.14969510825E+04  0.33677613190E+02 -0.80613625705E+03  0.17005447363E+04  0.10100000352E+00 0. -1.
       -3    1    3    3    0  502 -0.14969510825E+04 -0.33677613190E+02 -0.59291550787E+03  0.16104488612E+04  0.10100000352E+00 0.  1.
</event>
<event>
 5   0  0.7208273E-07  0.3003587E+04  0.7818609E-02  0.8242707E-01
       -2   -1    0    0    0  501  0.00000000000E+00  0.00000000000E+00  0.21715195496E+04  0.21715195496E+04  0.25500000920E-02 0.  1.
        2   -1    0    0  501    0  0.00000000000E+00  0.00000000000E+00 -0.10386201463E+04  0.10386201463E+04  0.25500000920E-02 0. -1.
    10030    2    1    2    0    0  0.00000000000E+00  0.00000000000E+00  0.11328994033E+04  0.32101396959E+04  0.30035871570E+04 0.  0.
        4    1    3    3  502    0 -0.72337063949E+03 -0.12964593436E+04  0.32435431630E+03  0.15196312865E+04  0.12699999809E+01 0. -1.
       -4    1    3    3    0  502  0.72337063949E+03  0.12964593436E+04  0.80854508696E+03  0.16905084094E+04  0.12699999809E+01 0.  1.
</event>
<event>
 5   0  0.2679935E-07  0.3003041E+04  0.7818609E-02  0.8242863E-01
       -1   -1    0    0    0  501  0.00000000000E+00  0.00000000000E+00  0.15630790098E+04  0.15630790098E+04  0.50400001928E-02 0. -1.
        1   -1    0    0  501    0  0.00000000000E+00  0.00000000000E+00 -0.14423864800E+04  0.14423864800E+04  0.50400001928E-02 0.  1.
    10030    2    1    2    0    0  0.00000000000E+00  0.00000000000E+00  0.12069252981E+03  0.30054654899E+04  0.30030411459E+04 0.  0.
        2    1    3    3  502    0  0.29316719786E+02 -0.13419600038E+04 -0.61313674845E+03  0.14756872277E+04  0.25500000920E-02 0.  1.
       -2    1    3    3    0  502 -0.29316719786E+02  0.13419600038E+04  0.73382927826E+03  0.15297782622E+04  0.25500000920E-02 0. -1.
</event>
<event>
 5   0  0.7399409E-07  0.2966086E+04  0.7818609E-02  0.8253482E-01
       -2   -1    0    0    0  501  0.00000000000E+00  0.00000000000E+00  0.15145923205E+04  0.15145923205E+04  0.25500000920E-02 0.  1.
        2   -1    0    0  501    0  0.00000000000E+00  0.00000000000E+00 -0.14521506466E+04  0.14521506466E+04  0.25500000920E-02 0. -1.
    10030    2    1    2    0    0  0.00000000000E+00  0.00000000000E+00  0.62441673922E+02  0.29667429672E+04  0.29660857828E+04 0.  0.
        3    1    3    3  502    0 -0.80612755953E+03  0.32513812417E+03 -0.11706525580E+04  0.14580753971E+04  0.10100000352E+00 0. -1.
       -3    1    3    3    0  502  0.80612755953E+03 -0.32513812417E+03  0.12330942319E+04  0.15086675701E+04  0.10100000352E+00 0.  1.
</event>
<event>
 5   0  0.2602891E-07  0.2998847E+04  0.7818609E-02  0.8244060E-01
        1   -1    0    0  501    0  0.00000000000E+00  0.00000000000E+00  0.17246273826E+04  0.17246273826E+04  0.50400001928E-02 0. -1.
       -1   -1    0    0    0  501  0.00000000000E+00  0.00000000000E+00 -0.13036271986E+04  0.13036271986E+04  0.50400001928E-02 0.  1.
    10030    2    1    2    0    0  0.00000000000E+00  0.00000000000E+00  0.42100018391E+03  0.30282545812E+04  0.29988472208E+04 0.  0.
        5    1    3    3  502    0  0.14043669170E+04  0.15502201887E+03  0.71738943158E+03  0.15845970941E+04  0.46999998093E+01 0. -1.
       -5    1    3    3    0  502 -0.14043669170E+04 -0.15502201887E+03 -0.29638924766E+03  0.14436574871E+04  0.46999998093E+01 0.  1.
</event>
<event>
 5   0  0.7208273E-07  0.3007064E+04  0.7818609E-02  0.8241717E-01
        2   -1    0    0  501    0  0.00000000000E+00  0.00000000000E+00  0.23085357518E+04  0.23085357518E+04  0.25500000920E-02 0.  1.
       -2   -1    0    0    0  501  0.00000000000E+00  0.00000000000E+00 -0.97923929331E+03  0.97923929331E+03  0.25500000920E-02 0. -1.
    10030    2    1    2    0    0  0.00000000000E+00  0.00000000000E+00  0.13292964584E+04  0.32877750451E+04  0.30070642947E+04 0.  0.
        4    1    3    3  502    0 -0.10079656158E+04 -0.53799363748E+03  0.17332132680E+04  0.20759242958E+04  0.12699999809E+01 0.  1.
       -4    1    3    3    0  502  0.10079656158E+04  0.53799363748E+03 -0.40391680952E+03  0.12118507493E+04  0.12699999809E+01 0. -1.
</event>
<event>
 5   0  0.2640081E-07  0.3000143E+04  0.7818609E-02  0.8243690E-01
       -1   -1    0    0    0  501  0.00000000000E+00  0.00000000000E+00  0.10994116447E+04  0.10994116448E+04  0.50400001928E-02 0.  1.
        1   -1    0    0  501    0  0.00000000000E+00  0.00000000000E+00 -0.20467444731E+04  0.20467444731E+04  0.50400001928E-02 0. -1.
    10030    2    1    2    0    0  0.00000000000E+00  0.00000000000E+00 -0.94733282837E+03  0.31461561179E+04  0.30001431350E+04 0.  0.
        1    1    3    3  502    0  0.17681426508E+03 -0.14124508953E+04  0.22580943994E+02  0.14236540012E+04  0.50400001928E-02 0. -1.
       -1    1    3    3    0  502 -0.17681426508E+03  0.14124508953E+04 -0.96991377236E+03  0.17225021167E+04  0.50400001928E-02 0.  1.
</event>
<event>
 5   0  0.7585823E-07  0.2997123E+04  0.7818609E-02  0.8244553E-01
       -2   -1    0    0    0  501  0.00000000000E+00  0.00000000000E+00  0.82124073873E+03  0.82124073874E+03  0.25500000920E-02 0. -1.
        2   -1    0    0  501    0  0.00000000000E+00  0.00000000000E+00 -0.27345046092E+04  0.27345046092E+04  0.25500000920E-02 0.  1.
    10030    2    1    2    0    0  0.00000000000E+00  0.00000000000E+00 -0.19132638705E+04  0.35557453479E+04  0.29971230107E+04 0.  0.
        5    1    3    3  502    0 -0.12532278798E+04  0.81685346460E+03 -0.85161970637E+03  0.17213680360E+04  0.46999998093E+01 0. -1.
       -5    1    3    3    0  502  0.12532278798E+04 -0.81685346460E+03 -0.10616441641E+04  0.18343773119E+04  0.46999998093E+01 0.  1.
</event>
<event>
 5   0  0.2602891E-07  0.2998113E+04  0.7818609E-02  0.8244270E-01
        1   -1    0    0  501    0  0.00000000000E+00  0.00000000000E+00  0.12018858758E+04  0.12018858758E+04  0.50400001928E-02 0. -1.
       -1   -1    0    0    0  501  0.00000000000E+00  0.00000000000E+00 -0.18697041003E+04  0.18697041003E+04  0.50400001928E-02 0.  1.
    10030    2    1    2    0    0  0.00000000000E+00  0.00000000000E+00 -0.66781822449E+03  0.30715899760E+04  0.29981133734E+04 0.  0.
        5    1    3    3  502    0 -0.31883813556E+03  0.14633991273E+04 -0.39833180598E+03  0.15498016260E+04  0.46999998093E+01 0. -1.
       -5    1    3    3    0  502  0.31883813556E+03 -0.14633991273E+04 -0.26948641851E+03  0.15217883500E+04  0.46999998093E+01 0.  1.
</event>
<event>
 5   0  0.2602891E-07  0.2998938E+04  0.7818609E-02  0.8244034E-01
       -1   -1    0    0    0  501  0.00000000000E+00  0.00000000000E+00  0.19215214525E+04  0.19215214525E+04  0.50400001928E-02 0. -1.
        1   -1    0    0  501    0  0.00000000000E+00  0.00000000000E+00 -0.11701179417E+04  0.11701179417E+04  0.50400001928E-02 0.  1.
    10030    2    1    2    0    0  0.00000000000E+00  0.00000000000E+00  0.75140351085E+03  0.30916393942E+04  0.29989376299E+04 0.  0.
        5    1    3    3  502    0 -0.35786948860E+03  0.11205188308E+04 -0.58296372587E+03  0.13128220811E+04  0.46999998093E+01 0.  1.
       -5    1    3    3    0  502  0.35786948860E+03 -0.11205188308E+04  0.13343672367E+04  0.17788173131E+04  0.46999998093E+01 0. -1.
</event>
<event>
 5   0  0.7585823E-07  0.2999703E+04  0.7818609E-02  0.8243816E-01
       -2   -1    0    0    0  501  0.00000000000E+00  0.00000000000E+00  0.16725569891E+04  0.16725569891E+04  0.25500000920E-02 0. -1.
        2   -1    0    0  501    0  0.00000000000E+00  0.00000000000E+00 -0.13449790240E+04  0.13449790240E+04  0.25500000920E-02 0.  1.
    10030    2    1    2    0    0  0.00000000000E+00  0.00000000000E+00  0.32757796512E+03  0.30175360130E+04  0.29997026964E+04 0.  0.
        5    1    3    3  502    0  0.12711525557E+04 -0.44957941268E+03 -0.49706523013E+03  0.14370269313E+04  0.46999998093E+01 0.  1.
       -5    1    3    3    0  502 -0.12711525557E+04  0.44957941268E+03  0.82464319525E+03  0.15805090818E+04  0.46999998093E+01 0. -1.
</event>
<event>
 5   0  0.2640081E-07  0.2999578E+04  0.7818609E-02  0.8243851E-01
        1   -1    0    0  501    0  0.00000000000E+00  0.00000000000E+00  0.20896910793E+04  0.20896910793E+04  0.50400001928E-02 0. -1.
       -1   -1    0    0    0  501  0.00000000000E+00  0.00000000000E+00 -0.10764115272E+04  0.10764115273E+04  0.50400001928E-02 0.  1.
    10030    2    1    2    0    0  0.00000000000E+00  0.00000000000E+00  0.10132795521E+04  0.31661026066E+04  0.29995783478E+04 0.  0.
        1    1    3    3  502    0  0.19165852651E+03 -0.11575577791E+03 -0.10586711326E+04  0.10820891636E+04  0.50400001928E-02 0.  1.
       -1    1    3    3    0  502 -0.19165852651E+03  0.11575577791E+03  0.20719506847E+04  0.20840134430E+04  0.50400001928E-02 0. -1.
</event>
<event>
 5   0  0.2792361E-07  0.3007433E+04  0.7818609E-02  0.8241612E-01
        1   -1    0    0  501    0  0.00000000000E+00  0.00000000000E+00  0.17897332171E+04  0.17897332171E+04  0.50400001928E-02 0. -1.
       -1   -1    0    0    0  501  0.00000000000E+00  0.00000000000E+00 -0.12634080974E+04  0.12634080974E+04  0.50400001928E-02 0.  1.
    10030    2    1    2    0    0  0.00000000000E+00  0.00000000000E+00  0.52632511966E+03  0.30531413145E+04  0.30074330840E+04 0.  0.
        4    1    3    3  502    0  0.45247808798E+03 -0.58085488724E+03 -0.10678833668E+04  0.12971142271E+04  0.12699999809E+01 0.  1.
       -4    1    3    3    0  502 -0.45247808798E+03  0.58085488724E+03  0.15942084865E+04  0.17560270873E+04  0.12699999809E+01 0. -1.
</event>
<event>
 5   0  0.2602891E-07  0.2999302E+04  0.7818609E-02  0.8243930E-01
       -1   -1    0    0    0  501  0.00000000000E+00  0.00000000000E+00  0.17700839018E+04  0.17700839018E+04  0.50400001928E-02 0.  1.
        1   -1    0    0  501    0  0.00000000000E+00  0.00000000000E+00 -0.12705347332E+04  0.12705347332E+04  0.50400001928E-02 0. -1.
    10030    2    1    2    0    0  0.00000000000E+00  0.00000000000E+00  0.49954916868E+03  0.30406186350E+04  0.29993019707E+04 0.  0.
        5    1    3    3  502    0  0.57168833694E+02  0.12425403050E+04 -0.59947417469E+03  0.13807845818E+04  0.46999998093E+01 0.  1.
       -5    1    3    3    0  502 -0.57168833694E+02 -0.12425403050E+04  0.10990233434E+04  0.16598340533E+04  0.46999998093E+01 0. -1.
</event>
<event>
 5   0  0.2792361E-07  0.3005329E+04  0.7818609E-02  0.8242211E-01
        1   -1    0    0  501    0  0.00000000000E+00  0.00000000000E+00  0.19331775058E+04  0.19331775058E+04  0.50400001928E-02 0. -1.
       -1   -1    0    0    0  501  0.00000000000E+00  0.00000000000E+00 -0.11680253648E+04  0.11680253648E+04  0.50400001928E-02 0.  1.
    10030    2    1    2    0    0  0.00000000000E+00  0.00000000000E+00  0.76515214099E+03  0.31012028706E+04  0.30053288416E+04 0.  0.
        4    1    3    3  502    0 -0.60068874881E+03  0.42398967120E+02  0.18032213393E+04  0.19011137411E+04  0.12699999809E+01 0. -1.
       -4    1    3    3    0  502  0.60068874881E+03 -0.42398967120E+02 -0.10380691983E+04  0.12000891295E+04  0.12699999809E+01 0.  1.
</event>
<event>
 5   0  0.2792361E-07  0.2989116E+04  0.7818609E-02  0.8246846E-01
        1   -1    0    0  501    0  0.00000000000E+00  0.00000000000E+00  0.16197836991E+04  0.16197836991E+04  0.50400001928E-02 0.  1.
       -1   -1    0    0    0  501  0.00000000000E+00  0.00000000000E+00 -0.13790132710E+04  0.13790132710E+04  0.50400001928E-02 0. -1.
    10030    2    1    2    0    0  0.00000000000E+00  0.00000000000E+00  0.24077042811E+03  0.29987969702E+04  0.29891157336E+04 0.  0.
        4    1    3    3  502    0  0.12005702888E+04 -0.62725618081E+03  0.75400203616E+03  0.15502709499E+04  0.12699999809E+01 0.  1.
       -4    1    3    3    0  502 -0.12005702888E+04  0.62725618081E+03 -0.51323160805E+03  0.14485260202E+04  0.12699999809E+01 0. -1.
</event>
<event>
 5   0  0.2792361E-07  0.2998511E+04  0.7818609E-02  0.8244156E-01
       -1   -1    0    0    0  501  0.00000000000E+00  0.00000000000E+00  0.13823142056E+04  0.13823142056E+04  0.50400001928E-02 0.  1.
        1   -1    0    0  501    0  0.00000000000E+00  0.00000000000E+00 -0.16260894313E+04  0.16260894314E+04  0.50400001928E-02 0. -1.
    10030    2    1    2    0    0  0.00000000000E+00  0.00000000000E+00 -0.24377522573E+03  0.30084036370E+04  0.29985106440E+04 0.  0.
        4    1    3    3  502    0 -0.95259667546E+03 -0.26204223059E+03 -0.12532864656E+04  0.15958806768E+04  0.12699999809E+01 0. -1.
       -4    1    3    3    0  502  0.95259667546E+03  0.26204223059E+03  0.10095112399E+04  0.14125229602E+04  0.12699999809E+01 0.  1.
</event>
<event>
 5   0  0.2621825E-07  0.2993117E+04  0.7818609E-02  0.8245699E-01
       -1   -1    0    0    0  501  0.00000000000E+00  0.00000000000E+00  0.14979077710E+04  0.14979077710E+04  0.50400001928E-02 0. -1.
        1   -1    0    0  501    0  0.00000000000E+00  0.00000000000E+00 -0.14952101247E+04  0.14952101248E+04  0.50400001928E-02 0.  1.
    10030    2    1    2    0    0  0.00000000000E+00  0.00000000000E+00  0.26976462494E+01  0.29931178958E+04  0.29931166801E+04 0.  0.
        3    1    3    3  502    0  0.77961418156E+02 -0.79530625123E+03  0.12666938905E+04  0.14976993819E+04  0.10100000352E+00 0. -1.
       -3    1    3    3    0  502 -0.77961418156E+02  0.79530625123E+03 -0.12639962443E+04  0.14954185139E+04  0.10100000352E+00 0.  1.
</event>
<event>
 5   0  0.7278657E-07  0.3006591E+04  0.7818609E-02  0.8241851E-01
        2   -1    0    0  501    0  0.00000000000E+00  0.00000000000E+00  0.20872540452E+04  0.20872540452E+04  0.25500000920E-02 0.  1.
       -2   -1    0    0    0  501  0.00000000000E+00  0.00000000000E+00 -0.10827129995E+04  0.10827129995E+04  0.25500000920E-02 0. -1.
    10030    2    1    2    0    0  0.00000000000E+00  0.00000000000E+00  0.10045410457E+04  0.31699670447E+04  0.30065908188E+04 0.  0.
        2    1    3    3  502    0 -0.62335882023E+03  0.11246726010E+04  0.13233243353E+04  0.18451699040E+04  0.25500000920E-02 0.  1.
       -2    1    3    3    0  502  0.62335882023E+03 -0.11246726010E+04 -0.31878328969E+03  0.13247971407E+04  0.25500000920E-02 0. -1.
</event>
<event>
 5   0  0.2640081E-07  0.2997348E+04  0.7818609E-02  0.8244488E-01
       -1   -1    0    0    0  501  0.00000000000E+00  0.00000000000E+00  0.12527499445E+04  0.12527499445E+04  0.50400001928E-02 0. -1.
        1   -1    0    0  501    0  0.00000000000E+00  0.00000000000E+00 -0.17928753520E+04  0.17928753520E+04  0.50400001928E-02 0.  1.
    10030    2    1    2    0    0  0.00000000000E+00  0.00000000000E+00 -0.54012540747E+03  0.30456252965E+04  0.29973484934E+04 0.  0.
        1    1    3    3  502    0  0.95212904813E+03  0.31846364147E+03 -0.14006635855E+04  0.17233186864E+04  0.50400001928E-02 0.  1.
       -1    1    3    3    0  502 -0.95212904813E+03 -0.31846364147E+03  0.86053817798E+03  0.13223066101E+04  0.50400001928E-02 0. -1.
</event>
<event>
 5   0  0.2640081E-07  0.3001158E+04  0.7818609E-02  0.8243400E-01
       -1   -1    0    0    0  501  0.00000000000E+00  0.00000000000E+00  0.15396034070E+04  0.15396034070E+04  0.50400001928E-02 0.  1.
        1   -1    0    0  501    0  0.00000000000E+00  0.00000000000E+00 -0.14625438463E+04  0.14625438464E+04  0.50400001928E-02 0. -1.
    10030    2    1    2    0    0  0.00000000000E+00  0.00000000000E+00  0.77059560633E+02  0.30021472533E+04  0.30011581023E+04 0.  0.
        1    1    3    3  502    0  0.67232325076E+03 -0.33296368045E+03 -0.12614577444E+04  0.14677053542E+04  0.50400001928E-02 0. -1.
       -1    1    3    3    0  502 -0.67232325076E+03  0.33296368045E+03  0.13385173050E+04  0.15344418991E+04  0.50400001928E-02 0.  1.
</event>
<event>
 5   0  0.7585823E-07  0.3000244E+04  0.7818609E-02  0.8243661E-01
        2   -1    0    0  501    0  0.00000000000E+00  0.00000000000E+00  0.13379344031E+04  0.13379344032E+04  0.25500000920E-02 0.  1.
       -2   -1    0    0    0  501  0.00000000000E+00  0.00000000000E+00 -0.16819703049E+04  0.16819703049E+04  0.25500000920E-02 0. -1.
    10030    2    1    2    0    0  0.00000000000E+00  0.00000000000E+00 -0.34403590174E+03  0.30199047080E+04  0.30002439474E+04 0.  0.
        5    1    3    3  502    0  0.11829485130E+03  0.13421213977E+04  0.49189541572E+03  0.14343175060E+04  0.46999998093E+01 0.  1.
       -5    1    3    3    0  502 -0.11829485130E+03 -0.13421213977E+04 -0.83593131746E+03  0.15855872021E+04  0.46999998093E+01 0. -1.
</event>
<event>
 5   0  0.2414250E-07  0.2976377E+04  0.7818609E-02  0.8250509E-01
        4   -1    0    0  501    0  0.00000000000E+00  0.00000000000E+00  0.12552134516E+04  0.12552140941E+04  0.12699999809E+01 0.  1.
       -4   -1    0    0    0  501  0.00000000000E+00  0.00000000000E+00 -0.17644032535E+04  0.17644037106E+04  0.12699999809E+01 0. -1.
    10030    2    1    2    0    0  0.00000000000E+00  0.00000000000E+00 -0.50918980188E+03  0.30196178046E+04  0.29763765608E+04 0.  0.
        3    1    3    3  502    0  0.75037920184E+03 -0.10638665324E+04 -0.98605731577E+03  0.16331533870E+04  0.10100000352E+00 0. -1.
       -3    1    3    3    0  502 -0.75037920184E+03  0.10638665324E+04  0.47686751389E+03  0.13864644176E+04  0.10100000352E+00 0.  1.
</event>
<event>
 5   0  0.2621825E-07  0.2996273E+04  0.7818609E-02  0.8244796E-01
        1   -1    0    0  501    0  0.00000000000E+00  0.00000000000E+00  0.16247057137E+04  0.16247057137E+04  0.50400001928E-02 0. -1.
       -1   -1    0    0    0  501  0.00000000000E+00  0.00000000000E+00 -0.13814274524E+04  0.13814274524E+04  0.50400001928E-02 0.  1.
    10030    2    1    2    0    0  0.00000000000E+00  0.00000000000E+00  0.24327826127E+03  0.30061331661E+04  0.29962730683E+04 0.  0.
        3    1    3    3  502    0 -0.83820467387E+01  0.14949743922E+04  0.21888266102E+03  0.15109362401E+04  0.10100000352E+00 0. -1.
       -3    1    3    3    0  502  0.83820467387E+01 -0.14949743922E+04  0.24395600251E+02  0.14951969260E+04  0.10100000352E+00 0.  1.
</event>
<event>
 5   0  0.2792361E-07  0.3002591E+04  0.7818609E-02  0.8242991E-01
       -1   -1    0    0    0  501  0.00000000000E+00  0.00000000000E+00  0.14907867835E+04  0.14907867835E+04  0.50400001928E-02 0. -1.
        1   -1    0    0  501    0  0.00000000000E+00  0.00000000000E+00 -0.15118780094E+04  0.15118780094E+04  0.50400001928E-02 0.  1.
    10030    2    1    2    0    0  0.00000000000E+00  0.00000000000E+00 -0.21091225957E+02  0.30026647929E+04  0.30025907178E+04 0.  0.
        4    1    3    3  502    0  0.94794218930E+03  0.53744597659E+03 -0.10432586368E+04  0.15085863476E+04  0.12699999809E+01 0.  1.
       -4    1    3    3    0  502 -0.94794218930E+03 -0.53744597659E+03  0.10221674108E+04  0.14940784453E+04  0.12699999809E+01 0. -1.
</event>
<event>
 5   0  0.2792361E-07  0.2998788E+04  0.7818609E-02  0.8244077E-01
        1   -1    0    0  501    0  0.00000000000E+00  0.00000000000E+00  0.24817352281E+04  0.24817352281E+04  0.50400001928E-02 0. -1.
       -1   -1    0    0    0  501  0.00000000000E+00  0.00000000000E+00 -0.90589152036E+03  0.90589152037E+03  0.50400001928E-02 0.  1.
    10030    2    1    2    0    0  0.00000000000E+00  0.00000000000E+00  0.15758437077E+04  0.33876267485E+04  0.29987883546E+04 0.  0.
        4    1    3    3  502    0 -0.13958731597E+04 -0.27471422276E+03  0.13228770616E+04  0.19426618633E+04  0.12699999809E+01 0. -1.
       -4    1    3    3    0  502  0.13958731597E+04  0.27471422276E+03  0.25296664615E+03  0.14449648851E+04  0.12699999809E+01 0.  1.
</event>
<event>
 5   0  0.7208273E-07  0.3004678E+04  0.7818609E-02  0.8242396E-01
       -2   -1    0    0    0  501  0.00000000000E+00  0.00000000000E+00  0.15603683737E+04  0.15603683737E+04  0.25500000920E-02 0.  1.
        2   -1    0    0  501    0  0.00000000000E+00  0.00000000000E+00 -0.14464676647E+04  0.14464676647E+04  0.25500000920E-02 0. -1.
    10030    2    1    2    0    0  0.00000000000E+00  0.00000000000E+00  0.11390070896E+03  0.30068360384E+04  0.30046779512E+04 0.  0.
        4    1    3    3  502    0 -0.60455987200E+03  0.88386038370E+03  0.11114239185E+04  0.15433620950E+04  0.12699999809E+01 0.  1.
       -4    1    3    3    0  502  0.60455987200E+03 -0.88386038370E+03 -0.99752320954E+03  0.14634739435E+04  0.12699999809E+01 0. -1.
</event>
<event>
 5   0  0.2414250E-07  0.2988330E+04  0.7818609E-02  0.8247071E-01
       -3   -1    0    0    0  501  0.00000000000E+00  0.00000000000E+00  0.26098143871E+04  0.26098143891E+04  0.10100000352E+00 0.  1.
        3   -1    0    0  501    0  0.00000000000E+00  0.00000000000E+00 -0.85543574771E+03  0.85543575367E+03  0.10100000352E+00 0. -1.
    10030    2    1    2    0    0  0.00000000000E+00  0.00000000000E+00  0.17543786394E+04  0.34652501428E+04  0.29883296574E+04 0.  0.
        5    1    3    3  502    0 -0.75300058461E+02 -0.13887397746E+04  0.24392107761E+03  0.14120155248E+04  0.46999998093E+01 0. -1.
       -5    1    3    3    0  502  0.75300058461E+02  0.13887397746E+04  0.15104575618E+04  0.20532346179E+04  0.46999998093E+01 0.  1.
</event>
<event>
 5   0  0.2621825E-07  0.2996165E+04  0.7818609E-02  0.8244827E-01
        1   -1    0    0  501    0  0.00000000000E+00  0.00000000000E+00  0.17713024838E+04  0.17713024838E+04  0.50400001928E-02 0. -1.
       -1   -1    0    0    0  501  0.00000000000E+00  0.00000000000E+00 -0.12670061048E+04  0.12670061049E+04  0.50400001928E-02 0.  1.
    10030    2    1    2    0    0  0.00000000000E+00  0.00000000000E+00  0.50429637894E+03  0.30383085886E+04  0.29961649224E+04 0.  0.
        3    1    3    3  502    0 -0.21411156804E+03 -0.10217459149E+04  0.13417111548E+04  0.16999992092E+04  0.10100000352E+00 0. -1.
       -3    1    3    3    0  502  0.21411156804E+03  0.10217459149E+04 -0.83741477584E+03  0.13383093795E+04  0.10100000352E+00 0.  1.
</event>
<event>
 5   0  0.7278657E-07  0.3023053E+04  0.7818609E-02  0.8237178E-01
       -2   -1    0    0    0  501  0.00000000000E+00  0.00000000000E+00  0.13443492202E+04  0.13443492202E+04  0.25500000920E-02 0. -1.
        2   -1    0    0  501    0  0.00000000000E+00  0.00000000000E+00 -0.16994935303E+04  0.16994935303E+04  0.25500000920E-02 0.  1.
    10030    2    1    2    0    0  0.00000000000E+00  0.00000000000E+00 -0.35514431009E+03  0.30438427506E+04  0.30230532925E+04 0.  0.
        2    1    3    3  502    0  0.69229444475E+03 -0.93486559387E+03 -0.11493349515E+04  0.16353030629E+04  0.25500000920E-02 0.  1.
       -2    1    3    3    0  502 -0.69229444475E+03  0.93486559387E+03  0.79419064141E+03  0.14085396877E+04  0.25500000920E-02 0. -1.
</event>
<event>
 5   0  0.7585823E-07  0.3009448E+04  0.7818609E-02  0.8241038E-01
        2   -1    0    0  501    0  0.00000000000E+00  0.00000000000E+00  0.20007130216E+04  0.20007130216E+04  0.25500000920E-02 0. -1.
       -2   -1    0    0    0  501  0.00000000000E+00  0.00000000000E+00 -0.11316938978E+04  0.11316938978E+04  0.25500000920E-02 0.  1.
    10030    2    1    2    0    0  0.00000000000E+00  0.00000000000E+00  0.86901912380E+03  0.31324069194E+04  0.30094482669E+04 0.  0.
        5    1    3    3  502    0  0.13557353979E+04 -0.56365887607E+03  0.77727080896E+03  0.16612952170E+04  0.46999998093E+01 0. -1.
       -5    1    3    3    0  502 -0.13557353979E+04  0.56365887607E+03  0.91748314841E+02  0.14711117024E+04  0.46999998093E+01 0.  1.
</event>
<event>
 5   0  0.7399409E-07  0.2989730E+04  0.7818609E-02  0.8246670E-01
        2   -1    0    0  501    0  0.00000000000E+00  0.00000000000E+00  0.10874636564E+04  0.10874636564E+04  0.25500000920E-02 0.  1.
       -2   -1    0    0    0  501  0.00000000000E+00  0.00000000000E+00 -0.20548923037E+04  0.20548923037E+04  0.25500000920E-02 0. -1.
    10030    2    1    2    0    0  0.00000000000E+00  0.00000000000E+00 -0.96742864733E+03  0.31423559601E+04  0.29897295517E+04 0.  0.
        3    1    3    3  502    0 -0.13772951049E+04  0.36724890400E+03 -0.10383181779E+02  0.14254547990E+04  0.10100000352E+00 0. -1.
       -3    1    3    3    0  502  0.13772951049E+04 -0.36724890400E+03 -0.95704546556E+03  0.17169011610E+04  0.10100000352E+00 0.  1.
</event>
<event>
 5   0  0.2679935E-07  0.2997703E+04  0.7818609E-02  0.8244387E-01
        1   -1    0    0  501    0  0.00000000000E+00  0.00000000000E+00  0.12638413597E+04  0.12638413597E+04  0.50400001928E-02 0.  1.
       -1   -1    0    0    0  501  0.00000000000E+00  0.00000000000E+00 -0.17775611138E+04  0.17775611138E+04  0.50400001928E-02 0. -1.
    10030    2    1    2    0    0  0.00000000000E+00  0.00000000000E+00 -0.51371975405E+03  0.30414024736E+04  0.29977026237E+04 0.  0.
        2    1    3    3  502    0 -0.13839256743E+03 -0.10835226805E+04 -0.12981653714E+04  0.16965869366E+04  0.25500000920E-02 0. -1.
       -2    1    3    3    0  502  0.13839256743E+03  0.10835226805E+04  0.78444561736E+03  0.13448155370E+04  0.25500000920E-02 0.  1.
</event>
<event>
 5   0  0.7399409E-07  0.3000497E+04  0.7818609E-02  0.8243589E-01
        2   -1    0    0  501    0  0.00000000000E+00  0.00000000000E+00  0.12351666956E+04  0.12351666956E+04  0.25500000920E-02 0. -1.
       -2   -1    0    0    0  501  0.00000000000E+00  0.00000000000E+00 -0.18222198822E+04  0.18222198822E+04  0.25500000920E-02 0.  1.
    10030    2    1    2    0    0  0.00000000000E+00  0.00000000000E+00 -0.58705318663E+03  0.30573865777E+04  0.30004968325E+04 0.  0.
        3    1    3    3  502    0  0.14465036595E+04 -0.28067923115E+03 -0.58099550728E+03  0.15838906078E+04  0.10100000352E+00 0. -1.
       -3    1    3    3    0  502 -0.14465036595E+04  0.28067923115E+03 -0.60576793555E+01  0.14734959700E+04  0.10100000352E+00 0.  1.
</event>
<event>
 5   0  0.2602891E-07  0.3001479E+04  0.7818609E-02  0.8243309E-01
       -1   -1    0    0    0  501  0.00000000000E+00  0.00000000000E+00  0.11727681386E+04  0.11727681386E+04  0.50400001928E-02 0. -1.
        1   -1    0    0  501    0  0.00000000000E+00  0.00000000000E+00 -0.19204304204E+04  0.19204304204E+04  0.50400001928E-02 0.  1.
    10030    2    1    2    0    0  0.00000000000E+00  0.00000000000E+00 -0.74766228173E+03  0.30931985590E+04  0.30014793749E+04 0.  0.
        5    1    3    3  502    0 -0.87415310249E+03  0.10059822390E+04 -0.10848815099E+04  0.17184684729E+04  0.46999998093E+01 0.  1.
       -5    1    3    3    0  502  0.87415310249E+03 -0.10059822390E+04  0.33721922815E+03  0.13747300861E+04  0.46999998093E+01 0. -1.
</event>
<event>
 5   0  0.2621825E-07  0.3003974E+04  0.7818609E-02  0.8242597E-01
        1   -1    0    0  501    0  0.00000000000E+00  0.00000000000E+00  0.16651741396E+04  0.16651741396E+04  0.50400001928E-02 0.  1.
       -1   -1    0    0    0  501  0.00000000000E+00  0.00000000000E+00 -0.13547923405E+04  0.13547923405E+04  0.50400001928E-02 0. -1.
    10030    2    1    2    0    0  0.00000000000E+00  0.00000000000E+00  0.31038179909E+03  0.30199664802E+04  0.30039741477E+04 0.  0.
        3    1    3    3  502    0 -0.98911182091E+02  0.82111636859E+02  0.16596333899E+04  0.16646046804E+04  0.10100000352E+00 0.  1.
       -3    1    3    3    0  502  0.98911182091E+02 -0.82111636859E+02 -0.13492515908E+04  0.13553617998E+04  0.10100000352E+00 0. -1.
</event>
<event>
 5   0  0.2640081E-07  0.2989971E+04  0.7818609E-02  0.8246601E-01
        1   -1    0    0  501    0  0.00000000000E+00  0.00000000000E+00  0.12485901262E+04  0.12485901262E+04  0.50400001928E-02 0.  1.
       -1   -1    0    0    0  501  0.00000000000E+00  0.00000000000E+00 -0.17900040499E+04  0.17900040499E+04  0.50400001928E-02 0. -1.
    10030    2    1    2    0    0  0.00000000000E+00  0.00000000000E+00 -0.54141392376E+03  0.30385941761E+04  0.29899708243E+04 0.  0.
        1    1    3    3  502    0 -0.10200843162E+04  0.36756286830E+03  0.77525683480E+03  0.13329282180E+04  0.50400001928E-02 0.  1.
       -1    1    3    3    0  502  0.10200843162E+04 -0.36756286830E+03 -0.13166707586E+04  0.17056659581E+04  0.50400001928E-02 0. -1.
</event>
<event>
 5   0  0.7208273E-07  0.2999818E+04  0.7818609E-02  0.8243783E-01
       -2   -1    0    0    0  501  0.00000000000E+00  0.00000000000E+00  0.11969455058E+04  0.11969455058E+04  0.25500000920E-02 0. -1.
        2   -1    0    0  501    0  0.00000000000E+00  0.00000000000E+00 -0.18795573199E+04  0.18795573199E+04  0.25500000920E-02 0.  1.
    10030    2    1    2    0    0  0.00000000000E+00  0.00000000000E+00 -0.68261181410E+03  0.30765028256E+04  0.29998184524E+04 0.  0.
        4    1    3    3  502    0 -0.40652505154E+03  0.14374165435E+04 -0.48003064518E+03  0.15690315390E+04  0.12699999809E+01 0.  1.
       -4    1    3    3    0  502  0.40652505154E+03 -0.14374165435E+04 -0.20258116892E+03  0.15074712866E+04  0.12699999809E+01 0. -1.
</event>
<event>
 5   0  0.2792361E-07  0.3000229E+04  0.7818609E-02  0.8243666E-01
        1   -1    0    0  501    0  0.00000000000E+00  0.00000000000E+00  0.12700045517E+04  0.12700045517E+04  0.50400001928E-02 0.  1.
       -1   -1    0    0    0  501  0.00000000000E+00  0.00000000000E+00 -0.17719171489E+04  0.17719171489E+04  0.50400001928E-02 0. -1.
    10030    2    1    2    0    0  0.00000000000E+00  0.00000000000E+00 -0.50191259717E+03  0.30419217006E+04  0.30002285541E+04 0.  0.
        4    1    3    3  502    0  0.10924292250E+04  0.97374048621E+03  0.83428425446E+02  0.14657878637E+04  0.12699999809E+01 0.  1.
       -4    1    3    3    0  502 -0.10924292250E+04 -0.97374048621E+03 -0.58534102262E+03  0.15761338369E+04  0.12699999809E+01 0. -1.
</event>
<event>
 5   0  0.7585823E-07  0.2998481E+04  0.7818609E-02  0.8244165E-01
        2   -1    0    0  501    0  0.00000000000E+00  0.00000000000E+00  0.18289630786E+04  0.18289630786E+04  0.25500000920E-02 0.  1.
       -2   -1    0    0    0  501  0.00000000000E+00  0.00000000000E+00 -0.12289596175E+04  0.12289596175E+04  0.25500000920E-02 0. -1.
    10030    2    1    2    0    0  0.00000000000E+00  0.00000000000E+00  0.60000346113E+03  0.30579226961E+04  0.29984807924E+04 0.  0.
        5    1    3    3  502    0 -0.82103283460E+03  0.11690219451E+04  0.76398517617E+03  0.16200008219E+04  0.46999998093E+01 0.  1.
       -5    1    3    3    0  502  0.82103283460E+03 -0.11690219451E+04 -0.16398171505E+03  0.14379218742E+04  0.46999998093E+01 0. -1.
</event>
<event>
 5   0  0.2621825E-07  0.2982159E+04  0.7818609E-02  0.8248844E-01
        1   -1    0    0  501    0  0.00000000000E+00  0.00000000000E+00  0.12540800470E+04  0.12540800470E+04  0.50400001928E-02 0.  1.
       -1   -1    0    0    0  501  0.00000000000E+00  0.00000000000E+00 -0.17728678635E+04  0.17728678635E+04  0.50400001928E-02 0. -1.
    10030    2    1    2    0    0  0.00000000000E+00  0.00000000000E+00 -0.51878781650E+03  0.30269479105E+04  0.29821590928E+04 0.  0.
        3    1    3    3  502    0  0.45572749549E+03  0.13938332218E+04  0.14585257852E+02  0.14665167371E+04  0.10100000352E+00 0.  1.
       -3    1    3    3    0  502 -0.45572749549E+03 -0.13938332218E+04 -0.53337307435E+03  0.15604311734E+04  0.10100000352E+00 0. -1.
</event>
<event>
 5   0  0.7278657E-07  0.3001987E+04  0.7818609E-02  0.8243164E-01
       -2   -1    0    0    0  501  0.00000000000E+00  0.00000000000E+00  0.14711031521E+04  0.14711031521E+04  0.25500000920E-02 0. -1.
        2   -1    0    0  501    0  0.00000000000E+00  0.00000000000E+00 -0.15314912414E+04  0.15314912414E+04  0.25500000920E-02 0.  1.
    10030    2    1    2    0    0  0.00000000000E+00  0.00000000000E+00 -0.60388089279E+02  0.30025943935E+04  0.30019870703E+04 0.  0.
        2    1    3    3  502    0 -0.43206194672E+03 -0.13150455215E+04  0.55040538304E+03  0.14896201983E+04  0.25500000920E-02 0. -1.
       -2    1    3    3    0  502  0.43206194672E+03  0.13150455215E+04 -0.61079347232E+03  0.15129741952E+04  0.25500000920E-02 0.  1.
</event>
<event>
 5   0  0.7208273E-07  0.2998500E+04  0.7818609E-02  0.8244159E-01
        2   -1    0    0  501    0  0.00000000000E+00  0.00000000000E+00  0.95413737646E+03  0.95413737646E+03  0.25500000920E-02 0. -1.
       -2   -1    0    0    0  501  0.00000000000E+00  0.00000000000E+00 -0.23557933379E+04  0.23557933379E+04  0.25500000920E-02 0.  1.
    10030    2    1    2    0    0  0.00000000000E+00  0.00000000000E+00 -0.14016559614E+04  0.33099307144E+04  0.29984999416E+04 0.  0.
        4    1    3    3  502    0  0.56272080739E+03  0.13813733807E+04 -0.86787898027E+03  0.17257064239E+04  0.12699999809E+01 0.  1.
       -4    1    3    3    0  502 -0.56272080739E+03 -0.13813733807E+04 -0.53377698118E+03  0.15842242905E+04  0.12699999809E+01 0. -1.
</event>
<event>
 5   0  0.7278657E-07  0.3000053E+04  0.7818609E-02  0.8243716E-01
       -2   -1    0    0    0  501  0.00000000000E+00  0.00000000000E+00  0.17504261442E+04  0.17504261442E+04  0.25500000920E-02 0. -1.
        2   -1    0    0  501    0  0.00000000000E+00  0.00000000000E+00 -0.12854469843E+04  0.12854469843E+04  0.25500000920E-02 0.  1.
    10030    2    1    2    0    0  0.00000000000E+00  0.00000000000E+00  0.46497915986E+03  0.30358731285E+04  0.30000533384E+04 0.  0.
        2    1    3    3  502    0  0.96835857350E+03  0.85246096530E+03 -0.54193988233E+03  0.13993237153E+04  0.25500000920E-02 0.  1.
       -2    1    3    3    0  502 -0.96835857350E+03 -0.85246096530E+03  0.10069190422E+04  0.16365494132E+04  0.25500000920E-02 0. -1.
</event>
<event>
 5   0  0.2792361E-07  0.2993467E+04  0.7818609E-02  0.8245599E-01
        1   -1    0    0  501    0  0.00000000000E+00  0.00000000000E+00  0.20492833800E+04  0.20492833800E+04  0.50400001928E-02 0.  1.
       -1   -1    0    0    0  501  0.00000000000E+00  0.00000000000E+00 -0.10931678529E+04  0.10931678529E+04  0.50400001928E-02 0. -1.
    10030    2    1    2    0    0  0.00000000000E+00  0.00000000000E+00  0.95611552712E+03  0.31424512330E+04  0.29934666944E+04 0.  0.
        4    1    3    3  502    0  0.27646173139E+03  0.57321691368E+02 -0.10649583842E+04  0.11017508059E+04  0.12699999809E+01 0. -1.
       -4    1    3    3    0  502 -0.27646173139E+03 -0.57321691368E+02  0.20210739113E+04  0.20407004271E+04  0.12699999809E+01 0.  1.
</event>
<event>
 5   0  0.7585823E-07  0.2985493E+04  0.7818609E-02  0.8247886E-01
        2   -1    0    0  501    0  0.00000000000E+00  0.00000000000E+00  0.16808306601E+04  0.16808306601E+04  0.25500000920E-02 0. -1.
       -2   -1    0    0    0  501  0.00000000000E+00  0.00000000000E+00 -0.13257085021E+04  0.13257085021E+04  0.25500000920E-02 0.  1.
    10030    2    1    2    0    0  0.00000000000E+00  0.00000000000E+00  0.35512215800E+03  0.30065391622E+04  0.29854925870E+04 0.  0.
        5    1    3    3  502    0  0.12139065988E+04  0.59893688468E+02 -0.69521630674E+03  0.14001800912E+04  0.46999998093E+01 0.  1.
       -5    1    3    3    0  502 -0.12139065988E+04 -0.59893688468E+02  0.10503384647E+04  0.16063590710E+04  0.46999998093E+01 0. -1.
</event>
<event>
 5   0  0.2679935E-07  0.2989784E+04  0.7818609E-02  0.8246654E-01
        1   -1    0    0  501    0  0.00000000000E+00  0.00000000000E+00  0.12958065052E+04  0.12958065052E+04  0.50400001928E-02 0. -1.
       -1   -1    0    0    0  501  0.00000000000E+00  0.00000000000E+00 -0.17245652078E+04  0.17245652079E+04  0.50400001928E-02 0.  1.
    10030    2    1    2    0    0  0.00000000000E+00  0.00000000000E+00 -0.42875870267E+03  0.30203717130E+04  0.29897844838E+04 0.  0.
        2    1    3    3  502    0  0.10220967419E+04 -0.10897335640E+04 -0.16384939144E+03  0.15030128453E+04  0.25500000920E-02 0. -1.
       -2    1    3    3    0  502 -0.10220967419E+04  0.10897335640E+04 -0.26490931123E+03  0.15173588677E+04  0.25500000920E-02 0.  1.
</event>
<event>
 5   0  0.2640081E-07  0.2981724E+04  0.7818609E-02  0.8248969E-01
        1   -1    0    0  501    0  0.00000000000E+00  0.00000000000E+00  0.13985749159E+04  0.13985749159E+04  0.50400001928E-02 0.  1.
       -1   -1    0    0    0  501  0.00000000000E+00  0.00000000000E+00 -0.15892391302E+04  0.15892391302E+04  0.50400001928E-02 0. -1.
    10030    2    1    2    0    0  0.00000000000E+00  0.00000000000E+00 -0.19066421423E+03  0.29878140461E+04  0.29817243219E+04 0.  0.
        1    1    3    3  502    0  0.32311664839E+02  0.14467040653E+04 -0.45477530841E+03  0.15168445133E+04  0.50400001928E-02 0. -1.
       -1    1    3    3    0  502 -0.32311664839E+02 -0.14467040653E+04  0.26411109419E+03  0.14709695328E+04  0.50400001928E-02 0.  1.
</event>
<event>
 5   0  0.2602891E-07  0.2996322E+04  0.7818609E-02  0.8244782E-01
       -1   -1    0    0    0  501  0.00000000000E+00  0.00000000000E+00  0.17512542037E+04  0.17512542038E+04  0.50400001928E-02 0.  1.
        1   -1    0    0  501    0  0.00000000000E+00  0.00000000000E+00 -0.12816449911E+04  0.12816449911E+04  0.50400001928E-02 0. -1.
    10030    2    1    2    0    0  0.00000000000E+00  0.00000000000E+00  0.46960921266E+03  0.30328991949E+04  0.29963218641E+04 0.  0.
        5    1    3    3  502    0  0.48951558776E+03 -0.10177603802E+04 -0.76159130266E+03  0.13621692642E+04  0.46999998093E+01 0.  1.
       -5    1    3    3    0  502 -0.48951558776E+03  0.10177603802E+04  0.12312005153E+04  0.16707299306E+04  0.46999998093E+01 0. -1.
</event>
<event>
 5   0  0.2792361E-07  0.2993406E+04  0.7818609E-02  0.8245616E-01
       -1   -1    0    0    0  501  0.00000000000E+00  0.00000000000E+00  0.10474815866E+04  0.10474815866E+04  0.50400001928E-02 0.  1.
        1   -1    0    0  501    0  0.00000000000E+00  0.00000000000E+00 -0.21385762381E+04  0.21385762381E+04  0.50400001928E-02 0. -1.
    10030    2    1    2    0    0  0.00000000000E+00  0.00000000000E+00 -0.10910946515E+04  0.31860578247E+04  0.29934055729E+04 0.  0.
        4    1    3    3  502    0  0.11146006477E+04  0.86098773035E+03 -0.10845829942E+04  0.17776266087E+04  0.12699999809E+01 0. -1.
       -4    1    3    3    0  502 -0.11146006477E+04 -0.86098773035E+03 -0.65116572857E+01  0.14084312160E+04  0.12699999809E+01 0.  1.
</event>
<event>
 5   0  0.7307508E-07  0.3000204E+04  0.7818609E-02  0.8243673E-01
        2   -1    0    0  501    0  0.00000000000E+00  0.00000000000E+00  0.24145059418E+04  0.24145059418E+04  0.25500000920E-02 0. -1.
       -2   -1    0    0    0  501  0.00000000000E+00  0.00000000000E+00 -0.93199443086E+03  0.93199443086E+03  0.25500000920E-02 0.  1.
    10030    2    1    2    0    0  0.00000000000E+00  0.00000000000E+00  0.14825115110E+04  0.33465003727E+04  0.30002040538E+04 0.  0.
        1    1    3    3  502    0  0.69129481505E+03 -0.12106336038E+04  0.12344377088E+03  0.13995572902E+04  0.50400001928E-02 0.  1.
       -1    1    3    3    0  502 -0.69129481505E+03  0.12106336038E+04  0.13590677401E+04  0.19469430824E+04  0.50400001928E-02 0. -1.
</event>
<event>
 5   0  0.2640081E-07  0.2999003E+04  0.7818609E-02  0.8244016E-01
       -1   -1    0    0    0  501  0.00000000000E+00  0.00000000000E+00  0.10926004488E+04  0.10926004488E+04  0.50400001928E-02 0. -1.
        1   -1    0    0  501    0  0.00000000000E+00  0.00000000000E+00 -0.20579393678E+04  0.20579393678E+04  0.50400001928E-02 0.  1.
    10030    2    1    2    0    0  0.00000000000E+00  0.00000000000E+00 -0.96533891899E+03  0.31505398166E+04  0.29990034858E+04 0.  0.
        1    1    3    3  502    0 -0.55603047955E+03  0.17020511013E+03 -0.19346683006E+04  0.20201685839E+04  0.50400001928E-02 0.  1.
       -1    1    3    3    0  502  0.55603047955E+03 -0.17020511013E+03  0.96932938165E+03  0.11303712328E+04  0.50400001928E-02 0. -1.
</event>
<event>
 5   0  0.7399409E-07  0.3000420E+04  0.7818609E-02  0.8243611E-01
       -2   -1    0    0    0  501  0.00000000000E+00  0.00000000000E+00  0.14683887021E+04  0.14683887021E+04  0.25500000920E-02 0. -1.
        2   -1    0    0  501    0  0.00000000000E+00  0.00000000000E+00 -0.15327204757E+04  0.15327204757E+04  0.25500000920E-02 0.  1.
    10030    2    1    2    0    0  0.00000000000E+00  0.00000000000E+00 -0.64331773564E+02  0.30011091778E+04  0.30004195906E+04 0.  0.
        3    1    3    3  502    0  0.98446952205E+03 -0.11260043683E+04 -0.14865441743E+03  0.15030516369E+04  0.10100000352E+00 0. -1.
       -3    1    3    3    0  502 -0.98446952205E+03  0.11260043683E+04  0.84322643871E+02  0.14980575408E+04  0.10100000352E+00 0.  1.
</event>
<event>
 5   0  0.7307508E-07  0.3001528E+04  0.7818609E-02  0.8243295E-01
        2   -1    0    0  501    0  0.00000000000E+00  0.00000000000E+00  0.16278289561E+04  0.16278289561E+04  0.25500000920E-02 0. -1.
       -2   -1    0    0    0  501  0.00000000000E+00  0.00000000000E+00 -0.13836173227E+04  0.13836173227E+04  0.25500000920E-02 0.  1.
    10030    2    1    2    0    0  0.00000000000E+00  0.00000000000E+00  0.24421163342E+03  0.30114462788E+04  0.30015278390E+04 0.  0.
        1    1    3    3  502    0 -0.12986224169E+04  0.72274262989E+03 -0.87186599959E+02  0.14887506822E+04  0.50400001928E-02 0.  1.
       -1    1    3    3    0  502  0.12986224169E+04 -0.72274262989E+03  0.33139823338E+03  0.15226955965E+04  0.50400001928E-02 0. -1.
</event>
<event>
 5   0  0.7307508E-07  0.3001739E+04  0.7818609E-02  0.8243234E-01
       -2   -1    0    0    0  501  0.00000000000E+00  0.00000000000E+00  0.15140385396E+04  0.15140385397E+04  0.25500000920E-02 0. -1.
        2   -1    0    0  501    0  0.00000000000E+00  0.00000000000E+00 -0.14878154539E+04  0.14878154539E+04  0.25500000920E-02 0.  1.
    10030    2    1    2    0    0  0.00000000000E+00  0.00000000000E+00  0.26223085748E+02  0.30018539936E+04  0.30017394538E+04 0.  0.
        1    1    3    3  502    0 -0.13742936808E+04  0.59828029970E+03 -0.64270340049E+02  0.15002510173E+04  0.50400001928E-02 0. -1.
       -1    1    3    3    0  502  0.13742936808E+04 -0.59828029970E+03  0.90493425797E+02  0.15016029763E+04  0.50400001928E-02 0.  1.
</event>
<event>
 5   0  0.7585823E-07  0.3002243E+04  0.7818609E-02  0.8243091E-01
       -2   -1    0    0    0  501  0.00000000000E+00  0.00000000000E+00  0.11131657365E+04  0.11131657365E+04  0.25500000920E-02 0.  1.
        2   -1    0    0  501    0  0.00000000000E+00  0.00000000000E+00 -0.20242861125E+04  0.20242861125E+04  0.25500000920E-02 0. -1.
    10030    2    1    2    0    0  0.00000000000E+00  0.00000000000E+00 -0.91112037602E+03  0.31374518489E+04  0.30022431222E+04 0.  0.
        5    1    3    3  502    0 -0.40707026449E+03  0.93629511001E+03  0.69444905527E+03  0.12347616424E+04  0.46999998093E+01 0.  1.
       -5    1    3    3    0  502  0.40707026449E+03 -0.93629511001E+03 -0.16055694313E+04  0.19026902065E+04  0.46999998093E+01 0. -1.
</event>
<event>
 5   0  0.2602891E-07  0.3001204E+04  0.7818609E-02  0.8243387E-01
        1   -1    0    0  501    0  0.00000000000E+00  0.00000000000E+00  0.13112756388E+04  0.13112756388E+04  0.50400001928E-02 0. -1.
       -1   -1    0    0    0  501  0.00000000000E+00  0.00000000000E+00 -0.17172637762E+04  0.17172637763E+04  0.50400001928E-02 0.  1.
    10030    2    1    2    0    0  0.00000000000E+00  0.00000000000E+00 -0.40598813747E+03  0.30285394150E+04  0.30012038619E+04 0.  0.
        5    1    3    3  502    0 -0.44388701385E+03  0.69685424764E+03  0.10610695500E+04  0.13448167918E+04  0.46999998093E+01 0. -1.
       -5    1    3    3    0  502  0.44388701385E+03 -0.69685424764E+03 -0.14670576875E+04  0.16837226232E+04  0.46999998093E+01 0.  1.
</event>
<event>
 5   0  0.7399409E-07  0.3008225E+04  0.7818609E-02  0.8241386E-01
       -2   -1    0    0    0  501  0.00000000000E+00  0.00000000000E+00  0.18439673735E+04  0.18439673735E+04  0.25500000920E-02 0. -1.
        2   -1    0    0  501    0  0.00000000000E+00  0.00000000000E+00 -0.12268952864E+04  0.12268952864E+04  0.25500000920E-02 0.  1.
    10030    2    1    2    0    0  0.00000000000E+00  0.00000000000E+00  0.61707208706E+03  0.30708626599E+04  0.30082253099E+04 0.  0.
        3    1    3    3  502    0 -0.90351096226E+03 -0.68229873119E+03 -0.70227945957E+03  0.13323138020E+04  0.10100000352E+00 0.  1.
       -3    1    3    3    0  502  0.90351096226E+03  0.68229873119E+03  0.13193515466E+04  0.17385488579E+04  0.10100000352E+00 0. -1.
</event>
<event>
 5   0  0.2679935E-07  0.2996243E+04  0.7818609E-02  0.8244804E-01
       -1   -1    0    0    0  501  0.00000000000E+00  0.00000000000E+00  0.13645424239E+04  0.13645424239E+04  0.50400001928E-02 0. -1.
        1   -1    0    0  501    0  0.00000000000E+00  0.00000000000E+00 -0.16447772893E+04  0.16447772893E+04  0.50400001928E-02 0.  1.
    10030    2    1    2    0    0  0.00000000000E+00  0.00000000000E+00 -0.28023486541E+03  0.30093197131E+04  0.29962432405E+04 0.  0.
        2    1    3    3  502    0 -0.82054435571E+03 -0.65132313302E+03  0.93546881268E+03  0.14044987586E+04  0.25500000920E-02 0. -1.
       -2    1    3    3    0  502  0.82054435571E+03  0.65132313302E+03 -0.12157036781E+04  0.16048209546E+04  0.25500000920E-02 0.  1.
</event>
<event>
 5   0  0.2640081E-07  0.3009670E+04  0.7818609E-02  0.8240975E-01
        1   -1    0    0  501    0  0.00000000000E+00  0.00000000000E+00  0.15232685881E+04  0.15232685881E+04  0.50400001928E-02 0.  1.
       -1   -1    0    0    0  501  0.00000000000E+00  0.00000000000E+00 -0.14866248536E+04  0.14866248536E+04  0.50400001928E-02 0. -1.
    10030    2    1    2    0    0  0.00000000000E+00  0.00000000000E+00  0.36643734520E+02  0.30098934417E+04  0.30096703752E+04 0.  0.
        1    1    3    3  502    0  0.12178338033E+04 -0.88105718042E+03  0.90076848182E+02  0.15058202968E+04  0.50400001928E-02 0. -1.
       -1    1    3    3    0  502 -0.12178338033E+04  0.88105718042E+03 -0.53433113662E+02  0.15040731449E+04  0.50400001928E-02 0.  1.
</event>
<event>
 5   0  0.2621825E-07  0.3002003E+04  0.7818609E-02  0.8243159E-01
       -1   -1    0    0    0  501  0.00000000000E+00  0.00000000000E+00  0.11592936501E+04  0.11592936501E+04  0.50400001928E-02 0. -1.
        1   -1    0    0  501    0  0.00000000000E+00  0.00000000000E+00 -0.19434293871E+04  0.19434293871E+04  0.50400001928E-02 0.  1.
    10030    2    1    2    0    0  0.00000000000E+00  0.00000000000E+00 -0.78413573706E+03  0.31027230372E+04  0.30020028967E+04 0.  0.
        3    1    3    3  502    0  0.50444960271E+03 -0.13713706960E+04 -0.74692123343E+03  0.16410418418E+04  0.10100000352E+00 0.  1.
       -3    1    3    3    0  502 -0.50444960271E+03  0.13713706960E+04 -0.37214503627E+02  0.14616811954E+04  0.10100000352E+00 0. -1.
</event>
<event>
 5   0  0.2621825E-07  0.2998462E+04  0.7818609E-02  0.8244170E-01
       -1   -1    0    0    0  501  0.00000000000E+00  0.00000000000E+00  0.11503711182E+04  0.11503711183E+04  0.50400001928E-02 0. -1.
        1   -1    0    0  501    0  0.00000000000E+00  0.00000000000E+00 -0.19538851842E+04  0.19538851842E+04  0.50400001928E-02 0.  1.
    10030    2    1    2    0    0  0.00000000000E+00  0.00000000000E+00 -0.80351406599E+03  0.31042563025E+04  0.29984616618E+04 0.  0.
        3    1    3    3  502    0  0.13906786593E+04 -0.55232980622E+03 -0.30553848933E+03  0.15272226841E+04  0.10100000352E+00 0. -1.
       -3    1    3    3    0  502 -0.13906786593E+04  0.55232980622E+03 -0.49797557666E+03  0.15770336184E+04  0.10100000352E+00 0.  1.
</event>
<event>
 5   0  0.7278657E-07  0.2993487E+04  0.7818609E-02  0.8245593E-01
       -2   -1    0    0    0  501  0.00000000000E+00  0.00000000000E+00  0.13456782636E+04  0.13456782636E+04  0.25500000920E-02 0.  1.
        2   -1    0    0  501    0  0.00000000000E+00  0.00000000000E+00 -0.16647672217E+04  0.16647672217E+04  0.25500000920E-02 0. -1.
    10030    2    1    2    0    0  0.00000000000E+00  0.00000000000E+00 -0.31908895811E+03  0.30104454854E+04  0.29934869729E+04 0.  0.
        2    1    3    3  502    0  0.14890605933E+04 -0.14997728327E+03 -0.13829593290E+03  0.15029705257E+04  0.25500000920E-02 0.  1.
       -2    1    3    3    0  502 -0.14890605933E+04  0.14997728327E+03 -0.18079302521E+03  0.15074749597E+04  0.25500000920E-02 0. -1.
</event>
<event>
 5   0  0.2602891E-07  0.2995762E+04  0.7818609E-02  0.8244942E-01
       -1   -1    0    0    0  501  0.00000000000E+00  0.00000000000E+00  0.95140186719E+03  0.95140186720E+03  0.50400001928E-02 0.  1.
        1   -1    0    0  501    0  0.00000000000E+00  0.00000000000E+00 -0.23582543107E+04  0.23582543107E+04  0.50400001928E-02 0. -1.
    10030    2    1    2    0    0  0.00000000000E+00  0.00000000000E+00 -0.14068524435E+04  0.33096561779E+04  0.29957620430E+04 0.  0.
        5    1    3    3  502    0 -0.14823028641E+04 -0.17468412531E+02 -0.46622378677E+03  0.15539992393E+04  0.46999998093E+01 0.  1.
       -5    1    3    3    0  502  0.14823028641E+04  0.17468412531E+02 -0.94062865676E+03  0.17556569387E+04  0.46999998093E+01 0. -1.
</event>
<event>
 5   0  0.7585823E-07  0.3008832E+04  0.7818609E-02  0.8241213E-01
        2   -1    0    0  501    0  0.00000000000E+00  0.00000000000E+00  0.19906827739E+04  0.19906827739E+04  0.25500000920E-02 0. -1.
       -2   -1    0    0    0  501  0.00000000000E+00  0.00000000000E+00 -0.11369298990E+04  0.11369298990E+04  0.25500000920E-02 0.  1.
    10030    2    1    2    0    0  0.00000000000E+00  0.00000000000E+00  0.85375287498E+03  0.31276126729E+04  0.30088315108E+04 0.  0.
        5    1    3    3  502    0 -0.51297361529E+03  0.35600932070E+03 -0.99586417769E+03  0.11754369897E+04  0.46999998093E+01 0.  1.
       -5    1    3    3    0  502  0.51297361529E+03 -0.35600932070E+03  0.18496170527E+04  0.19521756832E+04  0.46999998093E+01 0. -1.
</event>
<event>
 5   0  0.2679935E-07  0.3002523E+04  0.7818609E-02  0.8243011E-01
        1   -1    0    0  501    0  0.00000000000E+00  0.00000000000E+00  0.15591010209E+04  0.15591010209E+04  0.50400001928E-02 0. -1.
       -1   -1    0    0    0  501  0.00000000000E+00  0.00000000000E+00 -0.14455676908E+04  0.14455676908E+04  0.50400001928E-02 0.  1.
    10030    2    1    2    0    0  0.00000000000E+00  0.00000000000E+00  0.11353333015E+03  0.30046687117E+04  0.30025229807E+04 0.  0.
        2    1    3    3  502    0 -0.22879004765E+03 -0.11422216483E+04  0.10044232917E+04  0.15381421679E+04  0.25500000920E-02 0. -1.
       -2    1    3    3    0  502  0.22879004765E+03  0.11422216483E+04 -0.89088996160E+03  0.14665265437E+04  0.25500000920E-02 0.  1.
</event>
<event>
 5   0  0.2679935E-07  0.3001397E+04  0.7818609E-02  0.8243332E-01
       -1   -1    0    0    0  501  0.00000000000E+00  0.00000000000E+00  0.14299003265E+04  0.14299003265E+04  0.50400001928E-02 0. -1.
        1   -1    0    0  501    0  0.00000000000E+00  0.00000000000E+00 -0.15750023906E+04  0.15750023906E+04  0.50400001928E-02 0.  1.
    10030    2    1    2    0    0  0.00000000000E+00  0.00000000000E+00 -0.14510206408E+03  0.30049027171E+04  0.30013972963E+04 0.  0.
        2    1    3    3  502    0 -0.15692274634E+03  0.26625098948E+03  0.13976946987E+04  0.14314554860E+04  0.25500000920E-02 0. -1.
       -2    1    3    3    0  502  0.15692274634E+03 -0.26625098948E+03 -0.15427967628E+04  0.15734472310E+04  0.25500000920E-02 0.  1.
</event>
<event>
 5   0  0.2640081E-07  0.2995267E+04  0.7818609E-02  0.8245084E-01
       -1   -1    0    0    0  501  0.00000000000E+00  0.00000000000E+00  0.11869820348E+04  0.11869820348E+04  0.50400001928E-02 0. -1.
        1   -1    0    0  501    0  0.00000000000E+00  0.00000000000E+00 -0.18895875831E+04  0.18895875831E+04  0.50400001928E-02 0.  1.
    10030    2    1    2    0    0  0.00000000000E+00  0.00000000000E+00 -0.70260554829E+03  0.30765696180E+04  0.29952672765E+04 0.  0.
        1    1    3    3  502    0 -0.46921017930E+03  0.24055714578E+03  0.10884875328E+04  0.12094755234E+04  0.50400001928E-02 0. -1.
       -1    1    3    3    0  502  0.46921017930E+03 -0.24055714578E+03 -0.17910930811E+04  0.18670940945E+04  0.50400001928E-02 0.  1.
</event>
<event>
 5   0  0.2679935E-07  0.2988339E+04  0.7818609E-02  0.8247069E-01
        1   -1    0    0  501    0  0.00000000000E+00  0.00000000000E+00  0.11823046994E+04  0.11823046994E+04  0.50400001928E-02 0. -1.
       -1   -1    0    0    0  501  0.00000000000E+00  0.00000000000E+00 -0.18882966262E+04  0.18882966262E+04  0.50400001928E-02 0.  1.
    10030    2    1    2    0    0  0.00000000000E+00  0.00000000000E+00 -0.70599192675E+03  0.30706013256E+04  0.29883386522E+04 0.  0.
        2    1    3    3  502    0 -0.10265391675E+04 -0.62631721927E+03 -0.12642493048E+04  0.17448158144E+04  0.25500000920E-02 0.  1.
       -2    1    3    3    0  502  0.10265391675E+04  0.62631721927E+03  0.55825737810E+03  0.13257855112E+04  0.25500000920E-02 0. -1.
</event>
<event>
 5   0  0.7307508E-07  0.3000076E+04  0.7818609E-02  0.8243709E-01
        2   -1    0    0  501    0  0.00000000000E+00  0.00000000000E+00  0.13831188602E+04  0.13831188602E+04  0.25500000920E-02 0. -1.
       -2   -1    0    0    0  501  0.00000000000E+00  0.00000000000E+00 -0.16268406567E+04  0.16268406567E+04  0.25500000920E-02 0.  1.
    10030    2    1    2    0    0  0.00000000000E+00  0.00000000000E+00 -0.24372179649E+03  0.30099595168E+04  0.30000759955E+04 0.  0.
        1    1    3    3  502    0 -0.21359987600E+03 -0.49134729613E+03  0.12838498032E+04  0.13911568530E+04  0.50400001928E-02 0. -1.
       -1    1    3    3    0  502  0.21359987600E+03  0.49134729613E+03 -0.15275715996E+04  0.16188026639E+04  0.50400001928E-02 0.  1.
</event>
<event>
 5   0  0.7307508E-07  0.2988421E+04  0.7818609E-02  0.8247045E-01
       -2   -1    0    0    0  501  0.00000000000E+00  0.00000000000E+00  0.10478747916E+04  0.10478747916E+04  0.25500000920E-02 0. -1.
        2   -1    0    0  501    0  0.00000000000E+00  0.00000000000E+00 -0.21306595511E+04  0.21306595511E+04  0.25500000920E-02 0.  1.
    10030    2    1    2    0    0  0.00000000000E+00  0.00000000000E+00 -0.10827847595E+04  0.31785343427E+04  0.29884206083E+04 0.  0.
        1    1    3    3  502    0 -0.12571455236E+04  0.16212632443E+03 -0.13829039260E+04  0.18759325897E+04  0.50400001928E-02 0.  1.
       -1    1    3    3    0  502  0.12571455236E+04 -0.16212632443E+03  0.30011916648E+03  0.13026017529E+04  0.50400001928E-02 0. -1.
</event>
<event>
 5   0  0.2792361E-07  0.2989056E+04  0.7818609E-02  0.8246863E-01
        1   -1    0    0  501    0  0.00000000000E+00  0.00000000000E+00  0.23909394093E+04  0.23909394093E+04  0.50400001928E-02 0. -1.
       -1   -1    0    0    0  501  0.00000000000E+00  0.00000000000E+00 -0.93419907676E+03  0.93419907677E+03  0.50400001928E-02 0.  1.
    10030    2    1    2    0    0  0.00000000000E+00  0.00000000000E+00  0.14567403326E+04  0.33251384861E+04  0.29890556293E+04 0.  0.
        4    1    3    3  502    0  0.11847926918E+04 -0.82549755633E+03  0.29978289131E+03  0.14748055237E+04  0.12699999809E+01 0.  1.
       -4    1    3    3    0  502 -0.11847926918E+04  0.82549755633E+03  0.11569574413E+04  0.18503329624E+04  0.12699999809E+01 0. -1.
</event>
<event>
 5   0  0.7585823E-07  0.2987947E+04  0.7818609E-02  0.8247181E-01
       -2   -1    0    0    0  501  0.00000000000E+00  0.00000000000E+00  0.16963696170E+04  0.16963696170E+04  0.25500000920E-02 0. -1.
        2   -1    0    0  501    0  0.00000000000E+00  0.00000000000E+00 -0.13157258855E+04  0.13157258855E+04  0.25500000920E-02 0.  1.
    10030    2    1    2    0    0  0.00000000000E+00  0.00000000000E+00  0.38064373142E+03  0.30120955025E+04  0.29879474001E+04 0.  0.
        5    1    3    3  502    0  0.32210082209E+03 -0.14114490520E+04 -0.18143755895E+03  0.14590678681E+04  0.46999998093E+01 0.  1.
       -5    1    3    3    0  502 -0.32210082209E+03  0.14114490520E+04  0.56208129037E+03  0.15530276343E+04  0.46999998093E+01 0. -1.
</event>
<event>
 5   0  0.2602891E-07  0.2992930E+04  0.7818609E-02  0.8245753E-01
        1   -1    0    0  501    0  0.00000000000E+00  0.00000000000E+00  0.23221825321E+04  0.23221825321E+04  0.50400001928E-02 0. -1.
       -1   -1    0    0    0  501  0.00000000000E+00  0.00000000000E+00 -0.96435456219E+03  0.96435456220E+03  0.50400001928E-02 0.  1.
    10030    2    1    2    0    0  0.00000000000E+00  0.00000000000E+00  0.13578279699E+04  0.32865370943E+04  0.29929298816E+04 0.  0.
        5    1    3    3  502    0 -0.45358606795E+03  0.79161454475E+03 -0.62361592656E+03  0.11051302287E+04  0.46999998093E+01 0.  1.
       -5    1    3    3    0  502  0.45358606795E+03 -0.79161454475E+03  0.19814438965E+04  0.21814068656E+04  0.46999998093E+01 0. -1.
</event>
<event>
 5   0  0.2679935E-07  0.2995567E+04  0.7818609E-02  0.8244998E-01
        1   -1    0    0  501    0  0.00000000000E+00  0.00000000000E+00  0.19303142800E+04  0.19303142800E+04  0.50400001928E-02 0.  1.
       -1   -1    0    0    0  501  0.00000000000E+00  0.00000000000E+00 -0.11621708950E+04  0.11621708950E+04  0.50400001928E-02 0. -1.
    10030    2    1    2    0    0  0.00000000000E+00  0.00000000000E+00  0.76814338497E+03  0.30924851750E+04  0.29955667740E+04 0.  0.
        2    1    3    3  502    0 -0.10805936249E+04  0.92481728607E+03 -0.10056926049E+03  0.14258624657E+04  0.25500000920E-02 0. -1.
       -2    1    3    3    0  502  0.10805936249E+04 -0.92481728607E+03  0.86871264546E+03  0.16666227093E+04  0.25500000920E-02 0.  1.
</event>
<event>
 5   0  0.7585823E-07  0.3003564E+04  0.7818609E-02  0.8242714E-01
       -2   -1    0    0    0  501  0.00000000000E+00  0.00000000000E+00  0.11565027146E+04  0.11565027146E+04  0.25500000920E-02 0.  1.
        2   -1    0    0  501    0  0.00000000000E+00  0.00000000000E+00 -0.19501456971E+04  0.19501456971E+04  0.25500000920E-02 0. -1.
    10030    2    1    2    0    0  0.00000000000E+00  0.00000000000E+00 -0.79364298255E+03  0.31066484117E+04  0.30035637450E+04 0.  0.
        5    1    3    3  502    0  0.12926254739E+04  0.64357784101E+03 -0.82360090954E+03  0.16623518284E+04  0.46999998093E+01 0. -1.
       -5    1    3    3    0  502 -0.12926254739E+04 -0.64357784101E+03  0.29957926996E+02  0.14442965833E+04  0.46999998093E+01 0.  1.
</event>
<event>
 5   0  0.7307508E-07  0.2991651E+04  0.7818609E-02  0.8246119E-01
        2   -1    0    0  501    0  0.00000000000E+00  0.00000000000E+00  0.29924426743E+04  0.29924426743E+04  0.25500000920E-02 0.  1.
       -2   -1    0    0    0  501  0.00000000000E+00  0.00000000000E+00 -0.74771505505E+03  0.74771505505E+03  0.25500000920E-02 0. -1.
    10030    2    1    2    0    0  0.00000000000E+00  0.00000000000E+00  0.22447276192E+04  0.37401577293E+04  0.29916513426E+04 0.  0.
        1    1    3    3  502    0 -0.11680670577E+04  0.18754591580E+03 -0.22056306480E+02  0.11832331142E+04  0.50400001928E-02 0. -1.
       -1    1    3    3    0  502  0.11680670577E+04 -0.18754591580E+03  0.22667839257E+04  0.25569246152E+04  0.50400001928E-02 0.  1.
</event>
<event>
 5   0  0.2679935E-07  0.2998111E+04  0.7818609E-02  0.8244271E-01
       -1   -1    0    0    0  501  0.00000000000E+00  0.00000000000E+00  0.13596592812E+04  0.13596592812E+04  0.50400001928E-02 0. -1.
        1   -1    0    0  501    0  0.00000000000E+00  0.00000000000E+00 -0.16527429561E+04  0.16527429561E+04  0.50400001928E-02 0.  1.
    10030    2    1    2    0    0  0.00000000000E+00  0.00000000000E+00 -0.29308367485E+03  0.30124022373E+04  0.29981109384E+04 0.  0.
        2    1    3    3  502    0  0.11066327244E+03 -0.84915911053E+03 -0.13827928165E+04  0.16264788742E+04  0.25500000920E-02 0.  1.
       -2    1    3    3    0  502 -0.11066327244E+03  0.84915911053E+03  0.10897091417E+04  0.13859233631E+04  0.25500000920E-02 0. -1.
</event>
<event>
 5   0  0.2602891E-07  0.3001301E+04  0.7818609E-02  0.8243360E-01
       -1   -1    0    0    0  501  0.00000000000E+00  0.00000000000E+00  0.94677073412E+03  0.94677073413E+03  0.50400001928E-02 0.  1.
        1   -1    0    0  501    0  0.00000000000E+00  0.00000000000E+00 -0.23785603207E+04  0.23785603207E+04  0.50400001928E-02 0. -1.
    10030    2    1    2    0    0  0.00000000000E+00  0.00000000000E+00 -0.14317895866E+04  0.33253310548E+04  0.30013005854E+04 0.  0.
        5    1    3    3  502    0  0.97101146303E+03 -0.27526151906E+02  0.55140813099E+03  0.11170022235E+04  0.46999998093E+01 0.  1.
       -5    1    3    3    0  502 -0.97101146303E+03  0.27526151906E+02 -0.19831977176E+04  0.22083288313E+04  0.46999998093E+01 0. -1.
</event>
<event>
 5   0  0.2621825E-07  0.2991659E+04  0.7818609E-02  0.8246117E-01
       -1   -1    0    0    0  501  0.00000000000E+00  0.00000000000E+00  0.13520240768E+04  0.13520240768E+04  0.50400001928E-02 0. -1.
        1   -1    0    0  501    0  0.00000000000E+00  0.00000000000E+00 -0.16549305249E+04  0.16549305249E+04  0.50400001928E-02 0.  1.
    10030    2    1    2    0    0  0.00000000000E+00  0.00000000000E+00 -0.30290644812E+03  0.30069546017E+04  0.29916590148E+04 0.  0.
        3    1    3    3  502    0  0.94618841688E+03  0.11574066862E+04 -0.20312762759E+03  0.15086827370E+04  0.10100000352E+00 0.  1.
       -3    1    3    3    0  502 -0.94618841688E+03 -0.11574066862E+04 -0.99778820527E+02  0.14982718648E+04  0.10100000352E+00 0. -1.
</event>
<event>
 5   0  0.2621825E-07  0.3005102E+04  0.7818609E-02  0.8242276E-01
        1   -1    0    0  501    0  0.00000000000E+00  0.00000000000E+00  0.12978204705E+04  0.12978204705E+04  0.50400001928E-02 0. -1.
       -1   -1    0    0    0  501  0.00000000000E+00  0.00000000000E+00 -0.17395772786E+04  0.17395772786E+04  0.50400001928E-02 0.  1.
    10030    2    1    2    0    0  0.00000000000E+00  0.00000000000E+00 -0.44175680804E+03  0.30373977491E+04  0.30051016636E+04 0.  0.
        3    1    3    3  502    0 -0.99937614060E+03 -0.11053540209E+04 -0.41555891985E+03  0.15470130600E+04  0.10100000352E+00 0.  1.
       -3    1    3    3    0  502  0.99937614060E+03  0.11053540209E+04 -0.26197888195E+02  0.14903846891E+04  0.10100000352E+00 0. -1.
</event>
<event>
 5   0  0.2602891E-07  0.3001244E+04  0.7818609E-02  0.8243376E-01
       -1   -1    0    0    0  501  0.00000000000E+00  0.00000000000E+00  0.89517418609E+03  0.89517418610E+03  0.50400001928E-02 0.  1.
        1   -1    0    0  501    0  0.00000000000E+00  0.00000000000E+00 -0.25155622964E+04  0.25155622965E+04  0.50400001928E-02 0. -1.
    10030    2    1    2    0    0  0.00000000000E+00  0.00000000000E+00 -0.16203881104E+04  0.34107364826E+04  0.30012440296E+04 0.  0.
        5    1    3    3  502    0 -0.36578276086E+03 -0.37441387103E+03  0.78805627628E+03  0.94606424705E+03  0.46999998093E+01 0.  1.
       -5    1    3    3    0  502  0.36578276086E+03  0.37441387103E+03 -0.24084443866E+04  0.24646722355E+04  0.46999998093E+01 0. -1.
</event>
<event>
 5   0  0.2792361E-07  0.2998135E+04  0.7818609E-02  0.8244264E-01
        1   -1    0    0  501    0  0.00000000000E+00  0.00000000000E+00  0.18710477056E+04  0.18710477056E+04  0.50400001928E-02 0. -1.
       -1   -1    0    0    0  501  0.00000000000E+00  0.00000000000E+00 -0.12010404780E+04  0.12010404780E+04  0.50400001928E-02 0.  1.
    10030    2    1    2    0    0  0.00000000000E+00  0.00000000000E+00  0.67000722758E+03  0.30720881836E+04  0.29981354411E+04 0.  0.
        4    1    3    3  502    0 -0.47710139502E+03 -0.12479670309E+03 -0.11155425497E+04  0.12196871530E+04  0.12699999809E+01 0.  1.
       -4    1    3    3    0  502  0.47710139502E+03  0.12479670309E+03  0.17855497772E+04  0.18524010306E+04  0.12699999809E+01 0. -1.
</event>
<event>
 5   0  0.2602891E-07  0.3003077E+04  0.7818609E-02  0.8242853E-01
        1   -1    0    0  501    0  0.00000000000E+00  0.00000000000E+00  0.22467542415E+04  0.22467542415E+04  0.50400001928E-02 0.  1.
       -1   -1    0    0    0  501  0.00000000000E+00  0.00000000000E+00 -0.10034998457E+04  0.10034998457E+04  0.50400001928E-02 0. -1.
    10030    2    1    2    0    0  0.00000000000E+00  0.00000000000E+00  0.12432543958E+04  0.32502540872E+04  0.30030767787E+04 0.  0.
        5    1    3    3  502    0 -0.11037809327E+04  0.10386113850E+02 -0.48007264661E+03  0.12037159361E+04  0.46999998093E+01 0. -1.
       -5    1    3    3    0  502  0.11037809327E+04 -0.10386113850E+02  0.17233270424E+04  0.20465381511E+04  0.46999998093E+01 0.  1.
</event>
<event>
 5   0  0.7208273E-07  0.3001371E+04  0.7818609E-02  0.8243339E-01
        2   -1    0    0  501    0  0.00000000000E+00  0.00000000000E+00  0.25497011849E+04  0.25497011849E+04  0.25500000920E-02 0. -1.
       -2   -1    0    0    0  501  0.00000000000E+00  0.00000000000E+00 -0.88326321882E+03  0.88326321882E+03  0.25500000920E-02 0.  1.
    10030    2    1    2    0    0  0.00000000000E+00  0.00000000000E+00  0.16664379661E+04  0.34329644037E+04  0.30013712037E+04 0.  0.
        4    1    3    3  502    0 -0.19687577470E+03 -0.60529381323E+03 -0.72121771971E+03  0.96192374080E+03  0.12699999809E+01 0.  1.
       -4    1    3    3    0  502  0.19687577470E+03  0.60529381323E+03  0.23876556858E+04  0.24710406629E+04  0.12699999809E+01 0. -1.
</event>
<event>
 5   0  0.2602891E-07  0.3064657E+04  0.7818609E-02  0.8225505E-01
       -1   -1    0    0    0  501  0.00000000000E+00  0.00000000000E+00  0.26473205903E+04  0.26473205903E+04  0.50400001928E-02 0. -1.
        1   -1    0    0  501    0  0.00000000000E+00  0.00000000000E+00 -0.88694601104E+03  0.88694601105E+03  0.50400001928E-02 0.  1.
    10030    2    1    2    0    0  0.00000000000E+00  0.00000000000E+00  0.17603745792E+04  0.35342666013E+04  0.30646568731E+04 0.  0.
        5    1    3    3  502    0  0.12682110678E+04  0.57039971944E+03  0.13790115257E+03  0.13974097360E+04  0.46999998093E+01 0.  1.
       -5    1    3    3    0  502 -0.12682110678E+04 -0.57039971944E+03  0.16224734267E+04  0.21368568653E+04  0.46999998093E+01 0. -1.
</event>
<event>
 5   0  0.7399409E-07  0.3011893E+04  0.7818609E-02  0.8240343E-01
       -2   -1    0    0    0  501  0.00000000000E+00  0.00000000000E+00  0.12303459581E+04  0.12303459582E+04  0.25500000920E-02 0. -1.
        2   -1    0    0  501    0  0.00000000000E+00  0.00000000000E+00 -0.18432825987E+04  0.18432825987E+04  0.25500000920E-02 0.  1.
    10030    2    1    2    0    0  0.00000000000E+00  0.00000000000E+00 -0.61293664051E+03  0.30736285568E+04  0.30118932883E+04 0.  0.
        3    1    3    3  502    0  0.14638026559E+04  0.50926858331E+02 -0.66373492495E+03  0.16080596447E+04  0.10100000352E+00 0.  1.
       -3    1    3    3    0  502 -0.14638026559E+04 -0.50926858331E+02  0.50798284444E+02  0.14655689121E+04  0.10100000352E+00 0. -1.
</event>
<event>
 5   0  0.7399409E-07  0.2997432E+04  0.7818609E-02  0.8244465E-01
        2   -1    0    0  501    0  0.00000000000E+00  0.00000000000E+00  0.20163889259E+04  0.20163889259E+04  0.25500000920E-02 0.  1.
       -2   -1    0    0    0  501  0.00000000000E+00  0.00000000000E+00 -0.11139464746E+04  0.11139464746E+04  0.25500000920E-02 0. -1.
    10030    2    1    2    0    0  0.00000000000E+00  0.00000000000E+00  0.90244245132E+03  0.31303354005E+04  0.29974317910E+04 0.  0.
        3    1    3    3  502    0  0.61488046919E+03  0.11709928768E+04  0.11873484957E+04  0.17773853744E+04  0.10100000352E+00 0.  1.
       -3    1    3    3    0  502 -0.61488046919E+03 -0.11709928768E+04 -0.28490604435E+03  0.13529500261E+04  0.10100000352E+00 0. -1.
</event>
<event>
 5   0  0.2679935E-07  0.2997554E+04  0.7818609E-02  0.8244430E-01
        1   -1    0    0  501    0  0.00000000000E+00  0.00000000000E+00  0.19006121222E+04  0.19006121222E+04  0.50400001928E-02 0.  1.
       -1   -1    0    0    0  501  0.00000000000E+00  0.00000000000E+00 -0.11818995395E+04  0.11818995395E+04  0.50400001928E-02 0. -1.
    10030    2    1    2    0    0  0.00000000000E+00  0.00000000000E+00  0.71871258265E+03  0.30825116617E+04  0.29975540643E+04 0.  0.
        2    1    3    3  502    0 -0.14406772517E+04 -0.30447508695E+03  0.72014982266E+02  0.14742598753E+04  0.25500000920E-02 0. -1.
       -2    1    3    3    0  502  0.14406772517E+04  0.30447508695E+03  0.64669760038E+03  0.16082517864E+04  0.25500000920E-02 0.  1.
</event>
<event>
 5   0  0.7585823E-07  0.2995527E+04  0.7818609E-02  0.8245009E-01
        2   -1    0    0  501    0  0.00000000000E+00  0.00000000000E+00  0.16865829116E+04  0.16865829116E+04  0.25500000920E-02 0. -1.
       -2   -1    0    0    0  501  0.00000000000E+00  0.00000000000E+00 -0.13300833615E+04  0.13300833615E+04  0.25500000920E-02 0.  1.
    10030    2    1    2    0    0  0.00000000000E+00  0.00000000000E+00  0.35649955009E+03  0.30166662732E+04  0.29955272448E+04 0.  0.
        5    1    3    3  502    0 -0.13098624148E+03  0.14867596583E+03  0.16733178077E+04  0.16850152859E+04  0.46999998093E+01 0. -1.
       -5    1    3    3    0  502  0.13098624148E+03 -0.14867596583E+03 -0.13168182576E+04  0.13316509872E+04  0.46999998093E+01 0.  1.
</event>
<event>
 5   0  0.2602891E-07  0.3006921E+04  0.7818609E-02  0.8241757E-01
       -1   -1    0    0    0  501  0.00000000000E+00  0.00000000000E+00  0.89310704046E+03  0.89310704048E+03  0.50400001928E-02 0. -1.
        1   -1    0    0  501    0  0.00000000000E+00  0.00000000000E+00 -0.25309328314E+04  0.25309328314E+04  0.50400001928E-02 0.  1.
    10030    2    1    2    0    0  0.00000000000E+00  0.00000000000E+00 -0.16378257909E+04  0.34240398719E+04  0.30069213030E+04 0.  0.
        5    1    3    3  502    0  0.82960513519E+03  0.12530247883E+04 -0.87054651313E+03  0.17367179166E+04  0.46999998093E+01 0. -1.
       -5    1    3    3    0  502 -0.82960513519E+03 -0.12530247883E+04 -0.76727927777E+03  0.16873219552E+04  0.46999998093E+01 0.  1.
</event>
<event>
 5   0  0.2679935E-07  0.3003593E+04  0.7818609E-02  0.8242706E-01
       -1   -1    0    0    0  501  0.00000000000E+00  0.00000000000E+00  0.14873764633E+04  0.14873764633E+04  0.50400001928E-02 0. -1.
        1   -1    0    0  501    0  0.00000000000E+00  0.00000000000E+00 -0.15163564059E+04  0.15163564059E+04  0.50400001928E-02 0.  1.
    10030    2    1    2    0    0  0.00000000000E+00  0.00000000000E+00 -0.28979942512E+02  0.30037328692E+04  0.30035930671E+04 0.  0.
        2    1    3    3  502    0  0.75087353675E+03 -0.43709396928E+03 -0.12395084648E+04  0.15136853836E+04  0.25500000920E-02 0.  1.
       -2    1    3    3    0  502 -0.75087353675E+03  0.43709396928E+03  0.12105285223E+04  0.14900474856E+04  0.25500000920E-02 0. -1.
</event>
<event>
 5   0  0.7585823E-07  0.3005838E+04  0.7818609E-02  0.8242066E-01
       -2   -1    0    0    0  501  0.00000000000E+00  0.00000000000E+00  0.21322530626E+04  0.21322530626E+04  0.25500000920E-02 0. -1.
        2   -1    0    0  501    0  0.00000000000E+00  0.00000000000E+00 -0.10593328794E+04  0.10593328794E+04  0.25500000920E-02 0.  1.
    10030    2    1    2    0    0  0.00000000000E+00  0.00000000000E+00  0.10729201832E+04  0.31915859420E+04  0.30058381702E+04 0.  0.
        5    1    3    3  502    0 -0.13966439817E+04 -0.31164078363E+03  0.48716307557E+02  0.14318274192E+04  0.46999998093E+01 0.  1.
       -5    1    3    3    0  502  0.13966439817E+04  0.31164078363E+03  0.10242038756E+04  0.17597585228E+04  0.46999998093E+01 0. -1.
</event>
<event>
 5   0  0.7307508E-07  0.3000937E+04  0.7818609E-02  0.8243463E-01
       -2   -1    0    0    0  501  0.00000000000E+00  0.00000000000E+00  0.89121260310E+03  0.89121260310E+03  0.25500000920E-02 0. -1.
        2   -1    0    0  501    0  0.00000000000E+00  0.00000000000E+00 -0.25262279955E+04  0.25262279955E+04  0.25500000920E-02 0.  1.
    10030    2    1    2    0    0  0.00000000000E+00  0.00000000000E+00 -0.16350153924E+04  0.34174405986E+04  0.30009373388E+04 0.  0.
        1    1    3    3  502    0  0.85923980225E+03 -0.45040930291E+03  0.48601994497E+03  0.10850700276E+04  0.50400001928E-02 0. -1.
       -1    1    3    3    0  502 -0.85923980225E+03  0.45040930291E+03 -0.21210353373E+04  0.23323705709E+04  0.50400001928E-02 0.  1.
</event>
<event>
 5   0  0.2679935E-07  0.3006076E+04  0.7818609E-02  0.8241998E-01
       -1   -1    0    0    0  501  0.00000000000E+00  0.00000000000E+00  0.26479472586E+04  0.26479472586E+04  0.50400001928E-02 0. -1.
        1   -1    0    0  501    0  0.00000000000E+00  0.00000000000E+00 -0.85315997929E+03  0.85315997930E+03  0.50400001928E-02 0.  1.
    10030    2    1    2    0    0  0.00000000000E+00  0.00000000000E+00  0.17947872793E+04  0.35011072379E+04  0.30060756001E+04 0.  0.
        2    1    3    3  502    0 -0.10902993170E+04 -0.55899523276E+03  0.19113280254E+04  0.22703310533E+04  0.25500000920E-02 0. -1.
       -2    1    3    3    0  502  0.10902993170E+04  0.55899523276E+03 -0.11654074612E+03  0.12307761846E+04  0.25500000920E-02 0.  1.
</event>
<event>
 5   0  0.7307508E-07  0.2926741E+04  0.7818609E-02  0.8264965E-01
        2   -1    0    0  501    0  0.00000000000E+00  0.00000000000E+00  0.15426328455E+04  0.15426328455E+04  0.25500000920E-02 0.  1.
       -2   -1    0    0    0  501  0.00000000000E+00  0.00000000000E+00 -0.13881811002E+04  0.13881811002E+04  0.25500000920E-02 0. -1.
    10030    2    1    2    0    0  0.00000000000E+00  0.00000000000E+00  0.15445174525E+03  0.29308139457E+04  0.29267413693E+04 0.  0.
        1    1    3    3  502    0  0.12189601701E+04  0.31190167657E+02  0.88743579089E+03  0.15081044413E+04  0.50400001928E-02 0.  1.
       -1    1    3    3    0  502 -0.12189601701E+04 -0.31190167657E+02 -0.73298404564E+03  0.14227095044E+04  0.50400001928E-02 0. -1.
</event>
<event>
 5   0  0.2792361E-07  0.3005598E+04  0.7818609E-02  0.8242134E-01
        1   -1    0    0  501    0  0.00000000000E+00  0.00000000000E+00  0.22364421905E+04  0.22364421905E+04  0.50400001928E-02 0.  1.
       -1   -1    0    0    0  501  0.00000000000E+00  0.00000000000E+00 -0.10098204316E+04  0.10098204316E+04  0.50400001928E-02 0. -1.
    10030    2    1    2    0    0  0.00000000000E+00  0.00000000000E+00  0.12266217590E+04  0.32462626221E+04  0.30055981222E+04 0.  0.
        4    1    3    3  502    0 -0.63755953136E+03 -0.99912040580E+03 -0.38461941875E+03  0.12460567609E+04  0.12699999809E+01 0.  1.
       -4    1    3    3    0  502  0.63755953136E+03  0.99912040580E+03  0.16112411777E+04  0.20002058611E+04  0.12699999809E+01 0. -1.
</event>
<event>
 5   0  0.7399409E-07  0.3000092E+04  0.7818609E-02  0.8243704E-01
       -2   -1    0    0    0  501  0.00000000000E+00  0.00000000000E+00  0.17252827881E+04  0.17252827881E+04  0.25500000920E-02 0. -1.
        2   -1    0    0  501    0  0.00000000000E+00  0.00000000000E+00 -0.13042144443E+04  0.13042144443E+04  0.25500000920E-02 0.  1.
    10030    2    1    2    0    0  0.00000000000E+00  0.00000000000E+00  0.42106834375E+03  0.30294972324E+04  0.30000924871E+04 0.  0.
        3    1    3    3  502    0  0.20920919930E+03  0.65509870920E+03 -0.11356547537E+04  0.13276424736E+04  0.10100000352E+00 0.  1.
       -3    1    3    3    0  502 -0.20920919930E+03 -0.65509870920E+03  0.15567230974E+04  0.17018547588E+04  0.10100000352E+00 0. -1.
</event>
<event>
 5   0  0.2792361E-07  0.3007196E+04  0.7818609E-02  0.8241679E-01
        1   -1    0    0  501    0  0.00000000000E+00  0.00000000000E+00  0.15770877618E+04  0.15770877618E+04  0.50400001928E-02 0.  1.
       -1   -1    0    0    0  501  0.00000000000E+00  0.00000000000E+00 -0.14335331393E+04  0.14335331394E+04  0.50400001928E-02 0. -1.
    10030    2    1    2    0    0  0.00000000000E+00  0.00000000000E+00  0.14355462242E+03  0.30106209011E+04  0.30071964154E+04 0.  0.
        4    1    3    3  502    0 -0.85524137569E+03 -0.95150254667E+03  0.86262057100E+03  0.15430200159E+04  0.12699999809E+01 0. -1.
       -4    1    3    3    0  502  0.85524137569E+03  0.95150254667E+03 -0.71906594858E+03  0.14676008852E+04  0.12699999809E+01 0.  1.
</event>
<event>
 5   0  0.7399409E-07  0.2995808E+04  0.7818609E-02  0.8244929E-01
       -2   -1    0    0    0  501  0.00000000000E+00  0.00000000000E+00  0.12425589163E+04  0.12425589163E+04  0.25500000920E-02 0.  1.
        2   -1    0    0  501    0  0.00000000000E+00  0.00000000000E+00 -0.18057225121E+04  0.18057225121E+04  0.25500000920E-02 0. -1.
    10030    2    1    2    0    0  0.00000000000E+00  0.00000000000E+00 -0.56316359581E+03  0.30482814284E+04  0.29958081433E+04 0.  0.
        3    1    3    3  502    0 -0.38851977401E+03  0.57125810643E+03  0.10707699524E+04  0.12742965668E+04  0.10100000352E+00 0.  1.
       -3    1    3    3    0  502  0.38851977401E+03 -0.57125810643E+03 -0.16339335483E+04  0.17739848616E+04  0.10100000352E+00 0. -1.
</event>
<event>
 5   0  0.7208273E-07  0.2989327E+04  0.7818609E-02  0.8246785E-01
       -2   -1    0    0    0  501  0.00000000000E+00  0.00000000000E+00  0.83916175005E+03  0.83916175005E+03  0.25500000920E-02 0. -1.
        2   -1    0    0  501    0  0.00000000000E+00  0.00000000000E+00 -0.26622025016E+04  0.26622025016E+04  0.25500000920E-02 0.  1.
    10030    2    1    2    0    0  0.00000000000E+00  0.00000000000E+00 -0.18230407516E+04  0.35013642517E+04  0.29893266869E+04 0.  0.
        4    1    3    3  502    0 -0.26437081551E+03  0.21049090787E+03 -0.26168693249E+04  0.26385990652E+04  0.12699999809E+01 0.  1.
       -4    1    3    3    0  502  0.26437081551E+03 -0.21049090787E+03  0.79382857328E+03  0.86276518651E+03  0.12699999809E+01 0. -1.
</event>
<event>
 5   0  0.7278657E-07  0.3012161E+04  0.7818609E-02  0.8240267E-01
        2   -1    0    0  501    0  0.00000000000E+00  0.00000000000E+00  0.14506138162E+04  0.14506138162E+04  0.25500000920E-02 0. -1.
       -2   -1    0    0    0  501  0.00000000000E+00  0.00000000000E+00 -0.15636676840E+04  0.15636676840E+04  0.25500000920E-02 0.  1.
    10030    2    1    2    0    0  0.00000000000E+00  0.00000000000E+00 -0.11305386781E+03  0.30142815002E+04  0.30121606507E+04 0.  0.
        2    1    3    3  502    0 -0.54985103096E+02 -0.47677026250E+03 -0.14850980831E+04  0.15607208467E+04  0.25500000920E-02 0.  1.
       -2    1    3    3    0  502  0.54985103096E+02  0.47677026250E+03  0.13720442153E+04  0.14535606535E+04  0.25500000920E-02 0. -1.
</event>
<event>
 5   0  0.7278657E-07  0.3000821E+04  0.7818609E-02  0.8243497E-01
        2   -1    0    0  501    0  0.00000000000E+00  0.00000000000E+00  0.12570787699E+04  0.12570787699E+04  0.25500000920E-02 0.  1.
       -2   -1    0    0    0  501  0.00000000000E+00  0.00000000000E+00 -0.17908433449E+04  0.17908433449E+04  0.25500000920E-02 0. -1.
    10030    2    1    2    0    0  0.00000000000E+00  0.00000000000E+00 -0.53376457502E+03  0.30479221149E+04  0.30008206539E+04 0.  0.
        2    1    3    3  502    0  0.10833950458E+04 -0.77981392098E+02 -0.13182162764E+04  0.17080749615E+04  0.25500000920E-02 0. -1.
       -2    1    3    3    0  502 -0.10833950458E+04  0.77981392098E+02  0.78445170133E+03  0.13398471534E+04  0.25500000920E-02 0.  1.
</event>
<event>
 5   0  0.2792361E-07  0.2990008E+04  0.7818609E-02  0.8246590E-01
        1   -1    0    0  501    0  0.00000000000E+00  0.00000000000E+00  0.94998803086E+03  0.94998803087E+03  0.50400001928E-02 0. -1.
       -1   -1    0    0    0  501  0.00000000000E+00  0.00000000000E+00 -0.23526999777E+04  0.23526999777E+04  0.50400001928E-02 0.  1.
    10030    2    1    2    0    0  0.00000000000E+00  0.00000000000E+00 -0.14027119469E+04  0.33026880086E+04  0.29900079057E+04 0.  0.
        4    1    3    3  502    0  0.87613860312E+03  0.93817814669E+03 -0.15478079678E+04  0.20108476334E+04  0.12699999809E+01 0.  1.
       -4    1    3    3    0  502 -0.87613860312E+03 -0.93817814669E+03  0.14509602089E+03  0.12918403752E+04  0.12699999809E+01 0. -1.
</event>
<event>
 5   0  0.7278657E-07  0.2992640E+04  0.7818609E-02  0.8245836E-01
        2   -1    0    0  501    0  0.00000000000E+00  0.00000000000E+00  0.21216362703E+04  0.21216362703E+04  0.25500000920E-02 0.  1.
       -2   -1    0    0    0  501  0.00000000000E+00  0.00000000000E+00 -0.10553049028E+04  0.10553049028E+04  0.25500000920E-02 0. -1.
    10030    2    1    2    0    0  0.00000000000E+00  0.00000000000E+00  0.10663313675E+04  0.31769411731E+04  0.29926397431E+04 0.  0.
        2    1    3    3  502    0  0.60582348577E+03  0.55548801437E+03 -0.79419082339E+03  0.11429471090E+04  0.25500000920E-02 0. -1.
       -2    1    3    3    0  502 -0.60582348577E+03 -0.55548801437E+03  0.18605221909E+04  0.20339940641E+04  0.25500000920E-02 0.  1.
</event>
<event>
 5   0  0.7585823E-07  0.2973552E+04  0.7818609E-02  0.8251324E-01
        2   -1    0    0  501    0  0.00000000000E+00  0.00000000000E+00  0.13308067079E+04  0.13308067079E+04  0.25500000920E-02 0. -1.
       -2   -1    0    0    0  501  0.00000000000E+00  0.00000000000E+00 -0.16610247553E+04  0.16610247553E+04  0.25500000920E-02 0.  1.
    10030    2    1    2    0    0  0.00000000000E+00  0.00000000000E+00 -0.33021804739E+03  0.29918314633E+04  0.29735520083E+04 0.  0.
        5    1    3    3  502    0  0.64659924635E+03  0.13307273320E+04 -0.17390353733E+02  0.14796115476E+04  0.46999998093E+01 0. -1.
       -5    1    3    3    0  502 -0.64659924635E+03 -0.13307273320E+04 -0.31282769366E+03  0.15122199157E+04  0.46999998093E+01 0.  1.
</event>
<event>
 5   0  0.7585823E-07  0.3064480E+04  0.7818609E-02  0.8225554E-01
       -2   -1    0    0    0  501  0.00000000000E+00  0.00000000000E+00  0.13475097540E+04  0.13475097540E+04  0.25500000920E-02 0. -1.
        2   -1    0    0  501    0  0.00000000000E+00  0.00000000000E+00 -0.17422951178E+04  0.17422951178E+04  0.25500000920E-02 0.  1.
    10030    2    1    2    0    0  0.00000000000E+00  0.00000000000E+00 -0.39478536379E+03  0.30898048719E+04  0.30644801619E+04 0.  0.
        5    1    3    3  502    0 -0.50601352267E+03 -0.13122194848E+04 -0.81050331920E+03  0.16232397796E+04  0.46999998093E+01 0.  1.
       -5    1    3    3    0  502  0.50601352267E+03  0.13122194848E+04  0.41571795541E+03  0.14665650923E+04  0.46999998093E+01 0. -1.
</event>
<event>
 5   0  0.7399409E-07  0.3006064E+04  0.7818609E-02  0.8242001E-01
        2   -1    0    0  501    0  0.00000000000E+00  0.00000000000E+00  0.26534611962E+04  0.26534611962E+04  0.25500000920E-02 0.  1.
       -2   -1    0    0    0  501  0.00000000000E+00  0.00000000000E+00 -0.85138051452E+03  0.85138051453E+03  0.25500000920E-02 0. -1.
    10030    2    1    2    0    0  0.00000000000E+00  0.00000000000E+00  0.18020806817E+04  0.35048417107E+04  0.30060639770E+04 0.  0.
        3    1    3    3  502    0  0.57602812482E+03  0.13578992668E+04  0.12377609454E+04  0.19255521254E+04  0.10100000352E+00 0.  1.
       -3    1    3    3    0  502 -0.57602812482E+03 -0.13578992668E+04  0.56431973623E+03  0.15792895853E+04  0.10100000352E+00 0. -1.
</event>
<event>
 5   0  0.2602891E-07  0.3003045E+04  0.7818609E-02  0.8242862E-01
        1   -1    0    0  501    0  0.00000000000E+00  0.00000000000E+00  0.76875601061E+03  0.76875601063E+03  0.50400001928E-02 0.  1.
       -1   -1    0    0    0  501  0.00000000000E+00  0.00000000000E+00 -0.29327503828E+04  0.29327503828E+04  0.50400001928E-02 0. -1.
    10030    2    1    2    0    0  0.00000000000E+00  0.00000000000E+00 -0.21639943721E+04  0.37015063934E+04  0.30030447778E+04 0.  0.
        5    1    3    3  502    0 -0.72222458376E+03 -0.93850821638E+03  0.55820084946E+02  0.11855564067E+04  0.46999998093E+01 0.  1.
       -5    1    3    3    0  502  0.72222458376E+03  0.93850821638E+03 -0.22198144571E+04  0.25159499867E+04  0.46999998093E+01 0. -1.
</event>
<event>
 5   0  0.2640081E-07  0.2955384E+04  0.7818609E-02  0.8256587E-01
        1   -1    0    0  501    0  0.00000000000E+00  0.00000000000E+00  0.21200039542E+04  0.21200039542E+04  0.50400001928E-02 0. -1.
       -1   -1    0    0    0  501  0.00000000000E+00  0.00000000000E+00 -0.10299853610E+04  0.10299853610E+04  0.50400001928E-02 0.  1.
    10030    2    1    2    0    0  0.00000000000E+00  0.00000000000E+00  0.10900185932E+04  0.31499893152E+04  0.29553835880E+04 0.  0.
        1    1    3    3  502    0 -0.23562976913E+03  0.13019671127E+04 -0.15629372976E+03  0.13323165842E+04  0.50400001928E-02 0.  1.
       -1    1    3    3    0  502  0.23562976913E+03 -0.13019671127E+04  0.12463123230E+04  0.18176727310E+04  0.50400001928E-02 0. -1.
</event>
<event>
 5   0  0.7399409E-07  0.2991078E+04  0.7818609E-02  0.8246283E-01
       -2   -1    0    0    0  501  0.00000000000E+00  0.00000000000E+00  0.79790468383E+03  0.79790468384E+03  0.25500000920E-02 0. -1.
        2   -1    0    0  501    0  0.00000000000E+00  0.00000000000E+00 -0.28031380265E+04  0.28031380265E+04  0.25500000920E-02 0.  1.
    10030    2    1    2    0    0  0.00000000000E+00  0.00000000000E+00 -0.20052333427E+04  0.36010427104E+04  0.29910780403E+04 0.  0.
        3    1    3    3  502    0  0.40728278304E+02  0.59677604992E+03 -0.26528487414E+04  0.27194497424E+04  0.10100000352E+00 0.  1.
       -3    1    3    3    0  502 -0.40728278304E+02 -0.59677604992E+03  0.64761539869E+03  0.88159296800E+03  0.10100000352E+00 0. -1.
</event>
<event>
 5   0  0.2679935E-07  0.3014278E+04  0.7818609E-02  0.8239666E-01
       -1   -1    0    0    0  501  0.00000000000E+00  0.00000000000E+00  0.14085099301E+04  0.14085099301E+04  0.50400001928E-02 0.  1.
        1   -1    0    0  501    0  0.00000000000E+00  0.00000000000E+00 -0.16126741928E+04  0.16126741928E+04  0.50400001928E-02 0. -1.
    10030    2    1    2    0    0  0.00000000000E+00  0.00000000000E+00 -0.20416426273E+03  0.30211841229E+04  0.30142777673E+04 0.  0.
        2    1    3    3  502    0 -0.14506738332E+04  0.31344569241E+03 -0.36491347103E+03  0.15283535631E+04  0.25500000920E-02 0. -1.
       -2    1    3    3    0  502  0.14506738332E+04 -0.31344569241E+03  0.16074920830E+03  0.14928305598E+04  0.25500000920E-02 0.  1.
</event>
<event>
 5   0  0.7208273E-07  0.2993504E+04  0.7818609E-02  0.8245588E-01
        2   -1    0    0  501    0  0.00000000000E+00  0.00000000000E+00  0.25709382170E+04  0.25709382170E+04  0.25500000920E-02 0.  1.
       -2   -1    0    0    0  501  0.00000000000E+00  0.00000000000E+00 -0.87138067235E+03  0.87138067236E+03  0.25500000920E-02 0. -1.
    10030    2    1    2    0    0  0.00000000000E+00  0.00000000000E+00  0.16995575447E+04  0.34423188894E+04  0.29935035474E+04 0.  0.
        4    1    3    3  502    0 -0.19247738942E+03  0.11415604100E+04  0.19407322218E+04  0.22597900090E+04  0.12699999809E+01 0.  1.
       -4    1    3    3    0  502  0.19247738942E+03 -0.11415604100E+04 -0.24117467719E+03  0.11825288803E+04  0.12699999809E+01 0. -1.
</event>
<event>
 5   0  0.2792361E-07  0.3005515E+04  0.7818609E-02  0.8242158E-01
       -1   -1    0    0    0  501  0.00000000000E+00  0.00000000000E+00  0.11097215336E+04  0.11097215336E+04  0.50400001928E-02 0. -1.
        1   -1    0    0  501    0  0.00000000000E+00  0.00000000000E+00 -0.20349970533E+04  0.20349970533E+04  0.50400001928E-02 0.  1.
    10030    2    1    2    0    0  0.00000000000E+00  0.00000000000E+00 -0.92527551973E+03  0.31447185869E+04  0.30055149648E+04 0.  0.
        4    1    3    3  502    0  0.83541990031E+03 -0.55500707391E+03 -0.16335393836E+04  0.19168755287E+04  0.12699999809E+01 0.  1.
       -4    1    3    3    0  502 -0.83541990031E+03  0.55500707391E+03  0.70826386382E+03  0.12278430582E+04  0.12699999809E+01 0. -1.
</event>
<event>
 5   0  0.7208273E-07  0.2999016E+04  0.7818609E-02  0.8244012E-01
       -2   -1    0    0    0  501  0.00000000000E+00  0.00000000000E+00  0.88674078163E+03  0.88674078164E+03  0.25500000920E-02 0.  1.
        2   -1    0    0  501    0  0.00000000000E+00  0.00000000000E+00 -0.25357174106E+04  0.25357174106E+04  0.25500000920E-02 0. -1.
    10030    2    1    2    0    0  0.00000000000E+00  0.00000000000E+00 -0.16489766290E+04  0.34224581923E+04  0.29990158644E+04 0.  0.
        4    1    3    3  502    0 -0.70847022621E+03  0.19780536544E+03  0.66670979592E+03  0.99275404249E+03  0.12699999809E+01 0.  1.
       -4    1    3    3    0  502  0.70847022621E+03 -0.19780536544E+03 -0.23156864249E+04  0.24297041498E+04  0.12699999809E+01 0. -1.
</event>
<event>
 5   0  0.7307508E-07  0.2995035E+04  0.7818609E-02  0.8245150E-01
       -2   -1    0    0    0  501  0.00000000000E+00  0.00000000000E+00  0.13899887068E+04  0.13899887068E+04  0.25500000920E-02 0. -1.
        2   -1    0    0  501    0  0.00000000000E+00  0.00000000000E+00 -0.16133647204E+04  0.16133647204E+04  0.25500000920E-02 0.  1.
    10030    2    1    2    0    0  0.00000000000E+00  0.00000000000E+00 -0.22337601361E+03  0.30033534273E+04  0.29950350525E+04 0.  0.
        1    1    3    3  502    0 -0.13566069405E+04 -0.22548031768E+03 -0.70606942814E+03  0.15458841490E+04  0.50400001928E-02 0.  1.
       -1    1    3    3    0  502  0.13566069405E+04  0.22548031768E+03  0.48269341452E+03  0.14574692783E+04  0.50400001928E-02 0. -1.
</event>
<event>
 5   0  0.7278657E-07  0.2986780E+04  0.7818609E-02  0.8247516E-01
        2   -1    0    0  501    0  0.00000000000E+00  0.00000000000E+00  0.81526594370E+03  0.81526594370E+03  0.25500000920E-02 0.  1.
       -2   -1    0    0    0  501  0.00000000000E+00  0.00000000000E+00 -0.27355655009E+04  0.27355655009E+04  0.25500000920E-02 0. -1.
    10030    2    1    2    0    0  0.00000000000E+00  0.00000000000E+00 -0.19202995572E+04  0.35508314446E+04  0.29867797974E+04 0.  0.
        2    1    3    3  502    0 -0.13567505016E+04  0.24966766483E+03 -0.16400921700E+04  0.21431304656E+04  0.25500000920E-02 0. -1.
       -2    1    3    3    0  502  0.13567505016E+04 -0.24966766483E+03 -0.28020738717E+03  0.14077009790E+04  0.25500000920E-02 0.  1.
</event>
<event>
 5   0  0.2621825E-07  0.2998575E+04  0.7818609E-02  0.8244138E-01
       -1   -1    0    0    0  501  0.00000000000E+00  0.00000000000E+00  0.12028226300E+04  0.12028226301E+04  0.50400001928E-02 0. -1.
        1   -1    0    0  501    0  0.00000000000E+00  0.00000000000E+00 -0.18688228687E+04  0.18688228687E+04  0.50400001928E-02 0.  1.
    10030    2    1    2    0    0  0.00000000000E+00  0.00000000000E+00 -0.66600023863E+03  0.30716454987E+04  0.29985746201E+04 0.  0.
        3    1    3    3  502    0  0.12778425047E+04 -0.72995005574E+03 -0.62660972712E+03  0.15994837639E+04  0.10100000352E+00 0.  1.
       -3    1    3    3    0  502 -0.12778425047E+04  0.72995005574E+03 -0.39390511507E+02  0.14721617348E+04  0.10100000352E+00 0. -1.
</event>
<event>
 5   0  0.2640081E-07  0.2996915E+04  0.7818609E-02  0.8244612E-01
       -1   -1    0    0    0  501  0.00000000000E+00  0.00000000000E+00  0.13225622852E+04  0.13225622852E+04  0.50400001928E-02 0. -1.
        1   -1    0    0  501    0  0.00000000000E+00  0.00000000000E+00 -0.16977461295E+04  0.16977461295E+04  0.50400001928E-02 0.  1.
    10030    2    1    2    0    0  0.00000000000E+00  0.00000000000E+00 -0.37518384433E+03  0.30203084148E+04  0.29969150811E+04 0.  0.
        1    1    3    3  502    0  0.88082827376E+03 -0.12012542593E+04 -0.23518297685E+02  0.14897729202E+04  0.50400001928E-02 0. -1.
       -1    1    3    3    0  502 -0.88082827376E+03  0.12012542593E+04 -0.35166554665E+03  0.15305354946E+04  0.50400001928E-02 0.  1.
</event>
<event>
 5   0  0.2679935E-07  0.2999458E+04  0.7818609E-02  0.8243886E-01
        1   -1    0    0  501    0  0.00000000000E+00  0.00000000000E+00  0.14434507005E+04  0.14434507005E+04  0.50400001928E-02 0.  1.
       -1   -1    0    0    0  501  0.00000000000E+00  0.00000000000E+00 -0.15582013121E+04  0.15582013121E+04  0.50400001928E-02 0. -1.
    10030    2    1    2    0    0  0.00000000000E+00  0.00000000000E+00 -0.11475061151E+03  0.30016520126E+04  0.29994578013E+04 0.  0.
        2    1    3    3  502    0 -0.22966855019E+03 -0.68555707884E+03  0.12575305728E+04  0.14505582694E+04  0.25500000920E-02 0.  1.
       -2    1    3    3    0  502  0.22966855019E+03  0.68555707884E+03 -0.13722811844E+04  0.15510937432E+04  0.25500000920E-02 0. -1.
</event>
<event>
 5   0  0.7278657E-07  0.2987973E+04  0.7818609E-02  0.8247174E-01
       -2   -1    0    0    0  501  0.00000000000E+00  0.00000000000E+00  0.12941364497E+04  0.12941364497E+04  0.25500000920E-02 0. -1.
        2   -1    0    0  501    0  0.00000000000E+00  0.00000000000E+00 -0.17246985272E+04  0.17246985272E+04  0.25500000920E-02 0.  1.
    10030    2    1    2    0    0  0.00000000000E+00  0.00000000000E+00 -0.43056207751E+03  0.30188349768E+04  0.29879727099E+04 0.  0.
        2    1    3    3  502    0  0.14682431926E+04  0.27542484067E+03 -0.23544496923E+03  0.15122933739E+04  0.25500000920E-02 0. -1.
       -2    1    3    3    0  502 -0.14682431926E+04 -0.27542484067E+03 -0.19511710828E+03  0.15065416029E+04  0.25500000920E-02 0.  1.
</event>
<event>
 5   0  0.7585823E-07  0.2985536E+04  0.7818609E-02  0.8247873E-01
        2   -1    0    0  501    0  0.00000000000E+00  0.00000000000E+00  0.18383450776E+04  0.18383450776E+04  0.25500000920E-02 0.  1.
       -2   -1    0    0    0  501  0.00000000000E+00  0.00000000000E+00 -0.12121532111E+04  0.12121532111E+04  0.25500000920E-02 0. -1.
    10030    2    1    2    0    0  0.00000000000E+00  0.00000000000E+00  0.62619186646E+03  0.30504982888E+04  0.29855357235E+04 0.  0.
        5    1    3    3  502    0  0.13151556557E+04  0.22050683368E+03  0.99857075463E+03  0.16659601749E+04  0.46999998093E+01 0. -1.
       -5    1    3    3    0  502 -0.13151556557E+04 -0.22050683368E+03 -0.37237888817E+03  0.13845381139E+04  0.46999998093E+01 0.  1.
</event>
<event>
 5   0  0.2640081E-07  0.2999935E+04  0.7818609E-02  0.8243749E-01
        1   -1    0    0  501    0  0.00000000000E+00  0.00000000000E+00  0.22867847746E+04  0.22867847746E+04  0.50400001928E-02 0.  1.
       -1   -1    0    0    0  501  0.00000000000E+00  0.00000000000E+00 -0.98387158047E+03  0.98387158049E+03  0.50400001928E-02 0. -1.
    10030    2    1    2    0    0  0.00000000000E+00  0.00000000000E+00  0.13029131941E+04  0.32706563551E+04  0.29999350329E+04 0.  0.
        1    1    3    3  502    0 -0.95429018576E+03  0.52066966243E+03 -0.47531611489E+03  0.11864619948E+04  0.50400001928E-02 0. -1.
       -1    1    3    3    0  502  0.95429018576E+03 -0.52066966243E+03  0.17782293090E+04  0.20841943603E+04  0.50400001928E-02 0.  1.
</event>
<event>
 5   0  0.7307508E-07  0.2998331E+04  0.7818609E-02  0.8244208E-01
       -2   -1    0    0    0  501  0.00000000000E+00  0.00000000000E+00  0.11763765708E+04  0.11763765708E+04  0.25500000920E-02 0. -1.
        2   -1    0    0  501    0  0.00000000000E+00  0.00000000000E+00 -0.19105255025E+04  0.19105255025E+04  0.25500000920E-02 0.  1.
    10030    2    1    2    0    0  0.00000000000E+00  0.00000000000E+00 -0.73414893169E+03  0.30869020733E+04  0.29983311619E+04 0.  0.
        1    1    3    3  502    0  0.23425051984E+03  0.16222915960E+03 -0.18823902203E+04  0.19038341702E+04  0.50400001928E-02 0.  1.
       -1    1    3    3    0  502 -0.23425051984E+03 -0.16222915960E+03  0.11482412886E+04  0.11830679030E+04  0.50400001928E-02 0. -1.
</event>
<event>
 5   0  0.2640081E-07  0.3001454E+04  0.7818609E-02  0.8243316E-01
       -1   -1    0    0    0  501  0.00000000000E+00  0.00000000000E+00  0.15243275840E+04  0.15243275841E+04  0.50400001928E-02 0.  1.
        1   -1    0    0  501    0  0.00000000000E+00  0.00000000000E+00 -0.14774915319E+04  0.14774915319E+04  0.50400001928E-02 0. -1.
    10030    2    1    2    0    0  0.00000000000E+00  0.00000000000E+00  0.46836052128E+02  0.30018191160E+04  0.30014537127E+04 0.  0.
        1    1    3    3  502    0 -0.21922838653E+03  0.66059429310E+03  0.13531419198E+04  0.15216566501E+04  0.50400001928E-02 0.  1.
       -1    1    3    3    0  502  0.21922838653E+03 -0.66059429310E+03 -0.13063058677E+04  0.14801624659E+04  0.50400001928E-02 0. -1.
</event>
<event>
 5   0  0.7585823E-07  0.3011948E+04  0.7818609E-02  0.8240327E-01
        2   -1    0    0  501    0  0.00000000000E+00  0.00000000000E+00  0.14188655641E+04  0.14188655641E+04  0.25500000920E-02 0. -1.
       -2   -1    0    0    0  501  0.00000000000E+00  0.00000000000E+00 -0.15984306718E+04  0.15984306718E+04  0.25500000920E-02 0.  1.
    10030    2    1    2    0    0  0.00000000000E+00  0.00000000000E+00 -0.17956510767E+03  0.30172962359E+04  0.30119483640E+04 0.  0.
        5    1    3    3  502    0 -0.34561873036E+03 -0.83975055199E+03 -0.12932910582E+04  0.15802712259E+04  0.46999998093E+01 0.  1.
       -5    1    3    3    0  502  0.34561873036E+03  0.83975055199E+03  0.11137259505E+04  0.14370250099E+04  0.46999998093E+01 0. -1.
</event>
<event>
 5   0  0.7208273E-07  0.3005081E+04  0.7818609E-02  0.8242282E-01
        2   -1    0    0  501    0  0.00000000000E+00  0.00000000000E+00  0.18872812239E+04  0.18872812239E+04  0.25500000920E-02 0.  1.
       -2   -1    0    0    0  501  0.00000000000E+00  0.00000000000E+00 -0.11962325773E+04  0.11962325773E+04  0.25500000920E-02 0. -1.
    10030    2    1    2    0    0  0.00000000000E+00  0.00000000000E+00  0.69104864661E+03  0.30835138011E+04  0.30050805530E+04 0.  0.
        4    1    3    3  502    0 -0.10369527980E+04  0.51626918628E+03 -0.63643840604E+03  0.13216884790E+04  0.12699999809E+01 0. -1.
       -4    1    3    3    0  502  0.10369527980E+04 -0.51626918628E+03  0.13274870527E+04  0.17618253222E+04  0.12699999809E+01 0.  1.
</event>
<event>
 5   0  0.7585823E-07  0.2992842E+04  0.7818609E-02  0.8245778E-01
       -2   -1    0    0    0  501  0.00000000000E+00  0.00000000000E+00  0.80528910462E+03  0.80528910462E+03  0.25500000920E-02 0. -1.
        2   -1    0    0  501    0  0.00000000000E+00  0.00000000000E+00 -0.27807107023E+04  0.27807107023E+04  0.25500000920E-02 0.  1.
    10030    2    1    2    0    0  0.00000000000E+00  0.00000000000E+00 -0.19754215977E+04  0.35859998069E+04  0.29928421486E+04 0.  0.
        5    1    3    3  502    0  0.21288318090E+03 -0.11642635774E+04  0.10942039734E+03  0.11886226650E+04  0.46999998093E+01 0. -1.
       -5    1    3    3    0  502 -0.21288318090E+03  0.11642635774E+04 -0.20848419950E+04  0.23973771419E+04  0.46999998093E+01 0.  1.
</event>
<event>
 5   0  0.7585823E-07  0.3001418E+04  0.7818609E-02  0.8243326E-01
        2   -1    0    0  501    0  0.00000000000E+00  0.00000000000E+00  0.25548598783E+04  0.25548598783E+04  0.25500000920E-02 0. -1.
       -2   -1    0    0    0  501  0.00000000000E+00  0.00000000000E+00 -0.88150724597E+03  0.88150724597E+03  0.25500000920E-02 0.  1.
    10030    2    1    2    0    0  0.00000000000E+00  0.00000000000E+00  0.16733526323E+04  0.34363671243E+04  0.30014179950E+04 0.  0.
        5    1    3    3  502    0  0.14069044621E+04  0.18575978643E+03  0.27787058190E+03  0.14460708883E+04  0.46999998093E+01 0.  1.
       -5    1    3    3    0  502 -0.14069044621E+04 -0.18575978643E+03  0.13954820504E+04  0.19902962359E+04  0.46999998093E+01 0. -1.
</event>
<event>
 5   0  0.2679935E-07  0.2999806E+04  0.7818609E-02  0.8243786E-01
       -1   -1    0    0    0  501  0.00000000000E+00  0.00000000000E+00  0.21852335290E+04  0.21852335290E+04  0.50400001928E-02 0.  1.
        1   -1    0    0  501    0  0.00000000000E+00  0.00000000000E+00 -0.10295049608E+04  0.10295049608E+04  0.50400001928E-02 0. -1.
    10030    2    1    2    0    0  0.00000000000E+00  0.00000000000E+00  0.11557285682E+04  0.32147384898E+04  0.29998058328E+04 0.  0.
        2    1    3    3  502    0  0.97674495563E+03 -0.53837232696E+03  0.16526342136E+04  0.19937590914E+04  0.25500000920E-02 0.  1.
       -2    1    3    3    0  502 -0.97674495563E+03  0.53837232696E+03 -0.49690564539E+03  0.12209793984E+04  0.25500000920E-02 0. -1.
</event>
<event>
 5   0  0.7307508E-07  0.3005353E+04  0.7818609E-02  0.8242204E-01
        2   -1    0    0  501    0  0.00000000000E+00  0.00000000000E+00  0.21957064129E+04  0.21957064129E+04  0.25500000920E-02 0.  1.
       -2   -1    0    0    0  501  0.00000000000E+00  0.00000000000E+00 -0.10283874543E+04  0.10283874543E+04  0.25500000920E-02 0. -1.
    10030    2    1    2    0    0  0.00000000000E+00  0.00000000000E+00  0.11673189587E+04  0.32240938672E+04  0.30053531762E+04 0.  0.
        1    1    3    3  502    0  0.14452950158E+04  0.23634895858E+03  0.22256231350E+03  0.14813076980E+04  0.50400001928E-02 0. -1.
       -1    1    3    3    0  502 -0.14452950158E+04 -0.23634895858E+03  0.94475664517E+03  0.17427861692E+04  0.50400001928E-02 0.  1.
</event>
<event>
 5   0  0.2679935E-07  0.3046487E+04  0.7818609E-02  0.8230580E-01
        1   -1    0    0  501    0  0.00000000000E+00  0.00000000000E+00  0.15893028655E+04  0.15893028655E+04  0.50400001928E-02 0. -1.
       -1   -1    0    0    0  501  0.00000000000E+00  0.00000000000E+00 -0.14599296549E+04  0.14599296549E+04  0.50400001928E-02 0.  1.
    10030    2    1    2    0    0  0.00000000000E+00  0.00000000000E+00  0.12937321055E+03  0.30492325204E+04  0.30464867529E+04 0.  0.
        2    1    3    3  502    0  0.43036015274E+03 -0.12115478613E+04 -0.75288024091E+03  0.14899284340E+04  0.25500000920E-02 0.  1.
       -2    1    3    3    0  502 -0.43036015274E+03  0.12115478613E+04  0.88225345146E+03  0.15593040864E+04  0.25500000920E-02 0. -1.
</event>
<event>
 5   0  0.7208273E-07  0.2983003E+04  0.7818609E-02  0.8248601E-01
       -2   -1    0    0    0  501  0.00000000000E+00  0.00000000000E+00  0.12752200898E+04  0.12752200898E+04  0.25500000920E-02 0. -1.
        2   -1    0    0  501    0  0.00000000000E+00  0.00000000000E+00 -0.17444654055E+04  0.17444654055E+04  0.25500000920E-02 0.  1.
    10030    2    1    2    0    0  0.00000000000E+00  0.00000000000E+00 -0.46924531574E+03  0.30196854953E+04  0.29830034066E+04 0.  0.
        4    1    3    3  502    0 -0.90962896965E+03  0.11273602519E+04 -0.59425137341E+03  0.15657274053E+04  0.12699999809E+01 0.  1.
       -4    1    3    3    0  502  0.90962896965E+03 -0.11273602519E+04  0.12500605767E+03  0.14539580900E+04  0.12699999809E+01 0. -1.
</event>
<event>
 5   0  0.2621825E-07  0.2993932E+04  0.7818609E-02  0.8245466E-01
       -1   -1    0    0    0  501  0.00000000000E+00  0.00000000000E+00  0.77130137759E+03  0.77130137761E+03  0.50400001928E-02 0.  1.
        1   -1    0    0  501    0  0.00000000000E+00  0.00000000000E+00 -0.29053578425E+04  0.29053578425E+04  0.50400001928E-02 0. -1.
    10030    2    1    2    0    0  0.00000000000E+00  0.00000000000E+00 -0.21340564649E+04  0.36766592201E+04  0.29939315332E+04 0.  0.
        3    1    3    3  502    0  0.56627991923E+03  0.12727108766E+04 -0.39391085131E+03  0.14476296803E+04  0.10100000352E+00 0. -1.
       -3    1    3    3    0  502 -0.56627991923E+03 -0.12727108766E+04 -0.17401456136E+04  0.22290295397E+04  0.10100000352E+00 0.  1.
</event>
<event>
 5   0  0.7399409E-07  0.2949053E+04  0.7818609E-02  0.8258430E-01
       -2   -1    0    0    0  501  0.00000000000E+00  0.00000000000E+00  0.20193301517E+04  0.20193301517E+04  0.25500000920E-02 0. -1.
        2   -1    0    0  501    0  0.00000000000E+00  0.00000000000E+00 -0.10767080150E+04  0.10767080150E+04  0.25500000920E-02 0.  1.
    10030    2    1    2    0    0  0.00000000000E+00  0.00000000000E+00  0.94262213667E+03  0.30960381667E+04  0.29490533798E+04 0.  0.
        3    1    3    3  502    0 -0.98830565623E+03  0.49226492408E+03 -0.55472081007E+03  0.12356326367E+04  0.10100000352E+00 0.  1.
       -3    1    3    3    0  502  0.98830565623E+03 -0.49226492408E+03  0.14973429467E+04  0.18604055300E+04  0.10100000352E+00 0. -1.
</event>
<event>
 5   0  0.2792361E-07  0.3008420E+04  0.7818609E-02  0.8241331E-01
        1   -1    0    0  501    0  0.00000000000E+00  0.00000000000E+00  0.15591096425E+04  0.15591096426E+04  0.50400001928E-02 0.  1.
       -1   -1    0    0    0  501  0.00000000000E+00  0.00000000000E+00 -0.14512436169E+04  0.14512436169E+04  0.50400001928E-02 0. -1.
    10030    2    1    2    0    0  0.00000000000E+00  0.00000000000E+00  0.10786602566E+03  0.30103532594E+04  0.30084201281E+04 0.  0.
        4    1    3    3  502    0  0.37521127010E+03  0.13841640232E+04  0.50804481437E+03  0.15214482201E+04  0.12699999809E+01 0. -1.
       -4    1    3    3    0  502 -0.37521127010E+03 -0.13841640232E+04 -0.40017878870E+03  0.14889050393E+04  0.12699999809E+01 0.  1.
</event>
<event>
 5   0  0.7307508E-07  0.2995302E+04  0.7818609E-02  0.8245074E-01
       -2   -1    0    0    0  501  0.00000000000E+00  0.00000000000E+00  0.16297118123E+04  0.16297118123E+04  0.25500000920E-02 0. -1.
        2   -1    0    0  501    0  0.00000000000E+00  0.00000000000E+00 -0.13762915246E+04  0.13762915246E+04  0.25500000920E-02 0.  1.
    10030    2    1    2    0    0  0.00000000000E+00  0.00000000000E+00  0.25342028772E+03  0.30060033369E+04  0.29953020247E+04 0.  0.
        1    1    3    3  502    0  0.96031782825E+03  0.98096377393E+03 -0.47414275017E+03  0.14523469298E+04  0.50400001928E-02 0. -1.
       -1    1    3    3    0  502 -0.96031782825E+03 -0.98096377393E+03  0.72756303790E+03  0.15536564070E+04  0.50400001928E-02 0.  1.
</event>
<event>
 5   0  0.2602891E-07  0.3006839E+04  0.7818609E-02  0.8241781E-01
       -1   -1    0    0    0  501  0.00000000000E+00  0.00000000000E+00  0.80901874271E+03  0.80901874273E+03  0.50400001928E-02 0.  1.
        1   -1    0    0  501    0  0.00000000000E+00  0.00000000000E+00 -0.27938415949E+04  0.27938415949E+04  0.50400001928E-02 0. -1.
    10030    2    1    2    0    0  0.00000000000E+00  0.00000000000E+00 -0.19848228522E+04  0.36028603376E+04  0.30068390143E+04 0.  0.
        5    1    3    3  502    0 -0.12104450588E+03  0.14677402426E+04 -0.13545340897E+04  0.20009242570E+04  0.46999998093E+01 0.  1.
       -5    1    3    3    0  502  0.12104450588E+03 -0.14677402426E+04 -0.63028876254E+03  0.16019360806E+04  0.46999998093E+01 0. -1.
</event>
<event>
 5   0  0.2792361E-07  0.2995408E+04  0.7818609E-02  0.8245043E-01
        1   -1    0    0  501    0  0.00000000000E+00  0.00000000000E+00  0.24367067258E+04  0.24367067258E+04  0.50400001928E-02 0. -1.
       -1   -1    0    0    0  501  0.00000000000E+00  0.00000000000E+00 -0.92055277126E+03  0.92055277127E+03  0.50400001928E-02 0.  1.
    10030    2    1    2    0    0  0.00000000000E+00  0.00000000000E+00  0.15161539546E+04  0.33572594971E+04  0.29954079049E+04 0.  0.
        4    1    3    3  502    0 -0.10075201533E+04  0.10935333391E+04  0.95920863403E+03  0.17694617373E+04  0.12699999809E+01 0. -1.
       -4    1    3    3    0  502  0.10075201533E+04 -0.10935333391E+04  0.55694532052E+03  0.15877977598E+04  0.12699999809E+01 0.  1.
</event>
<event>
 5   0  0.7399409E-07  0.3001524E+04  0.7818609E-02  0.8243296E-01
        2   -1    0    0  501    0  0.00000000000E+00  0.00000000000E+00  0.17914203849E+04  0.17914203849E+04  0.25500000920E-02 0.  1.
       -2   -1    0    0    0  501  0.00000000000E+00  0.00000000000E+00 -0.12572633511E+04  0.12572633511E+04  0.25500000920E-02 0. -1.
    10030    2    1    2    0    0  0.00000000000E+00  0.00000000000E+00  0.53415703376E+03  0.30486837360E+04  0.30015244103E+04 0.  0.
        3    1    3    3  502    0  0.82224546647E+03 -0.21225292830E+02  0.15420897865E+04  0.17477354033E+04  0.10100000352E+00 0.  1.
       -3    1    3    3    0  502 -0.82224546647E+03  0.21225292830E+02 -0.10079327527E+04  0.13009483327E+04  0.10100000352E+00 0. -1.
</event>
<event>
 5   0  0.2602891E-07  0.3000681E+04  0.7818609E-02  0.8243537E-01
       -1   -1    0    0    0  501  0.00000000000E+00  0.00000000000E+00  0.16520027460E+04  0.16520027460E+04  0.50400001928E-02 0. -1.
        1   -1    0    0  501    0  0.00000000000E+00  0.00000000000E+00 -0.13626012006E+04  0.13626012007E+04  0.50400001928E-02 0.  1.
    10030    2    1    2    0    0  0.00000000000E+00  0.00000000000E+00  0.28940154539E+03  0.30146039467E+04  0.30006805396E+04 0.  0.
        5    1    3    3  502    0 -0.62519223823E+03  0.17367882628E+03  0.15037412370E+04  0.16377696625E+04  0.46999998093E+01 0. -1.
       -5    1    3    3    0  502  0.62519223823E+03 -0.17367882628E+03 -0.12143396916E+04  0.13768342842E+04  0.46999998093E+01 0.  1.
</event>
<event>
 5   0  0.2621825E-07  0.2998129E+04  0.7818609E-02  0.8244265E-01
        1   -1    0    0  501    0  0.00000000000E+00  0.00000000000E+00  0.19573952801E+04  0.19573952801E+04  0.50400001928E-02 0.  1.
       -1   -1    0    0    0  501  0.00000000000E+00  0.00000000000E+00 -0.11480531508E+04  0.11480531508E+04  0.50400001928E-02 0. -1.
    10030    2    1    2    0    0  0.00000000000E+00  0.00000000000E+00  0.80934212931E+03  0.31054484309E+04  0.29981286287E+04 0.  0.
        3    1    3    3  502    0 -0.35456608973E+03 -0.98689451171E+03 -0.70489564939E+03  0.12635488815E+04  0.10100000352E+00 0. -1.
       -3    1    3    3    0  502  0.35456608973E+03  0.98689451171E+03  0.15142377787E+04  0.18418995493E+04  0.10100000352E+00 0.  1.
</event>
<event>
 5   0  0.2679935E-07  0.3003128E+04  0.7818609E-02  0.8242838E-01
        1   -1    0    0  501    0  0.00000000000E+00  0.00000000000E+00  0.11921236915E+04  0.11921236915E+04  0.50400001928E-02 0. -1.
       -1   -1    0    0    0  501  0.00000000000E+00  0.00000000000E+00 -0.18913258907E+04  0.18913258907E+04  0.50400001928E-02 0.  1.
    10030    2    1    2    0    0  0.00000000000E+00  0.00000000000E+00 -0.69920219912E+03  0.30834495822E+04  0.30031279711E+04 0.  0.
        2    1    3    3  502    0  0.44042466424E+03  0.98942803603E+01  0.11242793025E+04  0.12075080670E+04  0.25500000920E-02 0. -1.
       -2    1    3    3    0  502 -0.44042466424E+03 -0.98942803603E+01 -0.18234815017E+04  0.18759415152E+04  0.25500000920E-02 0.  1.
</event>
<event>
 5   0  0.7278657E-07  0.3000808E+04  0.7818609E-02  0.8243500E-01
        2   -1    0    0  501    0  0.00000000000E+00  0.00000000000E+00  0.10685650220E+04  0.10685650220E+04  0.25500000920E-02 0.  1.
       -2   -1    0    0    0  501  0.00000000000E+00  0.00000000000E+00 -0.21067613578E+04  0.21067613578E+04  0.25500000920E-02 0. -1.
    10030    2    1    2    0    0  0.00000000000E+00  0.00000000000E+00 -0.10381963358E+04  0.31753263798E+04  0.30008075558E+04 0.  0.
        2    1    3    3  502    0  0.78126760845E+03  0.60991781523E+03 -0.17110327066E+04  0.19773749621E+04  0.25500000920E-02 0. -1.
       -2    1    3    3    0  502 -0.78126760845E+03 -0.60991781523E+03  0.67283637086E+03  0.11979514178E+04  0.25500000920E-02 0.  1.
</event>
<event>
 5   0  0.2679935E-07  0.3001835E+04  0.7818609E-02  0.8243207E-01
        1   -1    0    0  501    0  0.00000000000E+00  0.00000000000E+00  0.28077817133E+04  0.28077817133E+04  0.50400001928E-02 0.  1.
       -1   -1    0    0    0  501  0.00000000000E+00  0.00000000000E+00 -0.80232490752E+03  0.80232490754E+03  0.50400001928E-02 0. -1.
    10030    2    1    2    0    0  0.00000000000E+00  0.00000000000E+00  0.20054568058E+04  0.36101066209E+04  0.30018349079E+04 0.  0.
        2    1    3    3  502    0 -0.87835463777E+03 -0.83046407084E+03 -0.67260980154E+02  0.12106615886E+04  0.25500000920E-02 0. -1.
       -2    1    3    3    0  502  0.87835463777E+03  0.83046407084E+03  0.20727177860E+04  0.23994450323E+04  0.25500000920E-02 0.  1.
</event>
<event>
 5   0  0.2679935E-07  0.2982812E+04  0.7818609E-02  0.8248656E-01
       -1   -1    0    0    0  501  0.00000000000E+00  0.00000000000E+00  0.10631997498E+04  0.10631997498E+04  0.50400001928E-02 0.  1.
        1   -1    0    0  501    0  0.00000000000E+00  0.00000000000E+00 -0.20920739464E+04  0.20920739464E+04  0.50400001928E-02 0. -1.
    10030    2    1    2    0    0  0.00000000000E+00  0.00000000000E+00 -0.10288741966E+04  0.31552736962E+04  0.29828124288E+04 0.  0.
        2    1    3    3  502    0  0.10275386114E+04 -0.11669226218E+03  0.62233123502E+03  0.12069585113E+04  0.25500000920E-02 0.  1.
       -2    1    3    3    0  502 -0.10275386114E+04  0.11669226218E+03 -0.16512054316E+04  0.19483151848E+04  0.25500000920E-02 0. -1.
</event>
<event>
 5   0  0.2621825E-07  0.3003997E+04  0.7818609E-02  0.8242590E-01
       -1   -1    0    0    0  501  0.00000000000E+00  0.00000000000E+00  0.13248865729E+04  0.13248865729E+04  0.50400001928E-02 0. -1.
        1   -1    0    0  501    0  0.00000000000E+00  0.00000000000E+00 -0.17027874417E+04  0.17027874417E+04  0.50400001928E-02 0.  1.
    10030    2    1    2    0    0  0.00000000000E+00  0.00000000000E+00 -0.37790086875E+03  0.30276740146E+04  0.30039974821E+04 0.  0.
        3    1    3    3  502    0 -0.13571178660E+04  0.63372610839E+03 -0.75714916147E+02  0.14997034512E+04  0.10100000352E+00 0.  1.
       -3    1    3    3    0  502  0.13571178660E+04 -0.63372610839E+03 -0.30218595260E+03  0.15279705635E+04  0.10100000352E+00 0. -1.
</event>
<event>
 5   0  0.7307508E-07  0.2996590E+04  0.7818609E-02  0.8244705E-01
        2   -1    0    0  501    0  0.00000000000E+00  0.00000000000E+00  0.14112140107E+04  0.14112140107E+04  0.25500000920E-02 0. -1.
       -2   -1    0    0    0  501  0.00000000000E+00  0.00000000000E+00 -0.15907496139E+04  0.15907496139E+04  0.25500000920E-02 0.  1.
    10030    2    1    2    0    0  0.00000000000E+00  0.00000000000E+00 -0.17953560322E+03  0.30019636246E+04  0.29965901573E+04 0.  0.
        1    1    3    3  502    0  0.12998583646E+04  0.70248733063E+03  0.15920940065E+03  0.14860914679E+04  0.50400001928E-02 0.  1.
       -1    1    3    3    0  502 -0.12998583646E+04 -0.70248733063E+03 -0.33874500387E+03  0.15158721567E+04  0.50400001928E-02 0. -1.
</event>
<event>
 5   0  0.7208273E-07  0.3000901E+04  0.7818609E-02  0.8243474E-01
        2   -1    0    0  501    0  0.00000000000E+00  0.00000000000E+00  0.22877806814E+04  0.22877806814E+04  0.25500000920E-02 0.  1.
       -2   -1    0    0    0  501  0.00000000000E+00  0.00000000000E+00 -0.98407653873E+03  0.98407653873E+03  0.25500000920E-02 0. -1.
    10030    2    1    2    0    0  0.00000000000E+00  0.00000000000E+00  0.13037041426E+04  0.32718572201E+04  0.30009007276E+04 0.  0.
        4    1    3    3  502    0  0.89417237783E+03 -0.70275675027E+03 -0.41526361417E+03  0.12107257218E+04  0.12699999809E+01 0. -1.
       -4    1    3    3    0  502 -0.89417237783E+03  0.70275675027E+03  0.17189677568E+04  0.20611314983E+04  0.12699999809E+01 0.  1.
</event>
<event>
 5   0  0.2640081E-07  0.2999529E+04  0.7818609E-02  0.8243865E-01
        1   -1    0    0  501    0  0.00000000000E+00  0.00000000000E+00  0.22253424256E+04  0.22253424256E+04  0.50400001928E-02 0.  1.
       -1   -1    0    0    0  501  0.00000000000E+00  0.00000000000E+00 -0.10107630826E+04  0.10107630826E+04  0.50400001928E-02 0. -1.
    10030    2    1    2    0    0  0.00000000000E+00  0.00000000000E+00  0.12145793430E+04  0.32361055082E+04  0.29995292763E+04 0.  0.
        1    1    3    3  502    0  0.55522204049E+03 -0.72632304977E+03 -0.67537751315E+03  0.11366404322E+04  0.50400001928E-02 0. -1.
       -1    1    3    3    0  502 -0.55522204049E+03  0.72632304977E+03  0.18899568562E+04  0.20994650759E+04  0.50400001928E-02 0.  1.
</event>
<event>
 5   0  0.7307508E-07  0.2984780E+04  0.7818609E-02  0.8248091E-01
       -2   -1    0    0    0  501  0.00000000000E+00  0.00000000000E+00  0.13536870425E+04  0.13536870425E+04  0.25500000920E-02 0.  1.
        2   -1    0    0  501    0  0.00000000000E+00  0.00000000000E+00 -0.16453043512E+04  0.16453043512E+04  0.25500000920E-02 0. -1.
    10030    2    1    2    0    0  0.00000000000E+00  0.00000000000E+00 -0.29161730869E+03  0.29989913937E+04  0.29847795103E+04 0.  0.
        1    1    3    3  502    0  0.22978391923E+03  0.12035698144E+04  0.71021403995E+03  0.14162573672E+04  0.50400001928E-02 0.  1.
       -1    1    3    3    0  502 -0.22978391923E+03 -0.12035698144E+04 -0.10018313486E+04  0.15827340265E+04  0.50400001928E-02 0. -1.
</event>
<event>
 5   0  0.7208273E-07  0.2992037E+04  0.7818609E-02  0.8246008E-01
       -2   -1    0    0    0  501  0.00000000000E+00  0.00000000000E+00  0.10934997580E+04  0.10934997580E+04  0.25500000920E-02 0. -1.
        2   -1    0    0  501    0  0.00000000000E+00  0.00000000000E+00 -0.20467051032E+04  0.20467051032E+04  0.25500000920E-02 0.  1.
    10030    2    1    2    0    0  0.00000000000E+00  0.00000000000E+00 -0.95320534518E+03  0.31402048612E+04  0.29920371221E+04 0.  0.
        4    1    3    3  502    0 -0.68881607356E+03  0.12829163480E+04 -0.83670908581E+03  0.16794122919E+04  0.12699999809E+01 0.  1.
       -4    1    3    3    0  502  0.68881607356E+03 -0.12829163480E+04 -0.11649625937E+03  0.14607925693E+04  0.12699999809E+01 0. -1.
</event>
<event>
 5   0  0.7585823E-07  0.2998465E+04  0.7818609E-02  0.8244169E-01
       -2   -1    0    0    0  501  0.00000000000E+00  0.00000000000E+00  0.11993419879E+04  0.11993419879E+04  0.25500000920E-02 0.  1.
        2   -1    0    0  501    0  0.00000000000E+00  0.00000000000E+00 -0.18741098215E+04  0.18741098215E+04  0.25500000920E-02 0. -1.
    10030    2    1    2    0    0  0.00000000000E+00  0.00000000000E+00 -0.67476783355E+03  0.30734518094E+04  0.29984653400E+04 0.  0.
        5    1    3    3  502    0 -0.17511987081E+03  0.97747119048E+03 -0.14886647200E+04  0.17894864168E+04  0.46999998093E+01 0. -1.
       -5    1    3    3    0  502  0.17511987081E+03 -0.97747119048E+03  0.81389688650E+03  0.12839653925E+04  0.46999998093E+01 0.  1.
</event>
<event>
 5   0  0.7307508E-07  0.2998998E+04  0.7818609E-02  0.8244017E-01
       -2   -1    0    0    0  501  0.00000000000E+00  0.00000000000E+00  0.15002015819E+04  0.15002015819E+04  0.25500000920E-02 0. -1.
        2   -1    0    0  501    0  0.00000000000E+00  0.00000000000E+00 -0.14987971057E+04  0.14987971057E+04  0.25500000920E-02 0.  1.
    10030    2    1    2    0    0  0.00000000000E+00  0.00000000000E+00  0.14044761736E+01  0.29989986876E+04  0.29989983587E+04 0.  0.
        1    1    3    3  502    0 -0.22602427731E+02 -0.25365586620E+03 -0.14770142772E+04  0.14988073069E+04  0.50400001928E-02 0.  1.
       -1    1    3    3    0  502  0.22602427731E+02  0.25365586620E+03  0.14784187534E+04  0.15001913806E+04  0.50400001928E-02 0. -1.
</event>
<event>
 5   0  0.7585823E-07  0.3014810E+04  0.7818609E-02  0.8239514E-01
        2   -1    0    0  501    0  0.00000000000E+00  0.00000000000E+00  0.17890091028E+04  0.17890091028E+04  0.25500000920E-02 0. -1.
       -2   -1    0    0    0  501  0.00000000000E+00  0.00000000000E+00 -0.12701277207E+04  0.12701277207E+04  0.25500000920E-02 0.  1.
    10030    2    1    2    0    0  0.00000000000E+00  0.00000000000E+00  0.51888138206E+03  0.30591368235E+04  0.30148101460E+04 0.  0.
        5    1    3    3  502    0  0.34590016488E+02  0.90395592345E+03 -0.96407197482E+03  0.13220399553E+04  0.46999998093E+01 0.  1.
       -5    1    3    3    0  502 -0.34590016488E+02 -0.90395592345E+03  0.14829533569E+04  0.17370968682E+04  0.46999998093E+01 0. -1.
</event>
<event>
 5   0  0.7307508E-07  0.3002792E+04  0.7818609E-02  0.8242934E-01
       -2   -1    0    0    0  501  0.00000000000E+00  0.00000000000E+00  0.14500652582E+04  0.14500652582E+04  0.25500000920E-02 0. -1.
        2   -1    0    0  501    0  0.00000000000E+00  0.00000000000E+00 -0.15545433424E+04  0.15545433424E+04  0.25500000920E-02 0.  1.
    10030    2    1    2    0    0  0.00000000000E+00  0.00000000000E+00 -0.10447808418E+03  0.30046086006E+04  0.30027915633E+04 0.  0.
        1    1    3    3  502    0  0.94212955254E+03 -0.53071313493E+02 -0.12207490361E+04  0.15429364430E+04  0.50400001928E-02 0.  1.
       -1    1    3    3    0  502 -0.94212955254E+03  0.53071313493E+02  0.11162709519E+04  0.14616721576E+04  0.50400001928E-02 0. -1.
</event>
<event>
 5   0  0.2792361E-07  0.3012811E+04  0.7818609E-02  0.8240082E-01
       -1   -1    0    0    0  501  0.00000000000E+00  0.00000000000E+00  0.10744922205E+04  0.10744922205E+04  0.50400001928E-02 0. -1.
        1   -1    0    0  501    0  0.00000000000E+00  0.00000000000E+00 -0.21119351524E+04  0.21119351524E+04  0.50400001928E-02 0.  1.
    10030    2    1    2    0    0  0.00000000000E+00  0.00000000000E+00 -0.10374429319E+04  0.31864273729E+04  0.30128112397E+04 0.  0.
        4    1    3    3  502    0 -0.11132525204E+04  0.63533544875E+03 -0.13556999284E+04  0.18657186861E+04  0.12699999809E+01 0.  1.
       -4    1    3    3    0  502  0.11132525204E+04 -0.63533544875E+03  0.31825699654E+03  0.13207086868E+04  0.12699999809E+01 0. -1.
</event>
<event>
 5   0  0.2621825E-07  0.2976112E+04  0.7818609E-02  0.8250585E-01
        1   -1    0    0  501    0  0.00000000000E+00  0.00000000000E+00  0.11167062249E+04  0.11167062249E+04  0.50400001928E-02 0.  1.
       -1   -1    0    0    0  501  0.00000000000E+00  0.00000000000E+00 -0.19828939968E+04  0.19828939968E+04  0.50400001928E-02 0. -1.
    10030    2    1    2    0    0  0.00000000000E+00  0.00000000000E+00 -0.86618777187E+03  0.30996002218E+04  0.29761116038E+04 0.  0.
        3    1    3    3  502    0 -0.96901290014E+03 -0.45737574225E+03  0.64228586735E+03  0.12492836811E+04  0.10100000352E+00 0.  1.
       -3    1    3    3    0  502  0.96901290014E+03  0.45737574225E+03 -0.15084736392E+04  0.18503165407E+04  0.10100000352E+00 0. -1.
</event>
<event>
 5   0  0.7307508E-07  0.2989629E+04  0.7818609E-02  0.8246698E-01
       -2   -1    0    0    0  501  0.00000000000E+00  0.00000000000E+00  0.20791581479E+04  0.20791581479E+04  0.25500000920E-02 0.  1.
        2   -1    0    0  501    0  0.00000000000E+00  0.00000000000E+00 -0.10746999054E+04  0.10746999054E+04  0.25500000920E-02 0. -1.
    10030    2    1    2    0    0  0.00000000000E+00  0.00000000000E+00  0.10044582425E+04  0.31538580533E+04  0.29896294519E+04 0.  0.
        1    1    3    3  502    0  0.69424054656E+03  0.12666232647E+04  0.90829826234E+03  0.17062561837E+04  0.50400001928E-02 0.  1.
       -1    1    3    3    0  502 -0.69424054656E+03 -0.12666232647E+04  0.96159980179E+02  0.14476018696E+04  0.50400001928E-02 0. -1.
</event>
<event>
 5   0  0.2679935E-07  0.3005122E+04  0.7818609E-02  0.8242270E-01
       -1   -1    0    0    0  501  0.00000000000E+00  0.00000000000E+00  0.13187866836E+04  0.13187866836E+04  0.50400001928E-02 0. -1.
        1   -1    0    0  501    0  0.00000000000E+00  0.00000000000E+00 -0.17119449118E+04  0.17119449118E+04  0.50400001928E-02 0.  1.
    10030    2    1    2    0    0  0.00000000000E+00  0.00000000000E+00 -0.39315822819E+03  0.30307315955E+04  0.30051223954E+04 0.  0.
        2    1    3    3  502    0  0.94390424730E+03  0.69073485294E+03 -0.11478137401E+04  0.16387636337E+04  0.25500000920E-02 0.  1.
       -2    1    3    3    0  502 -0.94390424730E+03 -0.69073485294E+03  0.75465551187E+03  0.13919679618E+04  0.25500000920E-02 0. -1.
</event>
<event>
 5   0  0.7278657E-07  0.2952932E+04  0.7818609E-02  0.8257300E-01
        2   -1    0    0  501    0  0.00000000000E+00  0.00000000000E+00  0.17172242548E+04  0.17172242548E+04  0.25500000920E-02 0.  1.
       -2   -1    0    0    0  501  0.00000000000E+00  0.00000000000E+00 -0.12694628845E+04  0.12694628845E+04  0.25500000920E-02 0. -1.
    10030    2    1    2    0    0  0.00000000000E+00  0.00000000000E+00  0.44776137025E+03  0.29866871393E+04  0.29529324109E+04 0.  0.
        2    1    3    3  502    0  0.62772255374E+03 -0.28445477940E+03 -0.10968026983E+04  0.12953479397E+04  0.25500000920E-02 0. -1.
       -2    1    3    3    0  502 -0.62772255374E+03  0.28445477940E+03  0.15445640686E+04  0.16913391995E+04  0.25500000920E-02 0.  1.
</event>
<event>
 5   0  0.2792361E-07  0.2998375E+04  0.7818609E-02  0.8244195E-01
       -1   -1    0    0    0  501  0.00000000000E+00  0.00000000000E+00  0.12969037355E+04  0.12969037355E+04  0.50400001928E-02 0.  1.
        1   -1    0    0  501    0  0.00000000000E+00  0.00000000000E+00 -0.17330221270E+04  0.17330221270E+04  0.50400001928E-02 0. -1.
    10030    2    1    2    0    0  0.00000000000E+00  0.00000000000E+00 -0.43611839151E+03  0.30299258625E+04  0.29983748066E+04 0.  0.
        4    1    3    3  502    0  0.98284672089E+03  0.10769320278E+04  0.13459873816E+03  0.14642024118E+04  0.12699999809E+01 0. -1.
       -4    1    3    3    0  502 -0.98284672089E+03 -0.10769320278E+04 -0.57071712967E+03  0.15657234508E+04  0.12699999809E+01 0.  1.
</event>
<event>
 5   0  0.7585823E-07  0.2999920E+04  0.7818609E-02  0.8243754E-01
        2   -1    0    0  501    0  0.00000000000E+00  0.00000000000E+00  0.11730284223E+04  0.11730284223E+04  0.25500000920E-02 0.  1.
       -2   -1    0    0    0  501  0.00000000000E+00  0.00000000000E+00 -0.19180100330E+04  0.19180100330E+04  0.25500000920E-02 0. -1.
    10030    2    1    2    0    0  0.00000000000E+00  0.00000000000E+00 -0.74498161067E+03  0.30910384552E+04  0.29999201875E+04 0.  0.
        5    1    3    3  502    0 -0.64600870024E+03 -0.49703344102E+03 -0.16698979481E+04  0.18582117020E+04  0.46999998093E+01 0. -1.
       -5    1    3    3    0  502  0.64600870024E+03  0.49703344102E+03  0.92491633744E+03  0.12328267533E+04  0.46999998093E+01 0.  1.
</event>
<event>
 5   0  0.2640081E-07  0.2986983E+04  0.7818609E-02  0.8247458E-01
       -1   -1    0    0    0  501  0.00000000000E+00  0.00000000000E+00  0.82913352031E+03  0.82913352033E+03  0.50400001928E-02 0. -1.
        1   -1    0    0  501    0  0.00000000000E+00  0.00000000000E+00 -0.26901774050E+04  0.26901774050E+04  0.50400001928E-02 0.  1.
    10030    2    1    2    0    0  0.00000000000E+00  0.00000000000E+00 -0.18610438847E+04  0.35193109253E+04  0.29869825993E+04 0.  0.
        1    1    3    3  502    0  0.35964188368E+03  0.14495373102E+04 -0.92587374556E+03  0.17571974536E+04  0.50400001928E-02 0. -1.
       -1    1    3    3    0  502 -0.35964188368E+03 -0.14495373102E+04 -0.93517013911E+03  0.17621134717E+04  0.50400001928E-02 0.  1.
</event>
<event>
 5   0  0.7307508E-07  0.3000401E+04  0.7818609E-02  0.8243617E-01
       -2   -1    0    0    0  501  0.00000000000E+00  0.00000000000E+00  0.22604945774E+04  0.22604945774E+04  0.25500000920E-02 0. -1.
        2   -1    0    0  501    0  0.00000000000E+00  0.00000000000E+00 -0.99562323072E+03  0.99562323072E+03  0.25500000920E-02 0.  1.
    10030    2    1    2    0    0  0.00000000000E+00  0.00000000000E+00  0.12648713467E+04  0.32561178081E+04  0.30004005827E+04 0.  0.
        1    1    3    3  502    0 -0.18301059530E+03 -0.45548599689E+03 -0.90600254491E+03  0.10304372775E+04  0.50400001928E-02 0.  1.
       -1    1    3    3    0  502  0.18301059530E+03  0.45548599689E+03  0.21708738916E+04  0.22256805307E+04  0.50400001928E-02 0. -1.
</event>
<event>
 5   0  0.2679935E-07  0.2996121E+04  0.7818609E-02  0.8244840E-01
       -1   -1    0    0    0  501  0.00000000000E+00  0.00000000000E+00  0.10099007500E+04  0.10099007500E+04  0.50400001928E-02 0. -1.
        1   -1    0    0  501    0  0.00000000000E+00  0.00000000000E+00 -0.22221833759E+04  0.22221833759E+04  0.50400001928E-02 0.  1.
    10030    2    1    2    0    0  0.00000000000E+00  0.00000000000E+00 -0.12122826259E+04  0.32320841259E+04  0.29961205970E+04 0.  0.
        2    1    3    3  502    0 -0.45738644317E+03  0.14210288389E+04 -0.47114867846E+03  0.15654093384E+04  0.25500000920E-02 0.  1.
       -2    1    3    3    0  502  0.45738644317E+03 -0.14210288389E+04 -0.74113394745E+03  0.16666747876E+04  0.25500000920E-02 0. -1.
</event>
<event>
 5   0  0.2679935E-07  0.2945992E+04  0.7818609E-02  0.8259324E-01
        1   -1    0    0  501    0  0.00000000000E+00  0.00000000000E+00  0.25132550470E+04  0.25132550470E+04  0.50400001928E-02 0. -1.
       -1   -1    0    0    0  501  0.00000000000E+00  0.00000000000E+00 -0.86330949444E+03  0.86330949445E+03  0.50400001928E-02 0.  1.
    10030    2    1    2    0    0  0.00000000000E+00  0.00000000000E+00  0.16499455526E+04  0.33765645415E+04  0.29459918154E+04 0.  0.
        2    1    3    3  502    0 -0.91547212335E+03  0.11400462741E+04  0.62019155909E+03  0.15882166998E+04  0.25500000920E-02 0.  1.
       -2    1    3    3    0  502  0.91547212335E+03 -0.11400462741E+04  0.10297539935E+04  0.17883478417E+04  0.25500000920E-02 0. -1.
</event>
<event>
 5   0  0.2602891E-07  0.2993326E+04  0.7818609E-02  0.8245639E-01
        1   -1    0    0  501    0  0.00000000000E+00  0.00000000000E+00  0.19338767648E+04  0.19338767648E+04  0.50400001928E-02 0.  1.
       -1   -1    0    0    0  501  0.00000000000E+00  0.00000000000E+00 -0.11582951787E+04  0.11582951787E+04  0.50400001928E-02 0. -1.
    10030    2    1    2    0    0  0.00000000000E+00  0.00000000000E+00  0.77558158615E+03  0.30921719435E+04  0.29933259982E+04 0.  0.
        5    1    3    3  502    0 -0.72162447869E+03  0.18526749103E+02 -0.96656892480E+03  0.12063841449E+04  0.46999998093E+01 0. -1.
       -5    1    3    3    0  502  0.72162447869E+03 -0.18526749103E+02  0.17421505110E+04  0.18857877986E+04  0.46999998093E+01 0.  1.
</event>
<event>
 5   0  0.2602891E-07  0.3003115E+04  0.7818609E-02  0.8242842E-01
       -1   -1    0    0    0  501  0.00000000000E+00  0.00000000000E+00  0.89655551545E+03  0.89655551546E+03  0.50400001928E-02 0. -1.
        1   -1    0    0  501    0  0.00000000000E+00  0.00000000000E+00 -0.25148183990E+04  0.25148183990E+04  0.50400001928E-02 0.  1.
    10030    2    1    2    0    0  0.00000000000E+00  0.00000000000E+00 -0.16182628836E+04  0.34113739145E+04  0.30031145872E+04 0.  0.
        5    1    3    3  502    0  0.14287851702E+04 -0.39986084272E+03 -0.10714744618E+04  0.18301353416E+04  0.46999998093E+01 0.  1.
       -5    1    3    3    0  502 -0.14287851702E+04  0.39986084272E+03 -0.54678842177E+03  0.15812385729E+04  0.46999998093E+01 0. -1.
</event>
<event>
 5   0  0.2792361E-07  0.3000940E+04  0.7818609E-02  0.8243463E-01
       -1   -1    0    0    0  501  0.00000000000E+00  0.00000000000E+00  0.21449251383E+04  0.21449251383E+04  0.50400001928E-02 0. -1.
        1   -1    0    0  501    0  0.00000000000E+00  0.00000000000E+00 -0.10496447946E+04  0.10496447946E+04  0.50400001928E-02 0.  1.
    10030    2    1    2    0    0  0.00000000000E+00  0.00000000000E+00  0.10952803437E+04  0.31945699329E+04  0.30009395237E+04 0.  0.
        4    1    3    3  502    0  0.23991977798E+02 -0.73979775766E+03  0.19370496200E+04  0.20736535825E+04  0.12699999809E+01 0. -1.
       -4    1    3    3    0  502 -0.23991977798E+02  0.73979775766E+03 -0.84176927623E+03  0.11209163504E+04  0.12699999809E+01 0.  1.
</event>
<event>
 5   0  0.7208273E-07  0.3001081E+04  0.7818609E-02  0.8243422E-01
       -2   -1    0    0    0  501  0.00000000000E+00  0.00000000000E+00  0.15636459386E+04  0.15636459386E+04  0.25500000920E-02 0. -1.
        2   -1    0    0  501    0  0.00000000000E+00  0.00000000000E+00 -0.14399820368E+04  0.14399820368E+04  0.25500000920E-02 0.  1.
    10030    2    1    2    0    0  0.00000000000E+00  0.00000000000E+00  0.12366390185E+03  0.30036279754E+04  0.30010811809E+04 0.  0.
        4    1    3    3  502    0  0.23210670662E+03  0.33979106084E+03  0.15060703764E+04  0.15612754658E+04  0.12699999809E+01 0. -1.
       -4    1    3    3    0  502 -0.23210670662E+03 -0.33979106084E+03 -0.13824064746E+04  0.14423525097E+04  0.12699999809E+01 0.  1.
</event>
<event>
 5   0  0.7307508E-07  0.3016478E+04  0.7818609E-02  0.8239041E-01
       -2   -1    0    0    0  501  0.00000000000E+00  0.00000000000E+00  0.15373975131E+04  0.15373975131E+04  0.25500000920E-02 0. -1.
        2   -1    0    0  501    0  0.00000000000E+00  0.00000000000E+00 -0.14796333948E+04  0.14796333948E+04  0.25500000920E-02 0.  1.
    10030    2    1    2    0    0  0.00000000000E+00  0.00000000000E+00  0.57764118314E+02  0.30170309079E+04  0.30164778809E+04 0.  0.
        1    1    3    3  502    0 -0.10024214163E+04  0.95786507882E+03 -0.56488534823E+03  0.14971471744E+04  0.50400001928E-02 0. -1.
       -1    1    3    3    0  502  0.10024214163E+04 -0.95786507882E+03  0.62264946654E+03  0.15198837335E+04  0.50400001928E-02 0.  1.
</event>
<event>
 5   0  0.7585823E-07  0.2999647E+04  0.7818609E-02  0.8243832E-01
        2   -1    0    0  501    0  0.00000000000E+00  0.00000000000E+00  0.16748462930E+04  0.16748462930E+04  0.25500000920E-02 0. -1.
       -2   -1    0    0    0  501  0.00000000000E+00  0.00000000000E+00 -0.13430909454E+04  0.13430909454E+04  0.25500000920E-02 0.  1.
    10030    2    1    2    0    0  0.00000000000E+00  0.00000000000E+00  0.33175534766E+03  0.30179372384E+04  0.29996472400E+04 0.  0.
        5    1    3    3  502    0  0.56021974306E+02 -0.14978141757E+04  0.21971126115E+03  0.15148864296E+04  0.46999998093E+01 0. -1.
       -5    1    3    3    0  502 -0.56021974306E+02  0.14978141757E+04  0.11204408651E+03  0.15030508088E+04  0.46999998093E+01 0.  1.
</event>
<event>
 5   0  0.7278657E-07  0.3001523E+04  0.7818609E-02  0.8243296E-01
       -2   -1    0    0    0  501  0.00000000000E+00  0.00000000000E+00  0.90514481262E+03  0.90514481262E+03  0.25500000920E-02 0.  1.
        2   -1    0    0  501    0  0.00000000000E+00  0.00000000000E+00 -0.24883148170E+04  0.24883148170E+04  0.25500000920E-02 0. -1.
    10030    2    1    2    0    0  0.00000000000E+00  0.00000000000E+00 -0.15831700044E+04  0.33934596296E+04  0.30015231125E+04 0.  0.
        2    1    3    3  502    0  0.35148211588E+03 -0.19232324578E+02 -0.24409817726E+04  0.24662322628E+04  0.25500000920E-02 0. -1.
       -2    1    3    3    0  502 -0.35148211588E+03  0.19232324578E+02  0.85781176819E+03  0.92722736680E+03  0.25500000920E-02 0.  1.
</event>
<event>
 5   0  0.2679935E-07  0.3028376E+04  0.7818609E-02  0.8235674E-01
       -1   -1    0    0    0  501  0.00000000000E+00  0.00000000000E+00  0.11307103095E+04  0.11307103095E+04  0.50400001928E-02 0. -1.
        1   -1    0    0  501    0  0.00000000000E+00  0.00000000000E+00 -0.20277217982E+04  0.20277217982E+04  0.50400001928E-02 0.  1.
    10030    2    1    2    0    0  0.00000000000E+00  0.00000000000E+00 -0.89701148870E+03  0.31584321077E+04  0.30283764245E+04 0.  0.
        2    1    3    3  502    0  0.11611797238E+04 -0.28199200199E+03 -0.14184497691E+04  0.18546853069E+04  0.25500000920E-02 0.  1.
       -2    1    3    3    0  502 -0.11611797238E+04  0.28199200199E+03  0.52143828042E+03  0.13037468008E+04  0.25500000920E-02 0. -1.
</event>
<event>
 5   0  0.2640081E-07  0.3039212E+04  0.7818609E-02  0.8232622E-01
        1   -1    0    0  501    0  0.00000000000E+00  0.00000000000E+00  0.26295553847E+04  0.26295553847E+04  0.50400001928E-02 0. -1.
       -1   -1    0    0    0  501  0.00000000000E+00  0.00000000000E+00 -0.87817195518E+03  0.87817195519E+03  0.50400001928E-02 0.  1.
    10030    2    1    2    0    0  0.00000000000E+00  0.00000000000E+00  0.17513834295E+04  0.35077273399E+04  0.30392116040E+04 0.  0.
        1    1    3    3  502    0  0.13795693790E+04  0.61629930405E+03  0.68899887399E+03  0.16606492562E+04  0.50400001928E-02 0.  1.
       -1    1    3    3    0  502 -0.13795693790E+04 -0.61629930405E+03  0.10623845555E+04  0.18470780838E+04  0.50400001928E-02 0. -1.
</event>
<event>
 5   0  0.7585823E-07  0.3000420E+04  0.7818609E-02  0.8243611E-01
       -2   -1    0    0    0  501  0.00000000000E+00  0.00000000000E+00  0.19158549936E+04  0.19158549936E+04  0.25500000920E-02 0. -1.
        2   -1    0    0  501    0  0.00000000000E+00  0.00000000000E+00 -0.11747391401E+04  0.11747391401E+04  0.25500000920E-02 0.  1.
    10030    2    1    2    0    0  0.00000000000E+00  0.00000000000E+00  0.74111585353E+03  0.30905941337E+04  0.30004198691E+04 0.  0.
        5    1    3    3  502    0 -0.14043453665E+04  0.51365152307E+03  0.49495143294E+03  0.15751262827E+04  0.46999998093E+01 0. -1.
       -5    1    3    3    0  502  0.14043453665E+04 -0.51365152307E+03  0.24616442059E+03  0.15154678510E+04  0.46999998093E+01 0.  1.
</event>
<event>
 5   0  0.7307508E-07  0.3048517E+04  0.7818609E-02  0.8230011E-01
       -2   -1    0    0    0  501  0.00000000000E+00  0.00000000000E+00  0.11639058889E+04  0.11639058889E+04  0.25500000920E-02 0. -1.
        2   -1    0    0  501    0  0.00000000000E+00  0.00000000000E+00 -0.19961786044E+04  0.19961786044E+04  0.25500000920E-02 0.  1.
    10030    2    1    2    0    0  0.00000000000E+00  0.00000000000E+00 -0.83227271550E+03  0.31600844932E+04  0.30485170381E+04 0.  0.
        1    1    3    3  502    0 -0.17723122207E+03 -0.40548975748E+03  0.10958505662E+04  0.11818296464E+04  0.50400001928E-02 0. -1.
       -1    1    3    3    0  502  0.17723122207E+03  0.40548975748E+03 -0.19281232817E+04  0.19782548469E+04  0.50400001928E-02 0.  1.
</event>
<event>
 5   0  0.2602891E-07  0.2999779E+04  0.7818609E-02  0.8243794E-01
        1   -1    0    0  501    0  0.00000000000E+00  0.00000000000E+00  0.21593573711E+04  0.21593573711E+04  0.50400001928E-02 0.  1.
       -1   -1    0    0    0  501  0.00000000000E+00  0.00000000000E+00 -0.10418228245E+04  0.10418228245E+04  0.50400001928E-02 0. -1.
    10030    2    1    2    0    0  0.00000000000E+00  0.00000000000E+00  0.11175345466E+04  0.32011801956E+04  0.29997785221E+04 0.  0.
        5    1    3    3  502    0 -0.15999576051E+03  0.12915650775E+04 -0.23688240084E+03  0.13228281651E+04  0.46999998093E+01 0. -1.
       -5    1    3    3    0  502  0.15999576051E+03 -0.12915650775E+04  0.13544169475E+04  0.18783520304E+04  0.46999998093E+01 0.  1.
</event>
<event>
 5   0  0.2621825E-07  0.2997702E+04  0.7818609E-02  0.8244388E-01
        1   -1    0    0  501    0  0.00000000000E+00  0.00000000000E+00  0.21786712407E+04  0.21786712407E+04  0.50400001928E-02 0. -1.
       -1   -1    0    0    0  501  0.00000000000E+00  0.00000000000E+00 -0.10311577199E+04  0.10311577199E+04  0.50400001928E-02 0.  1.
    10030    2    1    2    0    0  0.00000000000E+00  0.00000000000E+00  0.11475135208E+04  0.32098289605E+04  0.29977015654E+04 0.  0.
        3    1    3    3  502    0  0.12855119093E+04  0.71950721052E+03  0.86957083518E+03  0.17106679814E+04  0.10100000352E+00 0. -1.
       -3    1    3    3    0  502 -0.12855119093E+04 -0.71950721052E+03  0.27794268565E+03  0.14991609792E+04  0.10100000352E+00 0.  1.
</event>
<event>
 5   0  0.7585823E-07  0.3002025E+04  0.7818609E-02  0.8243153E-01
       -2   -1    0    0    0  501  0.00000000000E+00  0.00000000000E+00  0.12366902288E+04  0.12366902288E+04  0.25500000920E-02 0.  1.
        2   -1    0    0  501    0  0.00000000000E+00  0.00000000000E+00 -0.18218291999E+04  0.18218291999E+04  0.25500000920E-02 0. -1.
    10030    2    1    2    0    0  0.00000000000E+00  0.00000000000E+00 -0.58513897113E+03  0.30585194287E+04  0.30020248967E+04 0.  0.
        5    1    3    3  502    0  0.95109212484E+03  0.10526601525E+04 -0.79204705974E+03  0.16248169932E+04  0.46999998093E+01 0. -1.
       -5    1    3    3    0  502 -0.95109212484E+03 -0.10526601525E+04  0.20690808860E+03  0.14337024355E+04  0.46999998093E+01 0.  1.
</event>
<event>
 5   0  0.2621825E-07  0.2998052E+04  0.7818609E-02  0.8244287E-01
       -1   -1    0    0    0  501  0.00000000000E+00  0.00000000000E+00  0.16413415807E+04  0.16413415807E+04  0.50400001928E-02 0.  1.
        1   -1    0    0  501    0  0.00000000000E+00  0.00000000000E+00 -0.13690503335E+04  0.13690503335E+04  0.50400001928E-02 0. -1.
    10030    2    1    2    0    0  0.00000000000E+00  0.00000000000E+00  0.27229124721E+03  0.30103919143E+04  0.29980521934E+04 0.  0.
        3    1    3    3  502    0  0.83426222607E+03  0.90500699230E+02 -0.11111002916E+04  0.13923820261E+04  0.10100000352E+00 0. -1.
       -3    1    3    3    0  502 -0.83426222607E+03 -0.90500699230E+02  0.13833915388E+04  0.16180098882E+04  0.10100000352E+00 0.  1.
</event>
<event>
 5   0  0.7399409E-07  0.3000949E+04  0.7818609E-02  0.8243460E-01
       -2   -1    0    0    0  501  0.00000000000E+00  0.00000000000E+00  0.10646725155E+04  0.10646725155E+04  0.25500000920E-02 0.  1.
        2   -1    0    0  501    0  0.00000000000E+00  0.00000000000E+00 -0.21146637907E+04  0.21146637907E+04  0.25500000920E-02 0. -1.
    10030    2    1    2    0    0  0.00000000000E+00  0.00000000000E+00 -0.10499912751E+04  0.31793363062E+04  0.30009494615E+04 0.  0.
        3    1    3    3  502    0 -0.87466799836E+03  0.51991650022E+03 -0.16933015197E+04  0.19755068517E+04  0.10100000352E+00 0. -1.
       -3    1    3    3    0  502  0.87466799836E+03 -0.51991650022E+03  0.64331024453E+03  0.12038294545E+04  0.10100000352E+00 0.  1.
</event>
<event>
 5   0  0.2679935E-07  0.2981614E+04  0.7818609E-02  0.8249001E-01
       -1   -1    0    0    0  501  0.00000000000E+00  0.00000000000E+00  0.11700889252E+04  0.11700889252E+04  0.50400001928E-02 0. -1.
        1   -1    0    0  501    0  0.00000000000E+00  0.00000000000E+00 -0.18994330287E+04  0.18994330287E+04  0.50400001928E-02 0.  1.
    10030    2    1    2    0    0  0.00000000000E+00  0.00000000000E+00 -0.72934410349E+03  0.30695219539E+04  0.29816140267E+04 0.  0.
        2    1    3    3  502    0 -0.58382970416E+02 -0.12860641388E+04 -0.11385915916E+04  0.17186507361E+04  0.25500000920E-02 0.  1.
       -2    1    3    3    0  502  0.58382970416E+02  0.12860641388E+04  0.40924748810E+03  0.13508712177E+04  0.25500000920E-02 0. -1.
</event>
<event>
 5   0  0.7307508E-07  0.2996787E+04  0.7818609E-02  0.8244649E-01
       -2   -1    0    0    0  501  0.00000000000E+00  0.00000000000E+00  0.13227470252E+04  0.13227470252E+04  0.25500000920E-02 0.  1.
        2   -1    0    0  501    0  0.00000000000E+00  0.00000000000E+00 -0.16973640891E+04  0.16973640891E+04  0.25500000920E-02 0. -1.
    10030    2    1    2    0    0  0.00000000000E+00  0.00000000000E+00 -0.37461706389E+03  0.30201111143E+04  0.29967871459E+04 0.  0.
        1    1    3    3  502    0 -0.37808119349E+03 -0.13943665803E+04  0.21325161324E+03  0.14603697476E+04  0.50400001928E-02 0. -1.
       -1    1    3    3    0  502  0.37808119349E+03  0.13943665803E+04 -0.58786867713E+03  0.15597413666E+04  0.50400001928E-02 0.  1.
</event>
<event>
 5   0  0.2679935E-07  0.2998968E+04  0.7818609E-02  0.8244026E-01
       -1   -1    0    0    0  501  0.00000000000E+00  0.00000000000E+00  0.13855895229E+04  0.13855895229E+04  0.50400001928E-02 0. -1.
        1   -1    0    0  501    0  0.00000000000E+00  0.00000000000E+00 -0.16227402395E+04  0.16227402395E+04  0.50400001928E-02 0.  1.
    10030    2    1    2    0    0  0.00000000000E+00  0.00000000000E+00 -0.23715071661E+03  0.30083297625E+04  0.29989677386E+04 0.  0.
        2    1    3    3  502    0 -0.92608717535E+03 -0.10560935401E+04 -0.64507654644E+03  0.15456696842E+04  0.25500000920E-02 0. -1.
       -2    1    3    3    0  502  0.92608717535E+03  0.10560935401E+04  0.40792582983E+03  0.14626600783E+04  0.25500000920E-02 0.  1.
</event>
<event>
 5   0  0.7208273E-07  0.2999115E+04  0.7818609E-02  0.8243984E-01
        2   -1    0    0  501    0  0.00000000000E+00  0.00000000000E+00  0.16678687787E+04  0.16678687787E+04  0.25500000920E-02 0.  1.
       -2   -1    0    0    0  501  0.00000000000E+00  0.00000000000E+00 -0.13482307830E+04  0.13482307830E+04  0.25500000920E-02 0. -1.
    10030    2    1    2    0    0  0.00000000000E+00  0.00000000000E+00  0.31963799574E+03  0.30160995617E+04  0.29991145556E+04 0.  0.
        4    1    3    3  502    0 -0.14538181598E+03 -0.44325460321E+03  0.15930427105E+04  0.16599389163E+04  0.12699999809E+01 0.  1.
       -4    1    3    3    0  502  0.14538181598E+03  0.44325460321E+03 -0.12734047147E+04  0.13561606454E+04  0.12699999809E+01 0. -1.
</event>
<event>
 5   0  0.2792361E-07  0.3002324E+04  0.7818609E-02  0.8243068E-01
       -1   -1    0    0    0  501  0.00000000000E+00  0.00000000000E+00  0.13846383762E+04  0.13846383762E+04  0.50400001928E-02 0. -1.
        1   -1    0    0  501    0  0.00000000000E+00  0.00000000000E+00 -0.16274915320E+04  0.16274915320E+04  0.50400001928E-02 0.  1.
    10030    2    1    2    0    0  0.00000000000E+00  0.00000000000E+00 -0.24285315584E+03  0.30121299082E+04  0.30023239214E+04 0.  0.
        4    1    3    3  502    0 -0.77196198132E+02 -0.13138128447E+04  0.60302756501E+03  0.14476557951E+04  0.12699999809E+01 0. -1.
       -4    1    3    3    0  502  0.77196198132E+02  0.13138128447E+04 -0.84588072086E+03  0.15644741132E+04  0.12699999809E+01 0.  1.
</event>
<event>
 5   0  0.2679935E-07  0.2997440E+04  0.7818609E-02  0.8244462E-01
        1   -1    0    0  501    0  0.00000000000E+00  0.00000000000E+00  0.23592765435E+04  0.23592765435E+04  0.50400001928E-02 0. -1.
       -1   -1    0    0    0  501  0.00000000000E+00  0.00000000000E+00 -0.95205499555E+03  0.95205499556E+03  0.50400001928E-02 0.  1.
    10030    2    1    2    0    0  0.00000000000E+00  0.00000000000E+00  0.14072215480E+04  0.33113315391E+04  0.29974395868E+04 0.  0.
        2    1    3    3  502    0 -0.75704656419E+03  0.81494358005E+03 -0.40601903008E+03  0.11841047216E+04  0.25500000920E-02 0.  1.
       -2    1    3    3    0  502  0.75704656419E+03 -0.81494358005E+03  0.18132405780E+04  0.21272268174E+04  0.25500000920E-02 0. -1.
</event>
<event>
 5   0  0.2602891E-07  0.2999076E+04  0.7818609E-02  0.8243995E-01
        1   -1    0    0  501    0  0.00000000000E+00  0.00000000000E+00  0.27418373580E+04  0.27418373580E+04  0.50400001928E-02 0.  1.
       -1   -1    0    0    0  501  0.00000000000E+00  0.00000000000E+00 -0.82011219090E+03  0.82011219091E+03  0.50400001928E-02 0. -1.
    10030    2    1    2    0    0  0.00000000000E+00  0.00000000000E+00  0.19217251671E+04  0.35619495489E+04  0.29990760196E+04 0.  0.
        5    1    3    3  502    0 -0.13770332674E+04 -0.45024348773E+02  0.25787469437E+03  0.14017022721E+04  0.46999998093E+01 0. -1.
       -5    1    3    3    0  502  0.13770332674E+04  0.45024348773E+02  0.16638504727E+04  0.21602472769E+04  0.46999998093E+01 0.  1.
</event>
<event>
 5   0  0.2679935E-07  0.2991821E+04  0.7818609E-02  0.8246070E-01
       -1   -1    0    0    0  501  0.00000000000E+00  0.00000000000E+00  0.10043437313E+04  0.10043437313E+04  0.50400001928E-02 0.  1.
        1   -1    0    0  501    0  0.00000000000E+00  0.00000000000E+00 -0.22280707584E+04  0.22280707584E+04  0.50400001928E-02 0. -1.
    10030    2    1    2    0    0  0.00000000000E+00  0.00000000000E+00 -0.12237270272E+04  0.32324144897E+04  0.29918214512E+04 0.  0.
        2    1    3    3  502    0  0.34960265280E+03 -0.62755594528E+03  0.80579021942E+03  0.10795120921E+04  0.25500000920E-02 0.  1.
       -2    1    3    3    0  502 -0.34960265280E+03  0.62755594528E+03 -0.20295172466E+04  0.21529023976E+04  0.25500000920E-02 0. -1.
</event>
<event>
 5   0  0.2621825E-07  0.3024363E+04  0.7818609E-02  0.8236808E-01
        1   -1    0    0  501    0  0.00000000000E+00  0.00000000000E+00  0.21534448124E+04  0.21534448124E+04  0.50400001928E-02 0. -1.
       -1   -1    0    0    0  501  0.00000000000E+00  0.00000000000E+00 -0.10618763816E+04  0.10618763816E+04  0.50400001928E-02 0.  1.
    10030    2    1    2    0    0  0.00000000000E+00  0.00000000000E+00  0.10915684308E+04  0.32153211940E+04  0.30243625347E+04 0.  0.
        3    1    3    3  502    0  0.16489886806E+03  0.21728598620E+02  0.21436907021E+04  0.21501333924E+04  0.10100000352E+00 0. -1.
       -3    1    3    3    0  502 -0.16489886806E+03 -0.21728598620E+02 -0.10521222713E+04  0.10651878016E+04  0.10100000352E+00 0.  1.
</event>
<event>
 5   0  0.2602891E-07  0.2997628E+04  0.7818609E-02  0.8244409E-01
        1   -1    0    0  501    0  0.00000000000E+00  0.00000000000E+00  0.21836589402E+04  0.21836589402E+04  0.50400001928E-02 0. -1.
       -1   -1    0    0    0  501  0.00000000000E+00  0.00000000000E+00 -0.10287518379E+04  0.10287518379E+04  0.50400001928E-02 0.  1.
    10030    2    1    2    0    0  0.00000000000E+00  0.00000000000E+00  0.11549071022E+04  0.32124107781E+04  0.29976278275E+04 0.  0.
        5    1    3    3  502    0  0.43941519022E+03 -0.13948610029E+04  0.22576563506E+03  0.14797686099E+04  0.46999998093E+01 0.  1.
       -5    1    3    3    0  502 -0.43941519022E+03  0.13948610029E+04  0.92914146718E+03  0.17326421682E+04  0.46999998093E+01 0. -1.
</event>
<event>
 5   0  0.2602891E-07  0.2999580E+04  0.7818609E-02  0.8243851E-01
        1   -1    0    0  501    0  0.00000000000E+00  0.00000000000E+00  0.25658781748E+04  0.25658781749E+04  0.50400001928E-02 0. -1.
       -1   -1    0    0    0  501  0.00000000000E+00  0.00000000000E+00 -0.87664696637E+03  0.87664696639E+03  0.50400001928E-02 0.  1.
    10030    2    1    2    0    0  0.00000000000E+00  0.00000000000E+00  0.16892312085E+04  0.34425251412E+04  0.29995795159E+04 0.  0.
        5    1    3    3  502    0 -0.37231960631E+03 -0.70684653164E+03  0.23013389820E+04  0.24360700131E+04  0.46999998093E+01 0. -1.
       -5    1    3    3    0  502  0.37231960631E+03  0.70684653164E+03 -0.61210777355E+03  0.10064551281E+04  0.46999998093E+01 0.  1.
</event>
<event>
 5   0  0.2602891E-07  0.3004146E+04  0.7818609E-02  0.8242548E-01
       -1   -1    0    0    0  501  0.00000000000E+00  0.00000000000E+00  0.98170668789E+03  0.98170668791E+03  0.50400001928E-02 0.  1.
        1   -1    0    0  501    0  0.00000000000E+00  0.00000000000E+00 -0.22982663635E+04  0.22982663636E+04  0.50400001928E-02 0. -1.
    10030    2    1    2    0    0  0.00000000000E+00  0.00000000000E+00 -0.13165596757E+04  0.32799730515E+04  0.30041461081E+04 0.  0.
        5    1    3    3  502    0  0.78246013447E+03  0.98009676671E+03 -0.15608406879E+04  0.20022685328E+04  0.46999998093E+01 0. -1.
       -5    1    3    3    0  502 -0.78246013447E+03 -0.98009676671E+03  0.24428101229E+03  0.12777045187E+04  0.46999998093E+01 0.  1.
</event>
<event>
 5   0  0.7208273E-07  0.3047674E+04  0.7818609E-02  0.8230247E-01
        2   -1    0    0  501    0  0.00000000000E+00  0.00000000000E+00  0.12204878884E+04  0.12204878884E+04  0.25500000920E-02 0. -1.
       -2   -1    0    0    0  501  0.00000000000E+00  0.00000000000E+00 -0.19025828122E+04  0.19025828122E+04  0.25500000920E-02 0.  1.
    10030    2    1    2    0    0  0.00000000000E+00  0.00000000000E+00 -0.68209492387E+03  0.31230707006E+04  0.30476740501E+04 0.  0.
        4    1    3    3  502    0 -0.14806583016E+04  0.19684455556E+03 -0.31955032798E+02  0.14940279522E+04  0.12699999809E+01 0.  1.
       -4    1    3    3    0  502  0.14806583016E+04 -0.19684455556E+03 -0.65013989108E+03  0.16290427483E+04  0.12699999809E+01 0. -1.
</event>
<event>
 5   0  0.2792361E-07  0.2992535E+04  0.7818609E-02  0.8245866E-01
        1   -1    0    0  501    0  0.00000000000E+00  0.00000000000E+00  0.77787382006E+03  0.77787382008E+03  0.50400001928E-02 0. -1.
       -1   -1    0    0    0  501  0.00000000000E+00  0.00000000000E+00 -0.28781234070E+04  0.28781234070E+04  0.50400001928E-02 0.  1.
    10030    2    1    2    0    0  0.00000000000E+00  0.00000000000E+00 -0.21002495870E+04  0.36559972271E+04  0.29925352792E+04 0.  0.
        4    1    3    3  502    0  0.43793397004E+03 -0.13386632334E+04 -0.43318180550E+03  0.14735852551E+04  0.12699999809E+01 0. -1.
       -4    1    3    3    0  502 -0.43793397004E+03  0.13386632334E+04 -0.16670677815E+04  0.21824119720E+04  0.12699999809E+01 0.  1.
</event>
<event>
 5   0  0.7399409E-07  0.3000709E+04  0.7818609E-02  0.8243529E-01
        2   -1    0    0  501    0  0.00000000000E+00  0.00000000000E+00  0.21468817923E+04  0.21468817923E+04  0.25500000920E-02 0.  1.
       -2   -1    0    0    0  501  0.00000000000E+00  0.00000000000E+00 -0.10485267955E+04  0.10485267955E+04  0.25500000920E-02 0. -1.
    10030    2    1    2    0    0  0.00000000000E+00  0.00000000000E+00  0.10983549967E+04  0.31954085878E+04  0.30007086404E+04 0.  0.
        3    1    3    3  502    0  0.10579833927E+04 -0.40811148631E+03 -0.49700283900E+03  0.12381016423E+04  0.10100000352E+00 0. -1.
       -3    1    3    3    0  502 -0.10579833927E+04  0.40811148631E+03  0.15953578357E+04  0.19573069455E+04  0.10100000352E+00 0.  1.
</event>
<event>
 5   0  0.7307508E-07  0.2998494E+04  0.7818609E-02  0.8244161E-01
        2   -1    0    0  501    0  0.00000000000E+00  0.00000000000E+00  0.13615595206E+04  0.13615595206E+04  0.25500000920E-02 0.  1.
       -2   -1    0    0    0  501  0.00000000000E+00  0.00000000000E+00 -0.16508578626E+04  0.16508578626E+04  0.25500000920E-02 0. -1.
    10030    2    1    2    0    0  0.00000000000E+00  0.00000000000E+00 -0.28929834199E+03  0.30124173833E+04  0.29984937820E+04 0.  0.
        1    1    3    3  502    0 -0.46193976659E+03  0.64618997122E+03 -0.14220846957E+04  0.16288875679E+04  0.50400001928E-02 0. -1.
       -1    1    3    3    0  502  0.46193976659E+03 -0.64618997122E+03  0.11327863538E+04  0.13835298154E+04  0.50400001928E-02 0.  1.
</event>
<event>
 5   0  0.2792361E-07  0.3001736E+04  0.7818609E-02  0.8243235E-01
       -1   -1    0    0    0  501  0.00000000000E+00  0.00000000000E+00  0.13074089227E+04  0.13074089227E+04  0.50400001928E-02 0.  1.
        1   -1    0    0  501    0  0.00000000000E+00  0.00000000000E+00 -0.17229530425E+04  0.17229530425E+04  0.50400001928E-02 0. -1.
    10030    2    1    2    0    0  0.00000000000E+00  0.00000000000E+00 -0.41554411983E+03  0.30303619652E+04  0.30017356187E+04 0.  0.
        4    1    3    3  502    0 -0.35777874625E+03 -0.92501455867E+03 -0.13449893861E+04  0.16711240608E+04  0.12699999809E+01 0. -1.
       -4    1    3    3    0  502  0.35777874625E+03  0.92501455867E+03  0.92944526623E+03  0.13592379044E+04  0.12699999809E+01 0.  1.
</event>
<event>
 5   0  0.7307508E-07  0.3000382E+04  0.7818609E-02  0.8243622E-01
       -2   -1    0    0    0  501  0.00000000000E+00  0.00000000000E+00  0.88255288847E+03  0.88255288847E+03  0.25500000920E-02 0. -1.
        2   -1    0    0  501    0  0.00000000000E+00  0.00000000000E+00 -0.25500723741E+04  0.25500723741E+04  0.25500000920E-02 0.  1.
    10030    2    1    2    0    0  0.00000000000E+00  0.00000000000E+00 -0.16675194856E+04  0.34326252626E+04  0.30003824687E+04 0.  0.
        1    1    3    3  502    0 -0.49033580438E+02  0.48359863124E+03  0.78996364719E+03  0.92753139681E+03  0.50400001928E-02 0. -1.
       -1    1    3    3    0  502  0.49033580438E+02 -0.48359863124E+03 -0.24574831328E+04  0.25050938658E+04  0.50400001928E-02 0.  1.
</event>
<event>
 5   0  0.7307508E-07  0.3030949E+04  0.7818609E-02  0.8234948E-01
       -2   -1    0    0    0  501  0.00000000000E+00  0.00000000000E+00  0.13577364017E+04  0.13577364017E+04  0.25500000920E-02 0. -1.
        2   -1    0    0  501    0  0.00000000000E+00  0.00000000000E+00 -0.16915382385E+04  0.16915382385E+04  0.25500000920E-02 0.  1.
    10030    2    1    2    0    0  0.00000000000E+00  0.00000000000E+00 -0.33380183676E+03  0.30492746402E+04  0.30309490536E+04 0.  0.
        1    1    3    3  502    0 -0.10461148055E+03 -0.15002296259E+04 -0.35519704119E+03  0.15452499572E+04  0.50400001928E-02 0. -1.
       -1    1    3    3    0  502  0.10461148055E+03  0.15002296259E+04  0.21395204428E+02  0.15040246830E+04  0.50400001928E-02 0.  1.
</event>
<event>
 5   0  0.2679935E-07  0.3002188E+04  0.7818609E-02  0.8243106E-01
       -1   -1    0    0    0  501  0.00000000000E+00  0.00000000000E+00  0.10097630242E+04  0.10097630242E+04  0.50400001928E-02 0. -1.
        1   -1    0    0  501    0  0.00000000000E+00  0.00000000000E+00 -0.22314973379E+04  0.22314973379E+04  0.50400001928E-02 0.  1.
    10030    2    1    2    0    0  0.00000000000E+00  0.00000000000E+00 -0.12217343137E+04  0.32412603622E+04  0.30021882023E+04 0.  0.
        2    1    3    3  502    0 -0.62367144685E+03  0.76234656933E+03  0.61209746844E+03  0.11596558439E+04  0.25500000920E-02 0. -1.
       -2    1    3    3    0  502  0.62367144685E+03 -0.76234656933E+03 -0.18338317821E+04  0.20816045183E+04  0.25500000920E-02 0.  1.
</event>
<event>
 5   0  0.7307508E-07  0.3000582E+04  0.7818609E-02  0.8243565E-01
        2   -1    0    0  501    0  0.00000000000E+00  0.00000000000E+00  0.14735103763E+04  0.14735103763E+04  0.25500000920E-02 0. -1.
       -2   -1    0    0    0  501  0.00000000000E+00  0.00000000000E+00 -0.15275583220E+04  0.15275583220E+04  0.25500000920E-02 0.  1.
    10030    2    1    2    0    0  0.00000000000E+00  0.00000000000E+00 -0.54047945673E+02  0.30010686983E+04  0.30005819688E+04 0.  0.
        1    1    3    3  502    0  0.88676849540E+03  0.10010460787E+04  0.65310208484E+03  0.14882855738E+04  0.50400001928E-02 0. -1.
       -1    1    3    3    0  502 -0.88676849540E+03 -0.10010460787E+04 -0.70715003052E+03  0.15127831245E+04  0.50400001928E-02 0.  1.
</event>
<event>
 5   0  0.2640081E-07  0.2999307E+04  0.7818609E-02  0.8243929E-01
        1   -1    0    0  501    0  0.00000000000E+00  0.00000000000E+00  0.20368178330E+04  0.20368178330E+04  0.50400001928E-02 0. -1.
       -1   -1    0    0    0  501  0.00000000000E+00  0.00000000000E+00 -0.11041541187E+04  0.11041541187E+04  0.50400001928E-02 0.  1.
    10030    2    1    2    0    0  0.00000000000E+00  0.00000000000E+00  0.93266371428E+03  0.31409719517E+04  0.29993071196E+04 0.  0.
        1    1    3    3  502    0 -0.13520470079E+04  0.30810913092E+03 -0.13159889232E+03  0.13929395596E+04  0.50400001928E-02 0.  1.
       -1    1    3    3    0  502  0.13520470079E+04 -0.30810913092E+03  0.10642626066E+04  0.17480323922E+04  0.50400001928E-02 0. -1.
</event>
<event>
 5   0  0.2679935E-07  0.3018818E+04  0.7818609E-02  0.8238378E-01
        1   -1    0    0  501    0  0.00000000000E+00  0.00000000000E+00  0.16394694120E+04  0.16394694120E+04  0.50400001928E-02 0.  1.
       -1   -1    0    0    0  501  0.00000000000E+00  0.00000000000E+00 -0.13896664845E+04  0.13896664846E+04  0.50400001928E-02 0. -1.
    10030    2    1    2    0    0  0.00000000000E+00  0.00000000000E+00  0.24980292748E+03  0.30291358966E+04  0.30188181094E+04 0.  0.
        2    1    3    3  502    0  0.14284751597E+04  0.33171835960E+02 -0.36325284237E+03  0.14743114597E+04  0.25500000920E-02 0. -1.
       -2    1    3    3    0  502 -0.14284751597E+04 -0.33171835960E+02  0.61305576985E+03  0.15548244369E+04  0.25500000920E-02 0.  1.
</event>
<event>
 5   0  0.2640081E-07  0.3002297E+04  0.7818609E-02  0.8243075E-01
       -1   -1    0    0    0  501  0.00000000000E+00  0.00000000000E+00  0.16630612983E+04  0.16630612983E+04  0.50400001928E-02 0. -1.
        1   -1    0    0  501    0  0.00000000000E+00  0.00000000000E+00 -0.13549990140E+04  0.13549990140E+04  0.50400001928E-02 0.  1.
    10030    2    1    2    0    0  0.00000000000E+00  0.00000000000E+00  0.30806228428E+03  0.30180603122E+04  0.30022967337E+04 0.  0.
        1    1    3    3  502    0  0.27472845411E+03 -0.10478690578E+04 -0.89062735759E+03  0.14023987935E+04  0.50400001928E-02 0.  1.
       -1    1    3    3    0  502 -0.27472845411E+03  0.10478690578E+04  0.11986896419E+04  0.16156615188E+04  0.50400001928E-02 0. -1.
</event>
<event>
 5   0  0.7307508E-07  0.3001261E+04  0.7818609E-02  0.8243371E-01
        2   -1    0    0  501    0  0.00000000000E+00  0.00000000000E+00  0.13900773402E+04  0.13900773402E+04  0.25500000920E-02 0.  1.
       -2   -1    0    0    0  501  0.00000000000E+00  0.00000000000E+00 -0.16199760023E+04  0.16199760023E+04  0.25500000920E-02 0. -1.
    10030    2    1    2    0    0  0.00000000000E+00  0.00000000000E+00 -0.22989866214E+03  0.30100533425E+04  0.30012610233E+04 0.  0.
        1    1    3    3  502    0  0.26916631663E+03 -0.62104399734E+03 -0.14581808376E+04  0.16076185828E+04  0.50400001928E-02 0. -1.
       -1    1    3    3    0  502 -0.26916631663E+03  0.62104399734E+03  0.12282821754E+04  0.14024347597E+04  0.50400001928E-02 0.  1.
</event>
<event>
 5   0  0.2640081E-07  0.3009027E+04  0.7818609E-02  0.8241158E-01
        1   -1    0    0  501    0  0.00000000000E+00  0.00000000000E+00  0.15565876988E+04  0.15565876988E+04  0.50400001928E-02 0. -1.
       -1   -1    0    0    0  501  0.00000000000E+00  0.00000000000E+00 -0.14541810126E+04  0.14541810127E+04  0.50400001928E-02 0.  1.
    10030    2    1    2    0    0  0.00000000000E+00  0.00000000000E+00  0.10240668612E+03  0.30107687114E+04  0.30090266041E+04 0.  0.
        1    1    3    3  502    0 -0.13571863285E+04 -0.63853057072E+02  0.69774177008E+03  0.15273753700E+04  0.50400001928E-02 0. -1.
       -1    1    3    3    0  502  0.13571863285E+04  0.63853057072E+02 -0.59533508396E+03  0.14833933414E+04  0.50400001928E-02 0.  1.
</event>
<event>
 5   0  0.2792361E-07  0.2993519E+04  0.7818609E-02  0.8245584E-01
       -1   -1    0    0    0  501  0.00000000000E+00  0.00000000000E+00  0.83938889945E+03  0.83938889947E+03  0.50400001928E-02 0.  1.
        1   -1    0    0  501    0  0.00000000000E+00  0.00000000000E+00 -0.26689520523E+04  0.26689520523E+04  0.50400001928E-02 0. -1.
    10030    2    1    2    0    0  0.00000000000E+00  0.00000000000E+00 -0.18295631528E+04  0.35083409518E+04  0.29935188163E+04 0.  0.
        4    1    3    3  502    0  0.10395139552E+04 -0.59791364325E+03  0.13490671073E+03  0.12067690008E+04  0.12699999809E+01 0.  1.
       -4    1    3    3    0  502 -0.10395139552E+04  0.59791364325E+03 -0.19644698636E+04  0.23015719510E+04  0.12699999809E+01 0. -1.
</event>
<event>
 5   0  0.7278657E-07  0.2999923E+04  0.7818609E-02  0.8243753E-01
        2   -1    0    0  501    0  0.00000000000E+00  0.00000000000E+00  0.14940101301E+04  0.14940101301E+04  0.25500000920E-02 0.  1.
       -2   -1    0    0    0  501  0.00000000000E+00  0.00000000000E+00 -0.15059364499E+04  0.15059364499E+04  0.25500000920E-02 0. -1.
    10030    2    1    2    0    0  0.00000000000E+00  0.00000000000E+00 -0.11926319734E+02  0.29999465800E+04  0.29999228733E+04 0.  0.
        2    1    3    3  502    0 -0.14078381118E+03 -0.98147465485E+03  0.11195552776E+04  0.14954987794E+04  0.25500000920E-02 0.  1.
       -2    1    3    3    0  502  0.14078381118E+03  0.98147465485E+03 -0.11314815973E+04  0.15044478006E+04  0.25500000920E-02 0. -1.
</event>
<event>
 5   0  0.7278657E-07  0.3007350E+04  0.7818609E-02  0.8241635E-01
        2   -1    0    0  501    0  0.00000000000E+00  0.00000000000E+00  0.18708571731E+04  0.18708571731E+04  0.25500000920E-02 0.  1.
       -2   -1    0    0    0  501  0.00000000000E+00  0.00000000000E+00 -0.12085578589E+04  0.12085578589E+04  0.25500000920E-02 0. -1.
    10030    2    1    2    0    0  0.00000000000E+00  0.00000000000E+00  0.66229931419E+03  0.30794150320E+04  0.30073504215E+04 0.  0.
        2    1    3    3  502    0  0.88979314802E+03  0.11557806820E+04  0.70525123199E+03  0.16201666986E+04  0.25500000920E-02 0.  1.
       -2    1    3    3    0  502 -0.88979314802E+03 -0.11557806820E+04 -0.42951917800E+02  0.14592483333E+04  0.25500000920E-02 0. -1.
</event>
<event>
 5   0  0.7585823E-07  0.3001037E+04  0.7818609E-02  0.8243435E-01
        2   -1    0    0  501    0  0.00000000000E+00  0.00000000000E+00  0.19298379908E+04  0.19298379908E+04  0.25500000920E-02 0.  1.
       -2   -1    0    0    0  501  0.00000000000E+00  0.00000000000E+00 -0.11667067548E+04  0.11667067548E+04  0.25500000920E-02 0. -1.
    10030    2    1    2    0    0  0.00000000000E+00  0.00000000000E+00  0.76313123601E+03  0.30965447456E+04  0.30010365006E+04 0.  0.
        5    1    3    3  502    0 -0.39261411356E+03 -0.69355326719E+03 -0.93026148996E+03  0.12249777575E+04  0.46999998093E+01 0. -1.
       -5    1    3    3    0  502  0.39261411356E+03  0.69355326719E+03  0.16933927260E+04  0.18715669881E+04  0.46999998093E+01 0.  1.
</event>
<event>
 5   0  0.7307508E-07  0.2998353E+04  0.7818609E-02  0.8244201E-01
        2   -1    0    0  501    0  0.00000000000E+00  0.00000000000E+00  0.12372576489E+04  0.12372576489E+04  0.25500000920E-02 0. -1.
       -2   -1    0    0    0  501  0.00000000000E+00  0.00000000000E+00 -0.18165414746E+04  0.18165414746E+04  0.25500000920E-02 0.  1.
    10030    2    1    2    0    0  0.00000000000E+00  0.00000000000E+00 -0.57928382568E+03  0.30537991235E+04  0.29983527705E+04 0.  0.
        1    1    3    3  502    0 -0.57303805112E+03  0.13773662002E+04 -0.44077592803E+03  0.15555686022E+04  0.50400001928E-02 0. -1.
       -1    1    3    3    0  502  0.57303805112E+03 -0.13773662002E+04 -0.13850789765E+03  0.14982305214E+04  0.50400001928E-02 0.  1.
</event>
<event>
 5   0  0.2621825E-07  0.3000627E+04  0.7818609E-02  0.8243552E-01
       -1   -1    0    0    0  501  0.00000000000E+00  0.00000000000E+00  0.14512363682E+04  0.14512363682E+04  0.50400001928E-02 0.  1.
        1   -1    0    0  501    0  0.00000000000E+00  0.00000000000E+00 -0.15510498050E+04  0.15510498050E+04  0.50400001928E-02 0. -1.
    10030    2    1    2    0    0  0.00000000000E+00  0.00000000000E+00 -0.99813436851E+02  0.30022861732E+04  0.30006265252E+04 0.  0.
        3    1    3    3  502    0 -0.90821597690E+02 -0.12344022636E+03 -0.15431978879E+04  0.15507887617E+04  0.10100000352E+00 0. -1.
       -3    1    3    3    0  502  0.90821597690E+02  0.12344022636E+03  0.14433844510E+04  0.14514974115E+04  0.10100000352E+00 0.  1.
</event>
<event>
 5   0  0.7208273E-07  0.3006231E+04  0.7818609E-02  0.8241954E-01
       -2   -1    0    0    0  501  0.00000000000E+00  0.00000000000E+00  0.15476193945E+04  0.15476193945E+04  0.25500000920E-02 0.  1.
        2   -1    0    0  501    0  0.00000000000E+00  0.00000000000E+00 -0.14598917726E+04  0.14598917726E+04  0.25500000920E-02 0. -1.
    10030    2    1    2    0    0  0.00000000000E+00  0.00000000000E+00  0.87727621918E+02  0.30075111670E+04  0.30062314090E+04 0.  0.
        4    1    3    3  502    0 -0.65515788132E+03  0.13358605059E+04 -0.16976881695E+03  0.14975240248E+04  0.12699999809E+01 0. -1.
       -4    1    3    3    0  502  0.65515788132E+03 -0.13358605059E+04  0.25749643887E+03  0.15099871422E+04  0.12699999809E+01 0.  1.
</event>
<event>
 5   0  0.7585823E-07  0.2985684E+04  0.7818609E-02  0.8247831E-01
       -2   -1    0    0    0  501  0.00000000000E+00  0.00000000000E+00  0.81687206708E+03  0.81687206709E+03  0.25500000920E-02 0. -1.
        2   -1    0    0  501    0  0.00000000000E+00  0.00000000000E+00 -0.27281835982E+04  0.27281835982E+04  0.25500000920E-02 0.  1.
    10030    2    1    2    0    0  0.00000000000E+00  0.00000000000E+00 -0.19113115311E+04  0.35450556653E+04  0.29856838247E+04 0.  0.
        5    1    3    3  502    0 -0.83677402079E+02 -0.87979464797E+03 -0.23841901011E+04  0.25427200118E+04  0.46999998093E+01 0.  1.
       -5    1    3    3    0  502  0.83677402079E+02  0.87979464797E+03  0.47287857002E+03  0.10023356535E+04  0.46999998093E+01 0. -1.
</event>
<event>
 5   0  0.7307508E-07  0.3000989E+04  0.7818609E-02  0.8243449E-01
        2   -1    0    0  501    0  0.00000000000E+00  0.00000000000E+00  0.19940974788E+04  0.19940974788E+04  0.25500000920E-02 0.  1.
       -2   -1    0    0    0  501  0.00000000000E+00  0.00000000000E+00 -0.11290738254E+04  0.11290738254E+04  0.25500000920E-02 0. -1.
    10030    2    1    2    0    0  0.00000000000E+00  0.00000000000E+00  0.86502365344E+03  0.31231713042E+04  0.30009886828E+04 0.  0.
        1    1    3    3  502    0 -0.10165612344E+04 -0.20015808336E+03  0.15620694272E+04  0.18744388219E+04  0.50400001928E-02 0.  1.
       -1    1    3    3    0  502  0.10165612344E+04  0.20015808336E+03 -0.69704577371E+03  0.12487324823E+04  0.50400001928E-02 0. -1.
</event>
<event>
 5   0  0.2640081E-07  0.3009218E+04  0.7818609E-02  0.8241104E-01
        1   -1    0    0  501    0  0.00000000000E+00  0.00000000000E+00  0.14624129992E+04  0.14624129992E+04  0.50400001928E-02 0.  1.
       -1   -1    0    0    0  501  0.00000000000E+00  0.00000000000E+00 -0.15480223228E+04  0.15480223228E+04  0.50400001928E-02 0. -1.
    10030    2    1    2    0    0  0.00000000000E+00  0.00000000000E+00 -0.85609323630E+02  0.30104353221E+04  0.30092178173E+04 0.  0.
        1    1    3    3  502    0  0.11836084211E+04 -0.64197117202E+03 -0.71448682998E+03  0.15243186381E+04  0.50400001928E-02 0. -1.
       -1    1    3    3    0  502 -0.11836084211E+04  0.64197117202E+03  0.62887750635E+03  0.14861166839E+04  0.50400001928E-02 0.  1.
</event>
<event>
 5   0  0.2679935E-07  0.2997715E+04  0.7818609E-02  0.8244384E-01
        1   -1    0    0  501    0  0.00000000000E+00  0.00000000000E+00  0.14033983164E+04  0.14033983164E+04  0.50400001928E-02 0.  1.
       -1   -1    0    0    0  501  0.00000000000E+00  0.00000000000E+00 -0.16008102697E+04  0.16008102697E+04  0.50400001928E-02 0. -1.
    10030    2    1    2    0    0  0.00000000000E+00  0.00000000000E+00 -0.19741195337E+03  0.30042085861E+04  0.29977154217E+04 0.  0.
        2    1    3    3  502    0 -0.11040427524E+04  0.61718924625E+03 -0.90465029216E+03  0.15550643446E+04  0.25500000920E-02 0. -1.
       -2    1    3    3    0  502  0.11040427524E+04 -0.61718924625E+03  0.70723833879E+03  0.14491442415E+04  0.25500000920E-02 0.  1.
</event>
<event>
 5   0  0.2679935E-07  0.2999427E+04  0.7818609E-02  0.8243895E-01
       -1   -1    0    0    0  501  0.00000000000E+00  0.00000000000E+00  0.13704521512E+04  0.13704521513E+04  0.50400001928E-02 0. -1.
        1   -1    0    0  501    0  0.00000000000E+00  0.00000000000E+00 -0.16411663183E+04  0.16411663183E+04  0.50400001928E-02 0.  1.
    10030    2    1    2    0    0  0.00000000000E+00  0.00000000000E+00 -0.27071416702E+03  0.30116184695E+04  0.29994265528E+04 0.  0.
        2    1    3    3  502    0 -0.46293563705E+02 -0.68018182741E+03  0.12058680456E+04  0.13852466046E+04  0.25500000920E-02 0. -1.
       -2    1    3    3    0  502  0.46293563705E+02  0.68018182741E+03 -0.14765822126E+04  0.16263718649E+04  0.25500000920E-02 0.  1.
</event>
<event>
 5   0  0.7278657E-07  0.3012931E+04  0.7818609E-02  0.8240048E-01
        2   -1    0    0  501    0  0.00000000000E+00  0.00000000000E+00  0.15173746185E+04  0.15173746185E+04  0.25500000920E-02 0. -1.
       -2   -1    0    0    0  501  0.00000000000E+00  0.00000000000E+00 -0.14956346366E+04  0.14956346366E+04  0.25500000920E-02 0.  1.
    10030    2    1    2    0    0  0.00000000000E+00  0.00000000000E+00  0.21739981966E+02  0.30130092551E+04  0.30129308231E+04 0.  0.
        2    1    3    3  502    0 -0.11325808270E+04  0.59618574907E+02  0.10024321517E+04  0.15136591172E+04  0.25500000920E-02 0. -1.
       -2    1    3    3    0  502  0.11325808270E+04 -0.59618574907E+02 -0.98069216977E+03  0.14993501379E+04  0.25500000920E-02 0.  1.
</event>
<event>
 5   0  0.7208273E-07  0.3002041E+04  0.7818609E-02  0.8243148E-01
       -2   -1    0    0    0  501  0.00000000000E+00  0.00000000000E+00  0.18886562052E+04  0.18886562052E+04  0.25500000920E-02 0. -1.
        2   -1    0    0  501    0  0.00000000000E+00  0.00000000000E+00 -0.11929451458E+04  0.11929451458E+04  0.25500000920E-02 0.  1.
    10030    2    1    2    0    0  0.00000000000E+00  0.00000000000E+00  0.69571105940E+03  0.30816013510E+04  0.30020414734E+04 0.  0.
        4    1    3    3  502    0 -0.11395684717E+04 -0.58766666320E+03  0.11489830566E+04  0.17216654977E+04  0.12699999809E+01 0. -1.
       -4    1    3    3    0  502  0.11395684717E+04  0.58766666320E+03 -0.45327199715E+03  0.13599358533E+04  0.12699999809E+01 0.  1.
</event>
<event>
 5   0  0.7585823E-07  0.2942610E+04  0.7818609E-02  0.8260311E-01
       -2   -1    0    0    0  501  0.00000000000E+00  0.00000000000E+00  0.11054277232E+04  0.11054277232E+04  0.25500000920E-02 0.  1.
        2   -1    0    0  501    0  0.00000000000E+00  0.00000000000E+00 -0.19582812482E+04  0.19582812482E+04  0.25500000920E-02 0. -1.
    10030    2    1    2    0    0  0.00000000000E+00  0.00000000000E+00 -0.85285352495E+03  0.30637089714E+04  0.29426099855E+04 0.  0.
        5    1    3    3  502    0  0.79832616593E+03  0.10427997058E+04  0.26416532350E+03  0.13396123699E+04  0.46999998093E+01 0.  1.
       -5    1    3    3    0  502 -0.79832616593E+03 -0.10427997058E+04 -0.11170188484E+04  0.17240966015E+04  0.46999998093E+01 0. -1.
</event>
<event>
 5   0  0.2640081E-07  0.2997728E+04  0.7818609E-02  0.8244380E-01
       -1   -1    0    0    0  501  0.00000000000E+00  0.00000000000E+00  0.16086611749E+04  0.16086611749E+04  0.50400001928E-02 0.  1.
        1   -1    0    0  501    0  0.00000000000E+00  0.00000000000E+00 -0.13965604551E+04  0.13965604551E+04  0.50400001928E-02 0. -1.
    10030    2    1    2    0    0  0.00000000000E+00  0.00000000000E+00  0.21210071978E+03  0.30052216300E+04  0.29977275276E+04 0.  0.
        1    1    3    3  502    0 -0.51817257111E+03  0.74546490385E+03 -0.10895634529E+04  0.14182275044E+04  0.50400001928E-02 0. -1.
       -1    1    3    3    0  502  0.51817257111E+03 -0.74546490385E+03  0.13016641726E+04  0.15869941256E+04  0.50400001928E-02 0.  1.
</event>
<event>
 5   0  0.2792361E-07  0.3020020E+04  0.7818609E-02  0.8238037E-01
       -1   -1    0    0    0  501  0.00000000000E+00  0.00000000000E+00  0.94152858402E+03  0.94152858403E+03  0.50400001928E-02 0. -1.
        1   -1    0    0  501    0  0.00000000000E+00  0.00000000000E+00 -0.24217322545E+04  0.24217322545E+04  0.50400001928E-02 0.  1.
    10030    2    1    2    0    0  0.00000000000E+00  0.00000000000E+00 -0.14802036705E+04  0.33632608386E+04  0.30200199605E+04 0.  0.
        4    1    3    3  502    0  0.10876690163E+04  0.97905696792E+03 -0.32557058027E+03  0.14991911990E+04  0.12699999809E+01 0. -1.
       -4    1    3    3    0  502 -0.10876690163E+04 -0.97905696792E+03 -0.11546330903E+04  0.18640696396E+04  0.12699999809E+01 0.  1.
</event>
<event>
 5   0  0.7278657E-07  0.3000421E+04  0.7818609E-02  0.8243611E-01
       -2   -1    0    0    0  501  0.00000000000E+00  0.00000000000E+00  0.11473861686E+04  0.11473861686E+04  0.25500000920E-02 0.  1.
        2   -1    0    0  501    0  0.00000000000E+00  0.00000000000E+00 -0.19615287565E+04  0.19615287565E+04  0.25500000920E-02 0. -1.
    10030    2    1    2    0    0  0.00000000000E+00  0.00000000000E+00 -0.81414258789E+03  0.31089149251E+04  0.30004206135E+04 0.  0.
        2    1    3    3  502    0 -0.57538129835E+03  0.13477352136E+04 -0.73989817732E+03  0.16416160200E+04  0.25500000920E-02 0. -1.
       -2    1    3    3    0  502  0.57538129835E+03 -0.13477352136E+04 -0.74244410572E+02  0.14672989051E+04  0.25500000920E-02 0.  1.
</event>
<event>
 5   0  0.7307508E-07  0.3014085E+04  0.7818609E-02  0.8239720E-01
       -2   -1    0    0    0  501  0.00000000000E+00  0.00000000000E+00  0.16711880611E+04  0.16711880611E+04  0.25500000920E-02 0.  1.
        2   -1    0    0  501    0  0.00000000000E+00  0.00000000000E+00 -0.13590198157E+04  0.13590198157E+04  0.25500000920E-02 0. -1.
    10030    2    1    2    0    0  0.00000000000E+00  0.00000000000E+00  0.31216824543E+03  0.30302078767E+04  0.30140853941E+04 0.  0.
        1    1    3    3  502    0  0.24519910997E+02  0.82598413755E+03 -0.11109455458E+04  0.13845761183E+04  0.50400001928E-02 0. -1.
       -1    1    3    3    0  502 -0.24519910997E+02 -0.82598413755E+03  0.14231137913E+04  0.16456317584E+04  0.50400001928E-02 0.  1.
</event>
<event>
 5   0  0.7307508E-07  0.3000532E+04  0.7818609E-02  0.8243579E-01
       -2   -1    0    0    0  501  0.00000000000E+00  0.00000000000E+00  0.14343309445E+04  0.14343309445E+04  0.25500000920E-02 0.  1.
        2   -1    0    0  501    0  0.00000000000E+00  0.00000000000E+00 -0.15692321499E+04  0.15692321499E+04  0.25500000920E-02 0. -1.
    10030    2    1    2    0    0  0.00000000000E+00  0.00000000000E+00 -0.13490120546E+03  0.30035630944E+04  0.30005321073E+04 0.  0.
        1    1    3    3  502    0 -0.14590338628E+04 -0.51053665895E+02  0.27845879541E+03  0.14862454678E+04  0.50400001928E-02 0. -1.
       -1    1    3    3    0  502  0.14590338628E+04  0.51053665895E+02 -0.41336000087E+03  0.15173176266E+04  0.50400001928E-02 0.  1.
</event>
<event>
 5   0  0.2679935E-07  0.3000504E+04  0.7818609E-02  0.8243587E-01
       -1   -1    0    0    0  501  0.00000000000E+00  0.00000000000E+00  0.11998265977E+04  0.11998265977E+04  0.50400001928E-02 0.  1.
        1   -1    0    0  501    0  0.00000000000E+00  0.00000000000E+00 -0.18759010798E+04  0.18759010798E+04  0.50400001928E-02 0. -1.
    10030    2    1    2    0    0  0.00000000000E+00  0.00000000000E+00 -0.67607448210E+03  0.30757276775E+04  0.30005039644E+04 0.  0.
        2    1    3    3  502    0  0.51719008186E+03 -0.12701264640E+04 -0.96160464861E+03  0.16749299435E+04  0.25500000920E-02 0. -1.
       -2    1    3    3    0  502 -0.51719008186E+03  0.12701264640E+04  0.28553016652E+03  0.14007977340E+04  0.25500000920E-02 0.  1.
</event>
<event>
 5   0  0.7585823E-07  0.3004370E+04  0.7818609E-02  0.8242484E-01
        2   -1    0    0  501    0  0.00000000000E+00  0.00000000000E+00  0.16150245818E+04  0.16150245818E+04  0.25500000920E-02 0. -1.
       -2   -1    0    0    0  501  0.00000000000E+00  0.00000000000E+00 -0.13972292692E+04  0.13972292692E+04  0.25500000920E-02 0.  1.
    10030    2    1    2    0    0  0.00000000000E+00  0.00000000000E+00  0.21779531262E+03  0.30122538511E+04  0.30043698948E+04 0.  0.
        5    1    3    3  502    0  0.91986634220E+03 -0.20675474336E+03 -0.10636308643E+04  0.14213494704E+04  0.46999998093E+01 0.  1.
       -5    1    3    3    0  502 -0.91986634220E+03  0.20675474336E+03  0.12814261770E+04  0.15909043807E+04  0.46999998093E+01 0. -1.
</event>
<event>
 5   0  0.2792361E-07  0.3000119E+04  0.7818609E-02  0.8243697E-01
       -1   -1    0    0    0  501  0.00000000000E+00  0.00000000000E+00  0.13823967644E+04  0.13823967644E+04  0.50400001928E-02 0.  1.
        1   -1    0    0  501    0  0.00000000000E+00  0.00000000000E+00 -0.16277368614E+04  0.16277368614E+04  0.50400001928E-02 0. -1.
    10030    2    1    2    0    0  0.00000000000E+00  0.00000000000E+00 -0.24534009703E+03  0.30101336258E+04  0.30001187779E+04 0.  0.
        4    1    3    3  502    0  0.86474406392E+03  0.10090381286E+04 -0.82086387535E+03  0.15619729049E+04  0.12699999809E+01 0. -1.
       -4    1    3    3    0  502 -0.86474406392E+03 -0.10090381286E+04  0.57552377832E+03  0.14481607208E+04  0.12699999809E+01 0.  1.
</event>
<event>
 5   0  0.2640081E-07  0.3004057E+04  0.7818609E-02  0.8242573E-01
       -1   -1    0    0    0  501  0.00000000000E+00  0.00000000000E+00  0.16558530843E+04  0.16558530843E+04  0.50400001928E-02 0. -1.
        1   -1    0    0  501    0  0.00000000000E+00  0.00000000000E+00 -0.13624942113E+04  0.13624942113E+04  0.50400001928E-02 0.  1.
    10030    2    1    2    0    0  0.00000000000E+00  0.00000000000E+00  0.29335887293E+03  0.30183472956E+04  0.30040574176E+04 0.  0.
        1    1    3    3  502    0  0.12118290766E+03  0.14969752772E+04  0.12489765041E+03  0.15070566349E+04  0.50400001928E-02 0.  1.
       -1    1    3    3    0  502 -0.12118290766E+03 -0.14969752772E+04  0.16846122252E+03  0.15112906607E+04  0.50400001928E-02 0. -1.
</event>
<event>
 5   0  0.2640081E-07  0.2994371E+04  0.7818609E-02  0.8245340E-01
        1   -1    0    0  501    0  0.00000000000E+00  0.00000000000E+00  0.12839067823E+04  0.12839067823E+04  0.50400001928E-02 0.  1.
       -1   -1    0    0    0  501  0.00000000000E+00  0.00000000000E+00 -0.17458934918E+04  0.17458934918E+04  0.50400001928E-02 0. -1.
    10030    2    1    2    0    0  0.00000000000E+00  0.00000000000E+00 -0.46198670955E+03  0.30298002741E+04  0.29943710494E+04 0.  0.
        1    1    3    3  502    0  0.98122291480E+03  0.11274257436E+04 -0.14233655327E+03  0.15013816671E+04  0.50400001928E-02 0. -1.
       -1    1    3    3    0  502 -0.98122291480E+03 -0.11274257436E+04 -0.31965015628E+03  0.15284186070E+04  0.50400001928E-02 0.  1.
</event>
<event>
 5   0  0.2679935E-07  0.3000843E+04  0.7818609E-02  0.8243490E-01
       -1   -1    0    0    0  501  0.00000000000E+00  0.00000000000E+00  0.13451192758E+04  0.13451192758E+04  0.50400001928E-02 0. -1.
        1   -1    0    0  501    0  0.00000000000E+00  0.00000000000E+00 -0.16736544650E+04  0.16736544650E+04  0.50400001928E-02 0.  1.
    10030    2    1    2    0    0  0.00000000000E+00  0.00000000000E+00 -0.32853518915E+03  0.30187737408E+04  0.30008431361E+04 0.  0.
        2    1    3    3  502    0 -0.45090936305E+03  0.25039665352E+03 -0.15816745498E+04  0.16636442286E+04  0.25500000920E-02 0.  1.
       -2    1    3    3    0  502  0.45090936305E+03 -0.25039665352E+03  0.12531393606E+04  0.13551295122E+04  0.25500000920E-02 0. -1.
</event>
<event>
 5   0  0.2621825E-07  0.3000565E+04  0.7818609E-02  0.8243570E-01
        1   -1    0    0  501    0  0.00000000000E+00  0.00000000000E+00  0.17654681134E+04  0.17654681135E+04  0.50400001928E-02 0. -1.
       -1   -1    0    0    0  501  0.00000000000E+00  0.00000000000E+00 -0.12749295057E+04  0.12749295057E+04  0.50400001928E-02 0.  1.
    10030    2    1    2    0    0  0.00000000000E+00  0.00000000000E+00  0.49053860774E+03  0.30403976192E+04  0.30005648730E+04 0.  0.
        3    1    3    3  502    0  0.39250892620E+03 -0.46426308516E+03  0.16350616529E+04  0.17444282984E+04  0.10100000352E+00 0. -1.
       -3    1    3    3    0  502 -0.39250892620E+03  0.46426308516E+03 -0.11445230451E+04  0.12959693208E+04  0.10100000352E+00 0.  1.
</event>
<event>
 5   0  0.7399409E-07  0.3069374E+04  0.7818609E-02  0.8224194E-01
       -2   -1    0    0    0  501  0.00000000000E+00  0.00000000000E+00  0.88613061422E+03  0.88613061422E+03  0.25500000920E-02 0. -1.
        2   -1    0    0  501    0  0.00000000000E+00  0.00000000000E+00 -0.26579193102E+04  0.26579193102E+04  0.25500000920E-02 0.  1.
    10030    2    1    2    0    0  0.00000000000E+00  0.00000000000E+00 -0.17717886960E+04  0.35440499244E+04  0.30693736631E+04 0.  0.
        3    1    3    3  502    0  0.13389381625E+04  0.17676535459E+03 -0.17274920760E+04  0.21927677206E+04  0.10100000352E+00 0.  1.
       -3    1    3    3    0  502 -0.13389381625E+04 -0.17676535459E+03 -0.44296620006E+02  0.13512822038E+04  0.10100000352E+00 0. -1.
</event>
<event>
 5   0  0.2621825E-07  0.2984587E+04  0.7818609E-02  0.8248146E-01
        1   -1    0    0  501    0  0.00000000000E+00  0.00000000000E+00  0.20444458635E+04  0.20444458635E+04  0.50400001928E-02 0.  1.
       -1   -1    0    0    0  501  0.00000000000E+00  0.00000000000E+00 -0.10892630600E+04  0.10892630600E+04  0.50400001928E-02 0. -1.
    10030    2    1    2    0    0  0.00000000000E+00  0.00000000000E+00  0.95518280351E+03  0.31337089235E+04  0.29845866430E+04 0.  0.
        3    1    3    3  502    0 -0.11472532309E+04  0.27484187452E+01 -0.52441870557E+03  0.12614327245E+04  0.10100000352E+00 0. -1.
       -3    1    3    3    0  502  0.11472532309E+04 -0.27484187452E+01  0.14796015091E+04  0.18722761990E+04  0.10100000352E+00 0.  1.
</event>
<event>
 5   0  0.7208273E-07  0.2999871E+04  0.7818609E-02  0.8243768E-01
       -2   -1    0    0    0  501  0.00000000000E+00  0.00000000000E+00  0.13760290670E+04  0.13760290670E+04  0.25500000920E-02 0. -1.
        2   -1    0    0  501    0  0.00000000000E+00  0.00000000000E+00 -0.16349987236E+04  0.16349987236E+04  0.25500000920E-02 0.  1.
    10030    2    1    2    0    0  0.00000000000E+00  0.00000000000E+00 -0.25896965666E+03  0.30110277906E+04  0.29998705093E+04 0.  0.
        4    1    3    3  502    0 -0.60257318657E+03 -0.55246876848E+03 -0.13917343117E+04  0.16140762660E+04  0.12699999809E+01 0.  1.
       -4    1    3    3    0  502  0.60257318657E+03  0.55246876848E+03  0.11327646550E+04  0.13969515245E+04  0.12699999809E+01 0. -1.
</event>
<event>
 5   0  0.7399409E-07  0.2997927E+04  0.7818609E-02  0.8244323E-01
        2   -1    0    0  501    0  0.00000000000E+00  0.00000000000E+00  0.19579429735E+04  0.19579429735E+04  0.25500000920E-02 0.  1.
       -2   -1    0    0    0  501  0.00000000000E+00  0.00000000000E+00 -0.11475772732E+04  0.11475772732E+04  0.25500000920E-02 0. -1.
    10030    2    1    2    0    0  0.00000000000E+00  0.00000000000E+00  0.81036570035E+03  0.31055202467E+04  0.29979265225E+04 0.  0.
        3    1    3    3  502    0  0.11668783796E+03 -0.43484140126E+03  0.18862466657E+04  0.19392342793E+04  0.10100000352E+00 0.  1.
       -3    1    3    3    0  502 -0.11668783796E+03  0.43484140126E+03 -0.10758809654E+04  0.11662859674E+04  0.10100000352E+00 0. -1.
</event>
<event>
 5   0  0.7278657E-07  0.3004237E+04  0.7818609E-02  0.8242522E-01
       -2   -1    0    0    0  501  0.00000000000E+00  0.00000000000E+00  0.13606125647E+04  0.13606125647E+04  0.25500000920E-02 0.  1.
        2   -1    0    0  501    0  0.00000000000E+00  0.00000000000E+00 -0.16583410360E+04  0.16583410360E+04  0.25500000920E-02 0. -1.
    10030    2    1    2    0    0  0.00000000000E+00  0.00000000000E+00 -0.29772847127E+03  0.30189536008E+04  0.30042367751E+04 0.  0.
        2    1    3    3  502    0  0.69850641108E+03  0.68246958480E+03  0.99807859582E+03  0.13963655768E+04  0.25500000920E-02 0.  1.
       -2    1    3    3    0  502 -0.69850641108E+03 -0.68246958480E+03 -0.12958070671E+04  0.16225880240E+04  0.25500000920E-02 0. -1.
</event>
<event>
 5   0  0.2602891E-07  0.3000214E+04  0.7818609E-02  0.8243670E-01
        1   -1    0    0  501    0  0.00000000000E+00  0.00000000000E+00  0.23540947425E+04  0.23540947425E+04  0.50400001928E-02 0.  1.
       -1   -1    0    0    0  501  0.00000000000E+00  0.00000000000E+00 -0.95591790753E+03  0.95591790754E+03  0.50400001928E-02 0. -1.
    10030    2    1    2    0    0  0.00000000000E+00  0.00000000000E+00  0.13981768349E+04  0.33100126500E+04  0.30002142059E+04 0.  0.
        5    1    3    3  502    0  0.65237552925E+03  0.12338461897E+04  0.92467642734E+02  0.13987646714E+04  0.46999998093E+01 0. -1.
       -5    1    3    3    0  502 -0.65237552925E+03 -0.12338461897E+04  0.13057091922E+04  0.19112479786E+04  0.46999998093E+01 0.  1.
</event>
<event>
 5   0  0.2640081E-07  0.2998727E+04  0.7818609E-02  0.8244094E-01
        1   -1    0    0  501    0  0.00000000000E+00  0.00000000000E+00  0.17677700776E+04  0.17677700776E+04  0.50400001928E-02 0. -1.
       -1   -1    0    0    0  501  0.00000000000E+00  0.00000000000E+00 -0.12717102170E+04  0.12717102171E+04  0.50400001928E-02 0.  1.
    10030    2    1    2    0    0  0.00000000000E+00  0.00000000000E+00  0.49605986059E+03  0.30394802947E+04  0.29987272428E+04 0.  0.
        1    1    3    3  502    0  0.11841345556E+04 -0.42465100819E+03  0.10749530909E+04  0.16546985442E+04  0.50400001928E-02 0. -1.
       -1    1    3    3    0  502 -0.11841345556E+04  0.42465100819E+03 -0.57889323030E+03  0.13847817505E+04  0.50400001928E-02 0.  1.
</event>
<event>
 5   0  0.7208273E-07  0.2998837E+04  0.7818609E-02  0.8244063E-01
        2   -1    0    0  501    0  0.00000000000E+00  0.00000000000E+00  0.27668333400E+04  0.27668333400E+04  0.25500000920E-02 0.  1.
       -2   -1    0    0    0  501  0.00000000000E+00  0.00000000000E+00 -0.81257356343E+03  0.81257356344E+03  0.25500000920E-02 0. -1.
    10030    2    1    2    0    0  0.00000000000E+00  0.00000000000E+00  0.19542597765E+04  0.35794069034E+04  0.29988368589E+04 0.  0.
        4    1    3    3  502    0 -0.34307244607E+03 -0.13259825040E+04  0.17054457093E+04  0.21873442766E+04  0.12699999809E+01 0. -1.
       -4    1    3    3    0  502  0.34307244607E+03  0.13259825040E+04  0.24881406728E+03  0.13920626268E+04  0.12699999809E+01 0.  1.
</event>
<event>
 5   0  0.7208273E-07  0.2991741E+04  0.7818609E-02  0.8246093E-01
       -2   -1    0    0    0  501  0.00000000000E+00  0.00000000000E+00  0.17595117679E+04  0.17595117679E+04  0.25500000920E-02 0.  1.
        2   -1    0    0  501    0  0.00000000000E+00  0.00000000000E+00 -0.12717328510E+04  0.12717328510E+04  0.25500000920E-02 0. -1.
    10030    2    1    2    0    0  0.00000000000E+00  0.00000000000E+00  0.48777891688E+03  0.30312446189E+04  0.29917412434E+04 0.  0.
        4    1    3    3  502    0  0.10773449369E+04 -0.10295843008E+04  0.11212866474E+03  0.14944197523E+04  0.12699999809E+01 0. -1.
       -4    1    3    3    0  502 -0.10773449369E+04  0.10295843008E+04  0.37565025214E+03  0.15368248666E+04  0.12699999809E+01 0.  1.
</event>
<event>
 5   0  0.7585823E-07  0.3045989E+04  0.7818609E-02  0.8230719E-01
        2   -1    0    0  501    0  0.00000000000E+00  0.00000000000E+00  0.30468595331E+04  0.30468595331E+04  0.25500000920E-02 0. -1.
       -2   -1    0    0    0  501  0.00000000000E+00  0.00000000000E+00 -0.76127944657E+03  0.76127944657E+03  0.25500000920E-02 0.  1.
    10030    2    1    2    0    0  0.00000000000E+00  0.00000000000E+00  0.22855800865E+04  0.38081389797E+04  0.30459885352E+04 0.  0.
        5    1    3    3  502    0  0.60434988154E+03 -0.20133435660E+03  0.28723004219E+04  0.29420921308E+04  0.46999998093E+01 0. -1.
       -5    1    3    3    0  502 -0.60434988154E+03  0.20133435660E+03 -0.58672033538E+03  0.86604684886E+03  0.46999998093E+01 0.  1.
</event>
<event>
 5   0  0.7399409E-07  0.2996163E+04  0.7818609E-02  0.8244827E-01
       -2   -1    0    0    0  501  0.00000000000E+00  0.00000000000E+00  0.15368922177E+04  0.15368922177E+04  0.25500000920E-02 0. -1.
        2   -1    0    0  501    0  0.00000000000E+00  0.00000000000E+00 -0.14602508752E+04  0.14602508752E+04  0.25500000920E-02 0.  1.
    10030    2    1    2    0    0  0.00000000000E+00  0.00000000000E+00  0.76641342551E+02  0.29971430929E+04  0.29961630169E+04 0.  0.
        3    1    3    3  502    0  0.84643530062E+03  0.12306990442E+03 -0.11919797167E+04  0.14671109620E+04  0.10100000352E+00 0.  1.
       -3    1    3    3    0  502 -0.84643530062E+03 -0.12306990442E+03  0.12686210593E+04  0.15300321309E+04  0.10100000352E+00 0. -1.
</event>
<event>
 5   0  0.7208273E-07  0.3005633E+04  0.7818609E-02  0.8242124E-01
       -2   -1    0    0    0  501  0.00000000000E+00  0.00000000000E+00  0.17311844358E+04  0.17311844358E+04  0.25500000920E-02 0. -1.
        2   -1    0    0  501    0  0.00000000000E+00  0.00000000000E+00 -0.13045739296E+04  0.13045739296E+04  0.25500000920E-02 0.  1.
    10030    2    1    2    0    0  0.00000000000E+00  0.00000000000E+00  0.42661050616E+03  0.30357583654E+04  0.30056334322E+04 0.  0.
        4    1    3    3  502    0  0.26237739699E+02 -0.31040831656E+03  0.16982156251E+04  0.17265513789E+04  0.12699999809E+01 0. -1.
       -4    1    3    3    0  502 -0.26237739699E+02  0.31040831656E+03 -0.12716051189E+04  0.13092069864E+04  0.12699999809E+01 0.  1.
</event>
<event>
 5   0  0.2602891E-07  0.3003943E+04  0.7818609E-02  0.8242606E-01
        1   -1    0    0  501    0  0.00000000000E+00  0.00000000000E+00  0.10246471142E+04  0.10246471142E+04  0.50400001928E-02 0. -1.
       -1   -1    0    0    0  501  0.00000000000E+00  0.00000000000E+00 -0.22016543069E+04  0.22016543069E+04  0.50400001928E-02 0.  1.
    10030    2    1    2    0    0  0.00000000000E+00  0.00000000000E+00 -0.11770071927E+04  0.32263014211E+04  0.30039432299E+04 0.  0.
        5    1    3    3  502    0 -0.13112636426E+04  0.12829130827E+02 -0.13750513580E+04  0.19000961171E+04  0.46999998093E+01 0.  1.
       -5    1    3    3    0  502  0.13112636426E+04 -0.12829130827E+02  0.19804416535E+03  0.13262053040E+04  0.46999998093E+01 0. -1.
</event>
<event>
 5   0  0.2679935E-07  0.3001174E+04  0.7818609E-02  0.8243396E-01
       -1   -1    0    0    0  501  0.00000000000E+00  0.00000000000E+00  0.12753855443E+04  0.12753855443E+04  0.50400001928E-02 0. -1.
        1   -1    0    0  501    0  0.00000000000E+00  0.00000000000E+00 -0.17655533265E+04  0.17655533265E+04  0.50400001928E-02 0.  1.
    10030    2    1    2    0    0  0.00000000000E+00  0.00000000000E+00 -0.49016778220E+03  0.30409388708E+04  0.30011738972E+04 0.  0.
        2    1    3    3  502    0 -0.93931613203E+03 -0.11696563089E+04 -0.20784763803E+03  0.15144673379E+04  0.25500000920E-02 0.  1.
       -2    1    3    3    0  502  0.93931613203E+03  0.11696563089E+04 -0.28232014418E+03  0.15264715329E+04  0.25500000920E-02 0. -1.
</event>
<event>
 5   0  0.7208273E-07  0.2999966E+04  0.7818609E-02  0.8243741E-01
       -2   -1    0    0    0  501  0.00000000000E+00  0.00000000000E+00  0.15512464147E+04  0.15512464147E+04  0.25500000920E-02 0.  1.
        2   -1    0    0  501    0  0.00000000000E+00  0.00000000000E+00 -0.14504131893E+04  0.14504131894E+04  0.25500000920E-02 0. -1.
    10030    2    1    2    0    0  0.00000000000E+00  0.00000000000E+00  0.10083322535E+03  0.30016596040E+04  0.29999655063E+04 0.  0.
        4    1    3    3  502    0  0.31365775049E+02  0.27865915506E+03  0.15247859380E+04  0.15503575414E+04  0.12699999809E+01 0.  1.
       -4    1    3    3    0  502 -0.31365775049E+02 -0.27865915506E+03 -0.14239527126E+04  0.14513020627E+04  0.12699999809E+01 0. -1.
</event>
<event>
 5   0  0.7399409E-07  0.2996659E+04  0.7818609E-02  0.8244686E-01
        2   -1    0    0  501    0  0.00000000000E+00  0.00000000000E+00  0.10980231389E+04  0.10980231389E+04  0.25500000920E-02 0. -1.
       -2   -1    0    0    0  501  0.00000000000E+00  0.00000000000E+00 -0.20445751664E+04  0.20445751664E+04  0.25500000920E-02 0.  1.
    10030    2    1    2    0    0  0.00000000000E+00  0.00000000000E+00 -0.94655202755E+03  0.31425983054E+04  0.29966587006E+04 0.  0.
        3    1    3    3  502    0 -0.13625269930E+04 -0.92267402244E+02  0.17318464867E+03  0.13765849095E+04  0.10100000352E+00 0. -1.
       -3    1    3    3    0  502  0.13625269930E+04  0.92267402244E+02 -0.11197366762E+04  0.17660133959E+04  0.10100000352E+00 0.  1.
</event>
<event>
 5   0  0.2414250E-07  0.3010686E+04  0.7818609E-02  0.8240686E-01
        3   -1    0    0  501    0  0.00000000000E+00  0.00000000000E+00  0.12441509067E+04  0.12441509108E+04  0.10100000352E+00 0.  1.
       -3   -1    0    0    0  501  0.00000000000E+00  0.00000000000E+00 -0.18213684578E+04  0.18213684606E+04  0.10100000352E+00 0. -1.
    10030    2    1    2    0    0  0.00000000000E+00  0.00000000000E+00 -0.57721755111E+03  0.30655193714E+04  0.30106857882E+04 0.  0.
        3    1    3    3  502    0  0.46272600549E+03 -0.63820967148E+03 -0.15943970757E+04  0.17786312114E+04  0.10100000352E+00 0. -1.
       -3    1    3    3    0  502 -0.46272600549E+03  0.63820967148E+03  0.10171795246E+04  0.12868881600E+04  0.10100000352E+00 0.  1.
</event>
<event>
 5   0  0.7278657E-07  0.2995411E+04  0.7818609E-02  0.8245043E-01
        2   -1    0    0  501    0  0.00000000000E+00  0.00000000000E+00  0.25390789216E+04  0.25390789216E+04  0.25500000920E-02 0.  1.
       -2   -1    0    0    0  501  0.00000000000E+00  0.00000000000E+00 -0.88343898382E+03  0.88343898383E+03  0.25500000920E-02 0. -1.
    10030    2    1    2    0    0  0.00000000000E+00  0.00000000000E+00  0.16556399378E+04  0.34225179055E+04  0.29954106913E+04 0.  0.
        2    1    3    3  502    0  0.10064479883E+04  0.69840485882E+03  0.18123127762E+04  0.21875064568E+04  0.25500000920E-02 0.  1.
       -2    1    3    3    0  502 -0.10064479883E+04 -0.69840485882E+03 -0.15667283839E+03  0.12350114486E+04  0.25500000920E-02 0. -1.
</event>
<event>
 5   0  0.7208273E-07  0.2999368E+04  0.7818609E-02  0.8243911E-01
       -2   -1    0    0    0  501  0.00000000000E+00  0.00000000000E+00  0.96375878506E+03  0.96375878507E+03  0.25500000920E-02 0.  1.
        2   -1    0    0  501    0  0.00000000000E+00  0.00000000000E+00 -0.23336262040E+04  0.23336262040E+04  0.25500000920E-02 0. -1.
    10030    2    1    2    0    0  0.00000000000E+00  0.00000000000E+00 -0.13698674189E+04  0.32973849890E+04  0.29993684370E+04 0.  0.
        4    1    3    3  502    0  0.68189061538E+03  0.31858574367E+03 -0.21109603219E+04  0.22411217684E+04  0.12699999809E+01 0. -1.
       -4    1    3    3    0  502 -0.68189061538E+03 -0.31858574367E+03  0.74109290300E+03  0.10562632206E+04  0.12699999809E+01 0.  1.
</event>
<event>
 5   0  0.2640081E-07  0.2994597E+04  0.7818609E-02  0.8245275E-01
        1   -1    0    0  501    0  0.00000000000E+00  0.00000000000E+00  0.14025822890E+04  0.14025822890E+04  0.50400001928E-02 0. -1.
       -1   -1    0    0    0  501  0.00000000000E+00  0.00000000000E+00 -0.15984111691E+04  0.15984111691E+04  0.50400001928E-02 0.  1.
    10030    2    1    2    0    0  0.00000000000E+00  0.00000000000E+00 -0.19582888012E+03  0.30009934581E+04  0.29945972660E+04 0.  0.
        1    1    3    3  502    0  0.12464392021E+04  0.48681501483E+03 -0.77114070265E+03  0.15444278962E+04  0.50400001928E-02 0.  1.
       -1    1    3    3    0  502 -0.12464392021E+04 -0.48681501483E+03  0.57531182253E+03  0.14565655620E+04  0.50400001928E-02 0. -1.
</event>
<event>
 5   0  0.7278657E-07  0.3006371E+04  0.7818609E-02  0.8241914E-01
        2   -1    0    0  501    0  0.00000000000E+00  0.00000000000E+00  0.23981168280E+04  0.23981168280E+04  0.25500000920E-02 0. -1.
       -2   -1    0    0    0  501  0.00000000000E+00  0.00000000000E+00 -0.94222547901E+03  0.94222547902E+03  0.25500000920E-02 0.  1.
    10030    2    1    2    0    0  0.00000000000E+00  0.00000000000E+00  0.14558913490E+04  0.33403423070E+04  0.30063710862E+04 0.  0.
        2    1    3    3  502    0  0.12532160955E+04  0.41664905589E+03 -0.69734723680E+02  0.13225013987E+04  0.25500000920E-02 0.  1.
       -2    1    3    3    0  502 -0.12532160955E+04 -0.41664905589E+03  0.15256260727E+04  0.20178409084E+04  0.25500000920E-02 0. -1.
</event>
<event>
 5   0  0.2602891E-07  0.3000192E+04  0.7818609E-02  0.8243676E-01
       -1   -1    0    0    0  501  0.00000000000E+00  0.00000000000E+00  0.99837055819E+03  0.99837055821E+03  0.50400001928E-02 0. -1.
        1   -1    0    0  501    0  0.00000000000E+00  0.00000000000E+00 -0.22539611245E+04  0.22539611245E+04  0.50400001928E-02 0.  1.
    10030    2    1    2    0    0  0.00000000000E+00  0.00000000000E+00 -0.12555905663E+04  0.32523316827E+04  0.30001922779E+04 0.  0.
        5    1    3    3  502    0  0.89620697981E+03  0.85488383133E+03  0.28964746912E+03  0.12719791909E+04  0.46999998093E+01 0. -1.
       -5    1    3    3    0  502 -0.89620697981E+03 -0.85488383133E+03 -0.15452380354E+04  0.19803524918E+04  0.46999998093E+01 0.  1.
</event>
<event>
 5   0  0.2621825E-07  0.2991163E+04  0.7818609E-02  0.8246259E-01
       -1   -1    0    0    0  501  0.00000000000E+00  0.00000000000E+00  0.13162295894E+04  0.13162295894E+04  0.50400001928E-02 0.  1.
        1   -1    0    0  501    0  0.00000000000E+00  0.00000000000E+00 -0.16993721294E+04  0.16993721294E+04  0.50400001928E-02 0. -1.
    10030    2    1    2    0    0  0.00000000000E+00  0.00000000000E+00 -0.38314253995E+03  0.30156017188E+04  0.29911629044E+04 0.  0.
        3    1    3    3  502    0  0.11738499409E+04  0.87926654327E+03  0.10361875331E+03  0.14702959546E+04  0.10100000352E+00 0.  1.
       -3    1    3    3    0  502 -0.11738499409E+04 -0.87926654327E+03 -0.48676129326E+03  0.15453057642E+04  0.10100000352E+00 0. -1.
</event>
<event>
 5   0  0.7585823E-07  0.3000775E+04  0.7818609E-02  0.8243510E-01
        2   -1    0    0  501    0  0.00000000000E+00  0.00000000000E+00  0.14033499948E+04  0.14033499948E+04  0.25500000920E-02 0.  1.
       -2   -1    0    0    0  501  0.00000000000E+00  0.00000000000E+00 -0.16041349276E+04  0.16041349276E+04  0.25500000920E-02 0. -1.
    10030    2    1    2    0    0  0.00000000000E+00  0.00000000000E+00 -0.20078493284E+03  0.30074849224E+04  0.30007750614E+04 0.  0.
        5    1    3    3  502    0 -0.10547946050E+04 -0.95813114010E+03  0.37026777227E+03  0.14723203637E+04  0.46999998093E+01 0.  1.
       -5    1    3    3    0  502  0.10547946050E+04  0.95813114010E+03 -0.57105270512E+03  0.15351645587E+04  0.46999998093E+01 0. -1.
</event>
<event>
 5   0  0.2602891E-07  0.3000742E+04  0.7818609E-02  0.8243519E-01
        1   -1    0    0  501    0  0.00000000000E+00  0.00000000000E+00  0.15993977799E+04  0.15993977799E+04  0.50400001928E-02 0. -1.
       -1   -1    0    0    0  501  0.00000000000E+00  0.00000000000E+00 -0.14074753795E+04  0.14074753795E+04  0.50400001928E-02 0.  1.
    10030    2    1    2    0    0  0.00000000000E+00  0.00000000000E+00  0.19192240045E+03  0.30068731594E+04  0.30007419064E+04 0.  0.
        5    1    3    3  502    0 -0.95263951293E+03  0.13783287915E+03  0.12492128383E+04  0.15770462104E+04  0.46999998093E+01 0. -1.
       -5    1    3    3    0  502  0.95263951293E+03 -0.13783287915E+03 -0.10572904379E+04  0.14298269490E+04  0.46999998093E+01 0.  1.
</event>
<event>
 5   0  0.7399409E-07  0.3001455E+04  0.7818609E-02  0.8243316E-01
       -2   -1    0    0    0  501  0.00000000000E+00  0.00000000000E+00  0.17964392593E+04  0.17964392593E+04  0.25500000920E-02 0.  1.
        2   -1    0    0  501    0  0.00000000000E+00  0.00000000000E+00 -0.12536928210E+04  0.12536928210E+04  0.25500000920E-02 0. -1.
    10030    2    1    2    0    0  0.00000000000E+00  0.00000000000E+00  0.54274643828E+03  0.30501320802E+04  0.30014549823E+04 0.  0.
        3    1    3    3  502    0  0.30398079837E+03 -0.46914424081E+03 -0.11439385527E+04  0.12732227091E+04  0.10100000352E+00 0. -1.
       -3    1    3    3    0  502 -0.30398079837E+03  0.46914424081E+03  0.16866849909E+04  0.17769093712E+04  0.10100000352E+00 0.  1.
</event>
<event>
 5   0  0.2640081E-07  0.3004968E+04  0.7818609E-02  0.8242314E-01
       -1   -1    0    0    0  501  0.00000000000E+00  0.00000000000E+00  0.10970588849E+04  0.10970588849E+04  0.50400001928E-02 0.  1.
        1   -1    0    0  501    0  0.00000000000E+00  0.00000000000E+00 -0.20577367032E+04  0.20577367032E+04  0.50400001928E-02 0. -1.
    10030    2    1    2    0    0  0.00000000000E+00  0.00000000000E+00 -0.96067781829E+03  0.31547955881E+04  0.30049681084E+04 0.  0.
        1    1    3    3  502    0 -0.10270546290E+03  0.14123313094E+04  0.46927244826E+02  0.14168381368E+04  0.50400001928E-02 0. -1.
       -1    1    3    3    0  502  0.10270546290E+03 -0.14123313094E+04 -0.10076050631E+04  0.17379574514E+04  0.50400001928E-02 0.  1.
</event>
<event>
 5   0  0.2602891E-07  0.3006816E+04  0.7818609E-02  0.8241787E-01
        1   -1    0    0  501    0  0.00000000000E+00  0.00000000000E+00  0.16567631412E+04  0.16567631412E+04  0.50400001928E-02 0. -1.
       -1   -1    0    0    0  501  0.00000000000E+00  0.00000000000E+00 -0.13642478025E+04  0.13642478025E+04  0.50400001928E-02 0.  1.
    10030    2    1    2    0    0  0.00000000000E+00  0.00000000000E+00  0.29251533870E+03  0.30210109437E+04  0.30068159070E+04 0.  0.
        5    1    3    3  502    0  0.84858137133E+03 -0.66852340945E+03  0.11967555243E+04  0.16122219971E+04  0.46999998093E+01 0. -1.
       -5    1    3    3    0  502 -0.84858137133E+03  0.66852340945E+03 -0.90424018565E+03  0.14087889466E+04  0.46999998093E+01 0.  1.
</event>
<event>
 5   0  0.7399409E-07  0.3000178E+04  0.7818609E-02  0.8243680E-01
       -2   -1    0    0    0  501  0.00000000000E+00  0.00000000000E+00  0.93204679926E+03  0.93204679927E+03  0.25500000920E-02 0.  1.
        2   -1    0    0  501    0  0.00000000000E+00  0.00000000000E+00 -0.24143287128E+04  0.24143287128E+04  0.25500000920E-02 0. -1.
    10030    2    1    2    0    0  0.00000000000E+00  0.00000000000E+00 -0.14822819135E+04  0.33463755120E+04  0.30001782275E+04 0.  0.
        3    1    3    3  502    0 -0.12720755512E+04  0.71566523158E+03 -0.11273863396E+04  0.18442757116E+04  0.10100000352E+00 0.  1.
       -3    1    3    3    0  502  0.12720755512E+04 -0.71566523158E+03 -0.35489557396E+03  0.15020998004E+04  0.10100000352E+00 0. -1.
</event>
<event>
 5   0  0.7585823E-07  0.2998733E+04  0.7818609E-02  0.8244093E-01
       -2   -1    0    0    0  501  0.00000000000E+00  0.00000000000E+00  0.12297788570E+04  0.12297788570E+04  0.25500000920E-02 0.  1.
        2   -1    0    0  501    0  0.00000000000E+00  0.00000000000E+00 -0.18280526146E+04  0.18280526146E+04  0.25500000920E-02 0. -1.
    10030    2    1    2    0    0  0.00000000000E+00  0.00000000000E+00 -0.59827375759E+03  0.30578314715E+04  0.29987333692E+04 0.  0.
        5    1    3    3  502    0  0.12294593538E+04 -0.21105977266E+03  0.54909924628E+03  0.13629558329E+04  0.46999998093E+01 0.  1.
       -5    1    3    3    0  502 -0.12294593538E+04  0.21105977266E+03 -0.11473730039E+04  0.16948756386E+04  0.46999998093E+01 0. -1.
</event>
<event>
 5   0  0.7585823E-07  0.2997795E+04  0.7818609E-02  0.8244361E-01
        2   -1    0    0  501    0  0.00000000000E+00  0.00000000000E+00  0.18312588444E+04  0.18312588444E+04  0.25500000920E-02 0.  1.
       -2   -1    0    0    0  501  0.00000000000E+00  0.00000000000E+00 -0.12268576721E+04  0.12268576721E+04  0.25500000920E-02 0. -1.
    10030    2    1    2    0    0  0.00000000000E+00  0.00000000000E+00  0.60440117227E+03  0.30581165164E+04  0.29977951650E+04 0.  0.
        5    1    3    3  502    0  0.34688882790E+03 -0.45779265559E+03 -0.11101308002E+04  0.12499273811E+04  0.46999998093E+01 0. -1.
       -5    1    3    3    0  502 -0.34688882790E+03  0.45779265559E+03  0.17145319725E+04  0.18081891353E+04  0.46999998093E+01 0.  1.
</event>
<event>
 5   0  0.2792361E-07  0.2995520E+04  0.7818609E-02  0.8245011E-01
        1   -1    0    0  501    0  0.00000000000E+00  0.00000000000E+00  0.13302372742E+04  0.13302372742E+04  0.50400001928E-02 0.  1.
       -1   -1    0    0    0  501  0.00000000000E+00  0.00000000000E+00 -0.16863798923E+04  0.16863798924E+04  0.50400001928E-02 0. -1.
    10030    2    1    2    0    0  0.00000000000E+00  0.00000000000E+00 -0.35614261818E+03  0.30166171665E+04  0.29955202495E+04 0.  0.
        4    1    3    3  502    0 -0.10285934332E+04  0.10331014107E+04 -0.52397373823E+03  0.15491459153E+04  0.12699999809E+01 0. -1.
       -4    1    3    3    0  502  0.10285934332E+04 -0.10331014107E+04  0.16783112005E+03  0.14674712513E+04  0.12699999809E+01 0.  1.
</event>
<event>
 5   0  0.2414250E-07  0.2998655E+04  0.7818609E-02  0.8244115E-01
        3   -1    0    0  501    0  0.00000000000E+00  0.00000000000E+00  0.11017698254E+04  0.11017698300E+04  0.10100000352E+00 0. -1.
       -3   -1    0    0    0  501  0.00000000000E+00  0.00000000000E+00 -0.20403386626E+04  0.20403386651E+04  0.10100000352E+00 0.  1.
    10030    2    1    2    0    0  0.00000000000E+00  0.00000000000E+00 -0.93856883727E+03  0.31421084951E+04  0.29986554208E+04 0.  0.
        4    1    3    3  502    0 -0.79835328426E+03 -0.31265641298E+03 -0.17581095013E+04  0.19560349257E+04  0.12699999809E+01 0.  1.
       -4    1    3    3    0  502  0.79835328426E+03  0.31265641298E+03  0.81954066406E+03  0.11860735694E+04  0.12699999809E+01 0. -1.
</event>
<event>
 5   0  0.2792361E-07  0.2999270E+04  0.7818609E-02  0.8243939E-01
       -1   -1    0    0    0  501  0.00000000000E+00  0.00000000000E+00  0.15026525363E+04  0.15026525363E+04  0.50400001928E-02 0.  1.
        1   -1    0    0  501    0  0.00000000000E+00  0.00000000000E+00 -0.14966236423E+04  0.14966236423E+04  0.50400001928E-02 0. -1.
    10030    2    1    2    0    0  0.00000000000E+00  0.00000000000E+00  0.60288939827E+01  0.29992761786E+04  0.29992701192E+04 0.  0.
        4    1    3    3  502    0 -0.20867775088E+03 -0.14045623583E+04  0.48526211851E+03  0.15006074632E+04  0.12699999809E+01 0.  1.
       -4    1    3    3    0  502  0.20867775088E+03  0.14045623583E+04 -0.47923322453E+03  0.14986687154E+04  0.12699999809E+01 0. -1.
</event>
<event>
 5   0  0.2621825E-07  0.2997461E+04  0.7818609E-02  0.8244456E-01
       -1   -1    0    0    0  501  0.00000000000E+00  0.00000000000E+00  0.73706247699E+03  0.73706247700E+03  0.50400001928E-02 0. -1.
        1   -1    0    0  501    0  0.00000000000E+00  0.00000000000E+00 -0.30474936545E+04  0.30474936545E+04  0.50400001928E-02 0.  1.
    10030    2    1    2    0    0  0.00000000000E+00  0.00000000000E+00 -0.23104311775E+04  0.37845561315E+04  0.29974610734E+04 0.  0.
        3    1    3    3  502    0 -0.13084325825E+04 -0.71886897283E+03 -0.98855030153E+03  0.17905306844E+04  0.10100000352E+00 0. -1.
       -3    1    3    3    0  502  0.13084325825E+04  0.71886897283E+03 -0.13218808759E+04  0.19940254470E+04  0.10100000352E+00 0.  1.
</event>
<event>
 5   0  0.2640081E-07  0.3002490E+04  0.7818609E-02  0.8243020E-01
       -1   -1    0    0    0  501  0.00000000000E+00  0.00000000000E+00  0.86143589343E+03  0.86143589344E+03  0.50400001928E-02 0.  1.
        1   -1    0    0  501    0  0.00000000000E+00  0.00000000000E+00 -0.26162552096E+04  0.26162552096E+04  0.50400001928E-02 0. -1.
    10030    2    1    2    0    0  0.00000000000E+00  0.00000000000E+00 -0.17548193162E+04  0.34776911031E+04  0.30024897295E+04 0.  0.
        1    1    3    3  502    0  0.10369650892E+04  0.62726358536E+03  0.14880627607E+03  0.12210239594E+04  0.50400001928E-02 0.  1.
       -1    1    3    3    0  502 -0.10369650892E+04 -0.62726358536E+03 -0.19036255922E+04  0.22566671436E+04  0.50400001928E-02 0. -1.
</event>
<event>
 5   0  0.7399409E-07  0.2998179E+04  0.7818609E-02  0.8244251E-01
       -2   -1    0    0    0  501  0.00000000000E+00  0.00000000000E+00  0.16577728150E+04  0.16577728150E+04  0.25500000920E-02 0.  1.
        2   -1    0    0  501    0  0.00000000000E+00  0.00000000000E+00 -0.13555957672E+04  0.13555957672E+04  0.25500000920E-02 0. -1.
    10030    2    1    2    0    0  0.00000000000E+00  0.00000000000E+00  0.30217704781E+03  0.30133685822E+04  0.29981793215E+04 0.  0.
        3    1    3    3  502    0 -0.77926435491E+03  0.11713006265E+04  0.67146797943E+03  0.15588673292E+04  0.10100000352E+00 0.  1.
       -3    1    3    3    0  502  0.77926435491E+03 -0.11713006265E+04 -0.36929093162E+03  0.14545012530E+04  0.10100000352E+00 0. -1.
</event>
<event>
 5   0  0.7585823E-07  0.3005574E+04  0.7818609E-02  0.8242141E-01
        2   -1    0    0  501    0  0.00000000000E+00  0.00000000000E+00  0.13306971812E+04  0.13306971812E+04  0.25500000920E-02 0. -1.
       -2   -1    0    0    0  501  0.00000000000E+00  0.00000000000E+00 -0.16971324150E+04  0.16971324150E+04  0.25500000920E-02 0.  1.
    10030    2    1    2    0    0  0.00000000000E+00  0.00000000000E+00 -0.36643523388E+03  0.30278295962E+04  0.30055743682E+04 0.  0.
        5    1    3    3  502    0 -0.52960987910E+03 -0.98828774758E+03 -0.11912003190E+04  0.16359032936E+04  0.46999998093E+01 0.  1.
       -5    1    3    3    0  502  0.52960987910E+03  0.98828774758E+03  0.82476508517E+03  0.13919263026E+04  0.46999998093E+01 0. -1.
</event>
<event>
 5   0  0.7585823E-07  0.2999928E+04  0.7818609E-02  0.8243751E-01
       -2   -1    0    0    0  501  0.00000000000E+00  0.00000000000E+00  0.13649070125E+04  0.13649070125E+04  0.25500000920E-02 0. -1.
        2   -1    0    0  501    0  0.00000000000E+00  0.00000000000E+00 -0.16483847186E+04  0.16483847186E+04  0.25500000920E-02 0.  1.
    10030    2    1    2    0    0  0.00000000000E+00  0.00000000000E+00 -0.28347770609E+03  0.30132917311E+04  0.29999279069E+04 0.  0.
        5    1    3    3  502    0 -0.87083718156E+03  0.29710801385E+03 -0.13315998161E+04  0.16185829385E+04  0.46999998093E+01 0.  1.
       -5    1    3    3    0  502  0.87083718156E+03 -0.29710801385E+03  0.10481221100E+04  0.13947087926E+04  0.46999998093E+01 0. -1.
</event>
<event>
 5   0  0.2640081E-07  0.2998171E+04  0.7818609E-02  0.8244253E-01
       -1   -1    0    0    0  501  0.00000000000E+00  0.00000000000E+00  0.15980762072E+04  0.15980762072E+04  0.50400001928E-02 0.  1.
        1   -1    0    0  501    0  0.00000000000E+00  0.00000000000E+00 -0.14062270719E+04  0.14062270719E+04  0.50400001928E-02 0. -1.
    10030    2    1    2    0    0  0.00000000000E+00  0.00000000000E+00  0.19184913536E+03  0.30043032791E+04  0.29981714597E+04 0.  0.
        1    1    3    3  502    0 -0.10608017909E+04  0.12284670800E+03  0.11501533842E+04  0.15694727014E+04  0.50400001928E-02 0.  1.
       -1    1    3    3    0  502  0.10608017909E+04 -0.12284670800E+03 -0.95830424886E+03  0.14348305777E+04  0.50400001928E-02 0. -1.
</event>
<event>
 5   0  0.7307508E-07  0.3004178E+04  0.7818609E-02  0.8242539E-01
        2   -1    0    0  501    0  0.00000000000E+00  0.00000000000E+00  0.21752217493E+04  0.21752217493E+04  0.25500000920E-02 0. -1.
       -2   -1    0    0    0  501  0.00000000000E+00  0.00000000000E+00 -0.10372606036E+04  0.10372606036E+04  0.25500000920E-02 0.  1.
    10030    2    1    2    0    0  0.00000000000E+00  0.00000000000E+00  0.11379611457E+04  0.32124823530E+04  0.30041783068E+04 0.  0.
        1    1    3    3  502    0  0.12576454086E+04  0.59695590952E+03 -0.34265927756E+02  0.13925525072E+04  0.50400001928E-02 0.  1.
       -1    1    3    3    0  502 -0.12576454086E+04 -0.59695590952E+03  0.11722270734E+04  0.18199298457E+04  0.50400001928E-02 0. -1.
</event>
<event>
 5   0  0.7307508E-07  0.3009429E+04  0.7818609E-02  0.8241044E-01
       -2   -1    0    0    0  501  0.00000000000E+00  0.00000000000E+00  0.99668829709E+03  0.99668829709E+03  0.25500000920E-02 0.  1.
        2   -1    0    0  501    0  0.00000000000E+00  0.00000000000E+00 -0.22716882331E+04  0.22716882331E+04  0.25500000920E-02 0. -1.
    10030    2    1    2    0    0  0.00000000000E+00  0.00000000000E+00 -0.12749999360E+04  0.32683765302E+04  0.30094285680E+04 0.  0.
        1    1    3    3  502    0  0.10501340948E+04  0.40575828987E+03 -0.17217758232E+04  0.20571663501E+04  0.50400001928E-02 0. -1.
       -1    1    3    3    0  502 -0.10501340948E+04 -0.40575828987E+03  0.44677588722E+03  0.12112101800E+04  0.50400001928E-02 0.  1.
</event>
<event>
 5   0  0.2621825E-07  0.3010962E+04  0.7818609E-02  0.8240607E-01
        1   -1    0    0  501    0  0.00000000000E+00  0.00000000000E+00  0.20864424610E+04  0.20864424610E+04  0.50400001928E-02 0.  1.
       -1   -1    0    0    0  501  0.00000000000E+00  0.00000000000E+00 -0.10862860063E+04  0.10862860063E+04  0.50400001928E-02 0. -1.
    10030    2    1    2    0    0  0.00000000000E+00  0.00000000000E+00  0.10001564547E+04  0.31727284673E+04  0.30109621375E+04 0.  0.
        3    1    3    3  502    0 -0.46204086422E+03 -0.14325469591E+04  0.52989490201E+03  0.15957635062E+04  0.10100000352E+00 0.  1.
       -3    1    3    3    0  502  0.46204086422E+03  0.14325469591E+04  0.47026155269E+03  0.15769649611E+04  0.10100000352E+00 0. -1.
</event>
<event>
 5   0  0.7208273E-07  0.2998357E+04  0.7818609E-02  0.8244200E-01
        2   -1    0    0  501    0  0.00000000000E+00  0.00000000000E+00  0.12447215878E+04  0.12447215878E+04  0.25500000920E-02 0.  1.
       -2   -1    0    0    0  501  0.00000000000E+00  0.00000000000E+00 -0.18056531721E+04  0.18056531721E+04  0.25500000920E-02 0. -1.
    10030    2    1    2    0    0  0.00000000000E+00  0.00000000000E+00 -0.56093158435E+03  0.30503747599E+04  0.29983565387E+04 0.  0.
        4    1    3    3  502    0 -0.96875368393E+03 -0.11392109161E+04 -0.38836550797E+03  0.15450289939E+04  0.12699999809E+01 0. -1.
       -4    1    3    3    0  502  0.96875368393E+03  0.11392109161E+04 -0.17256607638E+03  0.15053457659E+04  0.12699999809E+01 0.  1.
</event>
<event>
 5   0  0.2679935E-07  0.3039070E+04  0.7818609E-02  0.8232661E-01
       -1   -1    0    0    0  501  0.00000000000E+00  0.00000000000E+00  0.18382482384E+04  0.18382482384E+04  0.50400001928E-02 0. -1.
        1   -1    0    0  501    0  0.00000000000E+00  0.00000000000E+00 -0.12560801942E+04  0.12560801942E+04  0.50400001928E-02 0.  1.
    10030    2    1    2    0    0  0.00000000000E+00  0.00000000000E+00  0.58216804417E+03  0.30943284326E+04  0.30390703870E+04 0.  0.
        2    1    3    3  502    0  0.20554548777E+03 -0.53548872060E+02 -0.12408902283E+04  0.12589380398E+04  0.25500000920E-02 0.  1.
       -2    1    3    3    0  502 -0.20554548777E+03  0.53548872060E+02  0.18230582725E+04  0.18353903929E+04  0.25500000920E-02 0. -1.
</event>
<event>
 5   0  0.7278657E-07  0.2999662E+04  0.7818609E-02  0.8243827E-01
        2   -1    0    0  501    0  0.00000000000E+00  0.00000000000E+00  0.22058629322E+04  0.22058629322E+04  0.25500000920E-02 0.  1.
       -2   -1    0    0    0  501  0.00000000000E+00  0.00000000000E+00 -0.10197789547E+04  0.10197789547E+04  0.25500000920E-02 0. -1.
    10030    2    1    2    0    0  0.00000000000E+00  0.00000000000E+00  0.11860839775E+04  0.32256418869E+04  0.29996617110E+04 0.  0.
        2    1    3    3  502    0 -0.30713078858E+03 -0.90588670687E+03 -0.64920643854E+03  0.11560402445E+04  0.25500000920E-02 0. -1.
       -2    1    3    3    0  502  0.30713078858E+03  0.90588670687E+03  0.18352904161E+04  0.20696016424E+04  0.25500000920E-02 0.  1.
</event>
<event>
 5   0  0.2640081E-07  0.3008096E+04  0.7818609E-02  0.8241423E-01
       -1   -1    0    0    0  501  0.00000000000E+00  0.00000000000E+00  0.16154564249E+04  0.16154564249E+04  0.50400001928E-02 0. -1.
        1   -1    0    0  501    0  0.00000000000E+00  0.00000000000E+00 -0.14003224733E+04  0.14003224733E+04  0.50400001928E-02 0.  1.
    10030    2    1    2    0    0  0.00000000000E+00  0.00000000000E+00  0.21513395163E+03  0.30157788982E+04  0.30080957009E+04 0.  0.
        1    1    3    3  502    0 -0.69121667163E+02 -0.14458637885E+04 -0.30196141643E+03  0.14786752844E+04  0.50400001928E-02 0. -1.
       -1    1    3    3    0  502  0.69121667163E+02  0.14458637885E+04  0.51709536806E+03  0.15371036138E+04  0.50400001928E-02 0.  1.
</event>
<event>
 5   0  0.7278657E-07  0.2999770E+04  0.7818609E-02  0.8243796E-01
       -2   -1    0    0    0  501  0.00000000000E+00  0.00000000000E+00  0.12219550048E+04  0.12219550048E+04  0.25500000920E-02 0.  1.
        2   -1    0    0  501    0  0.00000000000E+00  0.00000000000E+00 -0.18410297121E+04  0.18410297121E+04  0.25500000920E-02 0. -1.
    10030    2    1    2    0    0  0.00000000000E+00  0.00000000000E+00 -0.61907470734E+03  0.30629847169E+04  0.29997703050E+04 0.  0.
        2    1    3    3  502    0 -0.11704561558E+04  0.64211493232E+03 -0.10075931829E+04  0.16725798101E+04  0.25500000920E-02 0. -1.
       -2    1    3    3    0  502  0.11704561558E+04 -0.64211493232E+03  0.38851847554E+03  0.13904049068E+04  0.25500000920E-02 0.  1.
</event>
<event>
 5   0  0.7585823E-07  0.2999450E+04  0.7818609E-02  0.8243888E-01
       -2   -1    0    0    0  501  0.00000000000E+00  0.00000000000E+00  0.12643245915E+04  0.12643245915E+04  0.25500000920E-02 0. -1.
        2   -1    0    0  501    0  0.00000000000E+00  0.00000000000E+00 -0.17789537673E+04  0.17789537673E+04  0.25500000920E-02 0.  1.
    10030    2    1    2    0    0  0.00000000000E+00  0.00000000000E+00 -0.51462917576E+03  0.30432783588E+04  0.29994499463E+04 0.  0.
        5    1    3    3  502    0  0.10412655865E+04 -0.79997904309E+03  0.47780843998E+03  0.13973272653E+04  0.46999998093E+01 0.  1.
       -5    1    3    3    0  502 -0.10412655865E+04  0.79997904309E+03 -0.99243761574E+03  0.16459510935E+04  0.46999998093E+01 0. -1.
</event>
<event>
 5   0  0.7585823E-07  0.2977789E+04  0.7818609E-02  0.8250102E-01
        2   -1    0    0  501    0  0.00000000000E+00  0.00000000000E+00  0.11511600559E+04  0.11511600559E+04  0.25500000920E-02 0. -1.
       -2   -1    0    0    0  501  0.00000000000E+00  0.00000000000E+00 -0.19257155826E+04  0.19257155826E+04  0.25500000920E-02 0.  1.
    10030    2    1    2    0    0  0.00000000000E+00  0.00000000000E+00 -0.77455552671E+03  0.30768756386E+04  0.29777890173E+04 0.  0.
        5    1    3    3  502    0 -0.14551545562E+04 -0.31432443826E+03 -0.41061544600E+03  0.15443127175E+04  0.46999998093E+01 0.  1.
       -5    1    3    3    0  502  0.14551545562E+04  0.31432443826E+03 -0.36394008071E+03  0.15325629211E+04  0.46999998093E+01 0. -1.
</event>
<event>
 5   0  0.7585823E-07  0.2999769E+04  0.7818609E-02  0.8243797E-01
        2   -1    0    0  501    0  0.00000000000E+00  0.00000000000E+00  0.15473468994E+04  0.15473468994E+04  0.25500000920E-02 0. -1.
       -2   -1    0    0    0  501  0.00000000000E+00  0.00000000000E+00 -0.14538775118E+04  0.14538775118E+04  0.25500000920E-02 0.  1.
    10030    2    1    2    0    0  0.00000000000E+00  0.00000000000E+00  0.93469387589E+02  0.30012244112E+04  0.29997685644E+04 0.  0.
        5    1    3    3  502    0  0.69242178721E+03  0.13297618871E+04  0.29394581734E+01  0.14992482577E+04  0.46999998093E+01 0.  1.
       -5    1    3    3    0  502 -0.69242178721E+03 -0.13297618871E+04  0.90529929416E+02  0.15019761535E+04  0.46999998093E+01 0. -1.
</event>
<event>
 5   0  0.2621825E-07  0.2990486E+04  0.7818609E-02  0.8246453E-01
        1   -1    0    0  501    0  0.00000000000E+00  0.00000000000E+00  0.28223711501E+04  0.28223711501E+04  0.50400001928E-02 0.  1.
       -1   -1    0    0    0  501  0.00000000000E+00  0.00000000000E+00 -0.79215359660E+03  0.79215359662E+03  0.50400001928E-02 0. -1.
    10030    2    1    2    0    0  0.00000000000E+00  0.00000000000E+00  0.20302175535E+04  0.36145247467E+04  0.29904858853E+04 0.  0.
        3    1    3    3  502    0 -0.27304597416E+03  0.97324543603E+03 -0.31662409292E+03  0.10592504941E+04  0.10100000352E+00 0. -1.
       -3    1    3    3    0  502  0.27304597416E+03 -0.97324543603E+03  0.23468416464E+04  0.25552742527E+04  0.10100000352E+00 0.  1.
</event>
<event>
 5   0  0.2621825E-07  0.2999767E+04  0.7818609E-02  0.8243797E-01
       -1   -1    0    0    0  501  0.00000000000E+00  0.00000000000E+00  0.85357852905E+03  0.85357852907E+03  0.50400001928E-02 0.  1.
        1   -1    0    0  501    0  0.00000000000E+00  0.00000000000E+00 -0.26355520045E+04  0.26355520045E+04  0.50400001928E-02 0. -1.
    10030    2    1    2    0    0  0.00000000000E+00  0.00000000000E+00 -0.17819734755E+04  0.34891305336E+04  0.29997670598E+04 0.  0.
        3    1    3    3  502    0 -0.19746342968E+03 -0.58510520289E+03 -0.24808297218E+04  0.25565320306E+04  0.10100000352E+00 0. -1.
       -3    1    3    3    0  502  0.19746342968E+03  0.58510520289E+03  0.69885624636E+03  0.93259850300E+03  0.10100000352E+00 0.  1.
</event>
<event>
 5   0  0.2621825E-07  0.2992789E+04  0.7818609E-02  0.8245793E-01
        1   -1    0    0  501    0  0.00000000000E+00  0.00000000000E+00  0.12245296672E+04  0.12245296672E+04  0.50400001928E-02 0.  1.
       -1   -1    0    0    0  501  0.00000000000E+00  0.00000000000E+00 -0.18286179910E+04  0.18286179910E+04  0.50400001928E-02 0. -1.
    10030    2    1    2    0    0  0.00000000000E+00  0.00000000000E+00 -0.60408832374E+03  0.30531476582E+04  0.29927893210E+04 0.  0.
        3    1    3    3  502    0  0.13416458281E+04 -0.25580175734E+02 -0.97761496179E+03  0.16602406143E+04  0.10100000352E+00 0. -1.
       -3    1    3    3    0  502 -0.13416458281E+04  0.25580175734E+02  0.37352663805E+03  0.13929070439E+04  0.10100000352E+00 0.  1.
</event>
<event>
 5   0  0.7307508E-07  0.2998434E+04  0.7818609E-02  0.8244178E-01
        2   -1    0    0  501    0  0.00000000000E+00  0.00000000000E+00  0.22208789346E+04  0.22208789346E+04  0.25500000920E-02 0. -1.
       -2   -1    0    0    0  501  0.00000000000E+00  0.00000000000E+00 -0.10120549312E+04  0.10120549312E+04  0.25500000920E-02 0.  1.
    10030    2    1    2    0    0  0.00000000000E+00  0.00000000000E+00  0.12088240034E+04  0.32329338658E+04  0.29984339094E+04 0.  0.
        1    1    3    3  502    0 -0.10777769844E+04 -0.10420071815E+04  0.62210521783E+03  0.16230825907E+04  0.50400001928E-02 0.  1.
       -1    1    3    3    0  502  0.10777769844E+04  0.10420071815E+04  0.58671878560E+03  0.16098512750E+04  0.50400001928E-02 0. -1.
</event>
<event>
 5   0  0.2602891E-07  0.2997214E+04  0.7818609E-02  0.8244527E-01
        1   -1    0    0  501    0  0.00000000000E+00  0.00000000000E+00  0.14339487857E+04  0.14339487857E+04  0.50400001928E-02 0. -1.
       -1   -1    0    0    0  501  0.00000000000E+00  0.00000000000E+00 -0.15661805528E+04  0.15661805528E+04  0.50400001928E-02 0.  1.
    10030    2    1    2    0    0  0.00000000000E+00  0.00000000000E+00 -0.13223176713E+03  0.30001293385E+04  0.29972138408E+04 0.  0.
        5    1    3    3  502    0 -0.64234817891E+03 -0.65088525548E+03  0.11222785641E+04  0.14476857615E+04  0.46999998093E+01 0. -1.
       -5    1    3    3    0  502  0.64234817891E+03  0.65088525548E+03 -0.12545103312E+04  0.15524435770E+04  0.46999998093E+01 0.  1.
</event>
<event>
 5   0  0.7307508E-07  0.3006600E+04  0.7818609E-02  0.8241849E-01
        2   -1    0    0  501    0  0.00000000000E+00  0.00000000000E+00  0.87038794877E+03  0.87038794878E+03  0.25500000920E-02 0.  1.
       -2   -1    0    0    0  501  0.00000000000E+00  0.00000000000E+00 -0.25964402372E+04  0.25964402372E+04  0.25500000920E-02 0. -1.
    10030    2    1    2    0    0  0.00000000000E+00  0.00000000000E+00 -0.17260522884E+04  0.34668281859E+04  0.30065996023E+04 0.  0.
        1    1    3    3  502    0 -0.57010130449E+03 -0.61862218439E+03 -0.22996092565E+04  0.24486550670E+04  0.50400001928E-02 0. -1.
       -1    1    3    3    0  502  0.57010130449E+03  0.61862218439E+03  0.57355696814E+03  0.10181731189E+04  0.50400001928E-02 0.  1.
</event>
<event>
 5   0  0.7399409E-07  0.2994844E+04  0.7818609E-02  0.8245205E-01
       -2   -1    0    0    0  501  0.00000000000E+00  0.00000000000E+00  0.19771290328E+04  0.19771290328E+04  0.25500000920E-02 0. -1.
        2   -1    0    0  501    0  0.00000000000E+00  0.00000000000E+00 -0.11341054350E+04  0.11341054350E+04  0.25500000920E-02 0.  1.
    10030    2    1    2    0    0  0.00000000000E+00  0.00000000000E+00  0.84302359786E+03  0.31112344678E+04  0.29948440906E+04 0.  0.
        3    1    3    3  502    0  0.30445807065E+03  0.39568356782E+03 -0.10450944869E+04  0.11582239418E+04  0.10100000352E+00 0.  1.
       -3    1    3    3    0  502 -0.30445807065E+03 -0.39568356782E+03  0.18881180848E+04  0.19530105260E+04  0.10100000352E+00 0. -1.
</event>
<event>
 5   0  0.7278657E-07  0.3009926E+04  0.7818609E-02  0.8240902E-01
       -2   -1    0    0    0  501  0.00000000000E+00  0.00000000000E+00  0.20269405641E+04  0.20269405641E+04  0.25500000920E-02 0. -1.
        2   -1    0    0  501    0  0.00000000000E+00  0.00000000000E+00 -0.11174047588E+04  0.11174047588E+04  0.25500000920E-02 0.  1.
    10030    2    1    2    0    0  0.00000000000E+00  0.00000000000E+00  0.90953580522E+03  0.31443453229E+04  0.30099256018E+04 0.  0.
        2    1    3    3  502    0  0.54501037459E+03  0.47075569313E+03 -0.92571060357E+03  0.11728543612E+04  0.25500000920E-02 0.  1.
       -2    1    3    3    0  502 -0.54501037459E+03 -0.47075569313E+03  0.18352464088E+04  0.19714909617E+04  0.25500000920E-02 0. -1.
</event>
<event>
 5   0  0.2679935E-07  0.2999051E+04  0.7818609E-02  0.8244002E-01
        1   -1    0    0  501    0  0.00000000000E+00  0.00000000000E+00  0.19654211760E+04  0.19654211760E+04  0.50400001928E-02 0.  1.
       -1   -1    0    0    0  501  0.00000000000E+00  0.00000000000E+00 -0.11440686846E+04  0.11440686846E+04  0.50400001928E-02 0. -1.
    10030    2    1    2    0    0  0.00000000000E+00  0.00000000000E+00  0.82135249145E+03  0.31094898606E+04  0.29990510629E+04 0.  0.
        2    1    3    3  502    0  0.90808538436E+03  0.11850877644E+04  0.55555275329E+03  0.15930131626E+04  0.25500000920E-02 0.  1.
       -2    1    3    3    0  502 -0.90808538436E+03 -0.11850877644E+04  0.26579973816E+03  0.15164766980E+04  0.25500000920E-02 0. -1.
</event>
<event>
 5   0  0.7585823E-07  0.3002756E+04  0.7818609E-02  0.8242944E-01
        2   -1    0    0  501    0  0.00000000000E+00  0.00000000000E+00  0.15438525883E+04  0.15438525883E+04  0.25500000920E-02 0. -1.
       -2   -1    0    0    0  501  0.00000000000E+00  0.00000000000E+00 -0.14600719983E+04  0.14600719983E+04  0.25500000920E-02 0.  1.
    10030    2    1    2    0    0  0.00000000000E+00  0.00000000000E+00  0.83780590051E+02  0.30039245866E+04  0.30027560232E+04 0.  0.
        5    1    3    3  502    0 -0.91541993816E+03 -0.10500170955E+04  0.60209418507E+03  0.15175865912E+04  0.46999998093E+01 0. -1.
       -5    1    3    3    0  502  0.91541993816E+03  0.10500170955E+04 -0.51831359502E+03  0.14863379955E+04  0.46999998093E+01 0.  1.
</event>
<event>
 5   0  0.7585823E-07  0.3000813E+04  0.7818609E-02  0.8243499E-01
       -2   -1    0    0    0  501  0.00000000000E+00  0.00000000000E+00  0.15350928398E+04  0.15350928398E+04  0.25500000920E-02 0.  1.
        2   -1    0    0  501    0  0.00000000000E+00  0.00000000000E+00 -0.14665035768E+04  0.14665035768E+04  0.25500000920E-02 0. -1.
    10030    2    1    2    0    0  0.00000000000E+00  0.00000000000E+00  0.68589263065E+02  0.30015964166E+04  0.30008126501E+04 0.  0.
        5    1    3    3  502    0 -0.39683103875E+03  0.96765842518E+03 -0.10417927243E+04  0.14762086138E+04  0.46999998093E+01 0. -1.
       -5    1    3    3    0  502  0.39683103875E+03 -0.96765842518E+03  0.11103819873E+04  0.15253878028E+04  0.46999998093E+01 0.  1.
</event>
<event>
 5   0  0.7307508E-07  0.2980720E+04  0.7818609E-02  0.8249258E-01
       -2   -1    0    0    0  501  0.00000000000E+00  0.00000000000E+00  0.11897024892E+04  0.11897024892E+04  0.25500000920E-02 0.  1.
        2   -1    0    0  501    0  0.00000000000E+00  0.00000000000E+00 -0.18669984774E+04  0.18669984774E+04  0.25500000920E-02 0. -1.
    10030    2    1    2    0    0  0.00000000000E+00  0.00000000000E+00 -0.67729598815E+03  0.30567009666E+04  0.29807198700E+04 0.  0.
        1    1    3    3  502    0 -0.94181112621E+03  0.19603108894E+03 -0.15059684953E+04  0.17870023766E+04  0.50400001928E-02 0. -1.
       -1    1    3    3    0  502  0.94181112621E+03 -0.19603108894E+03  0.82867250710E+03  0.12696985900E+04  0.50400001928E-02 0.  1.
</event>
<event>
 5   0  0.7208273E-07  0.3000626E+04  0.7818609E-02  0.8243552E-01
        2   -1    0    0  501    0  0.00000000000E+00  0.00000000000E+00  0.17333989277E+04  0.17333989277E+04  0.25500000920E-02 0. -1.
       -2   -1    0    0    0  501  0.00000000000E+00  0.00000000000E+00 -0.12985694879E+04  0.12985694879E+04  0.25500000920E-02 0.  1.
    10030    2    1    2    0    0  0.00000000000E+00  0.00000000000E+00  0.43482943979E+03  0.30319684157E+04  0.30006259067E+04 0.  0.
        4    1    3    3  502    0  0.54367259877E+03 -0.12309052576E+04 -0.45301380866E+03  0.14198347691E+04  0.12699999809E+01 0. -1.
       -4    1    3    3    0  502 -0.54367259877E+03  0.12309052576E+04  0.88784324845E+03  0.16121336466E+04  0.12699999809E+01 0.  1.
</event>
<event>
 5   0  0.2679935E-07  0.2977400E+04  0.7818609E-02  0.8250214E-01
       -1   -1    0    0    0  501  0.00000000000E+00  0.00000000000E+00  0.10515338959E+04  0.10515338959E+04  0.50400001928E-02 0. -1.
        1   -1    0    0  501    0  0.00000000000E+00  0.00000000000E+00 -0.21076144810E+04  0.21076144810E+04  0.50400001928E-02 0.  1.
    10030    2    1    2    0    0  0.00000000000E+00  0.00000000000E+00 -0.10560805851E+04  0.31591483768E+04  0.29774002527E+04 0.  0.
        2    1    3    3  502    0  0.14725280728E+04  0.31730967547E+02 -0.75778059905E+03  0.16563747208E+04  0.25500000920E-02 0.  1.
       -2    1    3    3    0  502 -0.14725280728E+04 -0.31730967547E+02 -0.29829998605E+03  0.15027736560E+04  0.25500000920E-02 0. -1.
</event>
<event>
 5   0  0.2679935E-07  0.3003766E+04  0.7818609E-02  0.8242656E-01
        1   -1    0    0  501    0  0.00000000000E+00  0.00000000000E+00  0.19523027228E+04  0.19523027228E+04  0.50400001928E-02 0. -1.
       -1   -1    0    0    0  501  0.00000000000E+00  0.00000000000E+00 -0.11553806860E+04  0.11553806860E+04  0.50400001928E-02 0.  1.
    10030    2    1    2    0    0  0.00000000000E+00  0.00000000000E+00  0.79692203686E+03  0.31076834088E+04  0.30037662087E+04 0.  0.
        2    1    3    3  502    0 -0.93513919034E+03 -0.93703608362E+02  0.16104787383E+04  0.18646467328E+04  0.25500000920E-02 0.  1.
       -2    1    3    3    0  502  0.93513919034E+03  0.93703608362E+02 -0.81355670145E+03  0.12430366761E+04  0.25500000920E-02 0. -1.
</event>
<event>
 5   0  0.7585823E-07  0.2997889E+04  0.7818609E-02  0.8244334E-01
        2   -1    0    0  501    0  0.00000000000E+00  0.00000000000E+00  0.27484853040E+04  0.27484853040E+04  0.25500000920E-02 0.  1.
       -2   -1    0    0    0  501  0.00000000000E+00  0.00000000000E+00 -0.81748095149E+03  0.81748095149E+03  0.25500000920E-02 0. -1.
    10030    2    1    2    0    0  0.00000000000E+00  0.00000000000E+00  0.19310043525E+04  0.35659662555E+04  0.29978888448E+04 0.  0.
        5    1    3    3  502    0 -0.93765537030E+03  0.62440412166E+03  0.21416776101E+04  0.24198932159E+04  0.46999998093E+01 0.  1.
       -5    1    3    3    0  502  0.93765537030E+03 -0.62440412166E+03 -0.21067325762E+03  0.11460730396E+04  0.46999998093E+01 0. -1.
</event>
<event>
 5   0  0.7399409E-07  0.3002600E+04  0.7818609E-02  0.8242989E-01
       -2   -1    0    0    0  501  0.00000000000E+00  0.00000000000E+00  0.13813021520E+04  0.13813021520E+04  0.25500000920E-02 0.  1.
        2   -1    0    0  501    0  0.00000000000E+00  0.00000000000E+00 -0.16317225887E+04  0.16317225887E+04  0.25500000920E-02 0. -1.
    10030    2    1    2    0    0  0.00000000000E+00  0.00000000000E+00 -0.25042043673E+03  0.30130247406E+04  0.30026001553E+04 0.  0.
        3    1    3    3  502    0  0.29311769482E+03  0.50234229109E+03  0.12636601341E+04  0.13910796905E+04  0.10100000352E+00 0.  1.
       -3    1    3    3    0  502 -0.29311769482E+03 -0.50234229109E+03 -0.15140805709E+04  0.16219450502E+04  0.10100000352E+00 0. -1.
</event>
<event>
 5   0  0.2679935E-07  0.2997941E+04  0.7818609E-02  0.8244319E-01
       -1   -1    0    0    0  501  0.00000000000E+00  0.00000000000E+00  0.12217597785E+04  0.12217597785E+04  0.50400001928E-02 0. -1.
        1   -1    0    0  501    0  0.00000000000E+00  0.00000000000E+00 -0.18390787844E+04  0.18390787845E+04  0.50400001928E-02 0.  1.
    10030    2    1    2    0    0  0.00000000000E+00  0.00000000000E+00 -0.61731900598E+03  0.30608385629E+04  0.29979409522E+04 0.  0.
        2    1    3    3  502    0 -0.14455002748E+03  0.14406385943E+04 -0.70484486619E+03  0.16103231214E+04  0.25500000920E-02 0.  1.
       -2    1    3    3    0  502  0.14455002748E+03 -0.14406385943E+04  0.87525860205E+02  0.14505154415E+04  0.25500000920E-02 0. -1.
</event>
<event>
 5   0  0.7208273E-07  0.2993821E+04  0.7818609E-02  0.8245497E-01
       -2   -1    0    0    0  501  0.00000000000E+00  0.00000000000E+00  0.10408718278E+04  0.10408718278E+04  0.25500000920E-02 0. -1.
        2   -1    0    0  501    0  0.00000000000E+00  0.00000000000E+00 -0.21527547337E+04  0.21527547337E+04  0.25500000920E-02 0.  1.
    10030    2    1    2    0    0  0.00000000000E+00  0.00000000000E+00 -0.11118829059E+04  0.31936265615E+04  0.29938214739E+04 0.  0.
        4    1    3    3  502    0 -0.97382883590E+03 -0.71527638293E+03 -0.14985292302E+04  0.19249816551E+04  0.12699999809E+01 0.  1.
       -4    1    3    3    0  502  0.97382883590E+03  0.71527638293E+03  0.38664632427E+03  0.12686449064E+04  0.12699999809E+01 0. -1.
</event>
<event>
 5   0  0.2792361E-07  0.3000201E+04  0.7818609E-02  0.8243673E-01
       -1   -1    0    0    0  501  0.00000000000E+00  0.00000000000E+00  0.83398140034E+03  0.83398140035E+03  0.50400001928E-02 0.  1.
        1   -1    0    0  501    0  0.00000000000E+00  0.00000000000E+00 -0.26982635609E+04  0.26982635609E+04  0.50400001928E-02 0. -1.
    10030    2    1    2    0    0  0.00000000000E+00  0.00000000000E+00 -0.18642821606E+04  0.35322449613E+04  0.30002010753E+04 0.  0.
        4    1    3    3  502    0 -0.13632388519E+04  0.32453645306E+03 -0.30190225401E+03  0.14334889817E+04  0.12699999809E+01 0.  1.
       -4    1    3    3    0  502  0.13632388519E+04 -0.32453645306E+03 -0.15623799066E+04  0.20987559796E+04  0.12699999809E+01 0. -1.
</event>
<event>
 5   0  0.2621825E-07  0.3000813E+04  0.7818609E-02  0.8243499E-01
        1   -1    0    0  501    0  0.00000000000E+00  0.00000000000E+00  0.16218824464E+04  0.16218824464E+04  0.50400001928E-02 0.  1.
       -1   -1    0    0    0  501  0.00000000000E+00  0.00000000000E+00 -0.13880291439E+04  0.13880291439E+04  0.50400001928E-02 0. -1.
    10030    2    1    2    0    0  0.00000000000E+00  0.00000000000E+00  0.23385330255E+03  0.30099115903E+04  0.30008132922E+04 0.  0.
        3    1    3    3  502    0 -0.64415213841E+03  0.86266317019E+03 -0.93127790162E+03  0.14235161618E+04  0.10100000352E+00 0. -1.
       -3    1    3    3    0  502  0.64415213841E+03 -0.86266317019E+03  0.11651312042E+04  0.15863954286E+04  0.10100000352E+00 0.  1.
</event>
<event>
 5   0  0.7307508E-07  0.3073331E+04  0.7818609E-02  0.8223095E-01
        2   -1    0    0  501    0  0.00000000000E+00  0.00000000000E+00  0.84113023402E+03  0.84113023403E+03  0.25500000920E-02 0.  1.
       -2   -1    0    0    0  501  0.00000000000E+00  0.00000000000E+00 -0.28073429075E+04  0.28073429075E+04  0.25500000920E-02 0. -1.
    10030    2    1    2    0    0  0.00000000000E+00  0.00000000000E+00 -0.19662126735E+04  0.36484731415E+04  0.30733310897E+04 0.  0.
        1    1    3    3  502    0  0.12733808462E+04 -0.60617889734E+03 -0.17075430259E+04  0.22146455293E+04  0.50400001928E-02 0.  1.
       -1    1    3    3    0  502 -0.12733808462E+04  0.60617889734E+03 -0.25866964760E+03  0.14338276123E+04  0.50400001928E-02 0. -1.
</event>
<event>
 5   0  0.2679935E-07  0.2999206E+04  0.7818609E-02  0.8243958E-01
       -1   -1    0    0    0  501  0.00000000000E+00  0.00000000000E+00  0.16025441579E+04  0.16025441579E+04  0.50400001928E-02 0.  1.
        1   -1    0    0  501    0  0.00000000000E+00  0.00000000000E+00 -0.14032744017E+04  0.14032744017E+04  0.50400001928E-02 0. -1.
    10030    2    1    2    0    0  0.00000000000E+00  0.00000000000E+00  0.19926975623E+03  0.30058185595E+04  0.29992060245E+04 0.  0.
        2    1    3    3  502    0  0.10921968342E+04  0.96118435740E+03  0.46380897895E+03  0.15270520824E+04  0.25500000920E-02 0.  1.
       -2    1    3    3    0  502 -0.10921968342E+04 -0.96118435740E+03 -0.26453922273E+03  0.14787664771E+04  0.25500000920E-02 0. -1.
</event>
<event>
 5   0  0.7307508E-07  0.2999804E+04  0.7818609E-02  0.8243787E-01
        2   -1    0    0  501    0  0.00000000000E+00  0.00000000000E+00  0.15916350781E+04  0.15916350781E+04  0.25500000920E-02 0. -1.
       -2   -1    0    0    0  501  0.00000000000E+00  0.00000000000E+00 -0.14134559924E+04  0.14134559924E+04  0.25500000920E-02 0.  1.
    10030    2    1    2    0    0  0.00000000000E+00  0.00000000000E+00  0.17817908568E+03  0.30050910705E+04  0.29998040862E+04 0.  0.
        1    1    3    3  502    0 -0.65730688926E+03  0.11500514662E+04 -0.61573802380E+03  0.14607546116E+04  0.50400001928E-02 0. -1.
       -1    1    3    3    0  502  0.65730688926E+03 -0.11500514662E+04  0.79391710948E+03  0.15443364589E+04  0.50400001928E-02 0.  1.
</event>
<event>
 5   0  0.7399409E-07  0.3002979E+04  0.7818609E-02  0.8242881E-01
        2   -1    0    0  501    0  0.00000000000E+00  0.00000000000E+00  0.16194175047E+04  0.16194175047E+04  0.25500000920E-02 0. -1.
       -2   -1    0    0    0  501  0.00000000000E+00  0.00000000000E+00 -0.13921490598E+04  0.13921490598E+04  0.25500000920E-02 0.  1.
    10030    2    1    2    0    0  0.00000000000E+00  0.00000000000E+00  0.22726844495E+03  0.30115665645E+04  0.30029788921E+04 0.  0.
        3    1    3    3  502    0 -0.22094263908E+03  0.50468537427E+03 -0.12871233739E+04  0.14000748432E+04  0.10100000352E+00 0.  1.
       -3    1    3    3    0  502  0.22094263908E+03 -0.50468537427E+03  0.15143918188E+04  0.16114917213E+04  0.10100000352E+00 0. -1.
</event>
<event>
 5   0  0.2640081E-07  0.3000621E+04  0.7818609E-02  0.8243554E-01
        1   -1    0    0  501    0  0.00000000000E+00  0.00000000000E+00  0.13724101423E+04  0.13724101423E+04  0.50400001928E-02 0.  1.
       -1   -1    0    0    0  501  0.00000000000E+00  0.00000000000E+00 -0.16401304666E+04  0.16401304666E+04  0.50400001928E-02 0. -1.
    10030    2    1    2    0    0  0.00000000000E+00  0.00000000000E+00 -0.26772032427E+03  0.30125406089E+04  0.30006210605E+04 0.  0.
        1    1    3    3  502    0 -0.14755535373E+04 -0.56601828258E+02 -0.40037592652E+03  0.15299551925E+04  0.50400001928E-02 0. -1.
       -1    1    3    3    0  502  0.14755535373E+04  0.56601828258E+02  0.13265560225E+03  0.14825854165E+04  0.50400001928E-02 0.  1.
</event>
<event>
 5   0  0.2640081E-07  0.3007809E+04  0.7818609E-02  0.8241504E-01
        1   -1    0    0  501    0  0.00000000000E+00  0.00000000000E+00  0.19860742440E+04  0.19860742440E+04  0.50400001928E-02 0.  1.
       -1   -1    0    0    0  501  0.00000000000E+00  0.00000000000E+00 -0.11387939126E+04  0.11387939126E+04  0.50400001928E-02 0. -1.
    10030    2    1    2    0    0  0.00000000000E+00  0.00000000000E+00  0.84728033139E+03  0.31248681566E+04  0.30078093418E+04 0.  0.
        1    1    3    3  502    0  0.14282568649E+03 -0.13033122969E+04  0.11889973476E+04  0.17699539013E+04  0.50400001928E-02 0. -1.
       -1    1    3    3    0  502 -0.14282568649E+03  0.13033122969E+04 -0.34171701624E+03  0.13549142553E+04  0.50400001928E-02 0.  1.
</event>
<event>
 5   0  0.7307508E-07  0.3000559E+04  0.7818609E-02  0.8243571E-01
       -2   -1    0    0    0  501  0.00000000000E+00  0.00000000000E+00  0.13103244330E+04  0.13103244330E+04  0.25500000920E-02 0.  1.
        2   -1    0    0  501    0  0.00000000000E+00  0.00000000000E+00 -0.17177717364E+04  0.17177717364E+04  0.25500000920E-02 0. -1.
    10030    2    1    2    0    0  0.00000000000E+00  0.00000000000E+00 -0.40744730335E+03  0.30280961694E+04  0.30005587990E+04 0.  0.
        1    1    3    3  502    0 -0.29153333480E+03  0.12804317446E+04 -0.93587552861E+03  0.16125632214E+04  0.50400001928E-02 0. -1.
       -1    1    3    3    0  502  0.29153333480E+03 -0.12804317446E+04  0.52842822526E+03  0.14155329481E+04  0.50400001928E-02 0.  1.
</event>
<event>
 5   0  0.2679935E-07  0.2990354E+04  0.7818609E-02  0.8246491E-01
       -1   -1    0    0    0  501  0.00000000000E+00  0.00000000000E+00  0.14445745017E+04  0.14445745017E+04  0.50400001928E-02 0. -1.
        1   -1    0    0  501    0  0.00000000000E+00  0.00000000000E+00 -0.15475520310E+04  0.15475520310E+04  0.50400001928E-02 0.  1.
    10030    2    1    2    0    0  0.00000000000E+00  0.00000000000E+00 -0.10297752930E+03  0.29921265328E+04  0.29903539618E+04 0.  0.
        2    1    3    3  502    0 -0.46723500937E+03  0.11778345185E+04  0.74267654711E+03  0.14687311396E+04  0.25500000920E-02 0. -1.
       -2    1    3    3    0  502  0.46723500937E+03 -0.11778345185E+04 -0.84565407641E+03  0.15233953931E+04  0.25500000920E-02 0.  1.
</event>
<event>
 5   0  0.2640081E-07  0.3072329E+04  0.7818609E-02  0.8223373E-01
       -1   -1    0    0    0  501  0.00000000000E+00  0.00000000000E+00  0.18833252964E+04  0.18833252964E+04  0.50400001928E-02 0.  1.
        1   -1    0    0  501    0  0.00000000000E+00  0.00000000000E+00 -0.12529971967E+04  0.12529971967E+04  0.50400001928E-02 0. -1.
    10030    2    1    2    0    0  0.00000000000E+00  0.00000000000E+00  0.63032809972E+03  0.31363224932E+04  0.30723289648E+04 0.  0.
        1    1    3    3  502    0  0.10873213385E+04 -0.31957967738E+03 -0.74345208502E+03  0.13554039494E+04  0.50400001928E-02 0. -1.
       -1    1    3    3    0  502 -0.10873213385E+04  0.31957967738E+03  0.13737801847E+04  0.17809185437E+04  0.50400001928E-02 0.  1.
</event>
<event>
 5   0  0.7399409E-07  0.3004081E+04  0.7818609E-02  0.8242567E-01
        2   -1    0    0  501    0  0.00000000000E+00  0.00000000000E+00  0.19637229864E+04  0.19637229864E+04  0.25500000920E-02 0. -1.
       -2   -1    0    0    0  501  0.00000000000E+00  0.00000000000E+00 -0.11489020076E+04  0.11489020076E+04  0.25500000920E-02 0.  1.
    10030    2    1    2    0    0  0.00000000000E+00  0.00000000000E+00  0.81482097882E+03  0.31126249939E+04  0.30040807455E+04 0.  0.
        3    1    3    3  502    0  0.14370309334E+04  0.30503801860E+03  0.83018052930E+02  0.14713932526E+04  0.10100000352E+00 0. -1.
       -3    1    3    3    0  502 -0.14370309334E+04 -0.30503801860E+03  0.73180292589E+03  0.16412317414E+04  0.10100000352E+00 0.  1.
</event>
<event>
 5   0  0.2792361E-07  0.3001561E+04  0.7818609E-02  0.8243285E-01
        1   -1    0    0  501    0  0.00000000000E+00  0.00000000000E+00  0.14813427492E+04  0.14813427492E+04  0.50400001928E-02 0. -1.
       -1   -1    0    0    0  501  0.00000000000E+00  0.00000000000E+00 -0.15204729636E+04  0.15204729636E+04  0.50400001928E-02 0.  1.
    10030    2    1    2    0    0  0.00000000000E+00  0.00000000000E+00 -0.39130214357E+02  0.30018157128E+04  0.30015606607E+04 0.  0.
        4    1    3    3  502    0  0.11313791209E+04  0.16641088202E+03  0.95243758485E+03  0.14882373005E+04  0.12699999809E+01 0. -1.
       -4    1    3    3    0  502 -0.11313791209E+04 -0.16641088202E+03 -0.99156779920E+03  0.15135784123E+04  0.12699999809E+01 0.  1.
</event>
<event>
 5   0  0.2640081E-07  0.3017120E+04  0.7818609E-02  0.8238859E-01
       -1   -1    0    0    0  501  0.00000000000E+00  0.00000000000E+00  0.20313073766E+04  0.20313073766E+04  0.50400001928E-02 0.  1.
        1   -1    0    0  501    0  0.00000000000E+00  0.00000000000E+00 -0.11203394565E+04  0.11203394566E+04  0.50400001928E-02 0. -1.
    10030    2    1    2    0    0  0.00000000000E+00  0.00000000000E+00  0.91096792008E+03  0.31516468332E+04  0.30171203506E+04 0.  0.
        1    1    3    3  502    0 -0.98102151040E+03  0.99921783024E+03  0.10416776246E+04  0.17452597944E+04  0.50400001928E-02 0.  1.
       -1    1    3    3    0  502  0.98102151040E+03 -0.99921783024E+03 -0.13070970452E+03  0.14063870388E+04  0.50400001928E-02 0. -1.
</event>
<event>
 5   0  0.2640081E-07  0.3006508E+04  0.7818609E-02  0.8241875E-01
       -1   -1    0    0    0  501  0.00000000000E+00  0.00000000000E+00  0.19304252460E+04  0.19304252460E+04  0.50400001928E-02 0.  1.
        1   -1    0    0  501    0  0.00000000000E+00  0.00000000000E+00 -0.11706090798E+04  0.11706090799E+04  0.50400001928E-02 0. -1.
    10030    2    1    2    0    0  0.00000000000E+00  0.00000000000E+00  0.75981616616E+03  0.31010343259E+04  0.30065084872E+04 0.  0.
        1    1    3    3  502    0 -0.15011948179E+03 -0.73334340420E+03 -0.96470609178E+03  0.12210594788E+04  0.50400001928E-02 0. -1.
       -1    1    3    3    0  502  0.15011948179E+03  0.73334340420E+03  0.17245222579E+04  0.18799748470E+04  0.50400001928E-02 0.  1.
</event>
<event>
 5   0  0.7278657E-07  0.2991180E+04  0.7818609E-02  0.8246254E-01
       -2   -1    0    0    0  501  0.00000000000E+00  0.00000000000E+00  0.89936262018E+03  0.89936262018E+03  0.25500000920E-02 0. -1.
        2   -1    0    0  501    0  0.00000000000E+00  0.00000000000E+00 -0.24870829467E+04  0.24870829467E+04  0.25500000920E-02 0.  1.
    10030    2    1    2    0    0  0.00000000000E+00  0.00000000000E+00 -0.15877203265E+04  0.33864455669E+04  0.29911799916E+04 0.  0.
        2    1    3    3  502    0  0.50500874354E+03 -0.11357961391E+04  0.14774228078E+03  0.12517565586E+04  0.25500000920E-02 0.  1.
       -2    1    3    3    0  502 -0.50500874354E+03  0.11357961391E+04 -0.17354626073E+04  0.21346890083E+04  0.25500000920E-02 0. -1.
</event>
<event>
 5   0  0.7208273E-07  0.2995826E+04  0.7818609E-02  0.8244924E-01
       -2   -1    0    0    0  501  0.00000000000E+00  0.00000000000E+00  0.14652130473E+04  0.14652130473E+04  0.25500000920E-02 0. -1.
        2   -1    0    0  501    0  0.00000000000E+00  0.00000000000E+00 -0.15313426005E+04  0.15313426005E+04  0.25500000920E-02 0.  1.
    10030    2    1    2    0    0  0.00000000000E+00  0.00000000000E+00 -0.66129553206E+02  0.29965556478E+04  0.29958258682E+04 0.  0.
        4    1    3    3  502    0 -0.12357996659E+04 -0.22060288140E+03  0.78437055807E+03  0.14802382345E+04  0.12699999809E+01 0. -1.
       -4    1    3    3    0  502  0.12357996659E+04  0.22060288140E+03 -0.85050011127E+03  0.15163174133E+04  0.12699999809E+01 0.  1.
</event>
<event>
 5   0  0.7399409E-07  0.2999126E+04  0.7818609E-02  0.8243980E-01
        2   -1    0    0  501    0  0.00000000000E+00  0.00000000000E+00  0.19277483568E+04  0.19277483568E+04  0.25500000920E-02 0.  1.
       -2   -1    0    0    0  501  0.00000000000E+00  0.00000000000E+00 -0.11664848723E+04  0.11664848723E+04  0.25500000920E-02 0. -1.
    10030    2    1    2    0    0  0.00000000000E+00  0.00000000000E+00  0.76126348454E+03  0.30942332291E+04  0.29991260699E+04 0.  0.
        3    1    3    3  502    0  0.91286386023E+03 -0.10559033274E+04 -0.18487143277E+03  0.14079878270E+04  0.10100000352E+00 0. -1.
       -3    1    3    3    0  502 -0.91286386023E+03  0.10559033274E+04  0.94613491731E+03  0.16862454021E+04  0.10100000352E+00 0.  1.
</event>
<event>
 5   0  0.2621825E-07  0.2999747E+04  0.7818609E-02  0.8243803E-01
       -1   -1    0    0    0  501  0.00000000000E+00  0.00000000000E+00  0.18147402890E+04  0.18147402890E+04  0.50400001928E-02 0.  1.
        1   -1    0    0  501    0  0.00000000000E+00  0.00000000000E+00 -0.12396380299E+04  0.12396380299E+04  0.50400001928E-02 0. -1.
    10030    2    1    2    0    0  0.00000000000E+00  0.00000000000E+00  0.57510225913E+03  0.30543783189E+04  0.29997473738E+04 0.  0.
        3    1    3    3  502    0  0.10096483733E+04 -0.73438692065E+03 -0.55879491310E+03  0.13678325015E+04  0.10100000352E+00 0. -1.
       -3    1    3    3    0  502 -0.10096483733E+04  0.73438692065E+03  0.11338971722E+04  0.16865458175E+04  0.10100000352E+00 0.  1.
</event>
<event>
 5   0  0.7399409E-07  0.2999292E+04  0.7818609E-02  0.8243933E-01
        2   -1    0    0  501    0  0.00000000000E+00  0.00000000000E+00  0.23926426538E+04  0.23926426538E+04  0.25500000920E-02 0.  1.
       -2   -1    0    0    0  501  0.00000000000E+00  0.00000000000E+00 -0.93993875806E+03  0.93993875806E+03  0.25500000920E-02 0. -1.
    10030    2    1    2    0    0  0.00000000000E+00  0.00000000000E+00  0.14527038957E+04  0.33325814118E+04  0.29992916260E+04 0.  0.
        3    1    3    3  502    0 -0.99053406890E+03  0.19313791551E+03 -0.50618208901E+03  0.11290174106E+04  0.10100000352E+00 0. -1.
       -3    1    3    3    0  502  0.99053406890E+03 -0.19313791551E+03  0.19588859847E+04  0.22035640012E+04  0.10100000352E+00 0.  1.
</event>
<event>
 5   0  0.7278657E-07  0.3019514E+04  0.7818609E-02  0.8238180E-01
       -2   -1    0    0    0  501  0.00000000000E+00  0.00000000000E+00  0.14514985091E+04  0.14514985091E+04  0.25500000920E-02 0. -1.
        2   -1    0    0  501    0  0.00000000000E+00  0.00000000000E+00 -0.15703541224E+04  0.15703541224E+04  0.25500000920E-02 0.  1.
    10030    2    1    2    0    0  0.00000000000E+00  0.00000000000E+00 -0.11885561331E+03  0.30218526314E+04  0.30195143102E+04 0.  0.
        2    1    3    3  502    0 -0.45351777828E+03  0.14044394921E+04  0.25899779530E+03  0.14984019888E+04  0.25500000920E-02 0. -1.
       -2    1    3    3    0  502  0.45351777828E+03 -0.14044394921E+04 -0.37785340861E+03  0.15234506426E+04  0.25500000920E-02 0.  1.
</event>
<event>
 5   0  0.2621825E-07  0.2999860E+04  0.7818609E-02  0.8243771E-01
        1   -1    0    0  501    0  0.00000000000E+00  0.00000000000E+00  0.12821104616E+04  0.12821104616E+04  0.50400001928E-02 0.  1.
       -1   -1    0    0    0  501  0.00000000000E+00  0.00000000000E+00 -0.17547549603E+04  0.17547549603E+04  0.50400001928E-02 0. -1.
    10030    2    1    2    0    0  0.00000000000E+00  0.00000000000E+00 -0.47264449866E+03  0.30368654219E+04  0.29998597915E+04 0.  0.
        3    1    3    3  502    0  0.12353109670E+04 -0.28203092529E+02  0.62446150800E+03  0.13844640785E+04  0.10100000352E+00 0.  1.
       -3    1    3    3    0  502 -0.12353109670E+04  0.28203092529E+02 -0.10971060067E+04  0.16524013434E+04  0.10100000352E+00 0. -1.
</event>
<event>
 5   0  0.7585823E-07  0.2994720E+04  0.7818609E-02  0.8245240E-01
        2   -1    0    0  501    0  0.00000000000E+00  0.00000000000E+00  0.17879471890E+04  0.17879471890E+04  0.25500000920E-02 0.  1.
       -2   -1    0    0    0  501  0.00000000000E+00  0.00000000000E+00 -0.12540010481E+04  0.12540010481E+04  0.25500000920E-02 0. -1.
    10030    2    1    2    0    0  0.00000000000E+00  0.00000000000E+00  0.53394614084E+03  0.30419482371E+04  0.29947204537E+04 0.  0.
        5    1    3    3  502    0 -0.66913540159E+03 -0.49747462925E+02 -0.10927365873E+04  0.12823074261E+04  0.46999998093E+01 0. -1.
       -5    1    3    3    0  502  0.66913540159E+03  0.49747462925E+02  0.16266827281E+04  0.17596408110E+04  0.46999998093E+01 0.  1.
</event>
<event>
 5   0  0.2414250E-07  0.2998297E+04  0.7818609E-02  0.8244217E-01
        3   -1    0    0  501    0  0.00000000000E+00  0.00000000000E+00  0.14538821255E+04  0.14538821290E+04  0.10100000352E+00 0. -1.
       -3   -1    0    0    0  501  0.00000000000E+00  0.00000000000E+00 -0.15458238621E+04  0.15458238654E+04  0.10100000352E+00 0.  1.
    10030    2    1    2    0    0  0.00000000000E+00  0.00000000000E+00 -0.91941736626E+02  0.29997059944E+04  0.29982966448E+04 0.  0.
        4    1    3    3  502    0  0.78472183852E+03 -0.19679957604E+03  0.12167339683E+04  0.14611507792E+04  0.12699999809E+01 0. -1.
       -4    1    3    3    0  502 -0.78472183852E+03  0.19679957604E+03 -0.13086757049E+04  0.15385552153E+04  0.12699999809E+01 0.  1.
</event>
<event>
 5   0  0.7585823E-07  0.3004245E+04  0.7818609E-02  0.8242520E-01
        2   -1    0    0  501    0  0.00000000000E+00  0.00000000000E+00  0.18602822822E+04  0.18602822822E+04  0.25500000920E-02 0.  1.
       -2   -1    0    0    0  501  0.00000000000E+00  0.00000000000E+00 -0.12129190263E+04  0.12129190263E+04  0.25500000920E-02 0. -1.
    10030    2    1    2    0    0  0.00000000000E+00  0.00000000000E+00  0.64736325586E+03  0.30732013085E+04  0.30042448465E+04 0.  0.
        5    1    3    3  502    0  0.10627534494E+04 -0.85942563690E+03  0.96111545985E+03  0.16708747220E+04  0.46999998093E+01 0.  1.
       -5    1    3    3    0  502 -0.10627534494E+04  0.85942563690E+03 -0.31375220399E+03  0.14023265865E+04  0.46999998093E+01 0. -1.
</event>
<event>
 5   0  0.7307508E-07  0.2998902E+04  0.7818609E-02  0.8244044E-01
       -2   -1    0    0    0  501  0.00000000000E+00  0.00000000000E+00  0.12890005377E+04  0.12890005377E+04  0.25500000920E-02 0.  1.
        2   -1    0    0  501    0  0.00000000000E+00  0.00000000000E+00 -0.17442614984E+04  0.17442614984E+04  0.25500000920E-02 0. -1.
    10030    2    1    2    0    0  0.00000000000E+00  0.00000000000E+00 -0.45526096069E+03  0.30332620361E+04  0.29989024721E+04 0.  0.
        1    1    3    3  502    0  0.42239578936E+03 -0.14307365373E+04 -0.38078786413E+03  0.15396183422E+04  0.50400001928E-02 0. -1.
       -1    1    3    3    0  502 -0.42239578936E+03  0.14307365373E+04 -0.74473096559E+02  0.14936436939E+04  0.50400001928E-02 0.  1.
</event>
<event>
 5   0  0.7208273E-07  0.2999255E+04  0.7818609E-02  0.8243944E-01
       -2   -1    0    0    0  501  0.00000000000E+00  0.00000000000E+00  0.12300815211E+04  0.12300815211E+04  0.25500000920E-02 0. -1.
        2   -1    0    0  501    0  0.00000000000E+00  0.00000000000E+00 -0.18282381247E+04  0.18282381248E+04  0.25500000920E-02 0.  1.
    10030    2    1    2    0    0  0.00000000000E+00  0.00000000000E+00 -0.59815660366E+03  0.30583196458E+04  0.29992545297E+04 0.  0.
        4    1    3    3  502    0 -0.79550686809E+03 -0.11546956577E+04 -0.84127049011E+03  0.16352036233E+04  0.12699999809E+01 0. -1.
       -4    1    3    3    0  502  0.79550686809E+03  0.11546956577E+04  0.24311388645E+03  0.14231160226E+04  0.12699999809E+01 0.  1.
</event>
<event>
 5   0  0.2621825E-07  0.3000746E+04  0.7818609E-02  0.8243518E-01
        1   -1    0    0  501    0  0.00000000000E+00  0.00000000000E+00  0.23418952766E+04  0.23418952766E+04  0.50400001928E-02 0.  1.
       -1   -1    0    0    0  501  0.00000000000E+00  0.00000000000E+00 -0.96123821181E+03  0.96123821182E+03  0.50400001928E-02 0. -1.
    10030    2    1    2    0    0  0.00000000000E+00  0.00000000000E+00  0.13806570648E+04  0.33031334885E+04  0.30007460592E+04 0.  0.
        3    1    3    3  502    0  0.11260777474E+04 -0.67022391430E+03 -0.11396363176E+03  0.13153854598E+04  0.10100000352E+00 0. -1.
       -3    1    3    3    0  502 -0.11260777474E+04  0.67022391430E+03  0.14946206966E+04  0.19877480286E+04  0.10100000352E+00 0.  1.
</event>
<event>
 5   0  0.2792361E-07  0.3002649E+04  0.7818609E-02  0.8242975E-01
        1   -1    0    0  501    0  0.00000000000E+00  0.00000000000E+00  0.19395137025E+04  0.19395137025E+04  0.50400001928E-02 0.  1.
       -1   -1    0    0    0  501  0.00000000000E+00  0.00000000000E+00 -0.11621341426E+04  0.11621341426E+04  0.50400001928E-02 0. -1.
    10030    2    1    2    0    0  0.00000000000E+00  0.00000000000E+00  0.77737955989E+03  0.31016478450E+04  0.30026488930E+04 0.  0.
        4    1    3    3  502    0 -0.14719596859E+04 -0.36483171163E+02  0.85803614143E+02  0.14749102386E+04  0.12699999809E+01 0. -1.
       -4    1    3    3    0  502  0.14719596859E+04  0.36483171163E+02  0.69157594575E+03  0.16267376065E+04  0.12699999809E+01 0.  1.
</event>
<event>
 5   0  0.7307508E-07  0.2998449E+04  0.7818609E-02  0.8244174E-01
        2   -1    0    0  501    0  0.00000000000E+00  0.00000000000E+00  0.18464144432E+04  0.18464144432E+04  0.25500000920E-02 0. -1.
       -2   -1    0    0    0  501  0.00000000000E+00  0.00000000000E+00 -0.12173179929E+04  0.12173179929E+04  0.25500000920E-02 0.  1.
    10030    2    1    2    0    0  0.00000000000E+00  0.00000000000E+00  0.62909645038E+03  0.30637324361E+04  0.29984486149E+04 0.  0.
        1    1    3    3  502    0  0.11919295614E+04 -0.45504995216E+03 -0.48993591933E+03  0.13666761663E+04  0.50400001928E-02 0.  1.
       -1    1    3    3    0  502 -0.11919295614E+04  0.45504995216E+03  0.11190323697E+04  0.16970562698E+04  0.50400001928E-02 0. -1.
</event>
<event>
 5   0  0.2640081E-07  0.3000604E+04  0.7818609E-02  0.8243558E-01
        1   -1    0    0  501    0  0.00000000000E+00  0.00000000000E+00  0.17639872829E+04  0.17639872829E+04  0.50400001928E-02 0. -1.
       -1   -1    0    0    0  501  0.00000000000E+00  0.00000000000E+00 -0.12760333774E+04  0.12760333774E+04  0.50400001928E-02 0.  1.
    10030    2    1    2    0    0  0.00000000000E+00  0.00000000000E+00  0.48795390554E+03  0.30400206603E+04  0.30006043726E+04 0.  0.
        1    1    3    3  502    0 -0.55525003115E+01 -0.34146513212E+03 -0.12361304422E+04  0.12824382000E+04  0.50400001928E-02 0.  1.
       -1    1    3    3    0  502  0.55525003115E+01  0.34146513212E+03  0.17240843477E+04  0.17575824603E+04  0.50400001928E-02 0. -1.
</event>
<event>
 5   0  0.7208273E-07  0.3000727E+04  0.7818609E-02  0.8243523E-01
       -2   -1    0    0    0  501  0.00000000000E+00  0.00000000000E+00  0.84271593780E+03  0.84271593780E+03  0.25500000920E-02 0. -1.
        2   -1    0    0  501    0  0.00000000000E+00  0.00000000000E+00 -0.26712330115E+04  0.26712330115E+04  0.25500000920E-02 0.  1.
    10030    2    1    2    0    0  0.00000000000E+00  0.00000000000E+00 -0.18285170737E+04  0.35139489493E+04  0.30007270002E+04 0.  0.
        4    1    3    3  502    0 -0.95053976819E+03 -0.83676938710E+03  0.27953515024E+02  0.12666853871E+04  0.12699999809E+01 0. -1.
       -4    1    3    3    0  502  0.95053976819E+03  0.83676938710E+03 -0.18564705887E+04  0.22472635622E+04  0.12699999809E+01 0.  1.
</event>
<event>
 5   0  0.7585823E-07  0.2998243E+04  0.7818609E-02  0.8244233E-01
       -2   -1    0    0    0  501  0.00000000000E+00  0.00000000000E+00  0.82706261133E+03  0.82706261134E+03  0.25500000920E-02 0. -1.
        2   -1    0    0  501    0  0.00000000000E+00  0.00000000000E+00 -0.27172861924E+04  0.27172861924E+04  0.25500000920E-02 0.  1.
    10030    2    1    2    0    0  0.00000000000E+00  0.00000000000E+00 -0.18902235810E+04  0.35443488037E+04  0.29982433617E+04 0.  0.
        5    1    3    3  502    0  0.59616038758E+03  0.13657224072E+03  0.67286187391E+03  0.90929883758E+03  0.46999998093E+01 0. -1.
       -5    1    3    3    0  502 -0.59616038758E+03 -0.13657224072E+03 -0.25630854549E+04  0.26350499661E+04  0.46999998093E+01 0.  1.
</event>
<event>
 5   0  0.7585823E-07  0.3012089E+04  0.7818609E-02  0.8240287E-01
       -2   -1    0    0    0  501  0.00000000000E+00  0.00000000000E+00  0.11612224112E+04  0.11612224112E+04  0.25500000920E-02 0. -1.
        2   -1    0    0  501    0  0.00000000000E+00  0.00000000000E+00 -0.19532608060E+04  0.19532608060E+04  0.25500000920E-02 0.  1.
    10030    2    1    2    0    0  0.00000000000E+00  0.00000000000E+00 -0.79203839477E+03  0.31144832172E+04  0.30120891241E+04 0.  0.
        5    1    3    3  502    0 -0.12360592869E+04 -0.64314531807E+03 -0.98699892734E+03  0.17075325571E+04  0.46999998093E+01 0.  1.
       -5    1    3    3    0  502  0.12360592869E+04  0.64314531807E+03  0.19496053257E+03  0.14069506602E+04  0.46999998093E+01 0. -1.
</event>
<event>
 5   0  0.2792361E-07  0.2985811E+04  0.7818609E-02  0.8247794E-01
       -1   -1    0    0    0  501  0.00000000000E+00  0.00000000000E+00  0.83116656525E+03  0.83116656527E+03  0.50400001928E-02 0.  1.
        1   -1    0    0  501    0  0.00000000000E+00  0.00000000000E+00 -0.26814921524E+04  0.26814921524E+04  0.50400001928E-02 0. -1.
    10030    2    1    2    0    0  0.00000000000E+00  0.00000000000E+00 -0.18503255872E+04  0.35126587177E+04  0.29858108595E+04 0.  0.
        4    1    3    3  502    0 -0.13302986847E+04 -0.14515460235E+03 -0.17037566929E+04  0.21664609229E+04  0.12699999809E+01 0. -1.
       -4    1    3    3    0  502  0.13302986847E+04  0.14515460235E+03 -0.14656889424E+03  0.13461977948E+04  0.12699999809E+01 0.  1.
</event>
<event>
 5   0  0.2792361E-07  0.3009975E+04  0.7818609E-02  0.8240888E-01
        1   -1    0    0  501    0  0.00000000000E+00  0.00000000000E+00  0.15624711086E+04  0.15624711087E+04  0.50400001928E-02 0.  1.
       -1   -1    0    0    0  501  0.00000000000E+00  0.00000000000E+00 -0.14496185276E+04  0.14496185276E+04  0.50400001928E-02 0. -1.
    10030    2    1    2    0    0  0.00000000000E+00  0.00000000000E+00  0.11285258105E+03  0.30120896363E+04  0.30099747959E+04 0.  0.
        4    1    3    3  502    0  0.43567458985E+03  0.37897995274E+03 -0.13343513722E+04  0.14539371893E+04  0.12699999809E+01 0. -1.
       -4    1    3    3    0  502 -0.43567458985E+03 -0.37897995274E+03  0.14472039533E+04  0.15581524470E+04  0.12699999809E+01 0.  1.
</event>
<event>
 5   0  0.2640081E-07  0.3002393E+04  0.7818609E-02  0.8243048E-01
        1   -1    0    0  501    0  0.00000000000E+00  0.00000000000E+00  0.13706061633E+04  0.13706061633E+04  0.50400001928E-02 0.  1.
       -1   -1    0    0    0  501  0.00000000000E+00  0.00000000000E+00 -0.16442289704E+04  0.16442289704E+04  0.50400001928E-02 0. -1.
    10030    2    1    2    0    0  0.00000000000E+00  0.00000000000E+00 -0.27362280714E+03  0.30148351337E+04  0.30023926197E+04 0.  0.
        1    1    3    3  502    0  0.15254432094E+03 -0.13153053271E+04 -0.84705622279E+03  0.15718785316E+04  0.50400001928E-02 0. -1.
       -1    1    3    3    0  502 -0.15254432094E+03  0.13153053271E+04  0.57343341564E+03  0.14429566021E+04  0.50400001928E-02 0.  1.
</event>
<event>
 5   0  0.7585823E-07  0.2996015E+04  0.7818609E-02  0.8244870E-01
       -2   -1    0    0    0  501  0.00000000000E+00  0.00000000000E+00  0.10361542823E+04  0.10361542823E+04  0.25500000920E-02 0. -1.
        2   -1    0    0  501    0  0.00000000000E+00  0.00000000000E+00 -0.21657259375E+04  0.21657259375E+04  0.25500000920E-02 0.  1.
    10030    2    1    2    0    0  0.00000000000E+00  0.00000000000E+00 -0.11295716552E+04  0.32018802198E+04  0.29960148227E+04 0.  0.
        5    1    3    3  502    0  0.55877470857E+03  0.12397972056E+04 -0.12361876080E+04  0.18377998199E+04  0.46999998093E+01 0. -1.
       -5    1    3    3    0  502 -0.55877470857E+03 -0.12397972056E+04  0.10661595277E+03  0.13640803999E+04  0.46999998093E+01 0.  1.
</event>
<event>
 5   0  0.7208273E-07  0.3001270E+04  0.7818609E-02  0.8243368E-01
       -2   -1    0    0    0  501  0.00000000000E+00  0.00000000000E+00  0.10355945689E+04  0.10355945689E+04  0.25500000920E-02 0.  1.
        2   -1    0    0  501    0  0.00000000000E+00  0.00000000000E+00 -0.21745044860E+04  0.21745044860E+04  0.25500000920E-02 0. -1.
    10030    2    1    2    0    0  0.00000000000E+00  0.00000000000E+00 -0.11389099171E+04  0.32100990550E+04  0.30012697552E+04 0.  0.
        4    1    3    3  502    0 -0.56884971377E+03 -0.52462285500E+02 -0.20536536961E+04  0.21316278767E+04  0.12699999809E+01 0. -1.
       -4    1    3    3    0  502  0.56884971377E+03  0.52462285500E+02  0.91474377901E+03  0.10784711783E+04  0.12699999809E+01 0.  1.
</event>
<event>
 5   0  0.7307508E-07  0.3014556E+04  0.7818609E-02  0.8239587E-01
       -2   -1    0    0    0  501  0.00000000000E+00  0.00000000000E+00  0.14452023135E+04  0.14452023135E+04  0.25500000920E-02 0.  1.
        2   -1    0    0  501    0  0.00000000000E+00  0.00000000000E+00 -0.15720195514E+04  0.15720195514E+04  0.25500000920E-02 0. -1.
    10030    2    1    2    0    0  0.00000000000E+00  0.00000000000E+00 -0.12681723788E+03  0.30172218650E+04  0.30145555511E+04 0.  0.
        1    1    3    3  502    0 -0.12430165220E+04  0.67530964605E+03 -0.58420825770E+03  0.15305007287E+04  0.50400001928E-02 0. -1.
       -1    1    3    3    0  502  0.12430165220E+04 -0.67530964605E+03  0.45739101981E+03  0.14867211363E+04  0.50400001928E-02 0.  1.
</event>
<event>
 5   0  0.7307508E-07  0.2990532E+04  0.7818609E-02  0.8246440E-01
       -2   -1    0    0    0  501  0.00000000000E+00  0.00000000000E+00  0.15012304326E+04  0.15012304326E+04  0.25500000920E-02 0.  1.
        2   -1    0    0  501    0  0.00000000000E+00  0.00000000000E+00 -0.14893256524E+04  0.14893256524E+04  0.25500000920E-02 0. -1.
    10030    2    1    2    0    0  0.00000000000E+00  0.00000000000E+00  0.11904780160E+02  0.29905560850E+04  0.29905323896E+04 0.  0.
        1    1    3    3  502    0 -0.16944844427E+03  0.14821484281E+04  0.10765990712E+03  0.14956829189E+04  0.50400001928E-02 0. -1.
       -1    1    3    3    0  502  0.16944844427E+03 -0.14821484281E+04 -0.95755126956E+02  0.14948731661E+04  0.50400001928E-02 0.  1.
</event>
<event>
 5   0  0.2679935E-07  0.2994640E+04  0.7818609E-02  0.8245263E-01
        1   -1    0    0  501    0  0.00000000000E+00  0.00000000000E+00  0.18509943535E+04  0.18509943535E+04  0.50400001928E-02 0.  1.
       -1   -1    0    0    0  501  0.00000000000E+00  0.00000000000E+00 -0.12112234707E+04  0.12112234707E+04  0.50400001928E-02 0. -1.
    10030    2    1    2    0    0  0.00000000000E+00  0.00000000000E+00  0.63977088283E+03  0.30622178242E+04  0.29946404159E+04 0.  0.
        2    1    3    3  502    0  0.59870560593E+03 -0.13704275540E+04  0.24441118227E+03  0.15153405259E+04  0.25500000920E-02 0. -1.
       -2    1    3    3    0  502 -0.59870560593E+03  0.13704275540E+04  0.39535970056E+03  0.15468772984E+04  0.25500000920E-02 0.  1.
</event>
<event>
 5   0  0.2602891E-07  0.3000391E+04  0.7818609E-02  0.8243619E-01
       -1   -1    0    0    0  501  0.00000000000E+00  0.00000000000E+00  0.13150030757E+04  0.13150030758E+04  0.50400001928E-02 0. -1.
        1   -1    0    0  501    0  0.00000000000E+00  0.00000000000E+00 -0.17114682181E+04  0.17114682181E+04  0.50400001928E-02 0.  1.
    10030    2    1    2    0    0  0.00000000000E+00  0.00000000000E+00 -0.39646514233E+03  0.30264712938E+04  0.30003906218E+04 0.  0.
        5    1    3    3  502    0  0.93597853498E+03  0.48952793857E+03  0.87633048563E+03  0.13724688086E+04  0.46999998093E+01 0. -1.
       -5    1    3    3    0  502 -0.93597853498E+03 -0.48952793857E+03 -0.12727956280E+04  0.16540024852E+04  0.46999998093E+01 0.  1.
</event>
<event>
 5   0  0.7585823E-07  0.3001323E+04  0.7818609E-02  0.8243353E-01
        2   -1    0    0  501    0  0.00000000000E+00  0.00000000000E+00  0.16530565779E+04  0.16530565779E+04  0.25500000920E-02 0.  1.
       -2   -1    0    0    0  501  0.00000000000E+00  0.00000000000E+00 -0.13623153758E+04  0.13623153758E+04  0.25500000920E-02 0. -1.
    10030    2    1    2    0    0  0.00000000000E+00  0.00000000000E+00  0.29074120204E+03  0.30153719537E+04  0.30013226372E+04 0.  0.
        5    1    3    3  502    0 -0.16327227145E+03 -0.97841943794E+03  0.12766967154E+04  0.16167680800E+04  0.46999998093E+01 0.  1.
       -5    1    3    3    0  502  0.16327227145E+03  0.97841943794E+03 -0.98595551340E+03  0.13986038737E+04  0.46999998093E+01 0. -1.
</event>
<event>
 5   0  0.2792361E-07  0.2986265E+04  0.7818609E-02  0.8247664E-01
       -1   -1    0    0    0  501  0.00000000000E+00  0.00000000000E+00  0.13056930076E+04  0.13056930076E+04  0.50400001928E-02 0.  1.
        1   -1    0    0  501    0  0.00000000000E+00  0.00000000000E+00 -0.17074799371E+04  0.17074799371E+04  0.50400001928E-02 0. -1.
    10030    2    1    2    0    0  0.00000000000E+00  0.00000000000E+00 -0.40178692953E+03  0.30131729447E+04  0.29862649678E+04 0.  0.
        4    1    3    3  502    0 -0.79297173687E+03 -0.12613097786E+04 -0.30045611609E+03  0.15198625016E+04  0.12699999809E+01 0. -1.
       -4    1    3    3    0  502  0.79297173687E+03  0.12613097786E+04 -0.10133081343E+03  0.14933104432E+04  0.12699999809E+01 0.  1.
</event>
<event>
 5   0  0.7278657E-07  0.3000058E+04  0.7818609E-02  0.8243714E-01
       -2   -1    0    0    0  501  0.00000000000E+00  0.00000000000E+00  0.30895830791E+04  0.30895830791E+04  0.25500000920E-02 0.  1.
        2   -1    0    0  501    0  0.00000000000E+00  0.00000000000E+00 -0.72828169905E+03  0.72828169906E+03  0.25500000920E-02 0. -1.
    10030    2    1    2    0    0  0.00000000000E+00  0.00000000000E+00  0.23613013800E+04  0.38178647781E+04  0.30000578756E+04 0.  0.
        2    1    3    3  502    0 -0.21584837065E+03 -0.69787639271E+03  0.28479300150E+04  0.29401236962E+04  0.25500000920E-02 0.  1.
       -2    1    3    3    0  502  0.21584837065E+03  0.69787639271E+03 -0.48662863495E+03  0.87774108196E+03  0.25500000920E-02 0. -1.
</event>
<event>
 5   0  0.2640081E-07  0.2977742E+04  0.7818609E-02  0.8250115E-01
        1   -1    0    0  501    0  0.00000000000E+00  0.00000000000E+00  0.17129651677E+04  0.17129651677E+04  0.50400001928E-02 0.  1.
       -1   -1    0    0    0  501  0.00000000000E+00  0.00000000000E+00 -0.12940935004E+04  0.12940935004E+04  0.50400001928E-02 0. -1.
    10030    2    1    2    0    0  0.00000000000E+00  0.00000000000E+00  0.41887166727E+03  0.30070586682E+04  0.29777421581E+04 0.  0.
        1    1    3    3  502    0  0.48548823899E+03  0.12064977150E+04  0.94141795849E+03  0.16054916191E+04  0.50400001928E-02 0.  1.
       -1    1    3    3    0  502 -0.48548823899E+03 -0.12064977150E+04 -0.52254629122E+03  0.14015670490E+04  0.50400001928E-02 0. -1.
</event>
<event>
 5   0  0.7399409E-07  0.3000710E+04  0.7818609E-02  0.8243528E-01
       -2   -1    0    0    0  501  0.00000000000E+00  0.00000000000E+00  0.11636986493E+04  0.11636986493E+04  0.25500000920E-02 0.  1.
        2   -1    0    0  501    0  0.00000000000E+00  0.00000000000E+00 -0.19344053418E+04  0.19344053418E+04  0.25500000920E-02 0. -1.
    10030    2    1    2    0    0  0.00000000000E+00  0.00000000000E+00 -0.77070669247E+03  0.30981039911E+04  0.30007098383E+04 0.  0.
        3    1    3    3  502    0  0.13817354690E+04  0.58367542644E+03 -0.34966311720E+03  0.15401734368E+04  0.10100000352E+00 0. -1.
       -3    1    3    3    0  502 -0.13817354690E+04 -0.58367542644E+03 -0.42104357528E+03  0.15579305543E+04  0.10100000352E+00 0.  1.
</event>
<event>
 5   0  0.7585823E-07  0.2999269E+04  0.7818609E-02  0.8243940E-01
        2   -1    0    0  501    0  0.00000000000E+00  0.00000000000E+00  0.23804953003E+04  0.23804953003E+04  0.25500000920E-02 0. -1.
       -2   -1    0    0    0  501  0.00000000000E+00  0.00000000000E+00 -0.94472079935E+03  0.94472079936E+03  0.25500000920E-02 0.  1.
    10030    2    1    2    0    0  0.00000000000E+00  0.00000000000E+00  0.14357745009E+04  0.33252160996E+04  0.29992688595E+04 0.  0.
        5    1    3    3  502    0 -0.70415800579E+03  0.84988240009E+03 -0.40770117567E+03  0.11765971824E+04  0.46999998093E+01 0.  1.
       -5    1    3    3    0  502  0.70415800579E+03 -0.84988240009E+03  0.18434756766E+04  0.21486189172E+04  0.46999998093E+01 0. -1.
</event>
<event>
 5   0  0.2640081E-07  0.2998412E+04  0.7818609E-02  0.8244184E-01
        1   -1    0    0  501    0  0.00000000000E+00  0.00000000000E+00  0.11795526430E+04  0.11795526430E+04  0.50400001928E-02 0. -1.
       -1   -1    0    0    0  501  0.00000000000E+00  0.00000000000E+00 -0.19054839151E+04  0.19054839151E+04  0.50400001928E-02 0.  1.
    10030    2    1    2    0    0  0.00000000000E+00  0.00000000000E+00 -0.72593127212E+03  0.30850365581E+04  0.29984119719E+04 0.  0.
        1    1    3    3  502    0  0.42118050960E+03 -0.13077306047E+04 -0.98035651434E+03  0.16877947895E+04  0.50400001928E-02 0.  1.
       -1    1    3    3    0  502 -0.42118050960E+03  0.13077306047E+04  0.25442524221E+03  0.13972417686E+04  0.50400001928E-02 0. -1.
</event>
<event>
 5   0  0.2792361E-07  0.3008482E+04  0.7818609E-02  0.8241313E-01
        1   -1    0    0  501    0  0.00000000000E+00  0.00000000000E+00  0.14980929073E+04  0.14980929073E+04  0.50400001928E-02 0.  1.
       -1   -1    0    0    0  501  0.00000000000E+00  0.00000000000E+00 -0.15104146093E+04  0.15104146093E+04  0.50400001928E-02 0. -1.
    10030    2    1    2    0    0  0.00000000000E+00  0.00000000000E+00 -0.12321702003E+02  0.30085075166E+04  0.30084822840E+04 0.  0.
        4    1    3    3  502    0  0.36808771912E+03  0.11427435388E+04  0.90015157534E+03  0.15005418475E+04  0.12699999809E+01 0.  1.
       -4    1    3    3    0  502 -0.36808771912E+03 -0.11427435388E+04 -0.91247327734E+03  0.15079656691E+04  0.12699999809E+01 0. -1.
</event>
<event>
 5   0  0.2414250E-07  0.3005609E+04  0.7818609E-02  0.8242131E-01
        3   -1    0    0  501    0  0.00000000000E+00  0.00000000000E+00  0.23965611701E+04  0.23965611722E+04  0.10100000352E+00 0.  1.
       -3   -1    0    0    0  501  0.00000000000E+00  0.00000000000E+00 -0.94235894823E+03  0.94235895364E+03  0.10100000352E+00 0. -1.
    10030    2    1    2    0    0  0.00000000000E+00  0.00000000000E+00  0.14542022219E+04  0.33389201259E+04  0.30056086746E+04 0.  0.
        4    1    3    3  502    0  0.36776292890E+03 -0.44719533086E+03 -0.81347884104E+03  0.99849019702E+03  0.12699999809E+01 0. -1.
       -4    1    3    3    0  502 -0.36776292890E+03  0.44719533086E+03  0.22676810629E+04  0.23404299288E+04  0.12699999809E+01 0.  1.
</event>
<event>
 5   0  0.2602891E-07  0.2999154E+04  0.7818609E-02  0.8243973E-01
        1   -1    0    0  501    0  0.00000000000E+00  0.00000000000E+00  0.19374672334E+04  0.19374672334E+04  0.50400001928E-02 0.  1.
       -1   -1    0    0    0  501  0.00000000000E+00  0.00000000000E+00 -0.11606549589E+04  0.11606549589E+04  0.50400001928E-02 0. -1.
    10030    2    1    2    0    0  0.00000000000E+00  0.00000000000E+00  0.77681227449E+03  0.30981221923E+04  0.29991538488E+04 0.  0.
        5    1    3    3  502    0 -0.17841757187E+03  0.31133637445E+03  0.18924557637E+04  0.19261812156E+04  0.46999998093E+01 0.  1.
       -5    1    3    3    0  502  0.17841757187E+03 -0.31133637445E+03 -0.11156434892E+04  0.11719409767E+04  0.46999998093E+01 0. -1.
</event>
<event>
 5   0  0.7585823E-07  0.2993295E+04  0.7818609E-02  0.8245648E-01
       -2   -1    0    0    0  501  0.00000000000E+00  0.00000000000E+00  0.99449274124E+03  0.99449274124E+03  0.25500000920E-02 0.  1.
        2   -1    0    0  501    0  0.00000000000E+00  0.00000000000E+00 -0.22523579524E+04  0.22523579524E+04  0.25500000920E-02 0. -1.
    10030    2    1    2    0    0  0.00000000000E+00  0.00000000000E+00 -0.12578652111E+04  0.32468506936E+04  0.29932949299E+04 0.  0.
        5    1    3    3  502    0  0.95783902319E+03 -0.43348485813E+03  0.52645538432E+03  0.11758154950E+04  0.46999998093E+01 0.  1.
       -5    1    3    3    0  502 -0.95783902319E+03  0.43348485813E+03 -0.17843205954E+04  0.20710351986E+04  0.46999998093E+01 0. -1.
</event>
<event>
 5   0  0.7585823E-07  0.3006296E+04  0.7818609E-02  0.8241935E-01
        2   -1    0    0  501    0  0.00000000000E+00  0.00000000000E+00  0.21889610240E+04  0.21889610240E+04  0.25500000920E-02 0.  1.
       -2   -1    0    0    0  501  0.00000000000E+00  0.00000000000E+00 -0.10322038385E+04  0.10322038385E+04  0.25500000920E-02 0. -1.
    10030    2    1    2    0    0  0.00000000000E+00  0.00000000000E+00  0.11567571855E+04  0.32211648625E+04  0.30062960409E+04 0.  0.
        5    1    3    3  502    0  0.27929209440E+02  0.77639905317E+03 -0.80039366743E+03  0.11154495252E+04  0.46999998093E+01 0. -1.
       -5    1    3    3    0  502 -0.27929209440E+02 -0.77639905317E+03  0.19571508530E+04  0.21057153373E+04  0.46999998093E+01 0.  1.
</event>
<event>
 5   0  0.7399409E-07  0.3002082E+04  0.7818609E-02  0.8243137E-01
        2   -1    0    0  501    0  0.00000000000E+00  0.00000000000E+00  0.12588291256E+04  0.12588291256E+04  0.25500000920E-02 0. -1.
       -2   -1    0    0    0  501  0.00000000000E+00  0.00000000000E+00 -0.17898571444E+04  0.17898571444E+04  0.25500000920E-02 0.  1.
    10030    2    1    2    0    0  0.00000000000E+00  0.00000000000E+00 -0.53102801877E+03  0.30486862700E+04  0.30020821468E+04 0.  0.
        3    1    3    3  502    0  0.68518767485E+03 -0.45377769522E+03 -0.15410896657E+04  0.17465261849E+04  0.10100000352E+00 0.  1.
       -3    1    3    3    0  502 -0.68518767485E+03  0.45377769522E+03  0.10100616470E+04  0.13021600851E+04  0.10100000352E+00 0. -1.
</event>
<event>
 5   0  0.7585823E-07  0.3030447E+04  0.7818609E-02  0.8235089E-01
       -2   -1    0    0    0  501  0.00000000000E+00  0.00000000000E+00  0.96030571234E+03  0.96030571235E+03  0.25500000920E-02 0.  1.
        2   -1    0    0  501    0  0.00000000000E+00  0.00000000000E+00 -0.23908042316E+04  0.23908042316E+04  0.25500000920E-02 0. -1.
    10030    2    1    2    0    0  0.00000000000E+00  0.00000000000E+00 -0.14304985192E+04  0.33511099439E+04  0.30304474658E+04 0.  0.
        5    1    3    3  502    0 -0.78680950520E+03  0.36432233952E+02 -0.21466199056E+04  0.22865685238E+04  0.46999998093E+01 0. -1.
       -5    1    3    3    0  502  0.78680950520E+03 -0.36432233952E+02  0.71612138634E+03  0.10645414201E+04  0.46999998093E+01 0.  1.
</event>
<event>
 5   0  0.2679935E-07  0.2997479E+04  0.7818609E-02  0.8244451E-01
       -1   -1    0    0    0  501  0.00000000000E+00  0.00000000000E+00  0.16966817043E+04  0.16966817043E+04  0.50400001928E-02 0.  1.
        1   -1    0    0  501    0  0.00000000000E+00  0.00000000000E+00 -0.13238900390E+04  0.13238900390E+04  0.50400001928E-02 0. -1.
    10030    2    1    2    0    0  0.00000000000E+00  0.00000000000E+00  0.37279166531E+03  0.30205717433E+04  0.29974789459E+04 0.  0.
        2    1    3    3  502    0  0.14258935344E+03 -0.29504178252E+03 -0.12873480785E+04  0.13283999595E+04  0.25500000920E-02 0. -1.
       -2    1    3    3    0  502 -0.14258935344E+03  0.29504178252E+03  0.16601397438E+04  0.16921717839E+04  0.25500000920E-02 0.  1.
</event>
<event>
 5   0  0.7399409E-07  0.2997927E+04  0.7818609E-02  0.8244323E-01
       -2   -1    0    0    0  501  0.00000000000E+00  0.00000000000E+00  0.11745689033E+04  0.11745689033E+04  0.25500000920E-02 0. -1.
        2   -1    0    0  501    0  0.00000000000E+00  0.00000000000E+00 -0.19129504681E+04  0.19129504681E+04  0.25500000920E-02 0.  1.
    10030    2    1    2    0    0  0.00000000000E+00  0.00000000000E+00 -0.73838156485E+03  0.30875193714E+04  0.29979273730E+04 0.  0.
        3    1    3    3  502    0 -0.38794535199E+03 -0.62599834175E+03  0.97539712629E+03  0.12222009181E+04  0.10100000352E+00 0. -1.
       -3    1    3    3    0  502  0.38794535199E+03  0.62599834175E+03 -0.17137786911E+04  0.18653184534E+04  0.10100000352E+00 0.  1.
</event>
<event>
 5   0  0.7278657E-07  0.3001951E+04  0.7818609E-02  0.8243174E-01
       -2   -1    0    0    0  501  0.00000000000E+00  0.00000000000E+00  0.19699974544E+04  0.19699974544E+04  0.25500000920E-02 0.  1.
        2   -1    0    0  501    0  0.00000000000E+00  0.00000000000E+00 -0.11436191114E+04  0.11436191114E+04  0.25500000920E-02 0. -1.
    10030    2    1    2    0    0  0.00000000000E+00  0.00000000000E+00  0.82637834305E+03  0.31136165658E+04  0.30019505247E+04 0.  0.
        2    1    3    3  502    0 -0.28145954693E+03 -0.73583182308E+03 -0.91193356864E+03  0.12051102780E+04  0.25500000920E-02 0. -1.
       -2    1    3    3    0  502  0.28145954693E+03  0.73583182308E+03  0.17383119117E+04  0.19085062878E+04  0.25500000920E-02 0.  1.
</event>
<event>
 5   0  0.7399409E-07  0.2992761E+04  0.7818609E-02  0.8245801E-01
        2   -1    0    0  501    0  0.00000000000E+00  0.00000000000E+00  0.12828162948E+04  0.12828162948E+04  0.25500000920E-02 0.  1.
       -2   -1    0    0    0  501  0.00000000000E+00  0.00000000000E+00 -0.17454985842E+04  0.17454985842E+04  0.25500000920E-02 0. -1.
    10030    2    1    2    0    0  0.00000000000E+00  0.00000000000E+00 -0.46268228941E+03  0.30283148789E+04  0.29927606160E+04 0.  0.
        3    1    3    3  502    0  0.12904656780E+04 -0.69692737278E+03 -0.53175978337E+03  0.15600570203E+04  0.10100000352E+00 0. -1.
       -3    1    3    3    0  502 -0.12904656780E+04  0.69692737278E+03  0.69077493959E+02  0.14682578586E+04  0.10100000352E+00 0.  1.
</event>
<event>
 5   0  0.2679935E-07  0.3001992E+04  0.7818609E-02  0.8243162E-01
       -1   -1    0    0    0  501  0.00000000000E+00  0.00000000000E+00  0.81994053072E+03  0.81994053073E+03  0.50400001928E-02 0. -1.
        1   -1    0    0  501    0  0.00000000000E+00  0.00000000000E+00 -0.27477467407E+04  0.27477467407E+04  0.50400001928E-02 0.  1.
    10030    2    1    2    0    0  0.00000000000E+00  0.00000000000E+00 -0.19278062100E+04  0.35676872714E+04  0.30019919526E+04 0.  0.
        2    1    3    3  502    0  0.48805462990E+01  0.69299783216E+03 -0.25462336727E+04  0.26388587933E+04  0.25500000920E-02 0.  1.
       -2    1    3    3    0  502 -0.48805462990E+01 -0.69299783216E+03  0.61842746271E+03  0.92882847811E+03  0.25500000920E-02 0. -1.
</event>
<event>
 5   0  0.7278657E-07  0.3005336E+04  0.7818609E-02  0.8242209E-01
       -2   -1    0    0    0  501  0.00000000000E+00  0.00000000000E+00  0.11381584591E+04  0.11381584591E+04  0.25500000920E-02 0. -1.
        2   -1    0    0  501    0  0.00000000000E+00  0.00000000000E+00 -0.19839158656E+04  0.19839158656E+04  0.25500000920E-02 0.  1.
    10030    2    1    2    0    0  0.00000000000E+00  0.00000000000E+00 -0.84575740643E+03  0.31220743247E+04  0.30053356715E+04 0.  0.
        2    1    3    3  502    0  0.33863685071E+03  0.67021527715E+02 -0.19421655867E+04  0.19726058825E+04  0.25500000920E-02 0.  1.
       -2    1    3    3    0  502 -0.33863685071E+03 -0.67021527715E+02  0.10964081802E+04  0.11494684422E+04  0.25500000920E-02 0. -1.
</event>
<event>
 5   0  0.2792361E-07  0.3001516E+04  0.7818609E-02  0.8243298E-01
        1   -1    0    0  501    0  0.00000000000E+00  0.00000000000E+00  0.16675774961E+04  0.16675774961E+04  0.50400001928E-02 0.  1.
       -1   -1    0    0    0  501  0.00000000000E+00  0.00000000000E+00 -0.13506265052E+04  0.13506265052E+04  0.50400001928E-02 0. -1.
    10030    2    1    2    0    0  0.00000000000E+00  0.00000000000E+00  0.31695099088E+03  0.30182040013E+04  0.30015158608E+04 0.  0.
        4    1    3    3  502    0 -0.40849951316E+03  0.81712677410E+03  0.13557695968E+04  0.16348335786E+04  0.12699999809E+01 0.  1.
       -4    1    3    3    0  502  0.40849951316E+03 -0.81712677410E+03 -0.10388186060E+04  0.13833704226E+04  0.12699999809E+01 0. -1.
</event>
<event>
 5   0  0.2792361E-07  0.3001241E+04  0.7818609E-02  0.8243377E-01
        1   -1    0    0  501    0  0.00000000000E+00  0.00000000000E+00  0.17763032373E+04  0.17763032373E+04  0.50400001928E-02 0.  1.
       -1   -1    0    0    0  501  0.00000000000E+00  0.00000000000E+00 -0.12677236028E+04  0.12677236028E+04  0.50400001928E-02 0. -1.
    10030    2    1    2    0    0  0.00000000000E+00  0.00000000000E+00  0.50857963456E+03  0.30440268401E+04  0.30012407698E+04 0.  0.
        4    1    3    3  502    0 -0.77521099097E+03  0.92306306426E+03 -0.65224322288E+03  0.13705547548E+04  0.12699999809E+01 0. -1.
       -4    1    3    3    0  502  0.77521099097E+03 -0.92306306426E+03  0.11608228574E+04  0.16734720853E+04  0.12699999809E+01 0.  1.
</event>
<event>
 5   0  0.7208273E-07  0.2999352E+04  0.7818609E-02  0.8243916E-01
       -2   -1    0    0    0  501  0.00000000000E+00  0.00000000000E+00  0.13290418509E+04  0.13290418509E+04  0.25500000920E-02 0.  1.
        2   -1    0    0  501    0  0.00000000000E+00  0.00000000000E+00 -0.16922181199E+04  0.16922181199E+04  0.25500000920E-02 0. -1.
    10030    2    1    2    0    0  0.00000000000E+00  0.00000000000E+00 -0.36317626900E+03  0.30212599708E+04  0.29993523982E+04 0.  0.
        4    1    3    3  502    0  0.61277442192E+03  0.69039935596E+03  0.10089427569E+04  0.13675199679E+04  0.12699999809E+01 0.  1.
       -4    1    3    3    0  502 -0.61277442192E+03 -0.69039935596E+03 -0.13721190259E+04  0.16537400029E+04  0.12699999809E+01 0. -1.
</event>
<event>
 5   0  0.2621825E-07  0.2998430E+04  0.7818609E-02  0.8244179E-01
        1   -1    0    0  501    0  0.00000000000E+00  0.00000000000E+00  0.25559851389E+04  0.25559851389E+04  0.50400001928E-02 0.  1.
       -1   -1    0    0    0  501  0.00000000000E+00  0.00000000000E+00 -0.87936592356E+03  0.87936592357E+03  0.50400001928E-02 0. -1.
    10030    2    1    2    0    0  0.00000000000E+00  0.00000000000E+00  0.16766192153E+04  0.34353510625E+04  0.29984304109E+04 0.  0.
        3    1    3    3  502    0 -0.22629244463E+03  0.13301994149E+04  0.15869872882E+04  0.20830668296E+04  0.10100000352E+00 0.  1.
       -3    1    3    3    0  502  0.22629244463E+03 -0.13301994149E+04  0.89631927180E+02  0.13522842328E+04  0.10100000352E+00 0. -1.
</event>
<event>
 5   0  0.2679935E-07  0.2999988E+04  0.7818609E-02  0.8243734E-01
        1   -1    0    0  501    0  0.00000000000E+00  0.00000000000E+00  0.14278758003E+04  0.14278758003E+04  0.50400001928E-02 0.  1.
       -1   -1    0    0    0  501  0.00000000000E+00  0.00000000000E+00 -0.15757550102E+04  0.15757550102E+04  0.50400001928E-02 0. -1.
    10030    2    1    2    0    0  0.00000000000E+00  0.00000000000E+00 -0.14787920988E+03  0.30036308105E+04  0.29999882974E+04 0.  0.
        2    1    3    3  502    0 -0.19588081189E+03 -0.11070364175E+04  0.92028347628E+03  0.14528663389E+04  0.25500000920E-02 0.  1.
       -2    1    3    3    0  502  0.19588081189E+03  0.11070364175E+04 -0.10681626862E+04  0.15507644715E+04  0.25500000920E-02 0. -1.
</event>
<event>
 5   0  0.7307508E-07  0.2992990E+04  0.7818609E-02  0.8245736E-01
        2   -1    0    0  501    0  0.00000000000E+00  0.00000000000E+00  0.19932996019E+04  0.19932996019E+04  0.25500000920E-02 0.  1.
       -2   -1    0    0    0  501  0.00000000000E+00  0.00000000000E+00 -0.11235123652E+04  0.11235123652E+04  0.25500000920E-02 0. -1.
    10030    2    1    2    0    0  0.00000000000E+00  0.00000000000E+00  0.86978723671E+03  0.31168119671E+04  0.29929896426E+04 0.  0.
        1    1    3    3  502    0 -0.60146266374E+03 -0.12702692851E+04  0.97011702812E+03  0.17077670921E+04  0.50400001928E-02 0.  1.
       -1    1    3    3    0  502  0.60146266374E+03  0.12702692851E+04 -0.10032979141E+03  0.14090448750E+04  0.50400001928E-02 0. -1.
</event>
<event>
 5   0  0.7399409E-07  0.3000092E+04  0.7818609E-02  0.8243705E-01
       -2   -1    0    0    0  501  0.00000000000E+00  0.00000000000E+00  0.10172221437E+04  0.10172221437E+04  0.25500000920E-02 0.  1.
        2   -1    0    0  501    0  0.00000000000E+00  0.00000000000E+00 -0.22120419737E+04  0.22120419737E+04  0.25500000920E-02 0. -1.
    10030    2    1    2    0    0  0.00000000000E+00  0.00000000000E+00 -0.11948198300E+04  0.32292641175E+04  0.30000920510E+04 0.  0.
        3    1    3    3  502    0  0.45950779387E+03 -0.11804138244E+04  0.26746919781E+03  0.12946289011E+04  0.10100000352E+00 0.  1.
       -3    1    3    3    0  502 -0.45950779387E+03  0.11804138244E+04 -0.14622890278E+04  0.19346352164E+04  0.10100000352E+00 0. -1.
</event>
<event>
 5   0  0.7278657E-07  0.3014785E+04  0.7818609E-02  0.8239521E-01
       -2   -1    0    0    0  501  0.00000000000E+00  0.00000000000E+00  0.15901378793E+04  0.15901378793E+04  0.25500000920E-02 0.  1.
        2   -1    0    0  501    0  0.00000000000E+00  0.00000000000E+00 -0.14289529554E+04  0.14289529554E+04  0.25500000920E-02 0. -1.
    10030    2    1    2    0    0  0.00000000000E+00  0.00000000000E+00  0.16118492383E+03  0.30190908347E+04  0.30147850485E+04 0.  0.
        2    1    3    3  502    0 -0.67746265715E-01 -0.46254799446E+03  0.15173127340E+04  0.15862498494E+04  0.25500000920E-02 0.  1.
       -2    1    3    3    0  502  0.67746265715E-01  0.46254799446E+03 -0.13561278102E+04  0.14328409854E+04  0.25500000920E-02 0. -1.
</event>
<event>
 5   0  0.2640081E-07  0.3000449E+04  0.7818609E-02  0.8243603E-01
        1   -1    0    0  501    0  0.00000000000E+00  0.00000000000E+00  0.19243991962E+04  0.19243991962E+04  0.50400001928E-02 0. -1.
       -1   -1    0    0    0  501  0.00000000000E+00  0.00000000000E+00 -0.11695464360E+04  0.11695464360E+04  0.50400001928E-02 0.  1.
    10030    2    1    2    0    0  0.00000000000E+00  0.00000000000E+00  0.75485276019E+03  0.30939456322E+04  0.30004494472E+04 0.  0.
        1    1    3    3  502    0  0.10956084529E+03 -0.32860650980E+02  0.19198962865E+04  0.19233005881E+04  0.50400001928E-02 0. -1.
       -1    1    3    3    0  502 -0.10956084529E+03  0.32860650980E+02 -0.11650435263E+04  0.11706450441E+04  0.50400001928E-02 0.  1.
</event>
<event>
 5   0  0.7208273E-07  0.3000180E+04  0.7818609E-02  0.8243680E-01
        2   -1    0    0  501    0  0.00000000000E+00  0.00000000000E+00  0.23483061503E+04  0.23483061503E+04  0.25500000920E-02 0. -1.
       -2   -1    0    0    0  501  0.00000000000E+00  0.00000000000E+00 -0.95825212770E+03  0.95825212771E+03  0.25500000920E-02 0.  1.
    10030    2    1    2    0    0  0.00000000000E+00  0.00000000000E+00  0.13900540226E+04  0.33065582780E+04  0.30001795713E+04 0.  0.
        4    1    3    3  502    0 -0.14001675749E+04 -0.48415405702E+03  0.43563428120E+03  0.15442322456E+04  0.12699999809E+01 0.  1.
       -4    1    3    3    0  502  0.14001675749E+04  0.48415405702E+03  0.95441974137E+03  0.17623260323E+04  0.12699999809E+01 0. -1.
</event>
<event>
 5   0  0.2621825E-07  0.2996010E+04  0.7818609E-02  0.8244871E-01
        1   -1    0    0  501    0  0.00000000000E+00  0.00000000000E+00  0.14851839627E+04  0.14851839627E+04  0.50400001928E-02 0. -1.
       -1   -1    0    0    0  501  0.00000000000E+00  0.00000000000E+00 -0.15109362514E+04  0.15109362514E+04  0.50400001928E-02 0.  1.
    10030    2    1    2    0    0  0.00000000000E+00  0.00000000000E+00 -0.25752288614E+02  0.29961202141E+04  0.29960095389E+04 0.  0.
        3    1    3    3  502    0  0.12110888412E+04 -0.81931111107E+03 -0.33848209237E+03  0.15008587592E+04  0.10100000352E+00 0.  1.
       -3    1    3    3    0  502 -0.12110888412E+04  0.81931111107E+03  0.31272980375E+03  0.14952614549E+04  0.10100000352E+00 0. -1.
</event>
<event>
 5   0  0.7399409E-07  0.3007260E+04  0.7818609E-02  0.8241661E-01
        2   -1    0    0  501    0  0.00000000000E+00  0.00000000000E+00  0.30581999456E+04  0.30581999456E+04  0.25500000920E-02 0.  1.
       -2   -1    0    0    0  501  0.00000000000E+00  0.00000000000E+00 -0.73929195459E+03  0.73929195460E+03  0.25500000920E-02 0. -1.
    10030    2    1    2    0    0  0.00000000000E+00  0.00000000000E+00  0.23189079910E+04  0.37974919002E+04  0.30072596265E+04 0.  0.
        3    1    3    3  502    0  0.65456697196E+03 -0.58681985891E+02  0.28672379028E+04  0.29415905048E+04  0.10100000352E+00 0.  1.
       -3    1    3    3    0  502 -0.65456697196E+03  0.58681985891E+02 -0.54832991183E+03  0.85590139541E+03  0.10100000352E+00 0. -1.
</event>
<event>
 5   0  0.7399409E-07  0.2998866E+04  0.7818609E-02  0.8244055E-01
        2   -1    0    0  501    0  0.00000000000E+00  0.00000000000E+00  0.17365469376E+04  0.17365469376E+04  0.25500000920E-02 0.  1.
       -2   -1    0    0    0  501  0.00000000000E+00  0.00000000000E+00 -0.12946953241E+04  0.12946953241E+04  0.25500000920E-02 0. -1.
    10030    2    1    2    0    0  0.00000000000E+00  0.00000000000E+00  0.44185161357E+03  0.30312422617E+04  0.29988659191E+04 0.  0.
        3    1    3    3  502    0 -0.66354706413E+03  0.79415569080E+03  0.13176844988E+04  0.16754910970E+04  0.10100000352E+00 0.  1.
       -3    1    3    3    0  502  0.66354706413E+03 -0.79415569080E+03 -0.87583288522E+03  0.13557511647E+04  0.10100000352E+00 0. -1.
</event>
<event>
 5   0  0.2640081E-07  0.3002752E+04  0.7818609E-02  0.8242945E-01
        1   -1    0    0  501    0  0.00000000000E+00  0.00000000000E+00  0.12022188685E+04  0.12022188685E+04  0.50400001928E-02 0. -1.
       -1   -1    0    0    0  501  0.00000000000E+00  0.00000000000E+00 -0.18749748060E+04  0.18749748060E+04  0.50400001928E-02 0.  1.
    10030    2    1    2    0    0  0.00000000000E+00  0.00000000000E+00 -0.67275593744E+03  0.30771936745E+04  0.30027521308E+04 0.  0.
        1    1    3    3  502    0  0.68183474384E+03 -0.52012346033E+03 -0.15992861623E+04  0.18147019758E+04  0.50400001928E-02 0.  1.
       -1    1    3    3    0  502 -0.68183474384E+03  0.52012346033E+03  0.92653022485E+03  0.12624916988E+04  0.50400001928E-02 0. -1.
</event>
<event>
 5   0  0.2640081E-07  0.2985569E+04  0.7818609E-02  0.8247864E-01
        1   -1    0    0  501    0  0.00000000000E+00  0.00000000000E+00  0.18794940917E+04  0.18794940917E+04  0.50400001928E-02 0. -1.
       -1   -1    0    0    0  501  0.00000000000E+00  0.00000000000E+00 -0.11856410199E+04  0.11856410199E+04  0.50400001928E-02 0.  1.
    10030    2    1    2    0    0  0.00000000000E+00  0.00000000000E+00  0.69385307175E+03  0.30651351116E+04  0.29855688180E+04 0.  0.
        1    1    3    3  502    0  0.15982033097E+03 -0.37859657258E+03 -0.11264248052E+04  0.11990457642E+04  0.50400001928E-02 0.  1.
       -1    1    3    3    0  502 -0.15982033097E+03  0.37859657258E+03  0.18202778769E+04  0.18660893473E+04  0.50400001928E-02 0. -1.
</event>
<event>
 5   0  0.7307508E-07  0.2997315E+04  0.7818609E-02  0.8244498E-01
        2   -1    0    0  501    0  0.00000000000E+00  0.00000000000E+00  0.17775825755E+04  0.17775825755E+04  0.25500000920E-02 0. -1.
       -2   -1    0    0    0  501  0.00000000000E+00  0.00000000000E+00 -0.12634995570E+04  0.12634995570E+04  0.25500000920E-02 0.  1.
    10030    2    1    2    0    0  0.00000000000E+00  0.00000000000E+00  0.51408301854E+03  0.30410821325E+04  0.29973153299E+04 0.  0.
        1    1    3    3  502    0 -0.13645823181E+04 -0.11016791893E+03  0.87566001966E+03  0.16251161015E+04  0.50400001928E-02 0. -1.
       -1    1    3    3    0  502  0.13645823181E+04  0.11016791893E+03 -0.36157700112E+03  0.14159660310E+04  0.50400001928E-02 0.  1.
</event>
<event>
 5   0  0.2792361E-07  0.3000671E+04  0.7818609E-02  0.8243539E-01
        1   -1    0    0  501    0  0.00000000000E+00  0.00000000000E+00  0.13709025877E+04  0.13709025878E+04  0.50400001928E-02 0.  1.
       -1   -1    0    0    0  501  0.00000000000E+00  0.00000000000E+00 -0.16419882123E+04  0.16419882123E+04  0.50400001928E-02 0. -1.
    10030    2    1    2    0    0  0.00000000000E+00  0.00000000000E+00 -0.27108562451E+03  0.30128908000E+04  0.30006705179E+04 0.  0.
        4    1    3    3  502    0  0.13822760757E+04  0.27443283208E+03  0.38133880605E+03  0.14599388435E+04  0.12699999809E+01 0. -1.
       -4    1    3    3    0  502 -0.13822760757E+04 -0.27443283208E+03 -0.65242443056E+03  0.15529519565E+04  0.12699999809E+01 0.  1.
</event>
<event>
 5   0  0.7585823E-07  0.3002961E+04  0.7818609E-02  0.8242886E-01
       -2   -1    0    0    0  501  0.00000000000E+00  0.00000000000E+00  0.10515212564E+04  0.10515212564E+04  0.25500000920E-02 0. -1.
        2   -1    0    0  501    0  0.00000000000E+00  0.00000000000E+00 -0.21439825799E+04  0.21439825799E+04  0.25500000920E-02 0.  1.
    10030    2    1    2    0    0  0.00000000000E+00  0.00000000000E+00 -0.10924613235E+04  0.31955038363E+04  0.30029607098E+04 0.  0.
        5    1    3    3  502    0 -0.41775768426E+03  0.10227416679E+04 -0.16282344602E+04  0.19676614417E+04  0.46999998093E+01 0.  1.
       -5    1    3    3    0  502  0.41775768426E+03 -0.10227416679E+04  0.53577313672E+03  0.12278423946E+04  0.46999998093E+01 0. -1.
</event>
<event>
 5   0  0.2679935E-07  0.2994488E+04  0.7818609E-02  0.8245307E-01
        1   -1    0    0  501    0  0.00000000000E+00  0.00000000000E+00  0.25017342025E+04  0.25017342026E+04  0.50400001928E-02 0. -1.
       -1   -1    0    0    0  501  0.00000000000E+00  0.00000000000E+00 -0.89607413369E+03  0.89607413370E+03  0.50400001928E-02 0.  1.
    10030    2    1    2    0    0  0.00000000000E+00  0.00000000000E+00  0.16056600689E+04  0.33978083363E+04  0.29944878082E+04 0.  0.
        2    1    3    3  502    0 -0.17040371230E+03  0.36060055480E+03 -0.83468941690E+03  0.92508194663E+03  0.25500000920E-02 0.  1.
       -2    1    3    3    0  502  0.17040371230E+03 -0.36060055480E+03  0.24403494858E+04  0.24727263896E+04  0.25500000920E-02 0. -1.
</event>
<event>
 5   0  0.2602891E-07  0.2993717E+04  0.7818609E-02  0.8245527E-01
       -1   -1    0    0    0  501  0.00000000000E+00  0.00000000000E+00  0.85828621112E+03  0.85828621113E+03  0.50400001928E-02 0.  1.
        1   -1    0    0  501    0  0.00000000000E+00  0.00000000000E+00 -0.26105337158E+04  0.26105337158E+04  0.50400001928E-02 0. -1.
    10030    2    1    2    0    0  0.00000000000E+00  0.00000000000E+00 -0.17522475046E+04  0.34688199269E+04  0.29937168149E+04 0.  0.
        5    1    3    3  502    0 -0.44965443361E+03 -0.53313912266E+03  0.65850291202E+03  0.95920519646E+03  0.46999998093E+01 0.  1.
       -5    1    3    3    0  502  0.44965443361E+03  0.53313912266E+03 -0.24107504167E+04  0.25096147304E+04  0.46999998093E+01 0. -1.
</event>
<event>
 5   0  0.2621825E-07  0.3000788E+04  0.7818609E-02  0.8243506E-01
        1   -1    0    0  501    0  0.00000000000E+00  0.00000000000E+00  0.22404644488E+04  0.22404644488E+04  0.50400001928E-02 0.  1.
       -1   -1    0    0    0  501  0.00000000000E+00  0.00000000000E+00 -0.10047835781E+04  0.10047835781E+04  0.50400001928E-02 0. -1.
    10030    2    1    2    0    0  0.00000000000E+00  0.00000000000E+00  0.12356808707E+04  0.32452480270E+04  0.30007878203E+04 0.  0.
        3    1    3    3  502    0  0.96750422375E+03 -0.82465970005E+03 -0.24398216034E+03  0.12944710691E+04  0.10100000352E+00 0. -1.
       -3    1    3    3    0  502 -0.96750422375E+03  0.82465970005E+03  0.14796630311E+04  0.19507769579E+04  0.10100000352E+00 0.  1.
</event>
<event>
 5   0  0.7585823E-07  0.3006587E+04  0.7818609E-02  0.8241852E-01
        2   -1    0    0  501    0  0.00000000000E+00  0.00000000000E+00  0.11962827623E+04  0.11962827624E+04  0.25500000920E-02 0.  1.
       -2   -1    0    0    0  501  0.00000000000E+00  0.00000000000E+00 -0.18890945088E+04  0.18890945088E+04  0.25500000920E-02 0. -1.
    10030    2    1    2    0    0  0.00000000000E+00  0.00000000000E+00 -0.69281174646E+03  0.30853772712E+04  0.30065869004E+04 0.  0.
        5    1    3    3  502    0  0.40600135302E+03 -0.36551672053E+03 -0.17836179913E+04  0.18654100891E+04  0.46999998093E+01 0. -1.
       -5    1    3    3    0  502 -0.40600135302E+03  0.36551672053E+03  0.10908062448E+04  0.12199671821E+04  0.46999998093E+01 0.  1.
</event>
<event>
 5   0  0.2679935E-07  0.3007248E+04  0.7818609E-02  0.8241664E-01
        1   -1    0    0  501    0  0.00000000000E+00  0.00000000000E+00  0.24752545788E+04  0.24752545788E+04  0.50400001928E-02 0.  1.
       -1   -1    0    0    0  501  0.00000000000E+00  0.00000000000E+00 -0.91339521349E+03  0.91339521350E+03  0.50400001928E-02 0. -1.
    10030    2    1    2    0    0  0.00000000000E+00  0.00000000000E+00  0.15618593653E+04  0.33886497923E+04  0.30072483665E+04 0.  0.
        2    1    3    3  502    0  0.75113816857E+03 -0.70283568745E+03  0.20166946784E+04  0.22639001695E+04  0.25500000920E-02 0.  1.
       -2    1    3    3    0  502 -0.75113816857E+03  0.70283568745E+03 -0.45483531309E+03  0.11247496227E+04  0.25500000920E-02 0. -1.
</event>
<event>
 5   0  0.2621825E-07  0.3001071E+04  0.7818609E-02  0.8243425E-01
        1   -1    0    0  501    0  0.00000000000E+00  0.00000000000E+00  0.10440514439E+04  0.10440514440E+04  0.50400001928E-02 0.  1.
       -1   -1    0    0    0  501  0.00000000000E+00  0.00000000000E+00 -0.21566057744E+04  0.21566057744E+04  0.50400001928E-02 0. -1.
    10030    2    1    2    0    0  0.00000000000E+00  0.00000000000E+00 -0.11125543304E+04  0.32006572183E+04  0.30010713905E+04 0.  0.
        3    1    3    3  502    0  0.39688680291E+03 -0.71695673071E+03 -0.18968789794E+04  0.20663242632E+04  0.10100000352E+00 0. -1.
       -3    1    3    3    0  502 -0.39688680291E+03  0.71695673071E+03  0.78432464893E+03  0.11343329552E+04  0.10100000352E+00 0.  1.
</event>
<event>
 5   0  0.7399409E-07  0.3004350E+04  0.7818609E-02  0.8242490E-01
       -2   -1    0    0    0  501  0.00000000000E+00  0.00000000000E+00  0.15124746499E+04  0.15124746499E+04  0.25500000920E-02 0.  1.
        2   -1    0    0  501    0  0.00000000000E+00  0.00000000000E+00 -0.14919455030E+04  0.14919455030E+04  0.25500000920E-02 0. -1.
    10030    2    1    2    0    0  0.00000000000E+00  0.00000000000E+00  0.20529146904E+02  0.30044201530E+04  0.30043500145E+04 0.  0.
        3    1    3    3  502    0  0.46147523900E+03  0.11593747233E+04  0.84659779299E+03  0.15079247258E+04  0.10100000352E+00 0.  1.
       -3    1    3    3    0  502 -0.46147523900E+03 -0.11593747233E+04 -0.82606864609E+03  0.14964954272E+04  0.10100000352E+00 0. -1.
</event>
<event>
 5   0  0.7585823E-07  0.2998952E+04  0.7818609E-02  0.8244030E-01
       -2   -1    0    0    0  501  0.00000000000E+00  0.00000000000E+00  0.10494275034E+04  0.10494275034E+04  0.25500000920E-02 0.  1.
        2   -1    0    0  501    0  0.00000000000E+00  0.00000000000E+00 -0.21425278617E+04  0.21425278617E+04  0.25500000920E-02 0. -1.
    10030    2    1    2    0    0  0.00000000000E+00  0.00000000000E+00 -0.10931003583E+04  0.31919553651E+04  0.29989515934E+04 0.  0.
        5    1    3    3  502    0  0.38666530971E+03 -0.12498899098E+04  0.23317454831E+03  0.13289572260E+04  0.46999998093E+01 0.  1.
       -5    1    3    3    0  502 -0.38666530971E+03  0.12498899098E+04 -0.13262749066E+04  0.18629981391E+04  0.46999998093E+01 0. -1.
</event>
<event>
 5   0  0.7307508E-07  0.2998051E+04  0.7818609E-02  0.8244288E-01
        2   -1    0    0  501    0  0.00000000000E+00  0.00000000000E+00  0.26648187077E+04  0.26648187077E+04  0.25500000920E-02 0. -1.
       -2   -1    0    0    0  501  0.00000000000E+00  0.00000000000E+00 -0.84323843993E+03  0.84323843994E+03  0.25500000920E-02 0.  1.
    10030    2    1    2    0    0  0.00000000000E+00  0.00000000000E+00  0.18215802677E+04  0.35080571476E+04  0.29980510801E+04 0.  0.
        1    1    3    3  502    0  0.96664001539E+03 -0.67720800118E+03 -0.17058250167E+03  0.11925191764E+04  0.50400001928E-02 0.  1.
       -1    1    3    3    0  502 -0.96664001539E+03  0.67720800118E+03  0.19921627694E+04  0.23155379712E+04  0.50400001928E-02 0. -1.
</event>
<event>
 5   0  0.2792361E-07  0.2993406E+04  0.7818609E-02  0.8245616E-01
       -1   -1    0    0    0  501  0.00000000000E+00  0.00000000000E+00  0.12264471718E+04  0.12264471718E+04  0.50400001928E-02 0. -1.
        1   -1    0    0  501    0  0.00000000000E+00  0.00000000000E+00 -0.18265112312E+04  0.18265112312E+04  0.50400001928E-02 0.  1.
    10030    2    1    2    0    0  0.00000000000E+00  0.00000000000E+00 -0.60006405942E+03  0.30529584030E+04  0.29934057752E+04 0.  0.
        4    1    3    3  502    0 -0.66629468471E+03  0.13280479095E+04 -0.48377748262E+03  0.15625946763E+04  0.12699999809E+01 0.  1.
       -4    1    3    3    0  502  0.66629468471E+03 -0.13280479095E+04 -0.11628657680E+03  0.14903637267E+04  0.12699999809E+01 0. -1.
</event>
<event>
 5   0  0.2602891E-07  0.2998568E+04  0.7818609E-02  0.8244140E-01
        1   -1    0    0  501    0  0.00000000000E+00  0.00000000000E+00  0.14233071598E+04  0.14233071598E+04  0.50400001928E-02 0. -1.
       -1   -1    0    0    0  501  0.00000000000E+00  0.00000000000E+00 -0.15793163812E+04  0.15793163812E+04  0.50400001928E-02 0.  1.
    10030    2    1    2    0    0  0.00000000000E+00  0.00000000000E+00 -0.15600922137E+03  0.30026235411E+04  0.29985678669E+04 0.  0.
        5    1    3    3  502    0 -0.46423341980E+03 -0.39000246555E+02 -0.15049922441E+04  0.15754546747E+04  0.46999998093E+01 0.  1.
       -5    1    3    3    0  502  0.46423341980E+03  0.39000246555E+02  0.13489830228E+04  0.14271688663E+04  0.46999998093E+01 0. -1.
</event>
<event>
 5   0  0.2621825E-07  0.3022262E+04  0.7818609E-02  0.8237402E-01
        1   -1    0    0  501    0  0.00000000000E+00  0.00000000000E+00  0.20089841603E+04  0.20089841603E+04  0.50400001928E-02 0. -1.
       -1   -1    0    0    0  501  0.00000000000E+00  0.00000000000E+00 -0.11366524454E+04  0.11366524454E+04  0.50400001928E-02 0.  1.
    10030    2    1    2    0    0  0.00000000000E+00  0.00000000000E+00  0.87233171494E+03  0.31456366057E+04  0.30222619070E+04 0.  0.
        3    1    3    3  502    0  0.12583958318E+04 -0.75907062375E+03  0.69996954730E+02  0.14712742318E+04  0.10100000352E+00 0.  1.
       -3    1    3    3    0  502 -0.12583958318E+04  0.75907062375E+03  0.80233476022E+03  0.16743623739E+04  0.10100000352E+00 0. -1.
</event>
<event>
 5   0  0.7278657E-07  0.2995814E+04  0.7818609E-02  0.8244927E-01
        2   -1    0    0  501    0  0.00000000000E+00  0.00000000000E+00  0.14225693071E+04  0.14225693071E+04  0.25500000920E-02 0. -1.
       -2   -1    0    0    0  501  0.00000000000E+00  0.00000000000E+00 -0.15772342040E+04  0.15772342040E+04  0.25500000920E-02 0.  1.
    10030    2    1    2    0    0  0.00000000000E+00  0.00000000000E+00 -0.15466489693E+03  0.29998035111E+04  0.29958137250E+04 0.  0.
        2    1    3    3  502    0 -0.12699377351E+04  0.34585241421E+03 -0.79338566037E+03  0.15368202723E+04  0.25500000920E-02 0.  1.
       -2    1    3    3    0  502  0.12699377351E+04 -0.34585241421E+03  0.63872076344E+03  0.14629832388E+04  0.25500000920E-02 0. -1.
</event>
<event>
 5   0  0.2621825E-07  0.2998724E+04  0.7818609E-02  0.8244095E-01
        1   -1    0    0  501    0  0.00000000000E+00  0.00000000000E+00  0.22687811385E+04  0.22687811385E+04  0.50400001928E-02 0. -1.
       -1   -1    0    0    0  501  0.00000000000E+00  0.00000000000E+00 -0.99087878093E+03  0.99087878094E+03  0.50400001928E-02 0.  1.
    10030    2    1    2    0    0  0.00000000000E+00  0.00000000000E+00  0.12779023575E+04  0.32596599194E+04  0.29987244546E+04 0.  0.
        3    1    3    3  502    0 -0.10117150566E+04 -0.10021977544E+04  0.12895740350E+03  0.14298943027E+04  0.10100000352E+00 0. -1.
       -3    1    3    3    0  502  0.10117150566E+04  0.10021977544E+04  0.11489449540E+04  0.18297656168E+04  0.10100000352E+00 0.  1.
</event>
<event>
 5   0  0.2679935E-07  0.2943622E+04  0.7818609E-02  0.8260016E-01
        1   -1    0    0  501    0  0.00000000000E+00  0.00000000000E+00  0.11887070097E+04  0.11887070097E+04  0.50400001928E-02 0. -1.
       -1   -1    0    0    0  501  0.00000000000E+00  0.00000000000E+00 -0.18223390425E+04  0.18223390425E+04  0.50400001928E-02 0.  1.
    10030    2    1    2    0    0  0.00000000000E+00  0.00000000000E+00 -0.63363203286E+03  0.30110460522E+04  0.29436217107E+04 0.  0.
        2    1    3    3  502    0 -0.87055388937E+03 -0.24995580774E+03  0.86987980020E+03  0.12557996842E+04  0.25500000920E-02 0. -1.
       -2    1    3    3    0  502  0.87055388937E+03  0.24995580774E+03 -0.15035118331E+04  0.17552463680E+04  0.25500000920E-02 0.  1.
</event>
<event>
 5   0  0.2792361E-07  0.2996710E+04  0.7818609E-02  0.8244671E-01
       -1   -1    0    0    0  501  0.00000000000E+00  0.00000000000E+00  0.13645395468E+04  0.13645395468E+04  0.50400001928E-02 0. -1.
        1   -1    0    0  501    0  0.00000000000E+00  0.00000000000E+00 -0.16452935401E+04  0.16452935401E+04  0.50400001928E-02 0.  1.
    10030    2    1    2    0    0  0.00000000000E+00  0.00000000000E+00 -0.28075399329E+03  0.30098330869E+04  0.29967102640E+04 0.  0.
        4    1    3    3  502    0 -0.14056414863E+04 -0.37231277398E+03  0.22262191317E+03  0.14710563955E+04  0.12699999809E+01 0. -1.
       -4    1    3    3    0  502  0.14056414863E+04  0.37231277398E+03 -0.50337590646E+03  0.15387766913E+04  0.12699999809E+01 0.  1.
</event>
<event>
 5   0  0.7307508E-07  0.3010268E+04  0.7818609E-02  0.8240805E-01
       -2   -1    0    0    0  501  0.00000000000E+00  0.00000000000E+00  0.13479466951E+04  0.13479466951E+04  0.25500000920E-02 0. -1.
        2   -1    0    0  501    0  0.00000000000E+00  0.00000000000E+00 -0.16806511122E+04  0.16806511122E+04  0.25500000920E-02 0.  1.
    10030    2    1    2    0    0  0.00000000000E+00  0.00000000000E+00 -0.33270441714E+03  0.30285978073E+04  0.30102678368E+04 0.  0.
        1    1    3    3  502    0 -0.77509388036E+03  0.11760581464E+04 -0.70019113678E+03  0.15729433922E+04  0.50400001928E-02 0. -1.
       -1    1    3    3    0  502  0.77509388036E+03 -0.11760581464E+04  0.36748671963E+03  0.14556544151E+04  0.50400001928E-02 0.  1.
</event>
<event>
 5   0  0.7399409E-07  0.2989228E+04  0.7818609E-02  0.8246814E-01
       -2   -1    0    0    0  501  0.00000000000E+00  0.00000000000E+00  0.87829751820E+03  0.87829751821E+03  0.25500000920E-02 0.  1.
        2   -1    0    0  501    0  0.00000000000E+00  0.00000000000E+00 -0.25434104389E+04  0.25434104389E+04  0.25500000920E-02 0. -1.
    10030    2    1    2    0    0  0.00000000000E+00  0.00000000000E+00 -0.16651129207E+04  0.34217079571E+04  0.29892280450E+04 0.  0.
        3    1    3    3  502    0 -0.12690875686E+04  0.78838242914E+03 -0.78479499689E+03  0.16876117174E+04  0.10100000352E+00 0.  1.
       -3    1    3    3    0  502  0.12690875686E+04 -0.78838242914E+03 -0.88031792377E+03  0.17340962397E+04  0.10100000352E+00 0. -1.
</event>
<event>
 5   0  0.2679935E-07  0.2998172E+04  0.7818609E-02  0.8244253E-01
        1   -1    0    0  501    0  0.00000000000E+00  0.00000000000E+00  0.15823439716E+04  0.15823439716E+04  0.50400001928E-02 0. -1.
       -1   -1    0    0    0  501  0.00000000000E+00  0.00000000000E+00 -0.14202085922E+04  0.14202085923E+04  0.50400001928E-02 0.  1.
    10030    2    1    2    0    0  0.00000000000E+00  0.00000000000E+00  0.16213537939E+03  0.30025525639E+04  0.29981717792E+04 0.  0.
        2    1    3    3  502    0 -0.23812655113E+02  0.86865914664E+03  0.13043772869E+04  0.15673339983E+04  0.25500000920E-02 0. -1.
       -2    1    3    3    0  502  0.23812655113E+02 -0.86865914664E+03 -0.11422419076E+04  0.14352185656E+04  0.25500000920E-02 0.  1.
</event>
<event>
 5   0  0.2602891E-07  0.3033208E+04  0.7818609E-02  0.8234311E-01
        1   -1    0    0  501    0  0.00000000000E+00  0.00000000000E+00  0.23388901408E+04  0.23388901408E+04  0.50400001928E-02 0. -1.
       -1   -1    0    0    0  501  0.00000000000E+00  0.00000000000E+00 -0.98340963955E+03  0.98340963957E+03  0.50400001928E-02 0.  1.
    10030    2    1    2    0    0  0.00000000000E+00  0.00000000000E+00  0.13554805012E+04  0.33222997804E+04  0.30332076159E+04 0.  0.
        5    1    3    3  502    0  0.89289573679E+02  0.14717173328E+04  0.10667530827E+04  0.18198650404E+04  0.46999998093E+01 0. -1.
       -5    1    3    3    0  502 -0.89289573679E+02 -0.14717173328E+04  0.28872741855E+03  0.15024347400E+04  0.46999998093E+01 0.  1.
</event>
<event>
 5   0  0.7585823E-07  0.3001447E+04  0.7818609E-02  0.8243318E-01
        2   -1    0    0  501    0  0.00000000000E+00  0.00000000000E+00  0.21047641470E+04  0.21047641470E+04  0.25500000920E-02 0. -1.
       -2   -1    0    0    0  501  0.00000000000E+00  0.00000000000E+00 -0.10700349176E+04  0.10700349176E+04  0.25500000920E-02 0.  1.
    10030    2    1    2    0    0  0.00000000000E+00  0.00000000000E+00  0.10347292294E+04  0.31747990646E+04  0.30014470714E+04 0.  0.
        5    1    3    3  502    0 -0.77027425793E+03  0.10365776564E+04  0.13259314031E+04  0.18509272935E+04  0.46999998093E+01 0. -1.
       -5    1    3    3    0  502  0.77027425793E+03 -0.10365776564E+04 -0.29120217367E+03  0.13238717710E+04  0.46999998093E+01 0.  1.
</event>
<event>
 5   0  0.7307508E-07  0.2999062E+04  0.7818609E-02  0.8243999E-01
       -2   -1    0    0    0  501  0.00000000000E+00  0.00000000000E+00  0.15585235257E+04  0.15585235258E+04  0.25500000920E-02 0. -1.
        2   -1    0    0  501    0  0.00000000000E+00  0.00000000000E+00 -0.14427716005E+04  0.14427716005E+04  0.25500000920E-02 0.  1.
    10030    2    1    2    0    0  0.00000000000E+00  0.00000000000E+00  0.11575192529E+03  0.30012951262E+04  0.29990621745E+04 0.  0.
        1    1    3    3  502    0  0.15383837480E+03  0.30389246925E+03  0.15192976695E+04  0.15570106894E+04  0.50400001928E-02 0. -1.
       -1    1    3    3    0  502 -0.15383837480E+03 -0.30389246925E+03 -0.14035457442E+04  0.14442844368E+04  0.50400001928E-02 0.  1.
</event>
<event>
 5   0  0.2414250E-07  0.3003676E+04  0.7818609E-02  0.8242682E-01
       -3   -1    0    0    0  501  0.00000000000E+00  0.00000000000E+00  0.11813598914E+04  0.11813598957E+04  0.10100000352E+00 0. -1.
        3   -1    0    0  501    0  0.00000000000E+00  0.00000000000E+00 -0.19092545145E+04  0.19092545171E+04  0.10100000352E+00 0.  1.
    10030    2    1    2    0    0  0.00000000000E+00  0.00000000000E+00 -0.72789462304E+03  0.30906144129E+04  0.30036755595E+04 0.  0.
        4    1    3    3  502    0  0.82490922711E+02  0.46063851856E+03 -0.18323203846E+04  0.18911351622E+04  0.12699999809E+01 0.  1.
       -4    1    3    3    0  502 -0.82490922711E+02 -0.46063851856E+03  0.11044257615E+04  0.11994792507E+04  0.12699999809E+01 0. -1.
</event>
<event>
 5   0  0.2792361E-07  0.2998828E+04  0.7818609E-02  0.8244066E-01
       -1   -1    0    0    0  501  0.00000000000E+00  0.00000000000E+00  0.17065702838E+04  0.17065702838E+04  0.50400001928E-02 0.  1.
        1   -1    0    0  501    0  0.00000000000E+00  0.00000000000E+00 -0.13174038859E+04  0.13174038859E+04  0.50400001928E-02 0. -1.
    10030    2    1    2    0    0  0.00000000000E+00  0.00000000000E+00  0.38916639796E+03  0.30239741697E+04  0.29988279867E+04 0.  0.
        4    1    3    3  502    0  0.14172592604E+03  0.11116501225E+04 -0.80995713356E+03  0.13827090815E+04  0.12699999809E+01 0. -1.
       -4    1    3    3    0  502 -0.14172592604E+03 -0.11116501225E+04  0.11991235315E+04  0.16412650882E+04  0.12699999809E+01 0.  1.
</event>
<event>
 5   0  0.7208273E-07  0.2998400E+04  0.7818609E-02  0.8244188E-01
       -2   -1    0    0    0  501  0.00000000000E+00  0.00000000000E+00  0.12195609730E+04  0.12195609730E+04  0.25500000920E-02 0.  1.
        2   -1    0    0  501    0  0.00000000000E+00  0.00000000000E+00 -0.18429585501E+04  0.18429585501E+04  0.25500000920E-02 0. -1.
    10030    2    1    2    0    0  0.00000000000E+00  0.00000000000E+00 -0.62339757715E+03  0.30625195231E+04  0.29983997882E+04 0.  0.
        4    1    3    3  502    0  0.10356536543E+04  0.63605051050E+02 -0.14169552630E+04  0.17562425586E+04  0.12699999809E+01 0. -1.
       -4    1    3    3    0  502 -0.10356536543E+04 -0.63605051050E+02  0.79355768586E+03  0.13062769645E+04  0.12699999809E+01 0.  1.
</event>
<event>
 5   0  0.7307508E-07  0.2993186E+04  0.7818609E-02  0.8245679E-01
       -2   -1    0    0    0  501  0.00000000000E+00  0.00000000000E+00  0.16219987154E+04  0.16219987154E+04  0.25500000920E-02 0. -1.
        2   -1    0    0  501    0  0.00000000000E+00  0.00000000000E+00 -0.13808835298E+04  0.13808835298E+04  0.25500000920E-02 0.  1.
    10030    2    1    2    0    0  0.00000000000E+00  0.00000000000E+00  0.24111518562E+03  0.30028822451E+04  0.29931864702E+04 0.  0.
        1    1    3    3  502    0 -0.53087290174E+02 -0.11335640345E+04 -0.85831075861E+03  0.14228432939E+04  0.50400001928E-02 0.  1.
       -1    1    3    3    0  502  0.53087290174E+02  0.11335640345E+04  0.10994259442E+04  0.15800389513E+04  0.50400001928E-02 0. -1.
</event>
<event>
 5   0  0.7585823E-07  0.2995103E+04  0.7818609E-02  0.8245131E-01
        2   -1    0    0  501    0  0.00000000000E+00  0.00000000000E+00  0.14641927403E+04  0.14641927403E+04  0.25500000920E-02 0.  1.
       -2   -1    0    0    0  501  0.00000000000E+00  0.00000000000E+00 -0.15316706135E+04  0.15316706135E+04  0.25500000920E-02 0. -1.
    10030    2    1    2    0    0  0.00000000000E+00  0.00000000000E+00 -0.67477873245E+02  0.29958633538E+04  0.29951033324E+04 0.  0.
        5    1    3    3  502    0 -0.10340705688E+04 -0.21077474690E+03 -0.10965107716E+04  0.15218692117E+04  0.46999998093E+01 0. -1.
       -5    1    3    3    0  502  0.10340705688E+04  0.21077474690E+03  0.10290328983E+04  0.14739941422E+04  0.46999998093E+01 0.  1.
</event>
<event>
 5   0  0.7585823E-07  0.3004365E+04  0.7818609E-02  0.8242486E-01
        2   -1    0    0  501    0  0.00000000000E+00  0.00000000000E+00  0.96267000447E+03  0.96267000447E+03  0.25500000920E-02 0. -1.
       -2   -1    0    0    0  501  0.00000000000E+00  0.00000000000E+00 -0.23440556769E+04  0.23440556769E+04  0.25500000920E-02 0.  1.
    10030    2    1    2    0    0  0.00000000000E+00  0.00000000000E+00 -0.13813856725E+04  0.33067256814E+04  0.30043648840E+04 0.  0.
        5    1    3    3  502    0 -0.66313428239E+03 -0.11985344725E+04 -0.13694392300E+04  0.19369093559E+04  0.46999998093E+01 0.  1.
       -5    1    3    3    0  502  0.66313428239E+03  0.11985344725E+04 -0.11946442460E+02  0.13698163255E+04  0.46999998093E+01 0. -1.
</event>
<event>
 5   0  0.7585823E-07  0.2999568E+04  0.7818609E-02  0.8243854E-01
        2   -1    0    0  501    0  0.00000000000E+00  0.00000000000E+00  0.20559540957E+04  0.20559540957E+04  0.25500000920E-02 0.  1.
       -2   -1    0    0    0  501  0.00000000000E+00  0.00000000000E+00 -0.10940669983E+04  0.10940669983E+04  0.25500000920E-02 0. -1.
    10030    2    1    2    0    0  0.00000000000E+00  0.00000000000E+00  0.96188709744E+03  0.31500210940E+04  0.29995676530E+04 0.  0.
        5    1    3    3  502    0 -0.11499332948E+04 -0.92383969338E+03  0.76565671631E+03  0.16619502576E+04  0.46999998093E+01 0.  1.
       -5    1    3    3    0  502  0.11499332948E+04  0.92383969338E+03  0.19623038113E+03  0.14880708364E+04  0.46999998093E+01 0. -1.
</event>
<event>
 5   0  0.2602891E-07  0.3003750E+04  0.7818609E-02  0.8242661E-01
       -1   -1    0    0    0  501  0.00000000000E+00  0.00000000000E+00  0.21990093983E+04  0.21990093983E+04  0.50400001928E-02 0.  1.
        1   -1    0    0  501    0  0.00000000000E+00  0.00000000000E+00 -0.10257475045E+04  0.10257475045E+04  0.50400001928E-02 0. -1.
    10030    2    1    2    0    0  0.00000000000E+00  0.00000000000E+00  0.11732618938E+04  0.32247569028E+04  0.30037499248E+04 0.  0.
        5    1    3    3  502    0  0.43502083799E+03  0.14374354804E+04  0.59944313078E+03  0.16170399027E+04  0.46999998093E+01 0.  1.
       -5    1    3    3    0  502 -0.43502083799E+03 -0.14374354804E+04  0.57381876306E+03  0.16077170002E+04  0.46999998093E+01 0. -1.
</event>
<event>
 5   0  0.7307508E-07  0.2996793E+04  0.7818609E-02  0.8244647E-01
        2   -1    0    0  501    0  0.00000000000E+00  0.00000000000E+00  0.18374275168E+04  0.18374275168E+04  0.25500000920E-02 0. -1.
       -2   -1    0    0    0  501  0.00000000000E+00  0.00000000000E+00 -0.12219214245E+04  0.12219214245E+04  0.25500000920E-02 0.  1.
    10030    2    1    2    0    0  0.00000000000E+00  0.00000000000E+00  0.61550609227E+03  0.30593489413E+04  0.29967929850E+04 0.  0.
        1    1    3    3  502    0 -0.40519843997E+03  0.98789517418E+03 -0.76541330511E+03  0.13137656483E+04  0.50400001928E-02 0.  1.
       -1    1    3    3    0  502  0.40519843997E+03 -0.98789517418E+03  0.13809193974E+04  0.17455832931E+04  0.50400001928E-02 0. -1.
</event>
<event>
 5   0  0.2679935E-07  0.3005069E+04  0.7818609E-02  0.8242285E-01
       -1   -1    0    0    0  501  0.00000000000E+00  0.00000000000E+00  0.80564953827E+03  0.80564953829E+03  0.50400001928E-02 0. -1.
        1   -1    0    0  501    0  0.00000000000E+00  0.00000000000E+00 -0.28022224373E+04  0.28022224373E+04  0.50400001928E-02 0.  1.
    10030    2    1    2    0    0  0.00000000000E+00  0.00000000000E+00 -0.19965728991E+04  0.36078719756E+04  0.30050685269E+04 0.  0.
        2    1    3    3  502    0  0.39240430841E+03  0.14336587950E+04 -0.73456358309E+03  0.16579934678E+04  0.25500000920E-02 0. -1.
       -2    1    3    3    0  502 -0.39240430841E+03 -0.14336587950E+04 -0.12620093160E+04  0.19498785078E+04  0.25500000920E-02 0.  1.
</event>
<event>
 5   0  0.2792361E-07  0.2996607E+04  0.7818609E-02  0.8244701E-01
       -1   -1    0    0    0  501  0.00000000000E+00  0.00000000000E+00  0.13486441991E+04  0.13486441991E+04  0.50400001928E-02 0. -1.
        1   -1    0    0  501    0  0.00000000000E+00  0.00000000000E+00 -0.16645702601E+04  0.16645702601E+04  0.50400001928E-02 0.  1.
    10030    2    1    2    0    0  0.00000000000E+00  0.00000000000E+00 -0.31592606096E+03  0.30132144592E+04  0.29966067645E+04 0.  0.
        4    1    3    3  502    0  0.87330370868E+02  0.13791015431E+04 -0.74027852674E+03  0.15676611783E+04  0.12699999809E+01 0. -1.
       -4    1    3    3    0  502 -0.87330370868E+02 -0.13791015431E+04  0.42435246578E+03  0.14455532809E+04  0.12699999809E+01 0.  1.
</event>
<event>
 5   0  0.2621825E-07  0.3000809E+04  0.7818609E-02  0.8243500E-01
        1   -1    0    0  501    0  0.00000000000E+00  0.00000000000E+00  0.27819184357E+04  0.27819184357E+04  0.50400001928E-02 0. -1.
       -1   -1    0    0    0  501  0.00000000000E+00  0.00000000000E+00 -0.80923071912E+03  0.80923071914E+03  0.50400001928E-02 0.  1.
    10030    2    1    2    0    0  0.00000000000E+00  0.00000000000E+00  0.19726877166E+04  0.35911491548E+04  0.30008091284E+04 0.  0.
        3    1    3    3  502    0  0.41241123753E+03  0.65550202290E+03  0.25242417861E+04  0.26403716663E+04  0.10100000352E+00 0. -1.
       -3    1    3    3    0  502 -0.41241123753E+03 -0.65550202290E+03 -0.55155406959E+03  0.95077748856E+03  0.10100000352E+00 0.  1.
</event>
<event>
 5   0  0.7307508E-07  0.2998983E+04  0.7818609E-02  0.8244021E-01
        2   -1    0    0  501    0  0.00000000000E+00  0.00000000000E+00  0.17618380491E+04  0.17618380491E+04  0.25500000920E-02 0.  1.
       -2   -1    0    0    0  501  0.00000000000E+00  0.00000000000E+00 -0.12762099310E+04  0.12762099310E+04  0.25500000920E-02 0. -1.
    10030    2    1    2    0    0  0.00000000000E+00  0.00000000000E+00  0.48562811813E+03  0.30380479800E+04  0.29989833044E+04 0.  0.
        1    1    3    3  502    0  0.40030845893E+03  0.12890787031E+04  0.90439405304E+03  0.16247767133E+04  0.50400001928E-02 0.  1.
       -1    1    3    3    0  502 -0.40030845893E+03 -0.12890787031E+04 -0.41876593491E+03  0.14132712667E+04  0.50400001928E-02 0. -1.
</event>
<event>
 5   0  0.2792361E-07  0.3006331E+04  0.7818609E-02  0.8241925E-01
        1   -1    0    0  501    0  0.00000000000E+00  0.00000000000E+00  0.15498436860E+04  0.15498436860E+04  0.50400001928E-02 0. -1.
       -1   -1    0    0    0  501  0.00000000000E+00  0.00000000000E+00 -0.14578932867E+04  0.14578932867E+04  0.50400001928E-02 0.  1.
    10030    2    1    2    0    0  0.00000000000E+00  0.00000000000E+00  0.91950399282E+02  0.30077369727E+04  0.30063311229E+04 0.  0.
        4    1    3    3  502    0 -0.54645119010E+03  0.63674627149E+03  0.12937353788E+04  0.15420141246E+04  0.12699999809E+01 0. -1.
       -4    1    3    3    0  502  0.54645119010E+03 -0.63674627149E+03 -0.12017849795E+04  0.14657228480E+04  0.12699999809E+01 0.  1.
</event>
<event>
 5   0  0.2792361E-07  0.2996589E+04  0.7818609E-02  0.8244705E-01
       -1   -1    0    0    0  501  0.00000000000E+00  0.00000000000E+00  0.12735997825E+04  0.12735997825E+04  0.50400001928E-02 0.  1.
        1   -1    0    0  501    0  0.00000000000E+00  0.00000000000E+00 -0.17626314123E+04  0.17626314123E+04  0.50400001928E-02 0. -1.
    10030    2    1    2    0    0  0.00000000000E+00  0.00000000000E+00 -0.48903162977E+03  0.30362311948E+04  0.29965893835E+04 0.  0.
        4    1    3    3  502    0  0.61809935340E+03 -0.12321473279E+04  0.35032081157E+03  0.14223080300E+04  0.12699999809E+01 0.  1.
       -4    1    3    3    0  502 -0.61809935340E+03  0.12321473279E+04 -0.83935244134E+03  0.16139231648E+04  0.12699999809E+01 0. -1.
</event>
<event>
 5   0  0.2602891E-07  0.3069834E+04  0.7818609E-02  0.8224066E-01
       -1   -1    0    0    0  501  0.00000000000E+00  0.00000000000E+00  0.20712719579E+04  0.20712719579E+04  0.50400001928E-02 0. -1.
        1   -1    0    0  501    0  0.00000000000E+00  0.00000000000E+00 -0.11374512213E+04  0.11374512213E+04  0.50400001928E-02 0.  1.
    10030    2    1    2    0    0  0.00000000000E+00  0.00000000000E+00  0.93382073663E+03  0.32087231792E+04  0.30698344048E+04 0.  0.
        5    1    3    3  502    0  0.13609270149E+04 -0.31286013606E+03  0.11328745320E+04  0.17981742407E+04  0.46999998093E+01 0.  1.
       -5    1    3    3    0  502 -0.13609270149E+04  0.31286013606E+03 -0.19905379532E+03  0.14105489386E+04  0.46999998093E+01 0. -1.
</event>
<event>
 5   0  0.7278657E-07  0.3001272E+04  0.7818609E-02  0.8243368E-01
       -2   -1    0    0    0  501  0.00000000000E+00  0.00000000000E+00  0.98835911094E+03  0.98835911094E+03  0.25500000920E-02 0. -1.
        2   -1    0    0  501    0  0.00000000000E+00  0.00000000000E+00 -0.22784317304E+04  0.22784317304E+04  0.25500000920E-02 0.  1.
    10030    2    1    2    0    0  0.00000000000E+00  0.00000000000E+00 -0.12900726195E+04  0.32667908414E+04  0.30012722365E+04 0.  0.
        2    1    3    3  502    0 -0.17553081202E+03  0.42634439805E+03 -0.21994245265E+04  0.22472313765E+04  0.25500000920E-02 0.  1.
       -2    1    3    3    0  502  0.17553081202E+03 -0.42634439805E+03  0.90935190699E+03  0.10195594649E+04  0.25500000920E-02 0. -1.
</event>
<event>
 5   0  0.7208273E-07  0.3016008E+04  0.7818609E-02  0.8239174E-01
       -2   -1    0    0    0  501  0.00000000000E+00  0.00000000000E+00  0.20312107548E+04  0.20312107548E+04  0.25500000920E-02 0.  1.
        2   -1    0    0  501    0  0.00000000000E+00  0.00000000000E+00 -0.11195669926E+04  0.11195669926E+04  0.25500000920E-02 0. -1.
    10030    2    1    2    0    0  0.00000000000E+00  0.00000000000E+00  0.91164376222E+03  0.31507777475E+04  0.30160082998E+04 0.  0.
        4    1    3    3  502    0  0.50924213463E+03 -0.13702685234E+04  0.68990036814E+02  0.14634632267E+04  0.12699999809E+01 0. -1.
       -4    1    3    3    0  502 -0.50924213463E+03  0.13702685234E+04  0.84265372540E+03  0.16873145207E+04  0.12699999809E+01 0.  1.
</event>
<event>
 5   0  0.7585823E-07  0.3001398E+04  0.7818609E-02  0.8243332E-01
       -2   -1    0    0    0  501  0.00000000000E+00  0.00000000000E+00  0.15263845840E+04  0.15263845840E+04  0.25500000920E-02 0.  1.
        2   -1    0    0  501    0  0.00000000000E+00  0.00000000000E+00 -0.14754457098E+04  0.14754457098E+04  0.25500000920E-02 0. -1.
    10030    2    1    2    0    0  0.00000000000E+00  0.00000000000E+00  0.50938874207E+02  0.30018302939E+04  0.30013980649E+04 0.  0.
        5    1    3    3  502    0  0.42832296510E+03  0.14357909564E+04 -0.58918440461E+02  0.14994831461E+04  0.46999998093E+01 0. -1.
       -5    1    3    3    0  502 -0.42832296510E+03 -0.14357909564E+04  0.10985731467E+03  0.15023471478E+04  0.46999998093E+01 0.  1.
</event>
<event>
 5   0  0.7399409E-07  0.3003851E+04  0.7818609E-02  0.8242632E-01
        2   -1    0    0  501    0  0.00000000000E+00  0.00000000000E+00  0.17120963340E+04  0.17120963340E+04  0.25500000920E-02 0. -1.
       -2   -1    0    0    0  501  0.00000000000E+00  0.00000000000E+00 -0.13175540639E+04  0.13175540639E+04  0.25500000920E-02 0.  1.
    10030    2    1    2    0    0  0.00000000000E+00  0.00000000000E+00  0.39454227014E+03  0.30296503979E+04  0.30038505173E+04 0.  0.
        3    1    3    3  502    0 -0.39750700723E+03 -0.12208117060E+04 -0.58877265723E+03  0.14124610772E+04  0.10100000352E+00 0.  1.
       -3    1    3    3    0  502  0.39750700723E+03  0.12208117060E+04  0.98331492736E+03  0.16171893207E+04  0.10100000352E+00 0. -1.
</event>
<event>
 5   0  0.7585823E-07  0.2998708E+04  0.7818609E-02  0.8244100E-01
       -2   -1    0    0    0  501  0.00000000000E+00  0.00000000000E+00  0.12659517293E+04  0.12659517293E+04  0.25500000920E-02 0.  1.
        2   -1    0    0  501    0  0.00000000000E+00  0.00000000000E+00 -0.17757889664E+04  0.17757889664E+04  0.25500000920E-02 0. -1.
    10030    2    1    2    0    0  0.00000000000E+00  0.00000000000E+00 -0.50983723719E+03  0.30417406957E+04  0.29987084639E+04 0.  0.
        5    1    3    3  502    0 -0.13102871601E+04  0.56345447805E+03 -0.72383775771E+03  0.15994675927E+04  0.46999998093E+01 0. -1.
       -5    1    3    3    0  502  0.13102871601E+04 -0.56345447805E+03  0.21400052053E+03  0.14422731030E+04  0.46999998093E+01 0.  1.
</event>
<event>
 5   0  0.7278657E-07  0.3002717E+04  0.7818609E-02  0.8242955E-01
       -2   -1    0    0    0  501  0.00000000000E+00  0.00000000000E+00  0.89711173089E+03  0.89711173090E+03  0.25500000920E-02 0. -1.
        2   -1    0    0  501    0  0.00000000000E+00  0.00000000000E+00 -0.25125942277E+04  0.25125942277E+04  0.25500000920E-02 0.  1.
    10030    2    1    2    0    0  0.00000000000E+00  0.00000000000E+00 -0.16154824968E+04  0.34097059586E+04  0.30027172738E+04 0.  0.
        2    1    3    3  502    0  0.12218582868E+04  0.66221888670E+03 -0.16277221887E+03  0.13992734980E+04  0.25500000920E-02 0.  1.
       -2    1    3    3    0  502 -0.12218582868E+04 -0.66221888670E+03 -0.14527102779E+04  0.20104324606E+04  0.25500000920E-02 0. -1.
</event>
<event>
 5   0  0.2640081E-07  0.3018082E+04  0.7818609E-02  0.8238586E-01
        1   -1    0    0  501    0  0.00000000000E+00  0.00000000000E+00  0.14438276082E+04  0.14438276082E+04  0.50400001928E-02 0. -1.
       -1   -1    0    0    0  501  0.00000000000E+00  0.00000000000E+00 -0.15771997290E+04  0.15771997290E+04  0.50400001928E-02 0.  1.
    10030    2    1    2    0    0  0.00000000000E+00  0.00000000000E+00 -0.13337212081E+03  0.30210273372E+04  0.30180818494E+04 0.  0.
        1    1    3    3  502    0 -0.12710170471E+04 -0.80594608514E+03 -0.17711637503E+03  0.15153889391E+04  0.50400001928E-02 0. -1.
       -1    1    3    3    0  502  0.12710170471E+04  0.80594608514E+03  0.43744254222E+02  0.15056383982E+04  0.50400001928E-02 0.  1.
</event>
<event>
 5   0  0.2792361E-07  0.2999644E+04  0.7818609E-02  0.8243833E-01
        1   -1    0    0  501    0  0.00000000000E+00  0.00000000000E+00  0.13519897276E+04  0.13519897276E+04  0.50400001928E-02 0.  1.
       -1   -1    0    0    0  501  0.00000000000E+00  0.00000000000E+00 -0.16638183913E+04  0.16638183913E+04  0.50400001928E-02 0. -1.
    10030    2    1    2    0    0  0.00000000000E+00  0.00000000000E+00 -0.31182866375E+03  0.30158081189E+04  0.29996435613E+04 0.  0.
        4    1    3    3  502    0  0.95713086644E+03 -0.58073370878E+02  0.10035530285E+04  0.13880174011E+04  0.12699999809E+01 0.  1.
       -4    1    3    3    0  502 -0.95713086644E+03  0.58073370878E+02 -0.13153816922E+04  0.16277907178E+04  0.12699999809E+01 0. -1.
</event>
<event>
 5   0  0.7208273E-07  0.2996201E+04  0.7818609E-02  0.8244816E-01
       -2   -1    0    0    0  501  0.00000000000E+00  0.00000000000E+00  0.16969909227E+04  0.16969909227E+04  0.25500000920E-02 0. -1.
        2   -1    0    0  501    0  0.00000000000E+00  0.00000000000E+00 -0.13225206835E+04  0.13225206835E+04  0.25500000920E-02 0.  1.
    10030    2    1    2    0    0  0.00000000000E+00  0.00000000000E+00  0.37447023914E+03  0.30195116062E+04  0.29962013250E+04 0.  0.
        4    1    3    3  502    0  0.34199070106E+03  0.14560737909E+04  0.10174913222E+03  0.14991541025E+04  0.12699999809E+01 0. -1.
       -4    1    3    3    0  502 -0.34199070106E+03 -0.14560737909E+04  0.27272110692E+03  0.15203575038E+04  0.12699999809E+01 0.  1.
</event>
<event>
 5   0  0.7208273E-07  0.3001047E+04  0.7818609E-02  0.8243432E-01
        2   -1    0    0  501    0  0.00000000000E+00  0.00000000000E+00  0.20304552972E+04  0.20304552972E+04  0.25500000920E-02 0.  1.
       -2   -1    0    0    0  501  0.00000000000E+00  0.00000000000E+00 -0.11088991555E+04  0.11088991555E+04  0.25500000920E-02 0. -1.
    10030    2    1    2    0    0  0.00000000000E+00  0.00000000000E+00  0.92155614171E+03  0.31393544526E+04  0.30010465936E+04 0.  0.
        4    1    3    3  502    0 -0.11787578498E+04 -0.75674704758E+03 -0.10200520022E+03  0.14044724405E+04  0.12699999809E+01 0. -1.
       -4    1    3    3    0  502  0.11787578498E+04  0.75674704758E+03  0.10235613419E+04  0.17348820121E+04  0.12699999809E+01 0.  1.
</event>
<event>
 5   0  0.2679935E-07  0.2998962E+04  0.7818609E-02  0.8244027E-01
        1   -1    0    0  501    0  0.00000000000E+00  0.00000000000E+00  0.20348498037E+04  0.20348498037E+04  0.50400001928E-02 0. -1.
       -1   -1    0    0    0  501  0.00000000000E+00  0.00000000000E+00 -0.11049678807E+04  0.11049678808E+04  0.50400001928E-02 0.  1.
    10030    2    1    2    0    0  0.00000000000E+00  0.00000000000E+00  0.92988192298E+03  0.31398176845E+04  0.29989622707E+04 0.  0.
        2    1    3    3  502    0  0.18162441939E+03 -0.89353020606E+03  0.17112551846E+04  0.19390146894E+04  0.25500000920E-02 0.  1.
       -2    1    3    3    0  502 -0.18162441939E+03  0.89353020606E+03 -0.78137326166E+03  0.12008029950E+04  0.25500000920E-02 0. -1.
</event>
<event>
 5   0  0.2679935E-07  0.2996117E+04  0.7818609E-02  0.8244841E-01
       -1   -1    0    0    0  501  0.00000000000E+00  0.00000000000E+00  0.11662068275E+04  0.11662068276E+04  0.50400001928E-02 0. -1.
        1   -1    0    0  501    0  0.00000000000E+00  0.00000000000E+00 -0.19243408900E+04  0.19243408900E+04  0.50400001928E-02 0.  1.
    10030    2    1    2    0    0  0.00000000000E+00  0.00000000000E+00 -0.75813406244E+03  0.30905477176E+04  0.29961171435E+04 0.  0.
        2    1    3    3  502    0  0.33155777283E+03  0.11033916732E+04  0.60859468678E+03  0.13029931827E+04  0.25500000920E-02 0. -1.
       -2    1    3    3    0  502 -0.33155777283E+03 -0.11033916732E+04 -0.13667287492E+04  0.17875545349E+04  0.25500000920E-02 0.  1.
</event>
<event>
 5   0  0.7278657E-07  0.3001888E+04  0.7818609E-02  0.8243192E-01
       -2   -1    0    0    0  501  0.00000000000E+00  0.00000000000E+00  0.12653947311E+04  0.12653947311E+04  0.25500000920E-02 0.  1.
        2   -1    0    0  501    0  0.00000000000E+00  0.00000000000E+00 -0.17803400925E+04  0.17803400925E+04  0.25500000920E-02 0. -1.
    10030    2    1    2    0    0  0.00000000000E+00  0.00000000000E+00 -0.51494536145E+03  0.30457348236E+04  0.30018880543E+04 0.  0.
        2    1    3    3  502    0  0.59778551255E+03 -0.13747425951E+04 -0.18176202742E+03  0.15100669377E+04  0.25500000920E-02 0. -1.
       -2    1    3    3    0  502 -0.59778551255E+03  0.13747425951E+04 -0.33318333403E+03  0.15356678859E+04  0.25500000920E-02 0.  1.
</event>
<event>
 5   0  0.7399409E-07  0.2997391E+04  0.7818609E-02  0.8244476E-01
       -2   -1    0    0    0  501  0.00000000000E+00  0.00000000000E+00  0.12048194027E+04  0.12048194027E+04  0.25500000920E-02 0.  1.
        2   -1    0    0  501    0  0.00000000000E+00  0.00000000000E+00 -0.18642533653E+04  0.18642533653E+04  0.25500000920E-02 0. -1.
    10030    2    1    2    0    0  0.00000000000E+00  0.00000000000E+00 -0.65943396264E+03  0.30690727680E+04  0.29973912831E+04 0.  0.
        3    1    3    3  502    0 -0.14510625231E+04  0.36718484713E+03 -0.25253895977E+03  0.15179535877E+04  0.10100000352E+00 0.  1.
       -3    1    3    3    0  502  0.14510625231E+04 -0.36718484713E+03 -0.40689500288E+03  0.15511191803E+04  0.10100000352E+00 0. -1.
</event>
<event>
 5   0  0.7278657E-07  0.2999998E+04  0.7818609E-02  0.8243731E-01
        2   -1    0    0  501    0  0.00000000000E+00  0.00000000000E+00  0.21336457923E+04  0.21336457923E+04  0.25500000920E-02 0.  1.
       -2   -1    0    0    0  501  0.00000000000E+00  0.00000000000E+00 -0.10545317677E+04  0.10545317677E+04  0.25500000920E-02 0. -1.
    10030    2    1    2    0    0  0.00000000000E+00  0.00000000000E+00  0.10791140246E+04  0.31881775600E+04  0.29999981794E+04 0.  0.
        2    1    3    3  502    0  0.14378232620E+04  0.29272092540E+03  0.20861368115E+03  0.14820731901E+04  0.25500000920E-02 0. -1.
       -2    1    3    3    0  502 -0.14378232620E+04 -0.29272092540E+03  0.87050034347E+03  0.17061043699E+04  0.25500000920E-02 0.  1.
</event>
<event>
 5   0  0.7307508E-07  0.3001692E+04  0.7818609E-02  0.8243248E-01
        2   -1    0    0  501    0  0.00000000000E+00  0.00000000000E+00  0.17648352272E+04  0.17648352272E+04  0.25500000920E-02 0. -1.
       -2   -1    0    0    0  501  0.00000000000E+00  0.00000000000E+00 -0.12763448669E+04  0.12763448669E+04  0.25500000920E-02 0.  1.
    10030    2    1    2    0    0  0.00000000000E+00  0.00000000000E+00  0.48849036037E+03  0.30411800941E+04  0.30016917784E+04 0.  0.
        1    1    3    3  502    0 -0.25917090448E+03 -0.47691198826E+03  0.16619112140E+04  0.17483030303E+04  0.50400001928E-02 0. -1.
       -1    1    3    3    0  502  0.25917090448E+03  0.47691198826E+03 -0.11734208537E+04  0.12928770638E+04  0.50400001928E-02 0.  1.
</event>
<event>
 5   0  0.2602891E-07  0.2999709E+04  0.7818609E-02  0.8243814E-01
        1   -1    0    0  501    0  0.00000000000E+00  0.00000000000E+00  0.16044168531E+04  0.16044168531E+04  0.50400001928E-02 0.  1.
       -1   -1    0    0    0  501  0.00000000000E+00  0.00000000000E+00 -0.14021067574E+04  0.14021067574E+04  0.50400001928E-02 0. -1.
    10030    2    1    2    0    0  0.00000000000E+00  0.00000000000E+00  0.20231009574E+03  0.30065236105E+04  0.29997091269E+04 0.  0.
        5    1    3    3  502    0  0.38180147138E+03  0.23504201175E+02 -0.13523866550E+04  0.14054524416E+04  0.46999998093E+01 0. -1.
       -5    1    3    3    0  502 -0.38180147138E+03 -0.23504201175E+02  0.15546967508E+04  0.16010711689E+04  0.46999998093E+01 0.  1.
</event>
<event>
 5   0  0.7585823E-07  0.3001699E+04  0.7818609E-02  0.8243246E-01
        2   -1    0    0  501    0  0.00000000000E+00  0.00000000000E+00  0.16786510364E+04  0.16786510364E+04  0.25500000920E-02 0. -1.
       -2   -1    0    0    0  501  0.00000000000E+00  0.00000000000E+00 -0.13418809624E+04  0.13418809624E+04  0.25500000920E-02 0.  1.
    10030    2    1    2    0    0  0.00000000000E+00  0.00000000000E+00  0.33677007397E+03  0.30205319988E+04  0.30016994308E+04 0.  0.
        5    1    3    3  502    0  0.79243895157E+02  0.52557996770E+03 -0.12439927582E+04  0.13527948735E+04  0.46999998093E+01 0.  1.
       -5    1    3    3    0  502 -0.79243895157E+02 -0.52557996770E+03  0.15807628322E+04  0.16677371252E+04  0.46999998093E+01 0. -1.
</event>
<event>
 5   0  0.7208273E-07  0.2988322E+04  0.7818609E-02  0.8247073E-01
        2   -1    0    0  501    0  0.00000000000E+00  0.00000000000E+00  0.15311075506E+04  0.15311075506E+04  0.25500000920E-02 0. -1.
       -2   -1    0    0    0  501  0.00000000000E+00  0.00000000000E+00 -0.14581062666E+04  0.14581062666E+04  0.25500000920E-02 0.  1.
    10030    2    1    2    0    0  0.00000000000E+00  0.00000000000E+00  0.73001283985E+02  0.29892138172E+04  0.29883222814E+04 0.  0.
        4    1    3    3  502    0 -0.12023203685E+03  0.21911184369E+03 -0.14370478564E+04  0.14586205460E+04  0.12699999809E+01 0.  1.
       -4    1    3    3    0  502  0.12023203685E+03 -0.21911184369E+03  0.15100491404E+04  0.15305932712E+04  0.12699999809E+01 0. -1.
</event>
<event>
 5   0  0.7278657E-07  0.3000244E+04  0.7818609E-02  0.8243661E-01
       -2   -1    0    0    0  501  0.00000000000E+00  0.00000000000E+00  0.11474128669E+04  0.11474128669E+04  0.25500000920E-02 0. -1.
        2   -1    0    0  501    0  0.00000000000E+00  0.00000000000E+00 -0.19612518750E+04  0.19612518750E+04  0.25500000920E-02 0.  1.
    10030    2    1    2    0    0  0.00000000000E+00  0.00000000000E+00 -0.81383900807E+03  0.31086647420E+04  0.30002437479E+04 0.  0.
        2    1    3    3  502    0  0.14834740339E+04  0.10487879373E+03 -0.20316402409E+03  0.15009898038E+04  0.25500000920E-02 0. -1.
       -2    1    3    3    0  502 -0.14834740339E+04 -0.10487879373E+03 -0.61067498398E+03  0.16076749381E+04  0.25500000920E-02 0.  1.
</event>
<event>
 5   0  0.2602891E-07  0.3004800E+04  0.7818609E-02  0.8242362E-01
        1   -1    0    0  501    0  0.00000000000E+00  0.00000000000E+00  0.17636688540E+04  0.17636688540E+04  0.50400001928E-02 0. -1.
       -1   -1    0    0    0  501  0.00000000000E+00  0.00000000000E+00 -0.12798353088E+04  0.12798353088E+04  0.50400001928E-02 0.  1.
    10030    2    1    2    0    0  0.00000000000E+00  0.00000000000E+00  0.48383354527E+03  0.30435041628E+04  0.30047999417E+04 0.  0.
        5    1    3    3  502    0 -0.65971503657E+03  0.38418496090E+03 -0.10687218491E+04  0.13133965488E+04  0.46999998093E+01 0.  1.
       -5    1    3    3    0  502  0.65971503657E+03 -0.38418496090E+03  0.15525553943E+04  0.17301076140E+04  0.46999998093E+01 0. -1.
</event>
<event>
 5   0  0.2602891E-07  0.2923452E+04  0.7818609E-02  0.8265934E-01
       -1   -1    0    0    0  501  0.00000000000E+00  0.00000000000E+00  0.12144563999E+04  0.12144564000E+04  0.50400001928E-02 0.  1.
        1   -1    0    0  501    0  0.00000000000E+00  0.00000000000E+00 -0.17593406451E+04  0.17593406451E+04  0.50400001928E-02 0. -1.
    10030    2    1    2    0    0  0.00000000000E+00  0.00000000000E+00 -0.54488424516E+03  0.29737970451E+04  0.29234517312E+04 0.  0.
        5    1    3    3  502    0  0.34536536109E+03 -0.33809971498E+03 -0.16757029983E+04  0.17440158481E+04  0.46999998093E+01 0. -1.
       -5    1    3    3    0  502 -0.34536536109E+03  0.33809971498E+03  0.11308187531E+04  0.12297811970E+04  0.46999998093E+01 0.  1.
</event>
<event>
 5   0  0.7307508E-07  0.3008346E+04  0.7818609E-02  0.8241352E-01
       -2   -1    0    0    0  501  0.00000000000E+00  0.00000000000E+00  0.19414954305E+04  0.19414954305E+04  0.25500000920E-02 0.  1.
        2   -1    0    0  501    0  0.00000000000E+00  0.00000000000E+00 -0.11653577483E+04  0.11653577483E+04  0.25500000920E-02 0. -1.
    10030    2    1    2    0    0  0.00000000000E+00  0.00000000000E+00  0.77613768217E+03  0.31068531789E+04  0.30083462190E+04 0.  0.
        1    1    3    3  502    0 -0.30386253875E+03  0.66763880220E+03  0.17442566014E+04  0.18922222660E+04  0.50400001928E-02 0.  1.
       -1    1    3    3    0  502  0.30386253875E+03 -0.66763880220E+03 -0.96811891919E+03  0.12146309128E+04  0.50400001928E-02 0. -1.
</event>
<event>
 5   0  0.7585823E-07  0.2997424E+04  0.7818609E-02  0.8244467E-01
        2   -1    0    0  501    0  0.00000000000E+00  0.00000000000E+00  0.18832679617E+04  0.18832679617E+04  0.25500000920E-02 0. -1.
       -2   -1    0    0    0  501  0.00000000000E+00  0.00000000000E+00 -0.11926806832E+04  0.11926806832E+04  0.25500000920E-02 0.  1.
    10030    2    1    2    0    0  0.00000000000E+00  0.00000000000E+00  0.69058727847E+03  0.30759486449E+04  0.29974237733E+04 0.  0.
        5    1    3    3  502    0  0.91011235672E+03  0.11778680963E+04  0.52432752817E+03  0.15781695729E+04  0.46999998093E+01 0. -1.
       -5    1    3    3    0  502 -0.91011235672E+03 -0.11778680963E+04  0.16625975030E+03  0.14977790720E+04  0.46999998093E+01 0.  1.
</event>
<event>
 5   0  0.7585823E-07  0.2980871E+04  0.7818609E-02  0.8249215E-01
        2   -1    0    0  501    0  0.00000000000E+00  0.00000000000E+00  0.13685668188E+04  0.13685668188E+04  0.25500000920E-02 0. -1.
       -2   -1    0    0    0  501  0.00000000000E+00  0.00000000000E+00 -0.16231559339E+04  0.16231559339E+04  0.25500000920E-02 0.  1.
    10030    2    1    2    0    0  0.00000000000E+00  0.00000000000E+00 -0.25458911517E+03  0.29917227527E+04  0.29808705794E+04 0.  0.
        5    1    3    3  502    0  0.48058557978E+02 -0.13610430247E+04  0.48040756875E+03  0.14441472439E+04  0.46999998093E+01 0. -1.
       -5    1    3    3    0  502 -0.48058557978E+02  0.13610430247E+04 -0.73499668392E+03  0.15475755088E+04  0.46999998093E+01 0.  1.
</event>
<event>
 5   0  0.2792361E-07  0.2998239E+04  0.7818609E-02  0.8244234E-01
       -1   -1    0    0    0  501  0.00000000000E+00  0.00000000000E+00  0.83786660372E+03  0.83786660373E+03  0.50400001928E-02 0. -1.
        1   -1    0    0  501    0  0.00000000000E+00  0.00000000000E+00 -0.26822396462E+04  0.26822396462E+04  0.50400001928E-02 0.  1.
    10030    2    1    2    0    0  0.00000000000E+00  0.00000000000E+00 -0.18443730425E+04  0.35201062499E+04  0.29982388316E+04 0.  0.
        4    1    3    3  502    0  0.91454706774E+03 -0.81095938997E+03  0.96815964129E+02  0.12261429016E+04  0.12699999809E+01 0.  1.
       -4    1    3    3    0  502 -0.91454706774E+03  0.81095938997E+03 -0.19411890066E+04  0.22939633484E+04  0.12699999809E+01 0. -1.
</event>
<event>
 5   0  0.2792361E-07  0.2985985E+04  0.7818609E-02  0.8247744E-01
        1   -1    0    0  501    0  0.00000000000E+00  0.00000000000E+00  0.14310323240E+04  0.14310323241E+04  0.50400001928E-02 0.  1.
       -1   -1    0    0    0  501  0.00000000000E+00  0.00000000000E+00 -0.15576356731E+04  0.15576356731E+04  0.50400001928E-02 0. -1.
    10030    2    1    2    0    0  0.00000000000E+00  0.00000000000E+00 -0.12660334902E+03  0.29886679971E+04  0.29859852627E+04 0.  0.
        4    1    3    3  502    0 -0.11971998598E+04 -0.88100228746E+03 -0.20333037012E+03  0.15002657721E+04  0.12699999809E+01 0. -1.
       -4    1    3    3    0  502  0.11971998598E+04  0.88100228746E+03  0.76727021102E+02  0.14884022250E+04  0.12699999809E+01 0.  1.
</event>
<event>
 5   0  0.2679935E-07  0.2995891E+04  0.7818609E-02  0.8244905E-01
        1   -1    0    0  501    0  0.00000000000E+00  0.00000000000E+00  0.21605723906E+04  0.21605723906E+04  0.50400001928E-02 0.  1.
       -1   -1    0    0    0  501  0.00000000000E+00  0.00000000000E+00 -0.10385398748E+04  0.10385398748E+04  0.50400001928E-02 0. -1.
    10030    2    1    2    0    0  0.00000000000E+00  0.00000000000E+00  0.11220325158E+04  0.31991122654E+04  0.29958909059E+04 0.  0.
        2    1    3    3  502    0 -0.99782119031E+03 -0.34872022035E+03 -0.57239097876E+03  0.12020334240E+04  0.25500000920E-02 0. -1.
       -2    1    3    3    0  502  0.99782119031E+03  0.34872022035E+03  0.16944234945E+04  0.19970788414E+04  0.25500000920E-02 0.  1.
</event>
<event>
 5   0  0.7307508E-07  0.2998835E+04  0.7818609E-02  0.8244064E-01
       -2   -1    0    0    0  501  0.00000000000E+00  0.00000000000E+00  0.16284779911E+04  0.16284779911E+04  0.25500000920E-02 0.  1.
        2   -1    0    0  501    0  0.00000000000E+00  0.00000000000E+00 -0.13805851441E+04  0.13805851441E+04  0.25500000920E-02 0. -1.
    10030    2    1    2    0    0  0.00000000000E+00  0.00000000000E+00  0.24789284706E+03  0.30090631352E+04  0.29988347884E+04 0.  0.
        1    1    3    3  502    0 -0.93779551473E+02 -0.11647181652E+03  0.16209775380E+04  0.16278600883E+04  0.50400001928E-02 0.  1.
       -1    1    3    3    0  502  0.93779551473E+02  0.11647181652E+03 -0.13730846909E+04  0.13812030469E+04  0.50400001928E-02 0. -1.
</event>
<event>
 5   0  0.7585823E-07  0.2987677E+04  0.7818609E-02  0.8247259E-01
        2   -1    0    0  501    0  0.00000000000E+00  0.00000000000E+00  0.14348888320E+04  0.14348888320E+04  0.25500000920E-02 0. -1.
       -2   -1    0    0    0  501  0.00000000000E+00  0.00000000000E+00 -0.15552100859E+04  0.15552100859E+04  0.25500000920E-02 0.  1.
    10030    2    1    2    0    0  0.00000000000E+00  0.00000000000E+00 -0.12032125390E+03  0.29900989179E+04  0.29876770801E+04 0.  0.
        5    1    3    3  502    0  0.90619492174E+03 -0.22163719510E+02 -0.12484945990E+04  0.15428678882E+04  0.46999998093E+01 0.  1.
       -5    1    3    3    0  502 -0.90619492174E+03  0.22163719510E+02  0.11281733451E+04  0.14472310297E+04  0.46999998093E+01 0. -1.
</event>
<event>
 5   0  0.7399409E-07  0.3006047E+04  0.7818609E-02  0.8242006E-01
        2   -1    0    0  501    0  0.00000000000E+00  0.00000000000E+00  0.21127357756E+04  0.21127357756E+04  0.25500000920E-02 0.  1.
       -2   -1    0    0    0  501  0.00000000000E+00  0.00000000000E+00 -0.10692674134E+04  0.10692674134E+04  0.25500000920E-02 0. -1.
    10030    2    1    2    0    0  0.00000000000E+00  0.00000000000E+00  0.10434683621E+04  0.31820031890E+04  0.30060469178E+04 0.  0.
        3    1    3    3  502    0  0.91958907184E+03  0.59765224561E+03 -0.56616249410E+03  0.12342496699E+04  0.10100000352E+00 0.  1.
       -3    1    3    3    0  502 -0.91958907184E+03 -0.59765224561E+03  0.16096308562E+04  0.19477535191E+04  0.10100000352E+00 0. -1.
</event>
<event>
 5   0  0.2640081E-07  0.2998182E+04  0.7818609E-02  0.8244250E-01
       -1   -1    0    0    0  501  0.00000000000E+00  0.00000000000E+00  0.90023788938E+03  0.90023788940E+03  0.50400001928E-02 0. -1.
        1   -1    0    0  501    0  0.00000000000E+00  0.00000000000E+00 -0.24963110830E+04  0.24963110830E+04  0.50400001928E-02 0.  1.
    10030    2    1    2    0    0  0.00000000000E+00  0.00000000000E+00 -0.15960731936E+04  0.33965489724E+04  0.29981819962E+04 0.  0.
        1    1    3    3  502    0 -0.18226689247E+03 -0.12782594696E+04 -0.16608826487E+04  0.21037346944E+04  0.50400001928E-02 0.  1.
       -1    1    3    3    0  502  0.18226689247E+03  0.12782594696E+04  0.64809455087E+02  0.12928142780E+04  0.50400001928E-02 0. -1.
</event>
<event>
 5   0  0.7307508E-07  0.2995674E+04  0.7818609E-02  0.8244967E-01
       -2   -1    0    0    0  501  0.00000000000E+00  0.00000000000E+00  0.12443679301E+04  0.12443679301E+04  0.25500000920E-02 0.  1.
        2   -1    0    0  501    0  0.00000000000E+00  0.00000000000E+00 -0.18029357323E+04  0.18029357323E+04  0.25500000920E-02 0. -1.
    10030    2    1    2    0    0  0.00000000000E+00  0.00000000000E+00 -0.55856780214E+03  0.30473036624E+04  0.29956738176E+04 0.  0.
        1    1    3    3  502    0  0.14806752002E+04 -0.11961190585E+03 -0.84119646170E+02  0.14878784128E+04  0.50400001928E-02 0.  1.
       -1    1    3    3    0  502 -0.14806752002E+04  0.11961190585E+03 -0.47444815597E+03  0.15594252496E+04  0.50400001928E-02 0. -1.
</event>
<event>
 5   0  0.2792361E-07  0.3000904E+04  0.7818609E-02  0.8243473E-01
        1   -1    0    0  501    0  0.00000000000E+00  0.00000000000E+00  0.21331706621E+04  0.21331706621E+04  0.50400001928E-02 0. -1.
       -1   -1    0    0    0  501  0.00000000000E+00  0.00000000000E+00 -0.10554038341E+04  0.10554038341E+04  0.50400001928E-02 0.  1.
    10030    2    1    2    0    0  0.00000000000E+00  0.00000000000E+00  0.10777668280E+04  0.31885744961E+04  0.30009041940E+04 0.  0.
        4    1    3    3  502    0 -0.11295757425E+04 -0.97354092402E+03  0.71550647409E+03  0.16539874293E+04  0.12699999809E+01 0. -1.
       -4    1    3    3    0  502  0.11295757425E+04  0.97354092402E+03  0.36226035390E+03  0.15345870668E+04  0.12699999809E+01 0.  1.
</event>
<event>
 5   0  0.7399409E-07  0.2999931E+04  0.7818609E-02  0.8243751E-01
       -2   -1    0    0    0  501  0.00000000000E+00  0.00000000000E+00  0.10805413715E+04  0.10805413715E+04  0.25500000920E-02 0. -1.
        2   -1    0    0  501    0  0.00000000000E+00  0.00000000000E+00 -0.20821933521E+04  0.20821933521E+04  0.25500000920E-02 0.  1.
    10030    2    1    2    0    0  0.00000000000E+00  0.00000000000E+00 -0.10016519807E+04  0.31627347236E+04  0.29999307061E+04 0.  0.
        3    1    3    3  502    0 -0.48869141448E+03 -0.13918544798E+04 -0.21438691382E+03  0.14906508480E+04  0.10100000352E+00 0. -1.
       -3    1    3    3    0  502  0.48869141448E+03  0.13918544798E+04 -0.78726506684E+03  0.16720838756E+04  0.10100000352E+00 0.  1.
</event>
<event>
 5   0  0.7208273E-07  0.3019399E+04  0.7818609E-02  0.8238213E-01
       -2   -1    0    0    0  501  0.00000000000E+00  0.00000000000E+00  0.20639582799E+04  0.20639582799E+04  0.25500000920E-02 0. -1.
        2   -1    0    0  501    0  0.00000000000E+00  0.00000000000E+00 -0.11042824202E+04  0.11042824203E+04  0.25500000920E-02 0.  1.
    10030    2    1    2    0    0  0.00000000000E+00  0.00000000000E+00  0.95967585962E+03  0.31682407001E+04  0.30193991751E+04 0.  0.
        4    1    3    3  502    0  0.45723626550E+03 -0.80246557953E+03 -0.77325731008E+03  0.12045515719E+04  0.12699999809E+01 0.  1.
       -4    1    3    3    0  502 -0.45723626550E+03  0.80246557953E+03  0.17329331697E+04  0.19636891282E+04  0.12699999809E+01 0. -1.
</event>
<event>
 5   0  0.2640081E-07  0.3007399E+04  0.7818609E-02  0.8241621E-01
       -1   -1    0    0    0  501  0.00000000000E+00  0.00000000000E+00  0.11886663203E+04  0.11886663203E+04  0.50400001928E-02 0. -1.
        1   -1    0    0  501    0  0.00000000000E+00  0.00000000000E+00 -0.19022267070E+04  0.19022267070E+04  0.50400001928E-02 0.  1.
    10030    2    1    2    0    0  0.00000000000E+00  0.00000000000E+00 -0.71356038667E+03  0.30908930273E+04  0.30073994216E+04 0.  0.
        1    1    3    3  502    0  0.14204359015E+02 -0.55083468564E+03 -0.17947272086E+04  0.18774094833E+04  0.50400001928E-02 0.  1.
       -1    1    3    3    0  502 -0.14204359015E+02  0.55083468564E+03  0.10811668219E+04  0.12134835440E+04  0.50400001928E-02 0. -1.
</event>
<event>
 5   0  0.7307508E-07  0.3001900E+04  0.7818609E-02  0.8243189E-01
       -2   -1    0    0    0  501  0.00000000000E+00  0.00000000000E+00  0.31121394512E+04  0.31121394512E+04  0.25500000920E-02 0. -1.
        2   -1    0    0  501    0  0.00000000000E+00  0.00000000000E+00 -0.72389134590E+03  0.72389134590E+03  0.25500000920E-02 0.  1.
    10030    2    1    2    0    0  0.00000000000E+00  0.00000000000E+00  0.23882481053E+04  0.38360307971E+04  0.30018999423E+04 0.  0.
        1    1    3    3  502    0 -0.12284543676E+04 -0.53088557377E+03  0.20626146370E+04  0.24587229951E+04  0.50400001928E-02 0.  1.
       -1    1    3    3    0  502  0.12284543676E+04  0.53088557377E+03  0.32563346823E+03  0.13773078020E+04  0.50400001928E-02 0. -1.
</event>
<event>
 5   0  0.2602891E-07  0.2998679E+04  0.7818609E-02  0.8244108E-01
        1   -1    0    0  501    0  0.00000000000E+00  0.00000000000E+00  0.13738164291E+04  0.13738164291E+04  0.50400001928E-02 0.  1.
       -1   -1    0    0    0  501  0.00000000000E+00  0.00000000000E+00 -0.16363312647E+04  0.16363312647E+04  0.50400001928E-02 0. -1.
    10030    2    1    2    0    0  0.00000000000E+00  0.00000000000E+00 -0.26251483565E+03  0.30101476938E+04  0.29986788924E+04 0.  0.
        5    1    3    3  502    0 -0.29299234941E+03  0.14493338202E+04 -0.38036706117E+03  0.15267986869E+04  0.46999998093E+01 0. -1.
       -5    1    3    3    0  502  0.29299234941E+03 -0.14493338202E+04  0.11785222552E+03  0.14833490069E+04  0.46999998093E+01 0.  1.
</event>
<event>
 5   0  0.2602891E-07  0.3003436E+04  0.7818609E-02  0.8242750E-01
       -1   -1    0    0    0  501  0.00000000000E+00  0.00000000000E+00  0.12904042573E+04  0.12904042573E+04  0.50400001928E-02 0. -1.
        1   -1    0    0  501    0  0.00000000000E+00  0.00000000000E+00 -0.17476356954E+04  0.17476356954E+04  0.50400001928E-02 0.  1.
    10030    2    1    2    0    0  0.00000000000E+00  0.00000000000E+00 -0.45723143807E+03  0.30380399527E+04  0.30034357270E+04 0.  0.
        5    1    3    3  502    0  0.39491006174E+03 -0.66066092659E+03  0.10757010679E+04  0.13227175414E+04  0.46999998093E+01 0. -1.
       -5    1    3    3    0  502 -0.39491006174E+03  0.66066092659E+03 -0.15329325060E+04  0.17153224113E+04  0.46999998093E+01 0.  1.
</event>
<event>
 5   0  0.2640081E-07  0.2995959E+04  0.7818609E-02  0.8244886E-01
        1   -1    0    0  501    0  0.00000000000E+00  0.00000000000E+00  0.87337410622E+03  0.87337410623E+03  0.50400001928E-02 0. -1.
       -1   -1    0    0    0  501  0.00000000000E+00  0.00000000000E+00 -0.25692797734E+04  0.25692797734E+04  0.50400001928E-02 0.  1.
    10030    2    1    2    0    0  0.00000000000E+00  0.00000000000E+00 -0.16959056672E+04  0.34426538796E+04  0.29959588954E+04 0.  0.
        1    1    3    3  502    0 -0.90114970902E+03  0.14067176011E+03  0.51753437462E+03  0.10486663774E+04  0.50400001928E-02 0. -1.
       -1    1    3    3    0  502  0.90114970902E+03 -0.14067176011E+03 -0.22134400418E+04  0.23939875022E+04  0.50400001928E-02 0.  1.
</event>
<event>
 5   0  0.2621825E-07  0.2996751E+04  0.7818609E-02  0.8244659E-01
       -1   -1    0    0    0  501  0.00000000000E+00  0.00000000000E+00  0.13301523802E+04  0.13301523802E+04  0.50400001928E-02 0. -1.
        1   -1    0    0  501    0  0.00000000000E+00  0.00000000000E+00 -0.16878731571E+04  0.16878731571E+04  0.50400001928E-02 0.  1.
    10030    2    1    2    0    0  0.00000000000E+00  0.00000000000E+00 -0.35772077685E+03  0.30180255373E+04  0.29967505718E+04 0.  0.
        3    1    3    3  502    0 -0.14769494709E+04 -0.23337436768E+03 -0.81816804937E+02  0.14975103789E+04  0.10100000352E+00 0. -1.
       -3    1    3    3    0  502  0.14769494709E+04  0.23337436768E+03 -0.27590397192E+03  0.15205151584E+04  0.10100000352E+00 0.  1.
</event>
<event>
 5   0  0.2621825E-07  0.2999696E+04  0.7818609E-02  0.8243818E-01
       -1   -1    0    0    0  501  0.00000000000E+00  0.00000000000E+00  0.92733651848E+03  0.92733651849E+03  0.50400001928E-02 0.  1.
        1   -1    0    0  501    0  0.00000000000E+00  0.00000000000E+00 -0.24258123877E+04  0.24258123877E+04  0.50400001928E-02 0. -1.
    10030    2    1    2    0    0  0.00000000000E+00  0.00000000000E+00 -0.14984758692E+04  0.33531489062E+04  0.29996962607E+04 0.  0.
        3    1    3    3  502    0  0.61541014347E+03 -0.31305052623E+03 -0.22375950915E+04  0.23417006812E+04  0.10100000352E+00 0. -1.
       -3    1    3    3    0  502 -0.61541014347E+03  0.31305052623E+03  0.73911922235E+03  0.10114482249E+04  0.10100000352E+00 0.  1.
</event>
<event>
 5   0  0.2792361E-07  0.3000088E+04  0.7818609E-02  0.8243706E-01
        1   -1    0    0  501    0  0.00000000000E+00  0.00000000000E+00  0.21247647040E+04  0.21247647040E+04  0.50400001928E-02 0.  1.
       -1   -1    0    0    0  501  0.00000000000E+00  0.00000000000E+00 -0.10590030203E+04  0.10590030203E+04  0.50400001928E-02 0. -1.
    10030    2    1    2    0    0  0.00000000000E+00  0.00000000000E+00  0.10657616838E+04  0.31837677243E+04  0.30000881580E+04 0.  0.
        4    1    3    3  502    0  0.23992134003E+03 -0.12396059883E+04  0.13923715672E+04  0.18795971509E+04  0.12699999809E+01 0.  1.
       -4    1    3    3    0  502 -0.23992134003E+03  0.12396059883E+04 -0.32660988345E+03  0.13041705734E+04  0.12699999809E+01 0. -1.
</event>
<event>
 5   0  0.2621825E-07  0.2995619E+04  0.7818609E-02  0.8244983E-01
        1   -1    0    0  501    0  0.00000000000E+00  0.00000000000E+00  0.17639771062E+04  0.17639771062E+04  0.50400001928E-02 0.  1.
       -1   -1    0    0    0  501  0.00000000000E+00  0.00000000000E+00 -0.12718037338E+04  0.12718037338E+04  0.50400001928E-02 0. -1.
    10030    2    1    2    0    0  0.00000000000E+00  0.00000000000E+00  0.49217337237E+03  0.30357808400E+04  0.29956185805E+04 0.  0.
        3    1    3    3  502    0 -0.77678645878E+02 -0.14861856919E+04  0.41762143168E+03  0.15457003439E+04  0.10100000352E+00 0.  1.
       -3    1    3    3    0  502  0.77678645878E+02  0.14861856919E+04  0.74551940688E+02  0.14900804961E+04  0.10100000352E+00 0. -1.
</event>
<event>
 5   0  0.2640081E-07  0.3013798E+04  0.7818609E-02  0.8239802E-01
       -1   -1    0    0    0  501  0.00000000000E+00  0.00000000000E+00  0.11168757188E+04  0.11168757188E+04  0.50400001928E-02 0. -1.
        1   -1    0    0  501    0  0.00000000000E+00  0.00000000000E+00 -0.20331222982E+04  0.20331222982E+04  0.50400001928E-02 0.  1.
    10030    2    1    2    0    0  0.00000000000E+00  0.00000000000E+00 -0.91624657942E+03  0.31499980170E+04  0.30137982203E+04 0.  0.
        1    1    3    3  502    0  0.16652361016E+03 -0.63812719853E+03 -0.18742750475E+04  0.19869180628E+04  0.50400001928E-02 0.  1.
       -1    1    3    3    0  502 -0.16652361016E+03  0.63812719853E+03  0.95802846813E+03  0.11630799543E+04  0.50400001928E-02 0. -1.
</event>
<event>
 5   0  0.2602891E-07  0.3001764E+04  0.7818609E-02  0.8243227E-01
       -1   -1    0    0    0  501  0.00000000000E+00  0.00000000000E+00  0.95172647828E+03  0.95172647829E+03  0.50400001928E-02 0.  1.
        1   -1    0    0  501    0  0.00000000000E+00  0.00000000000E+00 -0.23669051822E+04  0.23669051822E+04  0.50400001928E-02 0. -1.
    10030    2    1    2    0    0  0.00000000000E+00  0.00000000000E+00 -0.14151787040E+04  0.33186316605E+04  0.30017637039E+04 0.  0.
        5    1    3    3  502    0  0.50208712805E+01  0.12792319815E+04 -0.15754118642E+04  0.20293852033E+04  0.46999998093E+01 0. -1.
       -5    1    3    3    0  502 -0.50208712805E+01 -0.12792319815E+04  0.16023316022E+03  0.12892464572E+04  0.46999998093E+01 0.  1.
</event>
<event>
 5   0  0.7399409E-07  0.2997630E+04  0.7818609E-02  0.8244408E-01
       -2   -1    0    0    0  501  0.00000000000E+00  0.00000000000E+00  0.11781320440E+04  0.11781320440E+04  0.25500000920E-02 0.  1.
        2   -1    0    0  501    0  0.00000000000E+00  0.00000000000E+00 -0.19067860870E+04  0.19067860870E+04  0.25500000920E-02 0. -1.
    10030    2    1    2    0    0  0.00000000000E+00  0.00000000000E+00 -0.72865404299E+03  0.30849181309E+04  0.29976295902E+04 0.  0.
        3    1    3    3  502    0 -0.93103059140E+03  0.61595643823E+02  0.84278802192E+03  0.12573399085E+04  0.10100000352E+00 0.  1.
       -3    1    3    3    0  502  0.93103059140E+03 -0.61595643823E+02 -0.15714420649E+04  0.18275782224E+04  0.10100000352E+00 0. -1.
</event>
<event>
 5   0  0.7278657E-07  0.2997376E+04  0.7818609E-02  0.8244481E-01
       -2   -1    0    0    0  501  0.00000000000E+00  0.00000000000E+00  0.13113343604E+04  0.13113343604E+04  0.25500000920E-02 0.  1.
        2   -1    0    0  501    0  0.00000000000E+00  0.00000000000E+00 -0.17128092168E+04  0.17128092168E+04  0.25500000920E-02 0. -1.
    10030    2    1    2    0    0  0.00000000000E+00  0.00000000000E+00 -0.40147485634E+03  0.30241435772E+04  0.29973759049E+04 0.  0.
        2    1    3    3  502    0  0.50486474322E+03 -0.14108904855E+04 -0.22472383907E+03  0.15152561417E+04  0.25500000920E-02 0. -1.
       -2    1    3    3    0  502 -0.50486474322E+03  0.14108904855E+04 -0.17675101727E+03  0.15088874356E+04  0.25500000920E-02 0.  1.
</event>
<event>
 5   0  0.2602891E-07  0.3005325E+04  0.7818609E-02  0.8242212E-01
        1   -1    0    0  501    0  0.00000000000E+00  0.00000000000E+00  0.23461145302E+04  0.23461145302E+04  0.50400001928E-02 0.  1.
       -1   -1    0    0    0  501  0.00000000000E+00  0.00000000000E+00 -0.96244018059E+03  0.96244018061E+03  0.50400001928E-02 0. -1.
    10030    2    1    2    0    0  0.00000000000E+00  0.00000000000E+00  0.13836743496E+04  0.33085547108E+04  0.30053252018E+04 0.  0.
        5    1    3    3  502    0  0.35728715052E+03  0.54658074497E+03 -0.79806719086E+03  0.10311827917E+04  0.46999998093E+01 0. -1.
       -5    1    3    3    0  502 -0.35728715052E+03 -0.54658074497E+03  0.21817415405E+04  0.22773719192E+04  0.46999998093E+01 0.  1.
</event>
<event>
 5   0  0.7399409E-07  0.3016037E+04  0.7818609E-02  0.8239166E-01
       -2   -1    0    0    0  501  0.00000000000E+00  0.00000000000E+00  0.11845777508E+04  0.11845777508E+04  0.25500000920E-02 0. -1.
        2   -1    0    0  501    0  0.00000000000E+00  0.00000000000E+00 -0.19197725776E+04  0.19197725776E+04  0.25500000920E-02 0.  1.
    10030    2    1    2    0    0  0.00000000000E+00  0.00000000000E+00 -0.73519482685E+03  0.31043503284E+04  0.30160370568E+04 0.  0.
        3    1    3    3  502    0 -0.98178170144E+03 -0.11319882665E+04 -0.54235447480E+03  0.15935624027E+04  0.10100000352E+00 0.  1.
       -3    1    3    3    0  502  0.98178170144E+03  0.11319882665E+04 -0.19284035206E+03  0.15107879257E+04  0.10100000352E+00 0. -1.
</event>
<event>
 5   0  0.7307508E-07  0.2999294E+04  0.7818609E-02  0.8243933E-01
       -2   -1    0    0    0  501  0.00000000000E+00  0.00000000000E+00  0.10638438473E+04  0.10638438473E+04  0.25500000920E-02 0. -1.
        2   -1    0    0  501    0  0.00000000000E+00  0.00000000000E+00 -0.21139762676E+04  0.21139762676E+04  0.25500000920E-02 0.  1.
    10030    2    1    2    0    0  0.00000000000E+00  0.00000000000E+00 -0.10501324203E+04  0.31778201150E+04  0.29992936807E+04 0.  0.
        1    1    3    3  502    0  0.57170738951E+03 -0.93653717513E+03  0.55802807721E+03  0.12309941326E+04  0.50400001928E-02 0. -1.
       -1    1    3    3    0  502 -0.57170738951E+03  0.93653717513E+03 -0.16081604975E+04  0.19468259823E+04  0.50400001928E-02 0.  1.
</event>
<event>
 5   0  0.7208273E-07  0.3001778E+04  0.7818609E-02  0.8243223E-01
        2   -1    0    0  501    0  0.00000000000E+00  0.00000000000E+00  0.21173592098E+04  0.21173592098E+04  0.25500000920E-02 0. -1.
       -2   -1    0    0    0  501  0.00000000000E+00  0.00000000000E+00 -0.10639040764E+04  0.10639040764E+04  0.25500000920E-02 0.  1.
    10030    2    1    2    0    0  0.00000000000E+00  0.00000000000E+00  0.10534551334E+04  0.31812632862E+04  0.30017775364E+04 0.  0.
        4    1    3    3  502    0  0.81736995643E+03 -0.83950818298E+03 -0.46733233941E+03  0.12614550184E+04  0.12699999809E+01 0.  1.
       -4    1    3    3    0  502 -0.81736995643E+03  0.83950818298E+03  0.15207874728E+04  0.19198082679E+04  0.12699999809E+01 0. -1.
</event>
<event>
 5   0  0.7278657E-07  0.3013903E+04  0.7818609E-02  0.8239772E-01
        2   -1    0    0  501    0  0.00000000000E+00  0.00000000000E+00  0.23476905926E+04  0.23476905926E+04  0.25500000920E-02 0. -1.
       -2   -1    0    0    0  501  0.00000000000E+00  0.00000000000E+00 -0.96729217031E+03  0.96729217032E+03  0.25500000920E-02 0.  1.
    10030    2    1    2    0    0  0.00000000000E+00  0.00000000000E+00  0.13803984223E+04  0.33149827629E+04  0.30139029371E+04 0.  0.
        2    1    3    3  502    0  0.41562313698E+02  0.15063782036E+04  0.69008779495E+03  0.16574449864E+04  0.25500000920E-02 0.  1.
       -2    1    3    3    0  502 -0.41562313698E+02 -0.15063782036E+04  0.69031062730E+03  0.16575377765E+04  0.25500000920E-02 0. -1.
</event>
<event>
 5   0  0.2602891E-07  0.3000559E+04  0.7818609E-02  0.8243571E-01
        1   -1    0    0  501    0  0.00000000000E+00  0.00000000000E+00  0.82621816404E+03  0.82621816405E+03  0.50400001928E-02 0.  1.
       -1   -1    0    0    0  501  0.00000000000E+00  0.00000000000E+00 -0.27242660913E+04  0.27242660913E+04  0.50400001928E-02 0. -1.
    10030    2    1    2    0    0  0.00000000000E+00  0.00000000000E+00 -0.18980479273E+04  0.35504842554E+04  0.30005587002E+04 0.  0.
        5    1    3    3  502    0  0.59043933252E+03  0.10425978834E+04  0.11932740186E+03  0.12041138114E+04  0.46999998093E+01 0.  1.
       -5    1    3    3    0  502 -0.59043933252E+03 -0.10425978834E+04 -0.20173753291E+04  0.23463704440E+04  0.46999998093E+01 0. -1.
</event>
<event>
 5   0  0.7278657E-07  0.2988597E+04  0.7818609E-02  0.8246995E-01
       -2   -1    0    0    0  501  0.00000000000E+00  0.00000000000E+00  0.19181260230E+04  0.19181260230E+04  0.25500000920E-02 0.  1.
        2   -1    0    0  501    0  0.00000000000E+00  0.00000000000E+00 -0.11641193728E+04  0.11641193728E+04  0.25500000920E-02 0. -1.
    10030    2    1    2    0    0  0.00000000000E+00  0.00000000000E+00  0.75400665022E+03  0.30822453958E+04  0.29885967696E+04 0.  0.
        2    1    3    3  502    0  0.14413730400E+04  0.38869613023E+03  0.30947849551E+03  0.15246041654E+04  0.25500000920E-02 0.  1.
       -2    1    3    3    0  502 -0.14413730400E+04 -0.38869613023E+03  0.44452815471E+03  0.15576412303E+04  0.25500000920E-02 0. -1.
</event>
<event>
 5   0  0.2602891E-07  0.2994266E+04  0.7818609E-02  0.8245370E-01
        1   -1    0    0  501    0  0.00000000000E+00  0.00000000000E+00  0.13151004306E+04  0.13151004306E+04  0.50400001928E-02 0.  1.
       -1   -1    0    0    0  501  0.00000000000E+00  0.00000000000E+00 -0.17043620780E+04  0.17043620780E+04  0.50400001928E-02 0. -1.
    10030    2    1    2    0    0  0.00000000000E+00  0.00000000000E+00 -0.38926164739E+03  0.30194625086E+04  0.29942660554E+04 0.  0.
        5    1    3    3  502    0 -0.14232748809E+04 -0.28315595730E+03 -0.56582686918E+03  0.15575849315E+04  0.46999998093E+01 0. -1.
       -5    1    3    3    0  502  0.14232748809E+04  0.28315595730E+03  0.17656522179E+03  0.14618775771E+04  0.46999998093E+01 0.  1.
</event>
<event>
 5   0  0.2792361E-07  0.2997303E+04  0.7818609E-02  0.8244501E-01
       -1   -1    0    0    0  501  0.00000000000E+00  0.00000000000E+00  0.20149878035E+04  0.20149878035E+04  0.50400001928E-02 0. -1.
        1   -1    0    0  501    0  0.00000000000E+00  0.00000000000E+00 -0.11146255132E+04  0.11146255133E+04  0.50400001928E-02 0.  1.
    10030    2    1    2    0    0  0.00000000000E+00  0.00000000000E+00  0.90036229028E+03  0.31296133168E+04  0.29973033311E+04 0.  0.
        4    1    3    3  502    0  0.15263381877E+03  0.13406322708E+04 -0.23080763904E+03  0.13688921606E+04  0.12699999809E+01 0.  1.
       -4    1    3    3    0  502 -0.15263381877E+03 -0.13406322708E+04  0.11311699293E+04  0.17607211562E+04  0.12699999809E+01 0. -1.
</event>
<event>
 5   0  0.2679935E-07  0.3001631E+04  0.7818609E-02  0.8243265E-01
       -1   -1    0    0    0  501  0.00000000000E+00  0.00000000000E+00  0.16402482792E+04  0.16402482792E+04  0.50400001928E-02 0. -1.
        1   -1    0    0  501    0  0.00000000000E+00  0.00000000000E+00 -0.13732352595E+04  0.13732352595E+04  0.50400001928E-02 0.  1.
    10030    2    1    2    0    0  0.00000000000E+00  0.00000000000E+00  0.26701301970E+03  0.30134835387E+04  0.30016307377E+04 0.  0.
        2    1    3    3  502    0  0.20415410027E+03  0.49232888798E+03 -0.12750233131E+04  0.13819374369E+04  0.25500000920E-02 0.  1.
       -2    1    3    3    0  502 -0.20415410027E+03 -0.49232888798E+03  0.15420363328E+04  0.16315461018E+04  0.25500000920E-02 0. -1.
</event>
<event>
 5   0  0.2792361E-07  0.2997423E+04  0.7818609E-02  0.8244467E-01
       -1   -1    0    0    0  501  0.00000000000E+00  0.00000000000E+00  0.10683167226E+04  0.10683167226E+04  0.50400001928E-02 0. -1.
        1   -1    0    0  501    0  0.00000000000E+00  0.00000000000E+00 -0.21025005096E+04  0.21025005096E+04  0.50400001928E-02 0.  1.
    10030    2    1    2    0    0  0.00000000000E+00  0.00000000000E+00 -0.10341837870E+04  0.31708172322E+04  0.29974231957E+04 0.  0.
        4    1    3    3  502    0  0.72255959368E+03  0.58942932612E+03  0.72407299266E+03  0.11805941760E+04  0.12699999809E+01 0. -1.
       -4    1    3    3    0  502 -0.72255959368E+03 -0.58942932612E+03 -0.17582567797E+04  0.19902230561E+04  0.12699999809E+01 0.  1.
</event>
<event>
 5   0  0.7307508E-07  0.3015819E+04  0.7818609E-02  0.8239228E-01
       -2   -1    0    0    0  501  0.00000000000E+00  0.00000000000E+00  0.14430817805E+04  0.14430817805E+04  0.25500000920E-02 0.  1.
        2   -1    0    0  501    0  0.00000000000E+00  0.00000000000E+00 -0.15756497694E+04  0.15756497694E+04  0.25500000920E-02 0. -1.
    10030    2    1    2    0    0  0.00000000000E+00  0.00000000000E+00 -0.13256798896E+03  0.30187315499E+04  0.30158192749E+04 0.  0.
        1    1    3    3  502    0  0.83330100547E+03  0.11085194779E+04  0.52639036818E+03  0.14833384032E+04  0.50400001928E-02 0.  1.
       -1    1    3    3    0  502 -0.83330100547E+03 -0.11085194779E+04 -0.65895835714E+03  0.15353931467E+04  0.50400001928E-02 0. -1.
</event>
<event>
 5   0  0.7208273E-07  0.2988560E+04  0.7818609E-02  0.8247005E-01
        2   -1    0    0  501    0  0.00000000000E+00  0.00000000000E+00  0.19588087976E+04  0.19588087976E+04  0.25500000920E-02 0.  1.
       -2   -1    0    0    0  501  0.00000000000E+00  0.00000000000E+00 -0.11399133828E+04  0.11399133828E+04  0.25500000920E-02 0. -1.
    10030    2    1    2    0    0  0.00000000000E+00  0.00000000000E+00  0.81889541475E+03  0.30987221804E+04  0.29885597620E+04 0.  0.
        4    1    3    3  502    0  0.13929275476E+04 -0.21723764117E+03  0.92311955224E+03  0.16851085028E+04  0.12699999809E+01 0.  1.
       -4    1    3    3    0  502 -0.13929275476E+04  0.21723764117E+03 -0.10422413749E+03  0.14136136776E+04  0.12699999809E+01 0. -1.
</event>
<event>
 5   0  0.2621825E-07  0.3002289E+04  0.7818609E-02  0.8243077E-01
        1   -1    0    0  501    0  0.00000000000E+00  0.00000000000E+00  0.17560959438E+04  0.17560959438E+04  0.50400001928E-02 0. -1.
       -1   -1    0    0    0  501  0.00000000000E+00  0.00000000000E+00 -0.12832073836E+04  0.12832073836E+04  0.50400001928E-02 0.  1.
    10030    2    1    2    0    0  0.00000000000E+00  0.00000000000E+00  0.47288856017E+03  0.30393033274E+04  0.30022893141E+04 0.  0.
        3    1    3    3  502    0 -0.14317308210E+04 -0.31279632635E+02 -0.21922022950E+03  0.14487543196E+04  0.10100000352E+00 0.  1.
       -3    1    3    3    0  502  0.14317308210E+04  0.31279632635E+02  0.69210878967E+03  0.15905490078E+04  0.10100000352E+00 0. -1.
</event>
<event>
 5   0  0.7399409E-07  0.2999934E+04  0.7818609E-02  0.8243750E-01
        2   -1    0    0  501    0  0.00000000000E+00  0.00000000000E+00  0.15159546710E+04  0.15159546710E+04  0.25500000920E-02 0. -1.
       -2   -1    0    0    0  501  0.00000000000E+00  0.00000000000E+00 -0.14841479663E+04  0.14841479663E+04  0.25500000920E-02 0.  1.
    10030    2    1    2    0    0  0.00000000000E+00  0.00000000000E+00  0.31806704748E+02  0.30001026373E+04  0.29999340273E+04 0.  0.
        3    1    3    3  502    0 -0.20955045767E+03 -0.59382993662E+03 -0.13455532147E+04  0.14856173301E+04  0.10100000352E+00 0.  1.
       -3    1    3    3    0  502  0.20955045767E+03  0.59382993662E+03  0.13773599194E+04  0.15144853072E+04  0.10100000352E+00 0. -1.
</event>
<event>
 5   0  0.2621825E-07  0.2997004E+04  0.7818609E-02  0.8244587E-01
        1   -1    0    0  501    0  0.00000000000E+00  0.00000000000E+00  0.14145291578E+04  0.14145291578E+04  0.50400001928E-02 0. -1.
       -1   -1    0    0    0  501  0.00000000000E+00  0.00000000000E+00 -0.15874598838E+04  0.15874598838E+04  0.50400001928E-02 0.  1.
    10030    2    1    2    0    0  0.00000000000E+00  0.00000000000E+00 -0.17293072604E+03  0.30019890416E+04  0.29970040323E+04 0.  0.
        3    1    3    3  502    0  0.11440817111E+04 -0.61595994455E+03  0.66122023513E+03  0.14579238061E+04  0.10100000352E+00 0. -1.
       -3    1    3    3    0  502 -0.11440817111E+04  0.61595994455E+03 -0.83415096117E+03  0.15440652354E+04  0.10100000352E+00 0.  1.
</event>
<event>
 5   0  0.2679935E-07  0.3012744E+04  0.7818609E-02  0.8240101E-01
       -1   -1    0    0    0  501  0.00000000000E+00  0.00000000000E+00  0.11633681378E+04  0.11633681378E+04  0.50400001928E-02 0.  1.
        1   -1    0    0  501    0  0.00000000000E+00  0.00000000000E+00 -0.19505056569E+04  0.19505056569E+04  0.50400001928E-02 0. -1.
    10030    2    1    2    0    0  0.00000000000E+00  0.00000000000E+00 -0.78713751913E+03  0.31138737947E+04  0.30127436890E+04 0.  0.
        2    1    3    3  502    0  0.57237460366E+03  0.10923746233E+04 -0.12876261835E+04  0.17829403224E+04  0.25500000920E-02 0. -1.
       -2    1    3    3    0  502 -0.57237460366E+03 -0.10923746233E+04  0.50048866441E+03  0.13309334723E+04  0.25500000920E-02 0.  1.
</event>
<event>
 5   0  0.7278657E-07  0.2998272E+04  0.7818609E-02  0.8244225E-01
        2   -1    0    0  501    0  0.00000000000E+00  0.00000000000E+00  0.13219316451E+04  0.13219316451E+04  0.25500000920E-02 0. -1.
       -2   -1    0    0    0  501  0.00000000000E+00  0.00000000000E+00 -0.17000942146E+04  0.17000942146E+04  0.25500000920E-02 0.  1.
    10030    2    1    2    0    0  0.00000000000E+00  0.00000000000E+00 -0.37816256946E+03  0.30220258597E+04  0.29982717302E+04 0.  0.
        2    1    3    3  502    0 -0.66813665774E+03  0.36009494892E+03  0.11139616609E+04  0.13479560629E+04  0.25500000920E-02 0. -1.
       -2    1    3    3    0  502  0.66813665774E+03 -0.36009494892E+03 -0.14921242304E+04  0.16740697968E+04  0.25500000920E-02 0.  1.
</event>
<event>
 5   0  0.2414250E-07  0.3007944E+04  0.7818609E-02  0.8241466E-01
       -3   -1    0    0    0  501  0.00000000000E+00  0.00000000000E+00  0.14675836644E+04  0.14675836679E+04  0.10100000352E+00 0. -1.
        3   -1    0    0  501    0  0.00000000000E+00  0.00000000000E+00 -0.15412622613E+04  0.15412622646E+04  0.10100000352E+00 0.  1.
    10030    2    1    2    0    0  0.00000000000E+00  0.00000000000E+00 -0.73678596854E+02  0.30088459325E+04  0.30079437013E+04 0.  0.
        2    1    3    3  502    0  0.12659252978E+04 -0.52626487528E+03  0.58173906419E+03  0.14892756351E+04  0.25500000920E-02 0. -1.
       -2    1    3    3    0  502 -0.12659252978E+04  0.52626487528E+03 -0.65541766104E+03  0.15195702974E+04  0.25500000920E-02 0.  1.
</event>
<event>
 5   0  0.2640081E-07  0.3000255E+04  0.7818609E-02  0.8243658E-01
        1   -1    0    0  501    0  0.00000000000E+00  0.00000000000E+00  0.21428138936E+04  0.21428138936E+04  0.50400001928E-02 0.  1.
       -1   -1    0    0    0  501  0.00000000000E+00  0.00000000000E+00 -0.10501998091E+04  0.10501998092E+04  0.50400001928E-02 0. -1.
    10030    2    1    2    0    0  0.00000000000E+00  0.00000000000E+00  0.10926140845E+04  0.31930137028E+04  0.30002551506E+04 0.  0.
        1    1    3    3  502    0 -0.13223636169E+04 -0.70311213908E+03  0.45493951903E+03  0.15652418923E+04  0.50400001928E-02 0. -1.
       -1    1    3    3    0  502  0.13223636169E+04  0.70311213908E+03  0.63767456545E+03  0.16277718105E+04  0.50400001928E-02 0.  1.
</event>
<event>
 5   0  0.7208273E-07  0.2999604E+04  0.7818609E-02  0.8243844E-01
       -2   -1    0    0    0  501  0.00000000000E+00  0.00000000000E+00  0.11110789180E+04  0.11110789180E+04  0.25500000920E-02 0. -1.
        2   -1    0    0  501    0  0.00000000000E+00  0.00000000000E+00 -0.20245243717E+04  0.20245243717E+04  0.25500000920E-02 0.  1.
    10030    2    1    2    0    0  0.00000000000E+00  0.00000000000E+00 -0.91344545371E+03  0.31356032897E+04  0.29996042061E+04 0.  0.
        4    1    3    3  502    0 -0.25239306331E+03 -0.14634030136E+04 -0.23706693452E+03  0.15038128152E+04  0.12699999809E+01 0. -1.
       -4    1    3    3    0  502  0.25239306331E+03  0.14634030136E+04 -0.67637851919E+03  0.16317904745E+04  0.12699999809E+01 0.  1.
</event>
<event>
 5   0  0.2640081E-07  0.3000644E+04  0.7818609E-02  0.8243547E-01
       -1   -1    0    0    0  501  0.00000000000E+00  0.00000000000E+00  0.10806074025E+04  0.10806074025E+04  0.50400001928E-02 0.  1.
        1   -1    0    0  501    0  0.00000000000E+00  0.00000000000E+00 -0.20830560339E+04  0.20830560339E+04  0.50400001928E-02 0. -1.
    10030    2    1    2    0    0  0.00000000000E+00  0.00000000000E+00 -0.10024486314E+04  0.31636634365E+04  0.30006437777E+04 0.  0.
        1    1    3    3  502    0 -0.37372720944E+03 -0.10134444135E+04 -0.15990550255E+04  0.19296939086E+04  0.50400001928E-02 0. -1.
       -1    1    3    3    0  502  0.37372720944E+03  0.10134444135E+04  0.59660639411E+03  0.12339695279E+04  0.50400001928E-02 0.  1.
</event>
<event>
 5   0  0.7208273E-07  0.3000568E+04  0.7818609E-02  0.8243569E-01
        2   -1    0    0  501    0  0.00000000000E+00  0.00000000000E+00  0.14951102008E+04  0.14951102008E+04  0.25500000920E-02 0. -1.
       -2   -1    0    0    0  501  0.00000000000E+00  0.00000000000E+00 -0.15054762017E+04  0.15054762017E+04  0.25500000920E-02 0.  1.
    10030    2    1    2    0    0  0.00000000000E+00  0.00000000000E+00 -0.10366000875E+02  0.30005864025E+04  0.30005684970E+04 0.  0.
        4    1    3    3  502    0 -0.12492607430E+04 -0.46697805061E+03  0.68193849131E+03  0.14979194313E+04  0.12699999809E+01 0. -1.
       -4    1    3    3    0  502  0.12492607430E+04  0.46697805061E+03 -0.69230449218E+03  0.15026669713E+04  0.12699999809E+01 0.  1.
</event>
<event>
 5   0  0.7585823E-07  0.2998878E+04  0.7818609E-02  0.8244051E-01
       -2   -1    0    0    0  501  0.00000000000E+00  0.00000000000E+00  0.19651946798E+04  0.19651946798E+04  0.25500000920E-02 0.  1.
        2   -1    0    0  501    0  0.00000000000E+00  0.00000000000E+00 -0.11440686605E+04  0.11440686605E+04  0.25500000920E-02 0. -1.
    10030    2    1    2    0    0  0.00000000000E+00  0.00000000000E+00  0.82112601926E+03  0.31092633403E+04  0.29988782203E+04 0.  0.
        5    1    3    3  502    0  0.79839251827E+03  0.76344267200E+03  0.14617972701E+04  0.18322523504E+04  0.46999998093E+01 0.  1.
       -5    1    3    3    0  502 -0.79839251827E+03 -0.76344267200E+03 -0.64067125087E+03  0.12770109899E+04  0.46999998093E+01 0. -1.
</event>
<event>
 5   0  0.2792361E-07  0.2999405E+04  0.7818609E-02  0.8243901E-01
        1   -1    0    0  501    0  0.00000000000E+00  0.00000000000E+00  0.21545543606E+04  0.21545543606E+04  0.50400001928E-02 0. -1.
       -1   -1    0    0    0  501  0.00000000000E+00  0.00000000000E+00 -0.10438853807E+04  0.10438853807E+04  0.50400001928E-02 0.  1.
    10030    2    1    2    0    0  0.00000000000E+00  0.00000000000E+00  0.11106689799E+04  0.31984397414E+04  0.29994051404E+04 0.  0.
        4    1    3    3  502    0  0.11655782431E+04 -0.92582524713E+03  0.36050542973E+03  0.15315648229E+04  0.12699999809E+01 0. -1.
       -4    1    3    3    0  502 -0.11655782431E+04  0.92582524713E+03  0.75016355016E+03  0.16668749185E+04  0.12699999809E+01 0.  1.
</event>
<event>
 5   0  0.7585823E-07  0.3002718E+04  0.7818609E-02  0.8242955E-01
       -2   -1    0    0    0  501  0.00000000000E+00  0.00000000000E+00  0.14922798044E+04  0.14922798044E+04  0.25500000920E-02 0.  1.
        2   -1    0    0  501    0  0.00000000000E+00  0.00000000000E+00 -0.15104932185E+04  0.15104932185E+04  0.25500000920E-02 0. -1.
    10030    2    1    2    0    0  0.00000000000E+00  0.00000000000E+00 -0.18213414024E+02  0.30027730229E+04  0.30027177854E+04 0.  0.
        5    1    3    3  502    0  0.65757684102E+03  0.11928133220E+03 -0.13535350596E+04  0.15095411838E+04  0.46999998093E+01 0. -1.
       -5    1    3    3    0  502 -0.65757684102E+03 -0.11928133220E+03  0.13353216456E+04  0.14932318391E+04  0.46999998093E+01 0.  1.
</event>
<event>
 5   0  0.2679935E-07  0.2998207E+04  0.7818609E-02  0.8244243E-01
        1   -1    0    0  501    0  0.00000000000E+00  0.00000000000E+00  0.17250547444E+04  0.17250547444E+04  0.50400001928E-02 0. -1.
       -1   -1    0    0    0  501  0.00000000000E+00  0.00000000000E+00 -0.13027479123E+04  0.13027479124E+04  0.50400001928E-02 0.  1.
    10030    2    1    2    0    0  0.00000000000E+00  0.00000000000E+00  0.42230683202E+03  0.30278026567E+04  0.29982071089E+04 0.  0.
        2    1    3    3  502    0  0.62696190199E+03  0.12989301742E+04  0.62385678114E+03  0.15714636831E+04  0.25500000920E-02 0.  1.
       -2    1    3    3    0  502 -0.62696190199E+03 -0.12989301742E+04 -0.20154994912E+03  0.14563389736E+04  0.25500000920E-02 0. -1.
</event>
<event>
 5   0  0.7278657E-07  0.3005450E+04  0.7818609E-02  0.8242176E-01
       -2   -1    0    0    0  501  0.00000000000E+00  0.00000000000E+00  0.86423446415E+03  0.86423446415E+03  0.25500000920E-02 0. -1.
        2   -1    0    0  501    0  0.00000000000E+00  0.00000000000E+00 -0.26129287398E+04  0.26129287398E+04  0.25500000920E-02 0.  1.
    10030    2    1    2    0    0  0.00000000000E+00  0.00000000000E+00 -0.17486942757E+04  0.34771632040E+04  0.30054504284E+04 0.  0.
        2    1    3    3  502    0  0.69049453149E+03 -0.22788487435E+03 -0.23958468650E+04  0.25037564607E+04  0.25500000920E-02 0.  1.
       -2    1    3    3    0  502 -0.69049453149E+03  0.22788487435E+03  0.64715258932E+03  0.97340674328E+03  0.25500000920E-02 0. -1.
</event>
<event>
 5   0  0.2602891E-07  0.2994765E+04  0.7818609E-02  0.8245227E-01
       -1   -1    0    0    0  501  0.00000000000E+00  0.00000000000E+00  0.12840339482E+04  0.12840339482E+04  0.50400001928E-02 0. -1.
        1   -1    0    0  501    0  0.00000000000E+00  0.00000000000E+00 -0.17461803199E+04  0.17461803199E+04  0.50400001928E-02 0.  1.
    10030    2    1    2    0    0  0.00000000000E+00  0.00000000000E+00 -0.46214637166E+03  0.30302142681E+04  0.29947653066E+04 0.  0.
        5    1    3    3  502    0 -0.12046249457E+03 -0.14310696981E+04 -0.65995485481E+03  0.15805170654E+04  0.46999998093E+01 0.  1.
       -5    1    3    3    0  502  0.12046249457E+03  0.14310696981E+04  0.19780848314E+03  0.14496972027E+04  0.46999998093E+01 0. -1.
</event>
</LesHouchesEvents>
