<LesHouchesEvents version="3.0">
<header>
<!--
#*********************************************************************
#                                                                    *
#                        MadGraph5_aMC@NLO                           *
#                                                                    *
#                           Going Beyond                             *
#                                                                    *
#                   http://madgraph.hep.uiuc.edu                     *
#                   http://madgraph.phys.ucl.ac.be                   *
#                   http://amcatnlo.cern.ch                          *
#                                                                    *
#                     The MadGraph5_aMC@NLO team                     *
#                                                                    *
#....................................................................*
#                                                                    *
# This file contains all the information necessary to reproduce      *
# the events generated:                                              *
#                                                                    *
# 1. software version                                                *
# 2. proc_card          : code generation info including model       *
# 3. param_card         : model primary parameters in the LH format  *
# 4. run_card           : running parameters (collider and cuts)     *
# 5. pythia_card        : present only if pythia has been run        *
# 6. pgs_card           : present only if pgs has been run           *
# 7. delphes_cards      : present only if delphes has been run       *
#                                                                    *
#                                                                    *
#*********************************************************************
-->
<MGVersion>
#5.2.2.3
</MGVersion>
<MG5ProcCard>
#************************************************************
#*                     MadGraph5_aMC@NLO                    *
#*                                                          *
#*                *                       *                 *
#*                  *        * *        *                   *
#*                    * * * * 5 * * * *                     *
#*                  *        * *        *                   *
#*                *                       *                 *
#*                                                          *
#*                                                          *
#*         VERSION 2.2.3                 2015-02-10         *
#*                                                          *
#*    The MadGraph5_aMC@NLO Development Team - Find us at   *
#*    https://server06.fynu.ucl.ac.be/projects/madgraph     *
#*                                                          *
#************************************************************
#*                                                          *
#*               Command File for MadGraph5_aMC@NLO         *
#*                                                          *
#*     run as ./bin/mg5_aMC  filename                       *
#*                                                          *
#************************************************************
set group_subprocesses Auto
set ignore_six_quark_processes False
set loop_optimized_output True
set gauge unitary
set complex_mass_scheme False
import model sm
define p = g u c d s u~ c~ d~ s~
define j = g u c d s u~ c~ d~ s~
define l+ = e+ mu+
define l- = e- mu-
define vl = ve vm vt
define vl~ = ve~ vm~ vt~
import model Zprime_UFO
generate p p > zph, zph > j j
add process p p > zph, zph > b b~
output Dijet_signal
</MG5ProcCard>
<MGProcCard>
#*********************************************************************
#                        MadGraph/MadEvent                           *
#                   http://madgraph.hep.uiuc.edu                     *
#                                                                    *
#                          proc_card.dat                             *
#*********************************************************************
#                                                                    *
#            This Files is generated by MADGRAPH 5                   *
#                                                                    *
# WARNING: This Files is generated for MADEVENT (compatibility issue)*
#          This files is NOT a valid MG4 proc_card.dat               *
#          Running this in MG4 will NEVER reproduce the result of MG5*
#                                                                    *
#*********************************************************************
#*********************************************************************
# Process(es) requested : mg2 input                                  *
#*********************************************************************
# Begin PROCESS # This is TAG. Do not modify this line
p p > zph , zph > j j           #Process
# Be carefull the coupling are here in MG5 convention
          
end_coup           # End the couplings input

done               # this tells MG there are no more procs
# End PROCESS  # This is TAG. Do not modify this line
#*********************************************************************
# Model information                                                  *
#*********************************************************************
# Begin MODEL  # This is TAG. Do not modify this line
Zprime_UFO
# End   MODEL  # This is TAG. Do not modify this line
#*********************************************************************
# Start multiparticle definitions                                    *
#*********************************************************************
# Begin MULTIPARTICLES # This is TAG. Do not modify this line

# End  MULTIPARTICLES # This is TAG. Do not modify this line
</MGProcCard>
<MGRunCard>
#*********************************************************************
#                       MadGraph5_aMC@NLO                            *
#                                                                    *
#                     run_card.dat MadEvent                          *
#                                                                    *
#  This file is used to set the parameters of the run.               *
#                                                                    *
#  Some notation/conventions:                                        *
#                                                                    *
#   Lines starting with a '# ' are info or comments                  *
#                                                                    *
#   mind the format:   value    = variable     ! comment             *
#*********************************************************************
#
#*******************                                                 
# Running parameters
#*******************                                                 
#                                                                    
#*********************************************************************
# Tag name for the run (one word)                                    *
#*********************************************************************
  tag_1     = run_tag ! name of the run 
#*********************************************************************
# Run to generate the grid pack                                      *
#*********************************************************************
  .false.     = gridpack  !True = setting up the grid pack
#*********************************************************************
# Number of events and rnd seed                                      *
# Warning: Do not generate more than 1M events in a single run       *
# If you want to run Pythia, avoid more than 50k events in a run.    *
#*********************************************************************
  2000 = nevents ! Number of unweighted events requested 
 1272 = iseed   ! rnd seed (0=assigned automatically=default))
#*********************************************************************
# Collider type and energy                                           *
# lpp: 0=No PDF, 1=proton, -1=antiproton, 2=photon from proton,      *
#                                         3=photon from electron     *
#*********************************************************************
        1     = lpp1    ! beam 1 type 
        1     = lpp2    ! beam 2 type
     4000     = ebeam1  ! beam 1 total energy in GeV
     4000     = ebeam2  ! beam 2 total energy in GeV
#*********************************************************************
# Beam polarization from -100 (left-handed) to 100 (right-handed)    *
#*********************************************************************
        0     = polbeam1 ! beam polarization for beam 1
        0     = polbeam2 ! beam polarization for beam 2
#*********************************************************************
# PDF CHOICE: this automatically fixes also alpha_s and its evol.    *
#*********************************************************************
 'nn23lo1'    = pdlabel     ! PDF set                                     
 230000    = lhaid     ! if pdlabel=lhapdf, this is the lhapdf number
#*********************************************************************
# Renormalization and factorization scales                           *
#*********************************************************************
 F        = fixed_ren_scale  ! if .true. use fixed ren scale
 F        = fixed_fac_scale  ! if .true. use fixed fac scale
 91.1880  = scale            ! fixed ren scale
 91.1880  = dsqrt_q2fact1    ! fixed fact scale for pdf1
 91.1880  = dsqrt_q2fact2    ! fixed fact scale for pdf2
 1        = scalefact        ! scale factor for event-by-event scales
#*********************************************************************
# Matching - Warning! ickkw > 1 is still beta
#*********************************************************************
 0        = ickkw            ! 0 no matching, 1 MLM, 2 CKKW matching
 1        = highestmult      ! for ickkw=2, highest mult group
 1        = ktscheme         ! for ickkw=1, 1 Durham kT, 2 Pythia pTE
 1        = alpsfact         ! scale factor for QCD emission vx
 F        = chcluster        ! cluster only according to channel diag
 T        = pdfwgt           ! for ickkw=1, perform pdf reweighting
 5        = asrwgtflavor     ! highest quark flavor for a_s reweight
 T        = clusinfo         ! include clustering tag in output
 3.0      = lhe_version       ! Change the way clustering information pass to shower.        
#*********************************************************************
#**********************************************************
#
#**********************************************************
# Automatic ptj and mjj cuts if xqcut > 0
# (turn off for VBF and single top processes)
#**********************************************************
   T  = auto_ptj_mjj  ! Automatic setting of ptj and mjj
#**********************************************************
#                                                                    
#**********************************
# BW cutoff (M+/-bwcutoff*Gamma)
#**********************************
  15  = bwcutoff      ! (M+/-bwcutoff*Gamma)
#**********************************************************
# Apply pt/E/eta/dr/mij cuts on decay products or not
# (note that etmiss/ptll/ptheavy/ht/sorted cuts always apply)
#**********************************************************
   T  = cut_decays    ! Cut decay products 
#*************************************************************
# Number of helicities to sum per event (0 = all helicities)
# 0 gives more stable result, but longer run time (needed for
# long decay chains e.g.).
# Use >=2 if most helicities contribute, e.g. pure QCD.
#*************************************************************
   0  = nhel          ! Number of helicities used per event
#*******************                                                 
# Standard Cuts
#*******************                                                 
#                                                                    
#*********************************************************************
# Minimum and maximum pt's (for max, -1 means no cut)                *
#*********************************************************************
 20  = ptj       ! minimum pt for the jets 
  0  = ptb       ! minimum pt for the b 
 10  = pta       ! minimum pt for the photons 
 10  = ptl       ! minimum pt for the charged leptons 
  0  = misset    ! minimum missing Et (sum of neutrino's momenta)
  0  = ptheavy   ! minimum pt for one heavy final state
 1.0 = ptonium   ! minimum pt for the quarkonium states
 -1  = ptjmax    ! maximum pt for the jets
 -1  = ptbmax    ! maximum pt for the b
 -1  = ptamax    ! maximum pt for the photons
 -1  = ptlmax    ! maximum pt for the charged leptons
 -1  = missetmax ! maximum missing Et (sum of neutrino's momenta)
#*********************************************************************
# Minimum and maximum E's (in the center of mass frame)              *
#*********************************************************************
  0  = ej     ! minimum E for the jets 
  0  = eb     ! minimum E for the b 
  0  = ea     ! minimum E for the photons 
  0  = el     ! minimum E for the charged leptons 
 -1   = ejmax ! maximum E for the jets
 -1   = ebmax ! maximum E for the b
 -1   = eamax ! maximum E for the photons
 -1   = elmax ! maximum E for the charged leptons
#*********************************************************************
# Maximum and minimum absolute rapidity (for max, -1 means no cut)   *
#*********************************************************************
   5  = etaj    ! max rap for the jets 
  -1  = etab    ! max rap for the b
 2.5  = etaa    ! max rap for the photons 
 2.5  = etal    ! max rap for the charged leptons 
 0.6  = etaonium ! max rap for the quarkonium states
   0  = etajmin ! min rap for the jets
   0  = etabmin ! min rap for the b
   0  = etaamin ! min rap for the photons
   0  = etalmin ! main rap for the charged leptons
#*********************************************************************
# Minimum and maximum DeltaR distance                                *
#*********************************************************************
 0.4 = drjj    ! min distance between jets 
 0   = drbb    ! min distance between b's 
 0.4 = drll    ! min distance between leptons 
 0.4 = draa    ! min distance between gammas 
 0   = drbj    ! min distance between b and jet 
 0.4 = draj    ! min distance between gamma and jet 
 0.4 = drjl    ! min distance between jet and lepton 
 0   = drab    ! min distance between gamma and b 
 0   = drbl    ! min distance between b and lepton 
 0.4 = dral    ! min distance between gamma and lepton 
 -1  = drjjmax ! max distance between jets
 -1  = drbbmax ! max distance between b's
 -1  = drllmax ! max distance between leptons
 -1  = draamax ! max distance between gammas
 -1  = drbjmax ! max distance between b and jet
 -1  = drajmax ! max distance between gamma and jet
 -1  = drjlmax ! max distance between jet and lepton
 -1  = drabmax ! max distance between gamma and b
 -1  = drblmax ! max distance between b and lepton
 -1  = dralmax ! maxdistance between gamma and lepton
#*********************************************************************
# Minimum and maximum invariant mass for pairs                       *
# WARNING: for four lepton final state mmll cut require to have      *
#          different lepton masses for each flavor!                  *           
#*********************************************************************
 0   = mmjj    ! min invariant mass of a jet pair 
 0   = mmbb    ! min invariant mass of a b pair 
 0   = mmaa    ! min invariant mass of gamma gamma pair
 0   = mmll    ! min invariant mass of l+l- (same flavour) lepton pair
 -1  = mmjjmax ! max invariant mass of a jet pair
 -1  = mmbbmax ! max invariant mass of a b pair
 -1  = mmaamax ! max invariant mass of gamma gamma pair
 -1  = mmllmax ! max invariant mass of l+l- (same flavour) lepton pair
#*********************************************************************
# Minimum and maximum invariant mass for all letpons                 *
#*********************************************************************
 0   = mmnl    ! min invariant mass for all letpons (l+- and vl) 
 -1  = mmnlmax ! max invariant mass for all letpons (l+- and vl) 
#*********************************************************************
# Minimum and maximum pt for 4-momenta sum of leptons                *
#*********************************************************************
 0   = ptllmin  ! Minimum pt for 4-momenta sum of leptons(l and vl)
 -1  = ptllmax  ! Maximum pt for 4-momenta sum of leptons(l and vl)
#*********************************************************************
# Inclusive cuts                                                     *
#*********************************************************************
 0  = xptj ! minimum pt for at least one jet  
 0  = xptb ! minimum pt for at least one b 
 0  = xpta ! minimum pt for at least one photon 
 0  = xptl ! minimum pt for at least one charged lepton 
#*********************************************************************
# Control the pt's of the jets sorted by pt                          *
#*********************************************************************
 0   = ptj1min ! minimum pt for the leading jet in pt
 0   = ptj2min ! minimum pt for the second jet in pt
 0   = ptj3min ! minimum pt for the third jet in pt
 0   = ptj4min ! minimum pt for the fourth jet in pt
 -1  = ptj1max ! maximum pt for the leading jet in pt 
 -1  = ptj2max ! maximum pt for the second jet in pt
 -1  = ptj3max ! maximum pt for the third jet in pt
 -1  = ptj4max ! maximum pt for the fourth jet in pt
 0   = cutuse  ! reject event if fails any (0) / all (1) jet pt cuts
#*********************************************************************
# Control the pt's of leptons sorted by pt                           *
#*********************************************************************
 0   = ptl1min ! minimum pt for the leading lepton in pt
 0   = ptl2min ! minimum pt for the second lepton in pt
 0   = ptl3min ! minimum pt for the third lepton in pt
 0   = ptl4min ! minimum pt for the fourth lepton in pt
 -1  = ptl1max ! maximum pt for the leading lepton in pt 
 -1  = ptl2max ! maximum pt for the second lepton in pt
 -1  = ptl3max ! maximum pt for the third lepton in pt
 -1  = ptl4max ! maximum pt for the fourth lepton in pt
#*********************************************************************
# Control the Ht(k)=Sum of k leading jets                            *
#*********************************************************************
 0   = htjmin ! minimum jet HT=Sum(jet pt)
 -1  = htjmax ! maximum jet HT=Sum(jet pt)
 0   = ihtmin  !inclusive Ht for all partons (including b)
 -1  = ihtmax  !inclusive Ht for all partons (including b)
 0   = ht2min ! minimum Ht for the two leading jets
 0   = ht3min ! minimum Ht for the three leading jets
 0   = ht4min ! minimum Ht for the four leading jets
 -1  = ht2max ! maximum Ht for the two leading jets
 -1  = ht3max ! maximum Ht for the three leading jets
 -1  = ht4max ! maximum Ht for the four leading jets
#***********************************************************************
# Photon-isolation cuts, according to hep-ph/9801442                   *
# When ptgmin=0, all the other parameters are ignored                  *
# When ptgmin>0, pta and draj are not going to be used                 *
#***********************************************************************
   0 = ptgmin ! Min photon transverse momentum
 0.4 = R0gamma ! Radius of isolation code
 1.0 = xn ! n parameter of eq.(3.4) in hep-ph/9801442
 1.0 = epsgamma ! epsilon_gamma parameter of eq.(3.4) in hep-ph/9801442
 .true. = isoEM ! isolate photons from EM energy (photons and leptons)
#*********************************************************************
# WBF cuts                                                           *
#*********************************************************************
 0   = xetamin ! minimum rapidity for two jets in the WBF case  
 0   = deltaeta ! minimum rapidity for two jets in the WBF case 
#*********************************************************************
# KT DURHAM CUT                                                      *
#*********************************************************************
 -1    =  ktdurham        
 0.4  =  dparameter 
#*********************************************************************
# maximal pdg code for quark to be considered as a light jet         *
# (otherwise b cuts are applied)                                     *
#*********************************************************************
 4 = maxjetflavor    ! Maximum jet pdg code
#*********************************************************************
# Jet measure cuts                                                   *
#*********************************************************************
 0   = xqcut   ! minimum kt jet measure between partons
#*********************************************************************
#
#*********************************************************************
# Store info for systematics studies                                 *
# WARNING: If use_syst is T, matched Pythia output is                *
#          meaningful ONLY if plotted taking matchscale              *
#          reweighting into account!                                 *
#*********************************************************************
   F  = use_syst      ! Enable systematics studies
#
#**************************************
# Parameter of the systematics study
#  will be used by SysCalc (if installed)
#**************************************                                  
#
0.5 1 2 = sys_scalefact  # factorization/renormalization scale factor
0.5 1 2 = sys_alpsfact  # \alpha_s emission scale factors
30 50 = sys_matchscale # variation of merging scale
# PDF sets and number of members (0 or none for all members).
CT10nlo.LHgrid = sys_pdf # matching scales
# MSTW2008nlo68cl.LHgrid 1  = sys_pdf
</MGRunCard>
<slha>
######################################################################
## PARAM_CARD AUTOMATICALY GENERATED BY MG5 FOLLOWING UFO MODEL   ####
######################################################################
##                                                                  ##
##  Width set on Auto will be computed following the information    ##
##        present in the decay.py files of the model.               ##
##        See  arXiv:1402.1178 for more details.                    ##
##                                                                  ##
######################################################################

###################################
## INFORMATION FOR CKMBLOCK
###################################
Block ckmblock 
    1 2.277360e-01 # cabi 

###################################
## INFORMATION FOR FRBLOCK
###################################
Block frblock 
    1 6.000000e-01 # gz 

###################################
## INFORMATION FOR MASS
###################################
Block mass 
    1 5.040000e-03 # MD 
    2 2.550000e-03 # MU 
    3 1.010000e-01 # MS 
    4 1.270000e+00 # MC 
    5 4.700000e+00 # MB 
    6 1.720000e+02 # MT 
   11 5.110000e-04 # Me 
   13 1.056600e-01 # MM 
   15 1.777000e+00 # MTA 
   23 9.118760e+01 # MZ 
   25 1.200000e+02 # MH 
  10030 1.900000e+03 # MZph 
  10031 3.000000e+02 # MZpl 
## Dependent parameters, given by model restrictions.
## Those values should be edited following the 
## analytical expression. MG5 ignores those values 
## but they are important for interfacing the output of MG5
## to external program such as Pythia.
  12 0.000000 # ve : 0.0 
  14 0.000000 # vm : 0.0 
  16 0.000000 # vt : 0.0 
  21 0.000000 # g : 0.0 
  22 0.000000 # a : 0.0 
  24 79.824360 # w+ : cmath.sqrt(MZ__exp__2/2. + cmath.sqrt(MZ__exp__4/4. - (aEW*cmath.pi*MZ__exp__2)/(Gf*sqrt__2))) 

###################################
## INFORMATION FOR SMINPUTS
###################################
Block sminputs 
    1 1.279000e+02 # aEWM1 
    2 1.166370e-05 # Gf 
    3 1.184000e-01 # aS 

###################################
## INFORMATION FOR YUKAWA
###################################
Block yukawa 
    1 5.040000e-03 # ymdo 
    2 2.550000e-03 # ymup 
    3 1.010000e-01 # yms 
    4 1.270000e+00 # ymc 
    5 4.700000e+00 # ymb 
    6 1.720000e+02 # ymt 
   11 5.110000e-04 # yme 
   13 1.056600e-01 # ymm 
   15 1.777000e+00 # ymtau 

###################################
## INFORMATION FOR DECAY
###################################
DECAY   6 1.508336e+00 # WT 
DECAY  23 2.495200e+00 # WZ 
DECAY  24 2.085000e+00 # WW 
DECAY  25 5.753088e-03 # WH 
## Dependent parameters, given by model restrictions.
## Those values should be edited following the 
## analytical expression. MG5 ignores those values 
## but they are important for interfacing the output of MG5
## to external program such as Pythia.
DECAY  1 0.000000 # d : 0.0 
DECAY  2 0.000000 # u : 0.0 
DECAY  3 0.000000 # s : 0.0 
DECAY  4 0.000000 # c : 0.0 
DECAY  5 0.000000 # b : 0.0 
DECAY  11 0.000000 # e- : 0.0 
DECAY  12 0.000000 # ve : 0.0 
DECAY  13 0.000000 # mu- : 0.0 
DECAY  14 0.000000 # vm : 0.0 
DECAY  15 0.000000 # ta- : 0.0 
DECAY  16 0.000000 # vt : 0.0 
DECAY  21 0.000000 # g : 0.0 
DECAY  22 0.000000 # a : 0.0 
DECAY  10030 0.308725 # zph : (gz__exp__2*MZph*(5 + cmath.sqrt(1 - (4*MT__exp__2)/MZph__exp__2)))/(144.*cmath.pi) 
DECAY  10031 0.132629 # zpl : (5*gz__exp__2*MZpl)/(144.*cmath.pi) 
#===========================================================
# QUANTUM NUMBERS OF NEW STATE(S) (NON SM PDG CODE)
#===========================================================

Block QNUMBERS 10030  # zph 
        1 0  # 3 times electric charge
        2 3  # number of spin states (2S+1)
        3 1  # colour rep (1: singlet, 3: triplet, 8: octet)
        4 0  # Particle/Antiparticle distinction (0=own anti)
Block QNUMBERS 10031  # zpl 
        1 0  # 3 times electric charge
        2 3  # number of spin states (2S+1)
        3 1  # colour rep (1: singlet, 3: triplet, 8: octet)
        4 0  # Particle/Antiparticle distinction (0=own anti)
</slha>
## END BANNER##
<MGGenerationInfo>
#  Number of Events        :         3919
#  Integrated weight (pb)  :  0.18237E-01
#  Max wgt                 :  0.64522E-05
#  Average wgt             :  0.46535E-05
</MGGenerationInfo>
</header>
<init>
     2212     2212  0.40000000000E+04  0.40000000000E+04 0 0  247000  247000 2   1
  0.18244738220E-01  0.38542347133E-04  0.64521820000E-05   0
</init>
<event>
 5   0  0.6361762E-05  0.1901814E+04  0.7818609E-02  0.8653954E-01
       -2   -1    0    0    0  501  0.00000000000E+00  0.00000000000E+00  0.37895551488E+03  0.37895551489E+03  0.25500000920E-02 0.  1.
        2   -1    0    0  501    0  0.00000000000E+00  0.00000000000E+00 -0.23860959659E+04  0.23860959659E+04  0.25500000920E-02 0. -1.
    10030    2    1    2    0    0  0.00000000000E+00  0.00000000000E+00 -0.20071404510E+04  0.27650514808E+04  0.19018141080E+04 0.  0.
        1    1    3    3  502    0  0.47792890546E+03  0.23818172365E+03 -0.21475220113E+04  0.22129160313E+04  0.50400001928E-02 0. -1.
       -1    1    3    3    0  502 -0.47792890546E+03 -0.23818172365E+03  0.14038156031E+03  0.55213544956E+03  0.50400001928E-02 0.  1.
</event>
<event>
 5   0  0.6361762E-05  0.1901261E+04  0.7818609E-02  0.8654229E-01
        2   -1    0    0  501    0  0.00000000000E+00  0.00000000000E+00  0.11180327315E+04  0.11180327315E+04  0.25500000920E-02 0.  1.
       -2   -1    0    0    0  501  0.00000000000E+00  0.00000000000E+00 -0.80829315254E+03  0.80829315254E+03  0.25500000920E-02 0. -1.
    10030    2    1    2    0    0  0.00000000000E+00  0.00000000000E+00  0.30973957899E+03  0.19263258841E+04  0.19012608461E+04 0.  0.
        1    1    3    3  502    0 -0.55736378008E+03  0.40990401403E+03 -0.50566245843E+03  0.85695402792E+03  0.50400001928E-02 0. -1.
       -1    1    3    3    0  502  0.55736378008E+03 -0.40990401403E+03  0.81540203742E+03  0.10693718561E+04  0.50400001928E-02 0.  1.
</event>
<event>
 5   0  0.6452182E-05  0.1905735E+04  0.7818609E-02  0.8652007E-01
        2   -1    0    0  501    0  0.00000000000E+00  0.00000000000E+00  0.13473512028E+04  0.13473512028E+04  0.25500000920E-02 0. -1.
       -2   -1    0    0    0  501  0.00000000000E+00  0.00000000000E+00 -0.67388223084E+03  0.67388223085E+03  0.25500000920E-02 0.  1.
    10030    2    1    2    0    0  0.00000000000E+00  0.00000000000E+00  0.67346897195E+03  0.20212334336E+04  0.19057345400E+04 0.  0.
        3    1    3    3  502    0  0.56617421572E+03 -0.19644677334E+03  0.11224505792E+04  0.12724149835E+04  0.10100000352E+00 0. -1.
       -3    1    3    3    0  502 -0.56617421572E+03  0.19644677334E+03 -0.44898160730E+03  0.74881845009E+03  0.10100000352E+00 0.  1.
</event>
<event>
 5   0  0.6361762E-05  0.1902407E+04  0.7818609E-02  0.8653659E-01
        2   -1    0    0  501    0  0.00000000000E+00  0.00000000000E+00  0.94160652320E+03  0.94160652320E+03  0.25500000920E-02 0.  1.
       -2   -1    0    0    0  501  0.00000000000E+00  0.00000000000E+00 -0.96089818301E+03  0.96089818301E+03  0.25500000920E-02 0. -1.
    10030    2    1    2    0    0  0.00000000000E+00  0.00000000000E+00 -0.19291659812E+02  0.19025047062E+04  0.19024068937E+04 0.  0.
        1    1    3    3  502    0 -0.48861536437E+03 -0.44197832091E+03 -0.69575558065E+03  0.95820960050E+03  0.50400001928E-02 0. -1.
       -1    1    3    3    0  502  0.48861536437E+03  0.44197832091E+03  0.67646392084E+03  0.94429510571E+03  0.50400001928E-02 0.  1.
</event>
<event>
 5   0  0.6452182E-05  0.1911543E+04  0.7818609E-02  0.8649132E-01
        2   -1    0    0  501    0  0.00000000000E+00  0.00000000000E+00  0.83466035959E+03  0.83466035959E+03  0.25500000920E-02 0. -1.
       -2   -1    0    0    0  501  0.00000000000E+00  0.00000000000E+00 -0.10944557972E+04  0.10944557972E+04  0.25500000920E-02 0.  1.
    10030    2    1    2    0    0  0.00000000000E+00  0.00000000000E+00 -0.25979543765E+03  0.19291161568E+04  0.19115426956E+04 0.  0.
        3    1    3    3  502    0 -0.48697680377E+03 -0.76664324500E+03  0.17051421527E+03  0.92410139072E+03  0.10100000352E+00 0. -1.
       -3    1    3    3    0  502  0.48697680377E+03  0.76664324500E+03 -0.43030965291E+03  0.10050147661E+04  0.10100000352E+00 0.  1.
</event>
<event>
 5   0  0.3203527E-05  0.1895539E+04  0.7818609E-02  0.8657080E-01
       -1   -1    0    0    0  501  0.00000000000E+00  0.00000000000E+00  0.74787363721E+03  0.74787363723E+03  0.50400001928E-02 0. -1.
        1   -1    0    0  501    0  0.00000000000E+00  0.00000000000E+00 -0.12010941626E+04  0.12010941626E+04  0.50400001928E-02 0.  1.
    10030    2    1    2    0    0  0.00000000000E+00  0.00000000000E+00 -0.45322052539E+03  0.19489677998E+04  0.18955386148E+04 0.  0.
        1    1    3    3  502    0 -0.54235239972E+03 -0.63310185354E+02 -0.10231149059E+04  0.11597061765E+04  0.50400001928E-02 0.  1.
       -1    1    3    3    0  502  0.54235239972E+03  0.63310185354E+02  0.56989438055E+03  0.78926162333E+03  0.50400001928E-02 0. -1.
</event>
<event>
 5   0  0.3083469E-05  0.1900268E+04  0.7818609E-02  0.8654723E-01
        1   -1    0    0  501    0  0.00000000000E+00  0.00000000000E+00  0.11632040122E+04  0.11632040122E+04  0.50400001928E-02 0. -1.
       -1   -1    0    0    0  501  0.00000000000E+00  0.00000000000E+00 -0.77609271943E+03  0.77609271944E+03  0.50400001928E-02 0.  1.
    10030    2    1    2    0    0  0.00000000000E+00  0.00000000000E+00  0.38711129279E+03  0.19392967317E+04  0.19002675234E+04 0.  0.
        3    1    3    3  502    0 -0.71718625227E+03  0.31226359558E+03 -0.35686349446E+03  0.85977685329E+03  0.10100000352E+00 0.  1.
       -3    1    3    3    0  502  0.71718625227E+03 -0.31226359558E+03  0.74397478725E+03  0.10795198784E+04  0.10100000352E+00 0. -1.
</event>
<event>
 5   0  0.6361762E-05  0.1907756E+04  0.7818609E-02  0.8651006E-01
       -2   -1    0    0    0  501  0.00000000000E+00  0.00000000000E+00  0.49972689317E+03  0.49972689317E+03  0.25500000920E-02 0.  1.
        2   -1    0    0  501    0  0.00000000000E+00  0.00000000000E+00 -0.18207602423E+04  0.18207602423E+04  0.25500000920E-02 0. -1.
    10030    2    1    2    0    0  0.00000000000E+00  0.00000000000E+00 -0.13210333491E+04  0.23204871355E+04  0.19077556018E+04 0.  0.
        1    1    3    3  502    0 -0.40396054575E+03 -0.85675119427E+03 -0.52357055536E+03  0.10822813210E+04  0.50400001928E-02 0. -1.
       -1    1    3    3    0  502  0.40396054575E+03  0.85675119427E+03 -0.79746279378E+03  0.12382058144E+04  0.50400001928E-02 0.  1.
</event>
<event>
 5   0  0.3086139E-05  0.1902404E+04  0.7818609E-02  0.8653661E-01
       -1   -1    0    0    0  501  0.00000000000E+00  0.00000000000E+00  0.10718646247E+04  0.10718646247E+04  0.50400001928E-02 0. -1.
        1   -1    0    0  501    0  0.00000000000E+00  0.00000000000E+00 -0.84412291712E+03  0.84412291714E+03  0.50400001928E-02 0.  1.
    10030    2    1    2    0    0  0.00000000000E+00  0.00000000000E+00  0.22774170756E+03  0.19159875418E+04  0.19024042617E+04 0.  0.
        2    1    3    3  502    0  0.50950718984E+03 -0.32497894079E+03 -0.62593272256E+03  0.87005784959E+03  0.25500000920E-02 0.  1.
       -2    1    3    3    0  502 -0.50950718984E+03  0.32497894079E+03  0.85367443012E+03  0.10459296922E+04  0.25500000920E-02 0. -1.
</event>
<event>
 5   0  0.6361762E-05  0.2028084E+04  0.7818609E-02  0.8593602E-01
       -2   -1    0    0    0  501  0.00000000000E+00  0.00000000000E+00  0.37740083711E+03  0.37740083712E+03  0.25500000920E-02 0. -1.
        2   -1    0    0  501    0  0.00000000000E+00  0.00000000000E+00 -0.27246388808E+04  0.27246388808E+04  0.25500000920E-02 0.  1.
    10030    2    1    2    0    0  0.00000000000E+00  0.00000000000E+00 -0.23472380437E+04  0.31020397179E+04  0.20280838192E+04 0.  0.
        1    1    3    3  502    0  0.51699017346E+02  0.55461492121E+03  0.12244617957E+03  0.57031882850E+03  0.50400001928E-02 0. -1.
       -1    1    3    3    0  502 -0.51699017346E+02 -0.55461492121E+03 -0.24696842232E+04  0.25317208894E+04  0.50400001928E-02 0.  1.
</event>
<event>
 5   0  0.2279625E-05  0.1874341E+04  0.7818609E-02  0.8667735E-01
        4   -1    0    0  501    0  0.00000000000E+00  0.00000000000E+00  0.80870491558E+03  0.80870591279E+03  0.12699999809E+01 0. -1.
       -4   -1    0    0    0  501  0.00000000000E+00  0.00000000000E+00 -0.10860418107E+04  0.10860425533E+04  0.12699999809E+01 0.  1.
    10030    2    1    2    0    0  0.00000000000E+00  0.00000000000E+00 -0.27733689512E+03  0.18947484661E+04  0.18743414834E+04 0.  0.
        3    1    3    3  502    0 -0.41328803046E+03  0.83312619371E+03 -0.21725149897E+02  0.93025708442E+03  0.10100000352E+00 0. -1.
       -3    1    3    3    0  502  0.41328803046E+03 -0.83312619371E+03 -0.25561174523E+03  0.96449138164E+03  0.10100000352E+00 0.  1.
</event>
<event>
 5   0  0.6098377E-05  0.1866023E+04  0.7818609E-02  0.8671956E-01
        2   -1    0    0  501    0  0.00000000000E+00  0.00000000000E+00  0.58764052519E+03  0.58764052520E+03  0.25500000920E-02 0.  1.
       -2   -1    0    0    0  501  0.00000000000E+00  0.00000000000E+00 -0.14813655348E+04  0.14813655348E+04  0.25500000920E-02 0. -1.
    10030    2    1    2    0    0  0.00000000000E+00  0.00000000000E+00 -0.89372500961E+03  0.20690060600E+04  0.18660229590E+04 0.  0.
        5    1    3    3  502    0  0.32853605669E+03 -0.39559437446E+03  0.41631812917E+03  0.66164471155E+03  0.46999998093E+01 0.  1.
       -5    1    3    3    0  502 -0.32853605669E+03  0.39559437446E+03 -0.13100431388E+04  0.14073613485E+04  0.46999998093E+01 0. -1.
</event>
<event>
 5   0  0.3147063E-05  0.1886724E+04  0.7818609E-02  0.8661493E-01
       -1   -1    0    0    0  501  0.00000000000E+00  0.00000000000E+00  0.78907957143E+03  0.78907957145E+03  0.50400001928E-02 0.  1.
        1   -1    0    0  501    0  0.00000000000E+00  0.00000000000E+00 -0.11278101842E+04  0.11278101842E+04  0.50400001928E-02 0. -1.
    10030    2    1    2    0    0  0.00000000000E+00  0.00000000000E+00 -0.33873061279E+03  0.19168897557E+04  0.18867241206E+04 0.  0.
        5    1    3    3  502    0  0.36679330826E+03  0.20220977600E+03 -0.10281512282E+04  0.11101996048E+04  0.46999998093E+01 0. -1.
       -5    1    3    3    0  502 -0.36679330826E+03 -0.20220977600E+03  0.68942061543E+03  0.80669015085E+03  0.46999998093E+01 0.  1.
</event>
<event>
 5   0  0.3203527E-05  0.1900965E+04  0.7818609E-02  0.8654376E-01
        1   -1    0    0  501    0  0.00000000000E+00  0.00000000000E+00  0.21992745828E+04  0.21992745828E+04  0.50400001928E-02 0.  1.
       -1   -1    0    0    0  501  0.00000000000E+00  0.00000000000E+00 -0.41077964028E+03  0.41077964031E+03  0.50400001928E-02 0. -1.
    10030    2    1    2    0    0  0.00000000000E+00  0.00000000000E+00  0.17884949425E+04  0.26100542231E+04  0.19009652517E+04 0.  0.
        1    1    3    3  502    0 -0.53240485191E+03  0.45031851586E+03  0.74289300162E+01  0.69734989861E+03  0.50400001928E-02 0. -1.
       -1    1    3    3    0  502  0.53240485191E+03 -0.45031851586E+03  0.17810660125E+04  0.19127043245E+04  0.50400001928E-02 0.  1.
</event>
<event>
 5   0  0.3083469E-05  0.1907585E+04  0.7818609E-02  0.8651090E-01
       -1   -1    0    0    0  501  0.00000000000E+00  0.00000000000E+00  0.61567328327E+03  0.61567328329E+03  0.50400001928E-02 0. -1.
        1   -1    0    0  501    0  0.00000000000E+00  0.00000000000E+00 -0.14776014153E+04  0.14776014153E+04  0.50400001928E-02 0.  1.
    10030    2    1    2    0    0  0.00000000000E+00  0.00000000000E+00 -0.86192813200E+03  0.20932746986E+04  0.19075845614E+04 0.  0.
        3    1    3    3  502    0 -0.74877501064E+03  0.58176165487E+03 -0.31793738412E+03  0.10000974103E+04  0.10100000352E+00 0. -1.
       -3    1    3    3    0  502  0.74877501064E+03 -0.58176165487E+03 -0.54399074788E+03  0.10931772883E+04  0.10100000352E+00 0.  1.
</event>
<event>
 5   0  0.3083469E-05  0.1898397E+04  0.7818609E-02  0.8655655E-01
       -1   -1    0    0    0  501  0.00000000000E+00  0.00000000000E+00  0.87899739581E+03  0.87899739583E+03  0.50400001928E-02 0. -1.
        1   -1    0    0  501    0  0.00000000000E+00  0.00000000000E+00 -0.10250063993E+04  0.10250063993E+04  0.50400001928E-02 0.  1.
    10030    2    1    2    0    0  0.00000000000E+00  0.00000000000E+00 -0.14600900348E+03  0.19040037951E+04  0.18983971720E+04 0.  0.
        3    1    3    3  502    0  0.19240152085E+03 -0.29588148381E+03  0.81074125144E+03  0.88423163519E+03  0.10100000352E+00 0. -1.
       -3    1    3    3    0  502 -0.19240152085E+03  0.29588148381E+03 -0.95675025492E+03  0.10197721599E+04  0.10100000352E+00 0.  1.
</event>
<event>
 5   0  0.6361762E-05  0.1898577E+04  0.7818609E-02  0.8655565E-01
       -2   -1    0    0    0  501  0.00000000000E+00  0.00000000000E+00  0.44085482353E+03  0.44085482354E+03  0.25500000920E-02 0. -1.
        2   -1    0    0  501    0  0.00000000000E+00  0.00000000000E+00 -0.20440944111E+04  0.20440944111E+04  0.25500000920E-02 0.  1.
    10030    2    1    2    0    0  0.00000000000E+00  0.00000000000E+00 -0.16032395876E+04  0.24849492347E+04  0.18985772367E+04 0.  0.
        1    1    3    3  502    0 -0.58646077308E+03  0.55357952514E+03 -0.14619869374E+03  0.81961002135E+03  0.50400001928E-02 0. -1.
       -1    1    3    3    0  502  0.58646077308E+03 -0.55357952514E+03 -0.14570408938E+04  0.16653392133E+04  0.50400001928E-02 0.  1.
</event>
<event>
 5   0  0.3144958E-05  0.1899377E+04  0.7818609E-02  0.8655166E-01
       -1   -1    0    0    0  501  0.00000000000E+00  0.00000000000E+00  0.11168581922E+04  0.11168581922E+04  0.50400001928E-02 0. -1.
        1   -1    0    0  501    0  0.00000000000E+00  0.00000000000E+00 -0.80754063885E+03  0.80754063887E+03  0.50400001928E-02 0.  1.
    10030    2    1    2    0    0  0.00000000000E+00  0.00000000000E+00  0.30931755337E+03  0.19243988311E+04  0.18993771380E+04 0.  0.
        4    1    3    3  502    0 -0.18264946168E+03 -0.92901922152E+03  0.22958723348E+03  0.97424301408E+03  0.12699999809E+01 0.  1.
       -4    1    3    3    0  502  0.18264946168E+03  0.92901922152E+03  0.79730319885E+02  0.95015581702E+03  0.12699999809E+01 0. -1.
</event>
<event>
 5   0  0.3203527E-05  0.1898112E+04  0.7818609E-02  0.8655797E-01
        1   -1    0    0  501    0  0.00000000000E+00  0.00000000000E+00  0.10287877406E+04  0.10287877406E+04  0.50400001928E-02 0.  1.
       -1   -1    0    0    0  501  0.00000000000E+00  0.00000000000E+00 -0.87550386938E+03  0.87550386940E+03  0.50400001928E-02 0. -1.
    10030    2    1    2    0    0  0.00000000000E+00  0.00000000000E+00  0.15328387119E+03  0.19042916100E+04  0.18981123757E+04 0.  0.
        1    1    3    3  502    0 -0.43427834223E+03 -0.59715219334E+02 -0.76784894571E+03  0.88416943478E+03  0.50400001928E-02 0. -1.
       -1    1    3    3    0  502  0.43427834223E+03  0.59715219334E+02  0.92113281690E+03  0.10201221752E+04  0.50400001928E-02 0.  1.
</event>
<event>
 5   0  0.6423388E-05  0.1899864E+04  0.7818609E-02  0.8654924E-01
       -2   -1    0    0    0  501  0.00000000000E+00  0.00000000000E+00  0.39305542764E+03  0.39305542765E+03  0.25500000920E-02 0.  1.
        2   -1    0    0  501    0  0.00000000000E+00  0.00000000000E+00 -0.22957861591E+04  0.22957861591E+04  0.25500000920E-02 0. -1.
    10030    2    1    2    0    0  0.00000000000E+00  0.00000000000E+00 -0.19027307314E+04  0.26888415867E+04  0.18998644273E+04 0.  0.
        2    1    3    3  502    0 -0.75161905601E+03  0.49411876970E+03 -0.51909810282E+03  0.10385313689E+04  0.25500000920E-02 0. -1.
       -2    1    3    3    0  502  0.75161905601E+03 -0.49411876970E+03 -0.13836326286E+04  0.16503102178E+04  0.25500000920E-02 0.  1.
</event>
<event>
 5   0  0.3083469E-05  0.1884128E+04  0.7818609E-02  0.8662798E-01
        1   -1    0    0  501    0  0.00000000000E+00  0.00000000000E+00  0.55578183042E+03  0.55578183044E+03  0.50400001928E-02 0.  1.
       -1   -1    0    0    0  501  0.00000000000E+00  0.00000000000E+00 -0.15968211932E+04  0.15968211932E+04  0.50400001928E-02 0. -1.
    10030    2    1    2    0    0  0.00000000000E+00  0.00000000000E+00 -0.10410393628E+04  0.21526030236E+04  0.18841276025E+04 0.  0.
        3    1    3    3  502    0 -0.51228661529E+03  0.52119271529E+03 -0.11997074233E+04  0.14047694951E+04  0.10100000352E+00 0. -1.
       -3    1    3    3    0  502  0.51228661529E+03 -0.52119271529E+03  0.15866806058E+03  0.74783352849E+03  0.10100000352E+00 0.  1.
</event>
<event>
 5   0  0.6452182E-05  0.1901434E+04  0.7818609E-02  0.8654143E-01
       -2   -1    0    0    0  501  0.00000000000E+00  0.00000000000E+00  0.59940583293E+03  0.59940583294E+03  0.25500000920E-02 0.  1.
        2   -1    0    0  501    0  0.00000000000E+00  0.00000000000E+00 -0.15079317330E+04  0.15079317330E+04  0.25500000920E-02 0. -1.
    10030    2    1    2    0    0  0.00000000000E+00  0.00000000000E+00 -0.90852590007E+03  0.21073375659E+04  0.19014342759E+04 0.  0.
        3    1    3    3  502    0  0.22902919011E+03 -0.64075026112E+03 -0.11901262254E+04  0.13709178348E+04  0.10100000352E+00 0. -1.
       -3    1    3    3    0  502 -0.22902919011E+03  0.64075026112E+03  0.28160032534E+03  0.73641973118E+03  0.10100000352E+00 0.  1.
</event>
<event>
 5   0  0.3203527E-05  0.1893167E+04  0.7818609E-02  0.8658265E-01
       -1   -1    0    0    0  501  0.00000000000E+00  0.00000000000E+00  0.66746736180E+03  0.66746736182E+03  0.50400001928E-02 0.  1.
        1   -1    0    0  501    0  0.00000000000E+00  0.00000000000E+00 -0.13424186207E+04  0.13424186207E+04  0.50400001928E-02 0. -1.
    10030    2    1    2    0    0  0.00000000000E+00  0.00000000000E+00 -0.67495125892E+03  0.20098859826E+04  0.18931673093E+04 0.  0.
        1    1    3    3  502    0  0.82258881058E+02 -0.39199390163E+03 -0.12480213792E+04  0.13107185454E+04  0.50400001928E-02 0. -1.
       -1    1    3    3    0  502 -0.82258881058E+02  0.39199390163E+03  0.57307012023E+03  0.69916743714E+03  0.50400001928E-02 0.  1.
</event>
<event>
 5   0  0.6423388E-05  0.1907792E+04  0.7818609E-02  0.8650987E-01
       -2   -1    0    0    0  501  0.00000000000E+00  0.00000000000E+00  0.13156259953E+04  0.13156259953E+04  0.25500000920E-02 0.  1.
        2   -1    0    0  501    0  0.00000000000E+00  0.00000000000E+00 -0.69162338872E+03  0.69162338872E+03  0.25500000920E-02 0. -1.
    10030    2    1    2    0    0  0.00000000000E+00  0.00000000000E+00  0.62400260658E+03  0.20072493840E+04  0.19077921366E+04 0.  0.
        2    1    3    3  502    0 -0.48754875319E+03  0.13471379791E+03 -0.53890375250E+03  0.73910002607E+03  0.25500000920E-02 0. -1.
       -2    1    3    3    0  502  0.48754875319E+03 -0.13471379791E+03  0.11629063591E+04  0.12681493579E+04  0.25500000920E-02 0.  1.
</event>
<event>
 5   0  0.3086139E-05  0.1902189E+04  0.7818609E-02  0.8653768E-01
        1   -1    0    0  501    0  0.00000000000E+00  0.00000000000E+00  0.21023791800E+04  0.21023791800E+04  0.50400001928E-02 0. -1.
       -1   -1    0    0    0  501  0.00000000000E+00  0.00000000000E+00 -0.43026527151E+03  0.43026527154E+03  0.50400001928E-02 0.  1.
    10030    2    1    2    0    0  0.00000000000E+00  0.00000000000E+00  0.16721139085E+04  0.25326444516E+04  0.19021890009E+04 0.  0.
        2    1    3    3  502    0  0.26264340166E+03  0.89474725442E+03  0.10852404058E+04  0.14308392447E+04  0.25500000920E-02 0.  1.
       -2    1    3    3    0  502 -0.26264340166E+03 -0.89474725442E+03  0.58687350268E+03  0.11018052069E+04  0.25500000920E-02 0. -1.
</event>
<event>
 5   0  0.6452182E-05  0.1925661E+04  0.7818609E-02  0.8642188E-01
        2   -1    0    0  501    0  0.00000000000E+00  0.00000000000E+00  0.11486156232E+04  0.11486156232E+04  0.25500000920E-02 0.  1.
       -2   -1    0    0    0  501  0.00000000000E+00  0.00000000000E+00 -0.80709563295E+03  0.80709563295E+03  0.25500000920E-02 0. -1.
    10030    2    1    2    0    0  0.00000000000E+00  0.00000000000E+00  0.34151999028E+03  0.19557112562E+04  0.19256610849E+04 0.  0.
        3    1    3    3  502    0 -0.56736710766E+03  0.11412747810E+03  0.95225617499E+03  0.11143259618E+04  0.10100000352E+00 0.  1.
       -3    1    3    3    0  502  0.56736710766E+03 -0.11412747810E+03 -0.61073618471E+03  0.84138529440E+03  0.10100000352E+00 0. -1.
</event>
<event>
 5   0  0.6098377E-05  0.1896065E+04  0.7818609E-02  0.8656817E-01
        2   -1    0    0  501    0  0.00000000000E+00  0.00000000000E+00  0.70630217865E+03  0.70630217865E+03  0.25500000920E-02 0.  1.
       -2   -1    0    0    0  501  0.00000000000E+00  0.00000000000E+00 -0.12724946491E+04  0.12724946491E+04  0.25500000920E-02 0. -1.
    10030    2    1    2    0    0  0.00000000000E+00  0.00000000000E+00 -0.56619247044E+03  0.19787968278E+04  0.18960651286E+04 0.  0.
        5    1    3    3  502    0  0.74392911228E+02  0.88353077042E+03  0.67077713511E+02  0.88920325976E+03  0.46999998093E+01 0.  1.
       -5    1    3    3    0  502 -0.74392911228E+02 -0.88353077042E+03 -0.63327018395E+03  0.10895935680E+04  0.46999998093E+01 0. -1.
</event>
<event>
 5   0  0.3086139E-05  0.1900737E+04  0.7818609E-02  0.8654489E-01
        1   -1    0    0  501    0  0.00000000000E+00  0.00000000000E+00  0.87935734152E+03  0.87935734153E+03  0.50400001928E-02 0. -1.
       -1   -1    0    0    0  501  0.00000000000E+00  0.00000000000E+00 -0.10271145902E+04  0.10271145902E+04  0.50400001928E-02 0.  1.
    10030    2    1    2    0    0  0.00000000000E+00  0.00000000000E+00 -0.14775724871E+03  0.19064719318E+04  0.19007374943E+04 0.  0.
        2    1    3    3  502    0  0.21322985930E+03 -0.59548184039E+03 -0.78533882082E+03  0.10083762485E+04  0.25500000920E-02 0.  1.
       -2    1    3    3    0  502 -0.21322985930E+03  0.59548184039E+03  0.63758157211E+03  0.89809568323E+03  0.25500000920E-02 0. -1.
</event>
<event>
 5   0  0.6452182E-05  0.1897909E+04  0.7818609E-02  0.8655898E-01
       -2   -1    0    0    0  501  0.00000000000E+00  0.00000000000E+00  0.99793240729E+03  0.99793240730E+03  0.25500000920E-02 0. -1.
        2   -1    0    0  501    0  0.00000000000E+00  0.00000000000E+00 -0.90238038552E+03  0.90238038552E+03  0.25500000920E-02 0.  1.
    10030    2    1    2    0    0  0.00000000000E+00  0.00000000000E+00  0.95552021772E+02  0.19003127928E+04  0.18979089867E+04 0.  0.
        3    1    3    3  502    0 -0.66642908414E+03  0.44782734179E+03 -0.45866850048E+03  0.92469122186E+03  0.10100000352E+00 0.  1.
       -3    1    3    3    0  502  0.66642908414E+03 -0.44782734179E+03  0.55422052226E+03  0.97562157096E+03  0.10100000352E+00 0. -1.
</event>
<event>
 5   0  0.6361762E-05  0.2016868E+04  0.7818609E-02  0.8598775E-01
        2   -1    0    0  501    0  0.00000000000E+00  0.00000000000E+00  0.14673855247E+04  0.14673855247E+04  0.25500000920E-02 0.  1.
       -2   -1    0    0    0  501  0.00000000000E+00  0.00000000000E+00 -0.69302800040E+03  0.69302800040E+03  0.25500000920E-02 0. -1.
    10030    2    1    2    0    0  0.00000000000E+00  0.00000000000E+00  0.77435752425E+03  0.21604135251E+04  0.20168681226E+04 0.  0.
        1    1    3    3  502    0 -0.77945259065E+03  0.45727629394E+03  0.86657037839E+03  0.12520352115E+04  0.50400001928E-02 0.  1.
       -1    1    3    3    0  502  0.77945259065E+03 -0.45727629394E+03 -0.92212854140E+02  0.90837831357E+03  0.50400001928E-02 0. -1.
</event>
<event>
 5   0  0.3147063E-05  0.1895933E+04  0.7818609E-02  0.8656884E-01
       -1   -1    0    0    0  501  0.00000000000E+00  0.00000000000E+00  0.96731710372E+03  0.96731710373E+03  0.50400001928E-02 0.  1.
        1   -1    0    0  501    0  0.00000000000E+00  0.00000000000E+00 -0.92900274638E+03  0.92900274639E+03  0.50400001928E-02 0. -1.
    10030    2    1    2    0    0  0.00000000000E+00  0.00000000000E+00  0.38314357342E+02  0.18963198501E+04  0.18959327478E+04 0.  0.
        5    1    3    3  502    0  0.21408810078E+03 -0.26429206632E+03 -0.86585914255E+03  0.93027853676E+03  0.46999998093E+01 0. -1.
       -5    1    3    3    0  502 -0.21408810078E+03  0.26429206632E+03  0.90417349989E+03  0.96604131336E+03  0.46999998093E+01 0.  1.
</event>
<event>
 5   0  0.6452182E-05  0.1894140E+04  0.7818609E-02  0.8657779E-01
       -2   -1    0    0    0  501  0.00000000000E+00  0.00000000000E+00  0.57484821457E+03  0.57484821458E+03  0.25500000920E-02 0. -1.
        2   -1    0    0  501    0  0.00000000000E+00  0.00000000000E+00 -0.15603099907E+04  0.15603099907E+04  0.25500000920E-02 0.  1.
    10030    2    1    2    0    0  0.00000000000E+00  0.00000000000E+00 -0.98546177617E+03  0.21351582053E+04  0.18941398178E+04 0.  0.
        3    1    3    3  502    0 -0.29361299698E+03  0.43278186917E+02 -0.15065364143E+04  0.15354913127E+04  0.10100000352E+00 0.  1.
       -3    1    3    3    0  502  0.29361299698E+03 -0.43278186917E+02  0.52107463812E+03  0.59966689266E+03  0.10100000352E+00 0. -1.
</event>
<event>
 5   0  0.3144958E-05  0.1897321E+04  0.7818609E-02  0.8656191E-01
        1   -1    0    0  501    0  0.00000000000E+00  0.00000000000E+00  0.11986023838E+04  0.11986023838E+04  0.50400001928E-02 0.  1.
       -1   -1    0    0    0  501  0.00000000000E+00  0.00000000000E+00 -0.75083854440E+03  0.75083854441E+03  0.50400001928E-02 0. -1.
    10030    2    1    2    0    0  0.00000000000E+00  0.00000000000E+00  0.44776383940E+03  0.19494409282E+04  0.18973211317E+04 0.  0.
        4    1    3    3  502    0 -0.42450077638E+02  0.87150748871E+03 -0.15867373660E+03  0.88685189268E+03  0.12699999809E+01 0.  1.
       -4    1    3    3    0  502  0.42450077638E+02 -0.87150748871E+03  0.60643757600E+03  0.10625890355E+04  0.12699999809E+01 0. -1.
</event>
<event>
 5   0  0.3203527E-05  0.1897809E+04  0.7818609E-02  0.8655948E-01
       -1   -1    0    0    0  501  0.00000000000E+00  0.00000000000E+00  0.10082695381E+04  0.10082695381E+04  0.50400001928E-02 0. -1.
        1   -1    0    0  501    0  0.00000000000E+00  0.00000000000E+00 -0.89303475148E+03  0.89303475149E+03  0.50400001928E-02 0.  1.
    10030    2    1    2    0    0  0.00000000000E+00  0.00000000000E+00  0.11523478663E+03  0.19013042896E+04  0.18978089856E+04 0.  0.
        1    1    3    3  502    0 -0.27089554770E+03  0.32664767112E+03 -0.79267223494E+03  0.89911755120E+03  0.50400001928E-02 0.  1.
       -1    1    3    3    0  502  0.27089554770E+03 -0.32664767112E+03  0.90790702156E+03  0.10021867384E+04  0.50400001928E-02 0. -1.
</event>
<event>
 5   0  0.3083469E-05  0.1883971E+04  0.7818609E-02  0.8662876E-01
        1   -1    0    0  501    0  0.00000000000E+00  0.00000000000E+00  0.58721600538E+03  0.58721600540E+03  0.50400001928E-02 0.  1.
       -1   -1    0    0    0  501  0.00000000000E+00  0.00000000000E+00 -0.15110912722E+04  0.15110912722E+04  0.50400001928E-02 0. -1.
    10030    2    1    2    0    0  0.00000000000E+00  0.00000000000E+00 -0.92387526679E+03  0.20983072776E+04  0.18839713168E+04 0.  0.
        3    1    3    3  502    0  0.91700513630E+03 -0.16066240088E+03 -0.62189484197E+03  0.11195820791E+04  0.10100000352E+00 0.  1.
       -3    1    3    3    0  502 -0.91700513630E+03  0.16066240088E+03 -0.30198042482E+03  0.97872519853E+03  0.10100000352E+00 0. -1.
</event>
<event>
 5   0  0.6395992E-05  0.1904286E+04  0.7818609E-02  0.8652726E-01
        2   -1    0    0  501    0  0.00000000000E+00  0.00000000000E+00  0.18957220343E+04  0.18957220343E+04  0.25500000920E-02 0.  1.
       -2   -1    0    0    0  501  0.00000000000E+00  0.00000000000E+00 -0.47822222295E+03  0.47822222295E+03  0.25500000920E-02 0. -1.
    10030    2    1    2    0    0  0.00000000000E+00  0.00000000000E+00  0.14174998114E+04  0.23739442573E+04  0.19042861186E+04 0.  0.
        4    1    3    3  502    0 -0.39281073523E+03  0.84661410199E+03  0.47380329945E+03  0.10466837588E+04  0.12699999809E+01 0. -1.
       -4    1    3    3    0  502  0.39281073523E+03 -0.84661410199E+03  0.94369651194E+03  0.13272604985E+04  0.12699999809E+01 0.  1.
</event>
<event>
 5   0  0.6395992E-05  0.1899596E+04  0.7818609E-02  0.8655057E-01
       -2   -1    0    0    0  501  0.00000000000E+00  0.00000000000E+00  0.50454077588E+03  0.50454077589E+03  0.25500000920E-02 0. -1.
        2   -1    0    0  501    0  0.00000000000E+00  0.00000000000E+00 -0.17879955762E+04  0.17879955762E+04  0.25500000920E-02 0.  1.
    10030    2    1    2    0    0  0.00000000000E+00  0.00000000000E+00 -0.12834548003E+04  0.22925363521E+04  0.18995964574E+04 0.  0.
        4    1    3    3  502    0 -0.59653237221E+03  0.49825665515E+03 -0.13005466629E+04  0.15151019110E+04  0.12699999809E+01 0.  1.
       -4    1    3    3    0  502  0.59653237221E+03 -0.49825665515E+03  0.17091862569E+02  0.77743444108E+03  0.12699999809E+01 0. -1.
</event>
<event>
 5   0  0.3086139E-05  0.1895016E+04  0.7818609E-02  0.8657341E-01
       -1   -1    0    0    0  501  0.00000000000E+00  0.00000000000E+00  0.80534218672E+03  0.80534218674E+03  0.50400001928E-02 0. -1.
        1   -1    0    0  501    0  0.00000000000E+00  0.00000000000E+00 -0.11147703508E+04  0.11147703508E+04  0.50400001928E-02 0.  1.
    10030    2    1    2    0    0  0.00000000000E+00  0.00000000000E+00 -0.30942816407E+03  0.19201125375E+04  0.18950161920E+04 0.  0.
        2    1    3    3  502    0 -0.75842268996E+03 -0.50362573206E+03  0.11130376209E+03  0.91718721214E+03  0.25500000920E-02 0. -1.
       -2    1    3    3    0  502  0.75842268996E+03  0.50362573206E+03 -0.42073192616E+03  0.10029253254E+04  0.25500000920E-02 0.  1.
</event>
<event>
 5   0  0.3147063E-05  0.1882404E+04  0.7818609E-02  0.8663665E-01
       -1   -1    0    0    0  501  0.00000000000E+00  0.00000000000E+00  0.71647004691E+03  0.71647004692E+03  0.50400001928E-02 0. -1.
        1   -1    0    0  501    0  0.00000000000E+00  0.00000000000E+00 -0.12364251836E+04  0.12364251836E+04  0.50400001928E-02 0.  1.
    10030    2    1    2    0    0  0.00000000000E+00  0.00000000000E+00 -0.51995513671E+03  0.19528952305E+04  0.18824044298E+04 0.  0.
        5    1    3    3  502    0 -0.40167614101E+02 -0.88971048783E+03  0.55790637239E+02  0.89237485093E+03  0.46999998093E+01 0.  1.
       -5    1    3    3    0  502  0.40167614101E+02  0.88971048783E+03 -0.57574577394E+03  0.10605203796E+04  0.46999998093E+01 0. -1.
</event>
<event>
 5   0  0.3147063E-05  0.1887163E+04  0.7818609E-02  0.8661272E-01
       -1   -1    0    0    0  501  0.00000000000E+00  0.00000000000E+00  0.15222174657E+04  0.15222174657E+04  0.50400001928E-02 0. -1.
        1   -1    0    0  501    0  0.00000000000E+00  0.00000000000E+00 -0.58490093450E+03  0.58490093453E+03  0.50400001928E-02 0.  1.
    10030    2    1    2    0    0  0.00000000000E+00  0.00000000000E+00  0.93731653115E+03  0.21071184002E+04  0.18871633933E+04 0.  0.
        5    1    3    3  502    0 -0.76920460670E+03  0.31804390930E+03 -0.27544668451E+02  0.83283158800E+03  0.46999998093E+01 0.  1.
       -5    1    3    3    0  502  0.76920460670E+03 -0.31804390930E+03  0.96486119960E+03  0.12742868122E+04  0.46999998093E+01 0. -1.
</event>
<event>
 5   0  0.6423388E-05  0.1923315E+04  0.7818609E-02  0.8643337E-01
        2   -1    0    0  501    0  0.00000000000E+00  0.00000000000E+00  0.16479313966E+04  0.16479313966E+04  0.25500000920E-02 0.  1.
       -2   -1    0    0    0  501  0.00000000000E+00  0.00000000000E+00 -0.56117913426E+03  0.56117913427E+03  0.25500000920E-02 0. -1.
    10030    2    1    2    0    0  0.00000000000E+00  0.00000000000E+00  0.10867522624E+04  0.22091105309E+04  0.19233145499E+04 0.  0.
        2    1    3    3  502    0  0.16153316824E+03  0.82743183875E+03  0.10747779331E+04  0.13659736519E+04  0.25500000920E-02 0.  1.
       -2    1    3    3    0  502 -0.16153316824E+03 -0.82743183875E+03  0.11974329315E+02  0.84313687903E+03  0.25500000920E-02 0. -1.
</event>
<event>
 5   0  0.6452182E-05  0.1907532E+04  0.7818609E-02  0.8651116E-01
        2   -1    0    0  501    0  0.00000000000E+00  0.00000000000E+00  0.82850273547E+03  0.82850273547E+03  0.25500000920E-02 0. -1.
       -2   -1    0    0    0  501  0.00000000000E+00  0.00000000000E+00 -0.10979685339E+04  0.10979685339E+04  0.25500000920E-02 0.  1.
    10030    2    1    2    0    0  0.00000000000E+00  0.00000000000E+00 -0.26946579839E+03  0.19264712693E+04  0.19075323680E+04 0.  0.
        3    1    3    3  502    0  0.52752287662E+03 -0.70417727816E+03 -0.50652363554E+03  0.10152399854E+04  0.10100000352E+00 0.  1.
       -3    1    3    3    0  502 -0.52752287662E+03  0.70417727816E+03  0.23705783715E+03  0.91123128392E+03  0.10100000352E+00 0. -1.
</event>
<event>
 5   0  0.6361762E-05  0.1912749E+04  0.7818609E-02  0.8648536E-01
        2   -1    0    0  501    0  0.00000000000E+00  0.00000000000E+00  0.16938037162E+04  0.16938037162E+04  0.25500000920E-02 0. -1.
       -2   -1    0    0    0  501  0.00000000000E+00  0.00000000000E+00 -0.53999911197E+03  0.53999911198E+03  0.25500000920E-02 0.  1.
    10030    2    1    2    0    0  0.00000000000E+00  0.00000000000E+00  0.11538046042E+04  0.22338028281E+04  0.19127493329E+04 0.  0.
        1    1    3    3  502    0  0.46539961671E+03 -0.73456098505E+03  0.11199289494E+03  0.87676624737E+03  0.50400001928E-02 0.  1.
       -1    1    3    3    0  502 -0.46539961671E+03  0.73456098505E+03  0.10418117092E+04  0.13570365808E+04  0.50400001928E-02 0. -1.
</event>
<event>
 5   0  0.6423388E-05  0.1853798E+04  0.7818609E-02  0.8678202E-01
       -2   -1    0    0    0  501  0.00000000000E+00  0.00000000000E+00  0.97799409743E+03  0.97799409743E+03  0.25500000920E-02 0. -1.
        2   -1    0    0  501    0  0.00000000000E+00  0.00000000000E+00 -0.87847377616E+03  0.87847377617E+03  0.25500000920E-02 0.  1.
    10030    2    1    2    0    0  0.00000000000E+00  0.00000000000E+00  0.99520321266E+02  0.18564678736E+04  0.18537984441E+04 0.  0.
        2    1    3    3  502    0  0.44341369641E+03 -0.70554468786E+03  0.45621793337E+03  0.95002306049E+03  0.25500000920E-02 0. -1.
       -2    1    3    3    0  502 -0.44341369641E+03  0.70554468786E+03 -0.35669761210E+03  0.90644481311E+03  0.25500000920E-02 0.  1.
</event>
<event>
 5   0  0.6452182E-05  0.1896153E+04  0.7818609E-02  0.8656774E-01
       -2   -1    0    0    0  501  0.00000000000E+00  0.00000000000E+00  0.66359432426E+03  0.66359432426E+03  0.25500000920E-02 0.  1.
        2   -1    0    0  501    0  0.00000000000E+00  0.00000000000E+00 -0.13545160054E+04  0.13545160054E+04  0.25500000920E-02 0. -1.
    10030    2    1    2    0    0  0.00000000000E+00  0.00000000000E+00 -0.69092168112E+03  0.20181103296E+04  0.18961530880E+04 0.  0.
        3    1    3    3  502    0 -0.18158756464E+03  0.22308535164E+02  0.64462827096E+03  0.67008755570E+03  0.10100000352E+00 0.  1.
       -3    1    3    3    0  502  0.18158756464E+03 -0.22308535164E+02 -0.13355499521E+04  0.13480227740E+04  0.10100000352E+00 0. -1.
</event>
<event>
 5   0  0.3083469E-05  0.1882116E+04  0.7818609E-02  0.8663810E-01
        1   -1    0    0  501    0  0.00000000000E+00  0.00000000000E+00  0.70626819316E+03  0.70626819318E+03  0.50400001928E-02 0. -1.
       -1   -1    0    0    0  501  0.00000000000E+00  0.00000000000E+00 -0.12539013008E+04  0.12539013008E+04  0.50400001928E-02 0.  1.
    10030    2    1    2    0    0  0.00000000000E+00  0.00000000000E+00 -0.54763310763E+03  0.19601694940E+04  0.18821164748E+04 0.  0.
        3    1    3    3  502    0 -0.40109620247E+03 -0.77479939604E+03  0.93511757032E+02  0.87746038466E+03  0.10100000352E+00 0. -1.
       -3    1    3    3    0  502  0.40109620247E+03  0.77479939604E+03 -0.64114486467E+03  0.10827091093E+04  0.10100000352E+00 0.  1.
</event>
<event>
 5   0  0.6098377E-05  0.1905098E+04  0.7818609E-02  0.8652323E-01
        2   -1    0    0  501    0  0.00000000000E+00  0.00000000000E+00  0.19259880349E+04  0.19259880349E+04  0.25500000920E-02 0.  1.
       -2   -1    0    0    0  501  0.00000000000E+00  0.00000000000E+00 -0.47110883226E+03  0.47110883227E+03  0.25500000920E-02 0. -1.
    10030    2    1    2    0    0  0.00000000000E+00  0.00000000000E+00  0.14548792026E+04  0.23970968671E+04  0.19050983954E+04 0.  0.
        5    1    3    3  502    0  0.62513825718E+02 -0.20000818836E+03 -0.44173232241E+03  0.48893843015E+03  0.46999998093E+01 0. -1.
       -5    1    3    3    0  502 -0.62513825718E+02  0.20000818836E+03  0.18966115250E+04  0.19081584370E+04  0.46999998093E+01 0.  1.
</event>
<event>
 5   0  0.3147063E-05  0.1894796E+04  0.7818609E-02  0.8657451E-01
       -1   -1    0    0    0  501  0.00000000000E+00  0.00000000000E+00  0.14897200313E+04  0.14897200313E+04  0.50400001928E-02 0. -1.
        1   -1    0    0  501    0  0.00000000000E+00  0.00000000000E+00 -0.60250449799E+03  0.60250449801E+03  0.50400001928E-02 0.  1.
    10030    2    1    2    0    0  0.00000000000E+00  0.00000000000E+00  0.88721553327E+03  0.20922245293E+04  0.18947960519E+04 0.  0.
        5    1    3    3  502    0 -0.39410328947E+03 -0.83824045281E+03  0.22394100560E+03  0.95296176391E+03  0.46999998093E+01 0.  1.
       -5    1    3    3    0  502  0.39410328947E+03  0.83824045281E+03  0.66327452767E+03  0.11392627654E+04  0.46999998093E+01 0. -1.
</event>
<event>
 5   0  0.3083469E-05  0.1880710E+04  0.7818609E-02  0.8664518E-01
       -1   -1    0    0    0  501  0.00000000000E+00  0.00000000000E+00  0.86023577022E+03  0.86023577023E+03  0.50400001928E-02 0.  1.
        1   -1    0    0  501    0  0.00000000000E+00  0.00000000000E+00 -0.10279367358E+04  0.10279367358E+04  0.50400001928E-02 0. -1.
    10030    2    1    2    0    0  0.00000000000E+00  0.00000000000E+00 -0.16770096558E+03  0.18881725060E+04  0.18807104505E+04 0.  0.
        3    1    3    3  502    0  0.81172450221E+03  0.38444340586E+03  0.19577666655E+03  0.91925073466E+03  0.10100000352E+00 0.  1.
       -3    1    3    3    0  502 -0.81172450221E+03 -0.38444340586E+03 -0.36347763213E+03  0.96892177139E+03  0.10100000352E+00 0. -1.
</event>
<event>
 5   0  0.6452182E-05  0.1890782E+04  0.7818609E-02  0.8659458E-01
       -2   -1    0    0    0  501  0.00000000000E+00  0.00000000000E+00  0.65997239110E+03  0.65997239111E+03  0.25500000920E-02 0. -1.
        2   -1    0    0  501    0  0.00000000000E+00  0.00000000000E+00 -0.13542451858E+04  0.13542451858E+04  0.25500000920E-02 0.  1.
    10030    2    1    2    0    0  0.00000000000E+00  0.00000000000E+00 -0.69427279467E+03  0.20142175769E+04  0.18907823073E+04 0.  0.
        3    1    3    3  502    0  0.80997777979E+03 -0.46800527084E+03 -0.49270050161E+03  0.10572827114E+04  0.10100000352E+00 0. -1.
       -3    1    3    3    0  502 -0.80997777979E+03  0.46800527084E+03 -0.20157229306E+03  0.95693486551E+03  0.10100000352E+00 0.  1.
</event>
<event>
 5   0  0.3203527E-05  0.1890169E+04  0.7818609E-02  0.8659766E-01
       -1   -1    0    0    0  501  0.00000000000E+00  0.00000000000E+00  0.64275909977E+03  0.64275909979E+03  0.50400001928E-02 0.  1.
        1   -1    0    0  501    0  0.00000000000E+00  0.00000000000E+00 -0.13896097448E+04  0.13896097448E+04  0.50400001928E-02 0. -1.
    10030    2    1    2    0    0  0.00000000000E+00  0.00000000000E+00 -0.74685064505E+03  0.20323688446E+04  0.18901685731E+04 0.  0.
        1    1    3    3  502    0  0.45813922453E+03  0.56789351378E+03 -0.10192714590E+04  0.12535186074E+04  0.50400001928E-02 0. -1.
       -1    1    3    3    0  502 -0.45813922453E+03 -0.56789351378E+03  0.27242081395E+03  0.77885023718E+03  0.50400001928E-02 0.  1.
</event>
<event>
 5   0  0.3083469E-05  0.1894685E+04  0.7818609E-02  0.8657507E-01
       -1   -1    0    0    0  501  0.00000000000E+00  0.00000000000E+00  0.79601224955E+03  0.79601224956E+03  0.50400001928E-02 0. -1.
        1   -1    0    0  501    0  0.00000000000E+00  0.00000000000E+00 -0.11274421389E+04  0.11274421389E+04  0.50400001928E-02 0.  1.
    10030    2    1    2    0    0  0.00000000000E+00  0.00000000000E+00 -0.33142988931E+03  0.19234543884E+04  0.18946849376E+04 0.  0.
        3    1    3    3  502    0  0.14188962820E+03 -0.30720852227E+03  0.73256426708E+03  0.80694495373E+03  0.10100000352E+00 0. -1.
       -3    1    3    3    0  502 -0.14188962820E+03  0.30720852227E+03 -0.10639941564E+04  0.11165094347E+04  0.10100000352E+00 0.  1.
</event>
<event>
 5   0  0.3086139E-05  0.1901622E+04  0.7818609E-02  0.8654049E-01
        1   -1    0    0  501    0  0.00000000000E+00  0.00000000000E+00  0.89380270216E+03  0.89380270217E+03  0.50400001928E-02 0.  1.
       -1   -1    0    0    0  501  0.00000000000E+00  0.00000000000E+00 -0.10114552968E+04  0.10114552968E+04  0.50400001928E-02 0. -1.
    10030    2    1    2    0    0  0.00000000000E+00  0.00000000000E+00 -0.11765259464E+03  0.19052579990E+04  0.19016219155E+04 0.  0.
        2    1    3    3  502    0 -0.78520199236E+03 -0.53567416841E+03 -0.82376430191E+02  0.95408325620E+03  0.25500000920E-02 0. -1.
       -2    1    3    3    0  502  0.78520199236E+03  0.53567416841E+03 -0.35276164445E+02  0.95117474277E+03  0.25500000920E-02 0.  1.
</event>
<event>
 5   0  0.3147063E-05  0.1898689E+04  0.7818609E-02  0.8655509E-01
        1   -1    0    0  501    0  0.00000000000E+00  0.00000000000E+00  0.22221129100E+04  0.22221129100E+04  0.50400001928E-02 0.  1.
       -1   -1    0    0    0  501  0.00000000000E+00  0.00000000000E+00 -0.40558456686E+03  0.40558456689E+03  0.50400001928E-02 0. -1.
    10030    2    1    2    0    0  0.00000000000E+00  0.00000000000E+00  0.18165283431E+04  0.26276974769E+04  0.18986887077E+04 0.  0.
        5    1    3    3  502    0  0.70325099680E+03 -0.63699973381E+03  0.94982858767E+03  0.13425822363E+04  0.46999998093E+01 0. -1.
       -5    1    3    3    0  502 -0.70325099680E+03  0.63699973381E+03  0.86669975545E+03  0.12851152405E+04  0.46999998093E+01 0.  1.
</event>
<event>
 5   0  0.6395992E-05  0.1900963E+04  0.7818609E-02  0.8654377E-01
        2   -1    0    0  501    0  0.00000000000E+00  0.00000000000E+00  0.17025665829E+04  0.17025665829E+04  0.25500000920E-02 0.  1.
       -2   -1    0    0    0  501  0.00000000000E+00  0.00000000000E+00 -0.53061969896E+03  0.53061969897E+03  0.25500000920E-02 0. -1.
    10030    2    1    2    0    0  0.00000000000E+00  0.00000000000E+00  0.11719468839E+04  0.22331862818E+04  0.19009633007E+04 0.  0.
        4    1    3    3  502    0 -0.86341687393E+03  0.31584426301E+03  0.86930259382E+03  0.12652805654E+04  0.12699999809E+01 0.  1.
       -4    1    3    3    0  502  0.86341687393E+03 -0.31584426301E+03  0.30264429007E+03  0.96790571642E+03  0.12699999809E+01 0. -1.
</event>
<event>
 5   0  0.6361762E-05  0.1899060E+04  0.7818609E-02  0.8655325E-01
        2   -1    0    0  501    0  0.00000000000E+00  0.00000000000E+00  0.87510676602E+03  0.87510676603E+03  0.25500000920E-02 0. -1.
       -2   -1    0    0    0  501  0.00000000000E+00  0.00000000000E+00 -0.10302820981E+04  0.10302820981E+04  0.25500000920E-02 0.  1.
    10030    2    1    2    0    0  0.00000000000E+00  0.00000000000E+00 -0.15517533203E+03  0.19053888641E+04  0.18990595935E+04 0.  0.
        1    1    3    3  502    0 -0.64507786303E+03 -0.56922053244E+02 -0.77433804633E+03  0.10094379523E+04  0.50400001928E-02 0.  1.
       -1    1    3    3    0  502  0.64507786303E+03  0.56922053244E+02  0.61916271430E+03  0.89595091178E+03  0.50400001928E-02 0. -1.
</event>
<event>
 5   0  0.3144958E-05  0.1899972E+04  0.7818609E-02  0.8654870E-01
       -1   -1    0    0    0  501  0.00000000000E+00  0.00000000000E+00  0.95323536162E+03  0.95323536163E+03  0.50400001928E-02 0. -1.
        1   -1    0    0  501    0  0.00000000000E+00  0.00000000000E+00 -0.94674736749E+03  0.94674736750E+03  0.50400001928E-02 0.  1.
    10030    2    1    2    0    0  0.00000000000E+00  0.00000000000E+00  0.64879941337E+01  0.18999827291E+04  0.18999716516E+04 0.  0.
        4    1    3    3  502    0  0.64197510448E+03  0.36778752034E+03 -0.59263845933E+03  0.94795656613E+03  0.12699999809E+01 0.  1.
       -4    1    3    3    0  502 -0.64197510448E+03 -0.36778752034E+03  0.59912645347E+03  0.95202616300E+03  0.12699999809E+01 0. -1.
</event>
<event>
 5   0  0.6423388E-05  0.1906272E+04  0.7818609E-02  0.8651741E-01
        2   -1    0    0  501    0  0.00000000000E+00  0.00000000000E+00  0.18492009818E+04  0.18492009818E+04  0.25500000920E-02 0. -1.
       -2   -1    0    0    0  501  0.00000000000E+00  0.00000000000E+00 -0.49127595514E+03  0.49127595515E+03  0.25500000920E-02 0.  1.
    10030    2    1    2    0    0  0.00000000000E+00  0.00000000000E+00  0.13579250267E+04  0.23404769369E+04  0.19062717315E+04 0.  0.
        2    1    3    3  502    0  0.57310285855E+02 -0.84888767685E+03  0.15148505504E+03  0.86420048523E+03  0.25500000920E-02 0.  1.
       -2    1    3    3    0  502 -0.57310285855E+02  0.84888767685E+03  0.12064399716E+04  0.14762764517E+04  0.25500000920E-02 0. -1.
</event>
<event>
 5   0  0.3147063E-05  0.1898353E+04  0.7818609E-02  0.8655677E-01
        1   -1    0    0  501    0  0.00000000000E+00  0.00000000000E+00  0.16767554675E+04  0.16767554675E+04  0.50400001928E-02 0. -1.
       -1   -1    0    0    0  501  0.00000000000E+00  0.00000000000E+00 -0.53730898513E+03  0.53730898515E+03  0.50400001928E-02 0.  1.
    10030    2    1    2    0    0  0.00000000000E+00  0.00000000000E+00  0.11394464824E+04  0.22140644526E+04  0.18983527371E+04 0.  0.
        5    1    3    3  502    0  0.37386355402E+03 -0.32238126017E+03  0.15152317598E+04  0.15936288809E+04  0.46999998093E+01 0. -1.
       -5    1    3    3    0  502 -0.37386355402E+03  0.32238126017E+03 -0.37578527749E+03  0.62043557176E+03  0.46999998093E+01 0.  1.
</event>
<event>
 5   0  0.6423388E-05  0.1907916E+04  0.7818609E-02  0.8650926E-01
        2   -1    0    0  501    0  0.00000000000E+00  0.00000000000E+00  0.11653674626E+04  0.11653674626E+04  0.25500000920E-02 0. -1.
       -2   -1    0    0    0  501  0.00000000000E+00  0.00000000000E+00 -0.78090036629E+03  0.78090036629E+03  0.25500000920E-02 0.  1.
    10030    2    1    2    0    0  0.00000000000E+00  0.00000000000E+00  0.38446709628E+03  0.19462678289E+04  0.19079160132E+04 0.  0.
        2    1    3    3  502    0  0.61349976265E+02 -0.94943157487E+03  0.26328815882E+03  0.98717009149E+03  0.25500000920E-02 0. -1.
       -2    1    3    3    0  502 -0.61349976265E+02  0.94943157487E+03  0.12117893746E+03  0.95909773738E+03  0.25500000920E-02 0.  1.
</event>
<event>
 5   0  0.3144958E-05  0.1883108E+04  0.7818609E-02  0.8663311E-01
        1   -1    0    0  501    0  0.00000000000E+00  0.00000000000E+00  0.16044235160E+04  0.16044235160E+04  0.50400001928E-02 0.  1.
       -1   -1    0    0    0  501  0.00000000000E+00  0.00000000000E+00 -0.55254959884E+03  0.55254959886E+03  0.50400001928E-02 0. -1.
    10030    2    1    2    0    0  0.00000000000E+00  0.00000000000E+00  0.10518739172E+04  0.21569731149E+04  0.18831076126E+04 0.  0.
        4    1    3    3  502    0  0.41073273545E+03  0.26564453580E+03 -0.39558739309E+03  0.62909410889E+03  0.12699999809E+01 0. -1.
       -4    1    3    3    0  502 -0.41073273545E+03 -0.26564453580E+03  0.14474613103E+04  0.15278790060E+04  0.12699999809E+01 0.  1.
</event>
<event>
 5   0  0.3144958E-05  0.1839109E+04  0.7818609E-02  0.8685774E-01
        1   -1    0    0  501    0  0.00000000000E+00  0.00000000000E+00  0.13873699489E+04  0.13873699489E+04  0.50400001928E-02 0. -1.
       -1   -1    0    0    0  501  0.00000000000E+00  0.00000000000E+00 -0.60948452011E+03  0.60948452014E+03  0.50400001928E-02 0.  1.
    10030    2    1    2    0    0  0.00000000000E+00  0.00000000000E+00  0.77788542881E+03  0.19968544691E+04  0.18391090316E+04 0.  0.
        4    1    3    3  502    0  0.91023543697E+03  0.13038608280E+03  0.39660594541E+03  0.10014124875E+04  0.12699999809E+01 0.  1.
       -4    1    3    3    0  502 -0.91023543697E+03 -0.13038608280E+03  0.38127948340E+03  0.99544198156E+03  0.12699999809E+01 0. -1.
</event>
<event>
 5   0  0.3086139E-05  0.1901176E+04  0.7818609E-02  0.8654271E-01
       -1   -1    0    0    0  501  0.00000000000E+00  0.00000000000E+00  0.88149609316E+03  0.88149609318E+03  0.50400001928E-02 0.  1.
        1   -1    0    0  501    0  0.00000000000E+00  0.00000000000E+00 -0.10250950818E+04  0.10250950818E+04  0.50400001928E-02 0. -1.
    10030    2    1    2    0    0  0.00000000000E+00  0.00000000000E+00 -0.14359898864E+03  0.19065911750E+04  0.19011757517E+04 0.  0.
        2    1    3    3  502    0 -0.89347790979E+02 -0.94027008688E+03 -0.17946659459E+03  0.96140476523E+03  0.25500000920E-02 0. -1.
       -2    1    3    3    0  502  0.89347790979E+02  0.94027008688E+03  0.35867605955E+02  0.94518640976E+03  0.25500000920E-02 0.  1.
</event>
<event>
 5   0  0.6395992E-05  0.1890686E+04  0.7818609E-02  0.8659507E-01
       -2   -1    0    0    0  501  0.00000000000E+00  0.00000000000E+00  0.52454920421E+03  0.52454920422E+03  0.25500000920E-02 0.  1.
        2   -1    0    0  501    0  0.00000000000E+00  0.00000000000E+00 -0.17036978017E+04  0.17036978017E+04  0.25500000920E-02 0. -1.
    10030    2    1    2    0    0  0.00000000000E+00  0.00000000000E+00 -0.11791485975E+04  0.22282470059E+04  0.18906859349E+04 0.  0.
        4    1    3    3  502    0  0.91962554169E+02 -0.36647710489E+03 -0.16108373780E+04  0.16545577207E+04  0.12699999809E+01 0. -1.
       -4    1    3    3    0  502 -0.91962554169E+02  0.36647710489E+03  0.43168878057E+03  0.57368928519E+03  0.12699999809E+01 0.  1.
</event>
<event>
 5   0  0.2279625E-05  0.1900957E+04  0.7818609E-02  0.8654380E-01
        3   -1    0    0  501    0  0.00000000000E+00  0.00000000000E+00  0.17914524923E+04  0.17914524951E+04  0.10100000352E+00 0. -1.
       -3   -1    0    0    0  501  0.00000000000E+00  0.00000000000E+00 -0.50428870883E+03  0.50428871894E+03  0.10100000352E+00 0.  1.
    10030    2    1    2    0    0  0.00000000000E+00  0.00000000000E+00  0.12871637834E+04  0.22957412140E+04  0.19009568950E+04 0.  0.
        4    1    3    3  502    0  0.69093750497E+02  0.50745921355E+03  0.16105673439E+04  0.16900347872E+04  0.12699999809E+01 0. -1.
       -4    1    3    3    0  502 -0.69093750497E+02 -0.50745921355E+03 -0.32340356044E+03  0.60570642689E+03  0.12699999809E+01 0.  1.
</event>
<event>
 5   0  0.6098377E-05  0.1899538E+04  0.7818609E-02  0.8655086E-01
       -2   -1    0    0    0  501  0.00000000000E+00  0.00000000000E+00  0.76299657394E+03  0.76299657395E+03  0.25500000920E-02 0. -1.
        2   -1    0    0  501    0  0.00000000000E+00  0.00000000000E+00 -0.11822613008E+04  0.11822613008E+04  0.25500000920E-02 0.  1.
    10030    2    1    2    0    0  0.00000000000E+00  0.00000000000E+00 -0.41926472682E+03  0.19452578747E+04  0.18995381776E+04 0.  0.
        5    1    3    3  502    0  0.96866796620E+01 -0.42934805790E+03 -0.10771375477E+04  0.11596038001E+04  0.46999998093E+01 0.  1.
       -5    1    3    3    0  502 -0.96866796620E+01  0.42934805790E+03  0.65787282084E+03  0.78565407463E+03  0.46999998093E+01 0. -1.
</event>
<event>
 5   0  0.6098377E-05  0.1915018E+04  0.7818609E-02  0.8647417E-01
       -2   -1    0    0    0  501  0.00000000000E+00  0.00000000000E+00  0.54017426062E+03  0.54017426063E+03  0.25500000920E-02 0.  1.
        2   -1    0    0  501    0  0.00000000000E+00  0.00000000000E+00 -0.16972735566E+04  0.16972735566E+04  0.25500000920E-02 0. -1.
    10030    2    1    2    0    0  0.00000000000E+00  0.00000000000E+00 -0.11570992960E+04  0.22374478172E+04  0.19150180036E+04 0.  0.
        5    1    3    3  502    0  0.32957852292E+03 -0.13535518986E+03 -0.16169257059E+04  0.16557215522E+04  0.46999998093E+01 0. -1.
       -5    1    3    3    0  502 -0.32957852292E+03  0.13535518986E+03  0.45982640988E+03  0.58172626502E+03  0.46999998093E+01 0.  1.
</event>
<event>
 5   0  0.6395992E-05  0.1899942E+04  0.7818609E-02  0.8654885E-01
        2   -1    0    0  501    0  0.00000000000E+00  0.00000000000E+00  0.21428592749E+04  0.21428592749E+04  0.25500000920E-02 0.  1.
       -2   -1    0    0    0  501  0.00000000000E+00  0.00000000000E+00 -0.42114061446E+03  0.42114061446E+03  0.25500000920E-02 0. -1.
    10030    2    1    2    0    0  0.00000000000E+00  0.00000000000E+00  0.17217186605E+04  0.25639998894E+04  0.18999421799E+04 0.  0.
        4    1    3    3  502    0  0.27341988538E+03 -0.58333648918E+03 -0.81294826577E+02  0.64934609805E+03  0.12699999809E+01 0. -1.
       -4    1    3    3    0  502 -0.27341988538E+03  0.58333648918E+03  0.18030134870E+04  0.19146537913E+04  0.12699999809E+01 0.  1.
</event>
<event>
 5   0  0.3144958E-05  0.1810870E+04  0.7818609E-02  0.8700540E-01
       -1   -1    0    0    0  501  0.00000000000E+00  0.00000000000E+00  0.87099999504E+03  0.87099999505E+03  0.50400001928E-02 0. -1.
        1   -1    0    0  501    0  0.00000000000E+00  0.00000000000E+00 -0.94123108848E+03  0.94123108850E+03  0.50400001928E-02 0.  1.
    10030    2    1    2    0    0  0.00000000000E+00  0.00000000000E+00 -0.70231093445E+02  0.18122310836E+04  0.18108697064E+04 0.  0.
        4    1    3    3  502    0  0.84968068049E+03  0.21775069614E+03 -0.25986852505E+03  0.91482560506E+03  0.12699999809E+01 0.  1.
       -4    1    3    3    0  502 -0.84968068049E+03 -0.21775069614E+03  0.18963743161E+03  0.89740547849E+03  0.12699999809E+01 0. -1.
</event>
<event>
 5   0  0.3086139E-05  0.1889839E+04  0.7818609E-02  0.8659931E-01
        1   -1    0    0  501    0  0.00000000000E+00  0.00000000000E+00  0.65994840789E+03  0.65994840791E+03  0.50400001928E-02 0.  1.
       -1   -1    0    0    0  501  0.00000000000E+00  0.00000000000E+00 -0.13529432561E+04  0.13529432562E+04  0.50400001928E-02 0. -1.
    10030    2    1    2    0    0  0.00000000000E+00  0.00000000000E+00 -0.69299484826E+03  0.20128916641E+04  0.18898388798E+04 0.  0.
        2    1    3    3  502    0 -0.92617661467E+03  0.15917731298E+03 -0.24142195372E+03  0.97027063146E+03  0.25500000920E-02 0. -1.
       -2    1    3    3    0  502  0.92617661467E+03 -0.15917731298E+03 -0.45157289454E+03  0.10426210326E+04  0.25500000920E-02 0.  1.
</event>
<event>
 5   0  0.6423388E-05  0.1891646E+04  0.7818609E-02  0.8659026E-01
        2   -1    0    0  501    0  0.00000000000E+00  0.00000000000E+00  0.12229779507E+04  0.12229779507E+04  0.25500000920E-02 0. -1.
       -2   -1    0    0    0  501  0.00000000000E+00  0.00000000000E+00 -0.73147742006E+03  0.73147742006E+03  0.25500000920E-02 0.  1.
    10030    2    1    2    0    0  0.00000000000E+00  0.00000000000E+00  0.49150053060E+03  0.19544553707E+04  0.18916455864E+04 0.  0.
        2    1    3    3  502    0  0.43878466920E+03 -0.64388417586E+03 -0.30820687071E+03  0.83792021876E+03  0.25500000920E-02 0.  1.
       -2    1    3    3    0  502 -0.43878466920E+03  0.64388417586E+03  0.79970740131E+03  0.11165351520E+04  0.25500000920E-02 0. -1.
</event>
<event>
 5   0  0.3086139E-05  0.1896691E+04  0.7818609E-02  0.8656505E-01
        1   -1    0    0  501    0  0.00000000000E+00  0.00000000000E+00  0.12851233899E+04  0.12851233899E+04  0.50400001928E-02 0.  1.
       -1   -1    0    0    0  501  0.00000000000E+00  0.00000000000E+00 -0.69982310909E+03  0.69982310911E+03  0.50400001928E-02 0. -1.
    10030    2    1    2    0    0  0.00000000000E+00  0.00000000000E+00  0.58530028083E+03  0.19849464990E+04  0.18966908513E+04 0.  0.
        2    1    3    3  502    0  0.56791991308E+03  0.17355410570E+03  0.10664502298E+04  0.12206433336E+04  0.25500000920E-02 0.  1.
       -2    1    3    3    0  502 -0.56791991308E+03 -0.17355410570E+03 -0.48114994896E+03  0.76430316542E+03  0.25500000920E-02 0. -1.
</event>
<event>
 5   0  0.6452182E-05  0.1796120E+04  0.7818609E-02  0.8708366E-01
        2   -1    0    0  501    0  0.00000000000E+00  0.00000000000E+00  0.56870248025E+03  0.56870248025E+03  0.25500000920E-02 0. -1.
       -2   -1    0    0    0  501  0.00000000000E+00  0.00000000000E+00 -0.14181606324E+04  0.14181606324E+04  0.25500000920E-02 0.  1.
    10030    2    1    2    0    0  0.00000000000E+00  0.00000000000E+00 -0.84945815211E+03  0.19868631126E+04  0.17961196720E+04 0.  0.
        3    1    3    3  502    0  0.15295949265E+03  0.88330913074E+03 -0.48409213237E+03  0.10188114790E+04  0.10100000352E+00 0. -1.
       -3    1    3    3    0  502 -0.15295949265E+03 -0.88330913074E+03 -0.36536601974E+03  0.96805163365E+03  0.10100000352E+00 0.  1.
</event>
<event>
 5   0  0.6098377E-05  0.1903031E+04  0.7818609E-02  0.8653349E-01
       -2   -1    0    0    0  501  0.00000000000E+00  0.00000000000E+00  0.96886578792E+03  0.96886578792E+03  0.25500000920E-02 0. -1.
        2   -1    0    0  501    0  0.00000000000E+00  0.00000000000E+00 -0.93447628008E+03  0.93447628008E+03  0.25500000920E-02 0.  1.
    10030    2    1    2    0    0  0.00000000000E+00  0.00000000000E+00  0.34389507835E+02  0.19033420680E+04  0.19030313685E+04 0.  0.
        5    1    3    3  502    0 -0.88531182082E+02  0.32591858266E+03 -0.87250054202E+03  0.93559605522E+03  0.46999998093E+01 0.  1.
       -5    1    3    3    0  502  0.88531182082E+02 -0.32591858266E+03  0.90689004986E+03  0.96774601278E+03  0.46999998093E+01 0. -1.
</event>
<event>
 5   0  0.3147063E-05  0.1896590E+04  0.7818609E-02  0.8656555E-01
       -1   -1    0    0    0  501  0.00000000000E+00  0.00000000000E+00  0.10075788358E+04  0.10075788358E+04  0.50400001928E-02 0.  1.
        1   -1    0    0  501    0  0.00000000000E+00  0.00000000000E+00 -0.89249976116E+03  0.89249976117E+03  0.50400001928E-02 0. -1.
    10030    2    1    2    0    0  0.00000000000E+00  0.00000000000E+00  0.11507907466E+03  0.19000785970E+04  0.18965904886E+04 0.  0.
        5    1    3    3  502    0 -0.24728440605E+03 -0.91546578863E+03  0.61366603615E+02  0.95027108641E+03  0.46999998093E+01 0. -1.
       -5    1    3    3    0  502  0.24728440605E+03  0.91546578863E+03  0.53712471049E+02  0.94980751059E+03  0.46999998093E+01 0.  1.
</event>
<event>
 5   0  0.3083469E-05  0.1894753E+04  0.7818609E-02  0.8657472E-01
       -1   -1    0    0    0  501  0.00000000000E+00  0.00000000000E+00  0.84508952274E+03  0.84508952275E+03  0.50400001928E-02 0.  1.
        1   -1    0    0  501    0  0.00000000000E+00  0.00000000000E+00 -0.10620441507E+04  0.10620441507E+04  0.50400001928E-02 0. -1.
    10030    2    1    2    0    0  0.00000000000E+00  0.00000000000E+00 -0.21695462793E+03  0.19071336734E+04  0.18947531601E+04 0.  0.
        3    1    3    3  502    0 -0.83135694379E+03  0.37075543819E+03  0.15574203185E+03  0.92350936845E+03  0.10100000352E+00 0.  1.
       -3    1    3    3    0  502  0.83135694379E+03 -0.37075543819E+03 -0.37269665978E+03  0.98362430498E+03  0.10100000352E+00 0. -1.
</event>
<event>
 5   0  0.6452182E-05  0.1887653E+04  0.7818609E-02  0.8661027E-01
        2   -1    0    0  501    0  0.00000000000E+00  0.00000000000E+00  0.20036845309E+04  0.20036845309E+04  0.25500000920E-02 0.  1.
       -2   -1    0    0    0  501  0.00000000000E+00  0.00000000000E+00 -0.44458539496E+03  0.44458539497E+03  0.25500000920E-02 0. -1.
    10030    2    1    2    0    0  0.00000000000E+00  0.00000000000E+00  0.15590991359E+04  0.24482699259E+04  0.18876534412E+04 0.  0.
        3    1    3    3  502    0  0.33401852771E+03 -0.87363521336E+02 -0.35974342035E+03  0.49861417991E+03  0.10100000352E+00 0. -1.
       -3    1    3    3    0  502 -0.33401852771E+03  0.87363521336E+02  0.19188425563E+04  0.19496557460E+04  0.10100000352E+00 0.  1.
</event>
<event>
 5   0  0.6361762E-05  0.1899066E+04  0.7818609E-02  0.8655321E-01
       -2   -1    0    0    0  501  0.00000000000E+00  0.00000000000E+00  0.83577935293E+03  0.83577935293E+03  0.25500000920E-02 0. -1.
        2   -1    0    0  501    0  0.00000000000E+00  0.00000000000E+00 -0.10787694844E+04  0.10787694844E+04  0.25500000920E-02 0.  1.
    10030    2    1    2    0    0  0.00000000000E+00  0.00000000000E+00 -0.24299013142E+03  0.19145488373E+04  0.18990663618E+04 0.  0.
        1    1    3    3  502    0 -0.19431260570E+03  0.42118593292E+03 -0.95677756578E+03  0.10632865509E+04  0.50400001928E-02 0.  1.
       -1    1    3    3    0  502  0.19431260570E+03 -0.42118593292E+03  0.71378743436E+03  0.85126228643E+03  0.50400001928E-02 0. -1.
</event>
<event>
 5   0  0.6361762E-05  0.1896303E+04  0.7818609E-02  0.8656699E-01
       -2   -1    0    0    0  501  0.00000000000E+00  0.00000000000E+00  0.37658741273E+03  0.37658741274E+03  0.25500000920E-02 0. -1.
        2   -1    0    0  501    0  0.00000000000E+00  0.00000000000E+00 -0.23872035865E+04  0.23872035865E+04  0.25500000920E-02 0.  1.
    10030    2    1    2    0    0  0.00000000000E+00  0.00000000000E+00 -0.20106161738E+04  0.27637909992E+04  0.18963025311E+04 0.  0.
        1    1    3    3  502    0 -0.19675948553E+03 -0.59088487884E+03 -0.20472990049E+04  0.21399281415E+04  0.50400001928E-02 0.  1.
       -1    1    3    3    0  502  0.19675948553E+03  0.59088487884E+03  0.36682831125E+02  0.62386285778E+03  0.50400001928E-02 0. -1.
</event>
<event>
 5   0  0.6423388E-05  0.1885249E+04  0.7818609E-02  0.8662234E-01
        2   -1    0    0  501    0  0.00000000000E+00  0.00000000000E+00  0.13895937485E+04  0.13895937485E+04  0.25500000920E-02 0.  1.
       -2   -1    0    0    0  501  0.00000000000E+00  0.00000000000E+00 -0.63942464040E+03  0.63942464041E+03  0.25500000920E-02 0. -1.
    10030    2    1    2    0    0  0.00000000000E+00  0.00000000000E+00  0.75016910809E+03  0.20290183889E+04  0.18852485066E+04 0.  0.
        2    1    3    3  502    0  0.32580325499E+03  0.70168189494E+03  0.95470375293E+03  0.12288061273E+04  0.25500000920E-02 0.  1.
       -2    1    3    3    0  502 -0.32580325499E+03 -0.70168189494E+03 -0.20453464484E+03  0.80021226159E+03  0.25500000920E-02 0. -1.
</event>
<event>
 5   0  0.3203527E-05  0.1900109E+04  0.7818609E-02  0.8654802E-01
        1   -1    0    0  501    0  0.00000000000E+00  0.00000000000E+00  0.13218712819E+04  0.13218712819E+04  0.50400001928E-02 0. -1.
       -1   -1    0    0    0  501  0.00000000000E+00  0.00000000000E+00 -0.68282239969E+03  0.68282239971E+03  0.50400001928E-02 0.  1.
    10030    2    1    2    0    0  0.00000000000E+00  0.00000000000E+00  0.63904888224E+03  0.20046936816E+04  0.19001087557E+04 0.  0.
        1    1    3    3  502    0 -0.43341707358E+03  0.14461181200E+03  0.11983432627E+04  0.12824934741E+04  0.50400001928E-02 0. -1.
       -1    1    3    3    0  502  0.43341707358E+03 -0.14461181200E+03 -0.55929438042E+03  0.72220020758E+03  0.50400001928E-02 0.  1.
</event>
<event>
 5   0  0.6361762E-05  0.1903306E+04  0.7818609E-02  0.8653212E-01
        2   -1    0    0  501    0  0.00000000000E+00  0.00000000000E+00  0.73116497643E+03  0.73116497643E+03  0.25500000920E-02 0.  1.
       -2   -1    0    0    0  501  0.00000000000E+00  0.00000000000E+00 -0.12386310855E+04  0.12386310855E+04  0.25500000920E-02 0. -1.
    10030    2    1    2    0    0  0.00000000000E+00  0.00000000000E+00 -0.50746610912E+03  0.19697960620E+04  0.19033062481E+04 0.  0.
        1    1    3    3  502    0  0.18289190580E+03  0.21346033137E+03  0.68721984648E+03  0.74248628250E+03  0.50400001928E-02 0.  1.
       -1    1    3    3    0  502 -0.18289190580E+03 -0.21346033137E+03 -0.11946859556E+04  0.12273097795E+04  0.50400001928E-02 0. -1.
</event>
<event>
 5   0  0.6395992E-05  0.1907112E+04  0.7818609E-02  0.8651324E-01
        2   -1    0    0  501    0  0.00000000000E+00  0.00000000000E+00  0.19873638354E+04  0.19873638354E+04  0.25500000920E-02 0.  1.
       -2   -1    0    0    0  501  0.00000000000E+00  0.00000000000E+00 -0.45752520772E+03  0.45752520772E+03  0.25500000920E-02 0. -1.
    10030    2    1    2    0    0  0.00000000000E+00  0.00000000000E+00  0.15298386277E+04  0.24448890432E+04  0.19071120068E+04 0.  0.
        4    1    3    3  502    0  0.52116106743E+03  0.67685565253E+03  0.13081013879E+04  0.15623294423E+04  0.12699999809E+01 0.  1.
       -4    1    3    3    0  502 -0.52116106743E+03 -0.67685565253E+03  0.22173723986E+03  0.88255960082E+03  0.12699999809E+01 0. -1.
</event>
<event>
 5   0  0.6452182E-05  0.1901328E+04  0.7818609E-02  0.8654196E-01
        2   -1    0    0  501    0  0.00000000000E+00  0.00000000000E+00  0.12402983762E+04  0.12402983762E+04  0.25500000920E-02 0. -1.
       -2   -1    0    0    0  501  0.00000000000E+00  0.00000000000E+00 -0.72866492300E+03  0.72866492300E+03  0.25500000920E-02 0.  1.
    10030    2    1    2    0    0  0.00000000000E+00  0.00000000000E+00  0.51163345317E+03  0.19689632992E+04  0.19013278736E+04 0.  0.
        3    1    3    3  502    0  0.22338692390E+03 -0.18632842351E+03  0.11930769356E+04  0.12280279247E+04  0.10100000352E+00 0. -1.
       -3    1    3    3    0  502 -0.22338692390E+03  0.18632842351E+03 -0.68144348248E+03  0.74093537451E+03  0.10100000352E+00 0.  1.
</event>
<event>
 5   0  0.3147063E-05  0.1891822E+04  0.7818609E-02  0.8658938E-01
        1   -1    0    0  501    0  0.00000000000E+00  0.00000000000E+00  0.31828405662E+03  0.31828405666E+03  0.50400001928E-02 0. -1.
       -1   -1    0    0    0  501  0.00000000000E+00  0.00000000000E+00 -0.28111617044E+04  0.28111617044E+04  0.50400001928E-02 0.  1.
    10030    2    1    2    0    0  0.00000000000E+00  0.00000000000E+00 -0.24928776478E+04  0.31294457611E+04  0.18918223502E+04 0.  0.
        5    1    3    3  502    0 -0.17951809263E+03  0.10852517258E+03 -0.27721796115E+04  0.27801090531E+04  0.46999998093E+01 0.  1.
       -5    1    3    3    0  502  0.17951809263E+03 -0.10852517258E+03  0.27930196367E+03  0.34933670802E+03  0.46999998093E+01 0. -1.
</event>
<event>
 5   0  0.3086139E-05  0.1876784E+04  0.7818609E-02  0.8666499E-01
        1   -1    0    0  501    0  0.00000000000E+00  0.00000000000E+00  0.86581323208E+03  0.86581323210E+03  0.50400001928E-02 0. -1.
       -1   -1    0    0    0  501  0.00000000000E+00  0.00000000000E+00 -0.10170553794E+04  0.10170553795E+04  0.50400001928E-02 0.  1.
    10030    2    1    2    0    0  0.00000000000E+00  0.00000000000E+00 -0.15124214736E+03  0.18828686116E+04  0.18767844898E+04 0.  0.
        2    1    3    3  502    0 -0.60504119476E+03  0.55628159536E+03  0.37867793792E+03  0.90494256247E+03  0.25500000920E-02 0. -1.
       -2    1    3    3    0  502  0.60504119476E+03 -0.55628159536E+03 -0.52992008528E+03  0.97792604909E+03  0.25500000920E-02 0.  1.
</event>
<event>
 5   0  0.6361762E-05  0.1897957E+04  0.7818609E-02  0.8655874E-01
        2   -1    0    0  501    0  0.00000000000E+00  0.00000000000E+00  0.58136739715E+03  0.58136739716E+03  0.25500000920E-02 0. -1.
       -2   -1    0    0    0  501  0.00000000000E+00  0.00000000000E+00 -0.15490373938E+04  0.15490373938E+04  0.25500000920E-02 0.  1.
    10030    2    1    2    0    0  0.00000000000E+00  0.00000000000E+00 -0.96766999666E+03  0.21304047910E+04  0.18979566252E+04 0.  0.
        1    1    3    3  502    0 -0.72441859004E+03  0.18708229155E+03 -0.11390916966E+04  0.13628323340E+04  0.50400001928E-02 0.  1.
       -1    1    3    3    0  502  0.72441859004E+03 -0.18708229155E+03  0.17142169995E+03  0.76757245693E+03  0.50400001928E-02 0. -1.
</event>
<event>
 5   0  0.6395992E-05  0.1902138E+04  0.7818609E-02  0.8653793E-01
       -2   -1    0    0    0  501  0.00000000000E+00  0.00000000000E+00  0.41582004766E+03  0.41582004767E+03  0.25500000920E-02 0. -1.
        2   -1    0    0  501    0  0.00000000000E+00  0.00000000000E+00 -0.21752971021E+04  0.21752971021E+04  0.25500000920E-02 0.  1.
    10030    2    1    2    0    0  0.00000000000E+00  0.00000000000E+00 -0.17594770545E+04  0.25911171498E+04  0.19021378969E+04 0.  0.
        4    1    3    3  502    0  0.75182734903E+01 -0.90563525223E+03 -0.48423010170E+03  0.10269917910E+04  0.12699999809E+01 0. -1.
       -4    1    3    3    0  502 -0.75182734903E+01  0.90563525223E+03 -0.12752469528E+04  0.15641253588E+04  0.12699999809E+01 0.  1.
</event>
<event>
 5   0  0.6452182E-05  0.1905233E+04  0.7818609E-02  0.8652256E-01
       -2   -1    0    0    0  501  0.00000000000E+00  0.00000000000E+00  0.59893051246E+03  0.59893051247E+03  0.25500000920E-02 0. -1.
        2   -1    0    0  501    0  0.00000000000E+00  0.00000000000E+00 -0.15151640179E+04  0.15151640179E+04  0.25500000920E-02 0.  1.
    10030    2    1    2    0    0  0.00000000000E+00  0.00000000000E+00 -0.91623350546E+03  0.21140945304E+04  0.19052327540E+04 0.  0.
        3    1    3    3  502    0  0.84035923293E+03 -0.29115456973E+03 -0.79372955852E+02  0.89290240237E+03  0.10100000352E+00 0.  1.
       -3    1    3    3    0  502 -0.84035923293E+03  0.29115456973E+03 -0.83686054961E+03  0.12211921280E+04  0.10100000352E+00 0. -1.
</event>
<event>
 5   0  0.3203527E-05  0.1904008E+04  0.7818609E-02  0.8652864E-01
        1   -1    0    0  501    0  0.00000000000E+00  0.00000000000E+00  0.27117748862E+04  0.27117748862E+04  0.50400001928E-02 0.  1.
       -1   -1    0    0    0  501  0.00000000000E+00  0.00000000000E+00 -0.33421333170E+03  0.33421333174E+03  0.50400001928E-02 0. -1.
    10030    2    1    2    0    0  0.00000000000E+00  0.00000000000E+00  0.23775615545E+04  0.30459882179E+04  0.19040076886E+04 0.  0.
        1    1    3    3  502    0  0.23218071680E+03 -0.89344343664E+03  0.81646802684E+03  0.12323835031E+04  0.50400001928E-02 0.  1.
       -1    1    3    3    0  502 -0.23218071680E+03  0.89344343664E+03  0.15610935276E+04  0.18136047149E+04  0.50400001928E-02 0. -1.
</event>
<event>
 5   0  0.6423388E-05  0.1903888E+04  0.7818609E-02  0.8652923E-01
       -2   -1    0    0    0  501  0.00000000000E+00  0.00000000000E+00  0.12881018067E+04  0.12881018067E+04  0.25500000920E-02 0. -1.
        2   -1    0    0  501    0  0.00000000000E+00  0.00000000000E+00 -0.70351401984E+03  0.70351401985E+03  0.25500000920E-02 0.  1.
    10030    2    1    2    0    0  0.00000000000E+00  0.00000000000E+00  0.58458778689E+03  0.19916158266E+04  0.19038883161E+04 0.  0.
        2    1    3    3  502    0  0.45956587223E+03 -0.21658149749E+03 -0.54984076346E+03  0.74862086609E+03  0.25500000920E-02 0.  1.
       -2    1    3    3    0  502 -0.45956587223E+03  0.21658149749E+03  0.11344285503E+04  0.12429949605E+04  0.25500000920E-02 0. -1.
</event>
<event>
 5   0  0.3203527E-05  0.1887492E+04  0.7818609E-02  0.8661107E-01
        1   -1    0    0  501    0  0.00000000000E+00  0.00000000000E+00  0.21173028878E+04  0.21173028878E+04  0.50400001928E-02 0.  1.
       -1   -1    0    0    0  501  0.00000000000E+00  0.00000000000E+00 -0.42065638156E+03  0.42065638159E+03  0.50400001928E-02 0. -1.
    10030    2    1    2    0    0  0.00000000000E+00  0.00000000000E+00  0.16966465062E+04  0.25379592694E+04  0.18874924863E+04 0.  0.
        1    1    3    3  502    0 -0.73886210200E+03  0.48197782345E+03  0.12991963458E+04  0.15703919807E+04  0.50400001928E-02 0.  1.
       -1    1    3    3    0  502  0.73886210200E+03 -0.48197782345E+03  0.39745016042E+03  0.96756728867E+03  0.50400001928E-02 0. -1.
</event>
<event>
 5   0  0.3086139E-05  0.1896879E+04  0.7818609E-02  0.8656411E-01
        1   -1    0    0  501    0  0.00000000000E+00  0.00000000000E+00  0.56958143849E+03  0.56958143851E+03  0.50400001928E-02 0.  1.
       -1   -1    0    0    0  501  0.00000000000E+00  0.00000000000E+00 -0.15792957530E+04  0.15792957530E+04  0.50400001928E-02 0. -1.
    10030    2    1    2    0    0  0.00000000000E+00  0.00000000000E+00 -0.10097143145E+04  0.21488771915E+04  0.18968790650E+04 0.  0.
        2    1    3    3  502    0  0.76424912310E+03  0.55098834737E+03 -0.38141995400E+03  0.10164379285E+04  0.25500000920E-02 0.  1.
       -2    1    3    3    0  502 -0.76424912310E+03 -0.55098834737E+03 -0.62829436053E+03  0.11324392631E+04  0.25500000920E-02 0. -1.
</event>
<event>
 5   0  0.6098377E-05  0.1876350E+04  0.7818609E-02  0.8666719E-01
       -2   -1    0    0    0  501  0.00000000000E+00  0.00000000000E+00  0.11720012555E+04  0.11720012555E+04  0.25500000920E-02 0. -1.
        2   -1    0    0  501    0  0.00000000000E+00  0.00000000000E+00 -0.75099933512E+03  0.75099933512E+03  0.25500000920E-02 0.  1.
    10030    2    1    2    0    0  0.00000000000E+00  0.00000000000E+00  0.42100192037E+03  0.19230005906E+04  0.18763498220E+04 0.  0.
        5    1    3    3  502    0  0.93307598476E+03 -0.99522134502E+01  0.30997195171E+03  0.98327744850E+03  0.46999998093E+01 0.  1.
       -5    1    3    3    0  502 -0.93307598476E+03  0.99522134502E+01  0.11102996865E+03  0.93972314211E+03  0.46999998093E+01 0. -1.
</event>
<event>
 5   0  0.3203527E-05  0.1896879E+04  0.7818609E-02  0.8656412E-01
       -1   -1    0    0    0  501  0.00000000000E+00  0.00000000000E+00  0.69920246691E+03  0.69920246693E+03  0.50400001928E-02 0.  1.
        1   -1    0    0  501    0  0.00000000000E+00  0.00000000000E+00 -0.12865190665E+04  0.12865190665E+04  0.50400001928E-02 0. -1.
    10030    2    1    2    0    0  0.00000000000E+00  0.00000000000E+00 -0.58731659956E+03  0.19857215334E+04  0.18968788101E+04 0.  0.
        1    1    3    3  502    0  0.30880797694E+03 -0.20036351253E+03  0.62136846179E+03  0.72222342049E+03  0.50400001928E-02 0.  1.
       -1    1    3    3    0  502 -0.30880797694E+03  0.20036351253E+03 -0.12086850613E+04  0.12634981129E+04  0.50400001928E-02 0. -1.
</event>
<event>
 5   0  0.6395992E-05  0.1907776E+04  0.7818609E-02  0.8650995E-01
       -2   -1    0    0    0  501  0.00000000000E+00  0.00000000000E+00  0.12544259527E+04  0.12544259527E+04  0.25500000920E-02 0.  1.
        2   -1    0    0  501    0  0.00000000000E+00  0.00000000000E+00 -0.72535346906E+03  0.72535346906E+03  0.25500000920E-02 0. -1.
    10030    2    1    2    0    0  0.00000000000E+00  0.00000000000E+00  0.52907248363E+03  0.19797794218E+04  0.19077758951E+04 0.  0.
        4    1    3    3  502    0 -0.34846985138E+03 -0.78369510554E+03 -0.16870257673E+03  0.87411179380E+03  0.12699999809E+01 0.  1.
       -4    1    3    3    0  502  0.34846985138E+03  0.78369510554E+03  0.69777506036E+03  0.11056676280E+04  0.12699999809E+01 0. -1.
</event>
<event>
 5   0  0.2279625E-05  0.1895423E+04  0.7818609E-02  0.8657138E-01
        3   -1    0    0  501    0  0.00000000000E+00  0.00000000000E+00  0.99127151857E+03  0.99127152371E+03  0.10100000352E+00 0. -1.
       -3   -1    0    0    0  501  0.00000000000E+00  0.00000000000E+00 -0.90606588116E+03  0.90606588678E+03  0.10100000352E+00 0.  1.
    10030    2    1    2    0    0  0.00000000000E+00  0.00000000000E+00  0.85205637413E+02  0.18973374105E+04  0.18954232373E+04 0.  0.
        1    1    3    3  502    0 -0.79754114789E+02  0.31551908210E+03  0.93358276957E+03  0.98868083710E+03  0.50400001928E-02 0. -1.
       -1    1    3    3    0  502  0.79754114789E+02 -0.31551908210E+03 -0.84837713215E+03  0.90865657340E+03  0.50400001928E-02 0.  1.
</event>
<event>
 5   0  0.6452182E-05  0.1900420E+04  0.7818609E-02  0.8654647E-01
       -2   -1    0    0    0  501  0.00000000000E+00  0.00000000000E+00  0.55793605455E+03  0.55793605455E+03  0.25500000920E-02 0. -1.
        2   -1    0    0  501    0  0.00000000000E+00  0.00000000000E+00 -0.16182847471E+04  0.16182847471E+04  0.25500000920E-02 0.  1.
    10030    2    1    2    0    0  0.00000000000E+00  0.00000000000E+00 -0.10603486925E+04  0.21762208016E+04  0.19004203818E+04 0.  0.
        3    1    3    3  502    0 -0.38081488390E+03 -0.77357292102E+03 -0.98745738216E+03  0.13109184306E+04  0.10100000352E+00 0.  1.
       -3    1    3    3    0  502  0.38081488390E+03  0.77357292102E+03 -0.72891310347E+02  0.86530237100E+03  0.10100000352E+00 0. -1.
</event>
<event>
 5   0  0.6098377E-05  0.1898867E+04  0.7818609E-02  0.8655421E-01
        2   -1    0    0  501    0  0.00000000000E+00  0.00000000000E+00  0.56102109717E+03  0.56102109717E+03  0.25500000920E-02 0.  1.
       -2   -1    0    0    0  501  0.00000000000E+00  0.00000000000E+00 -0.16067552045E+04  0.16067552045E+04  0.25500000920E-02 0. -1.
    10030    2    1    2    0    0  0.00000000000E+00  0.00000000000E+00 -0.10457341074E+04  0.21677763017E+04  0.18988665753E+04 0.  0.
        5    1    3    3  502    0 -0.38141002049E+03  0.86918449747E+03 -0.49875264034E+03  0.10722553710E+04  0.46999998093E+01 0.  1.
       -5    1    3    3    0  502  0.38141002049E+03 -0.86918449747E+03 -0.54698146701E+03  0.10955209307E+04  0.46999998093E+01 0. -1.
</event>
<event>
 5   0  0.3083469E-05  0.1898001E+04  0.7818609E-02  0.8655852E-01
       -1   -1    0    0    0  501  0.00000000000E+00  0.00000000000E+00  0.53990268822E+03  0.53990268824E+03  0.50400001928E-02 0.  1.
        1   -1    0    0  501    0  0.00000000000E+00  0.00000000000E+00 -0.16680817448E+04  0.16680817448E+04  0.50400001928E-02 0. -1.
    10030    2    1    2    0    0  0.00000000000E+00  0.00000000000E+00 -0.11281790566E+04  0.22079844330E+04  0.18980008622E+04 0.  0.
        3    1    3    3  502    0  0.53907208536E+03  0.18196588941E+03  0.31949209640E+03  0.65252241952E+03  0.10100000352E+00 0.  1.
       -3    1    3    3    0  502 -0.53907208536E+03 -0.18196588941E+03 -0.14476711530E+04  0.15554620135E+04  0.10100000352E+00 0. -1.
</event>
<event>
 5   0  0.6423388E-05  0.1907438E+04  0.7818609E-02  0.8651163E-01
       -2   -1    0    0    0  501  0.00000000000E+00  0.00000000000E+00  0.14971216951E+04  0.14971216951E+04  0.25500000920E-02 0.  1.
        2   -1    0    0  501    0  0.00000000000E+00  0.00000000000E+00 -0.60755232142E+03  0.60755232142E+03  0.25500000920E-02 0. -1.
    10030    2    1    2    0    0  0.00000000000E+00  0.00000000000E+00  0.88956937370E+03  0.21046740165E+04  0.19074378221E+04 0.  0.
        2    1    3    3  502    0 -0.76632095317E+03  0.51417147646E+03  0.71042704680E+03  0.11646143994E+04  0.25500000920E-02 0.  1.
       -2    1    3    3    0  502  0.76632095317E+03 -0.51417147646E+03  0.17914232691E+03  0.94005961714E+03  0.25500000920E-02 0. -1.
</event>
<event>
 5   0  0.6395992E-05  0.1894882E+04  0.7818609E-02  0.8657408E-01
        2   -1    0    0  501    0  0.00000000000E+00  0.00000000000E+00  0.13670449950E+04  0.13670449950E+04  0.25500000920E-02 0. -1.
       -2   -1    0    0    0  501  0.00000000000E+00  0.00000000000E+00 -0.65663095158E+03  0.65663095158E+03  0.25500000920E-02 0.  1.
    10030    2    1    2    0    0  0.00000000000E+00  0.00000000000E+00  0.71041404341E+03  0.20236759466E+04  0.18948815857E+04 0.  0.
        4    1    3    3  502    0 -0.29544858639E+03  0.23583538096E+03 -0.57259630081E+03  0.68613142380E+03  0.12699999809E+01 0.  1.
       -4    1    3    3    0  502  0.29544858639E+03 -0.23583538096E+03  0.12830103442E+04  0.13375445228E+04  0.12699999809E+01 0. -1.
</event>
<event>
 5   0  0.6395992E-05  0.1895845E+04  0.7818609E-02  0.8656927E-01
       -2   -1    0    0    0  501  0.00000000000E+00  0.00000000000E+00  0.12955343356E+04  0.12955343356E+04  0.25500000920E-02 0. -1.
        2   -1    0    0  501    0  0.00000000000E+00  0.00000000000E+00 -0.69358052727E+03  0.69358052728E+03  0.25500000920E-02 0.  1.
    10030    2    1    2    0    0  0.00000000000E+00  0.00000000000E+00  0.60195380832E+03  0.19891148629E+04  0.18958453393E+04 0.  0.
        4    1    3    3  502    0  0.85577507140E+03  0.32338142201E+03  0.56144253551E+03  0.10733805711E+04  0.12699999809E+01 0. -1.
       -4    1    3    3    0  502 -0.85577507140E+03 -0.32338142201E+03  0.40511272809E+02  0.91573429173E+03  0.12699999809E+01 0.  1.
</event>
<event>
 5   0  0.3144958E-05  0.1899354E+04  0.7818609E-02  0.8655178E-01
       -1   -1    0    0    0  501  0.00000000000E+00  0.00000000000E+00  0.63280504868E+03  0.63280504870E+03  0.50400001928E-02 0.  1.
        1   -1    0    0  501    0  0.00000000000E+00  0.00000000000E+00 -0.14252199183E+04  0.14252199184E+04  0.50400001928E-02 0. -1.
    10030    2    1    2    0    0  0.00000000000E+00  0.00000000000E+00 -0.79241486966E+03  0.20580249670E+04  0.18993539531E+04 0.  0.
        4    1    3    3  502    0  0.84003904704E+03  0.31990469149E+03 -0.64212401821E+02  0.90118225550E+03  0.12699999809E+01 0.  1.
       -4    1    3    3    0  502 -0.84003904704E+03 -0.31990469149E+03 -0.72820246784E+03  0.11568427115E+04  0.12699999809E+01 0. -1.
</event>
<event>
 5   0  0.3147063E-05  0.1901305E+04  0.7818609E-02  0.8654207E-01
       -1   -1    0    0    0  501  0.00000000000E+00  0.00000000000E+00  0.92034565788E+03  0.92034565789E+03  0.50400001928E-02 0. -1.
        1   -1    0    0  501    0  0.00000000000E+00  0.00000000000E+00 -0.98195739755E+03  0.98195739756E+03  0.50400001928E-02 0.  1.
    10030    2    1    2    0    0  0.00000000000E+00  0.00000000000E+00 -0.61611739674E+02  0.19023030555E+04  0.19013050540E+04 0.  0.
        5    1    3    3  502    0  0.77618784466E+03 -0.21472214962E+03 -0.53618977199E+03  0.96751988782E+03  0.46999998093E+01 0.  1.
       -5    1    3    3    0  502 -0.77618784466E+03  0.21472214962E+03  0.47457803232E+03  0.93478316764E+03  0.46999998093E+01 0. -1.
</event>
<event>
 5   0  0.3203527E-05  0.1906605E+04  0.7818609E-02  0.8651575E-01
       -1   -1    0    0    0  501  0.00000000000E+00  0.00000000000E+00  0.10269382214E+04  0.10269382214E+04  0.50400001928E-02 0. -1.
        1   -1    0    0  501    0  0.00000000000E+00  0.00000000000E+00 -0.88494717910E+03  0.88494717912E+03  0.50400001928E-02 0.  1.
    10030    2    1    2    0    0  0.00000000000E+00  0.00000000000E+00  0.14199104227E+03  0.19118854005E+04  0.19066054465E+04 0.  0.
        1    1    3    3  502    0  0.37150755521E+03  0.14190566771E+02 -0.80925479016E+03  0.89056866731E+03  0.50400001928E-02 0.  1.
       -1    1    3    3    0  502 -0.37150755521E+03 -0.14190566771E+02  0.95124583244E+03  0.10213167332E+04  0.50400001928E-02 0. -1.
</event>
<event>
 5   0  0.3144958E-05  0.1910080E+04  0.7818609E-02  0.8649855E-01
       -1   -1    0    0    0  501  0.00000000000E+00  0.00000000000E+00  0.77262799153E+03  0.77262799154E+03  0.50400001928E-02 0. -1.
        1   -1    0    0  501    0  0.00000000000E+00  0.00000000000E+00 -0.11805187852E+04  0.11805187852E+04  0.50400001928E-02 0.  1.
    10030    2    1    2    0    0  0.00000000000E+00  0.00000000000E+00 -0.40789079363E+03  0.19531467767E+04  0.19100804778E+04 0.  0.
        4    1    3    3  502    0  0.12097303038E+03 -0.94356536300E+03 -0.11748014635E+03  0.95851617932E+03  0.12699999809E+01 0. -1.
       -4    1    3    3    0  502 -0.12097303038E+03  0.94356536300E+03 -0.29041064728E+03  0.99463059740E+03  0.12699999809E+01 0.  1.
</event>
<event>
 5   0  0.3203527E-05  0.1899197E+04  0.7818609E-02  0.8655256E-01
        1   -1    0    0  501    0  0.00000000000E+00  0.00000000000E+00  0.14363773035E+04  0.14363773035E+04  0.50400001928E-02 0.  1.
       -1   -1    0    0    0  501  0.00000000000E+00  0.00000000000E+00 -0.62778604684E+03  0.62778604686E+03  0.50400001928E-02 0. -1.
    10030    2    1    2    0    0  0.00000000000E+00  0.00000000000E+00  0.80859125665E+03  0.20641633504E+04  0.18991973348E+04 0.  0.
        1    1    3    3  502    0 -0.28702563369E+03 -0.86091653333E+03  0.10040838905E+03  0.91304043523E+03  0.50400001928E-02 0. -1.
       -1    1    3    3    0  502  0.28702563369E+03  0.86091653333E+03  0.70818286760E+03  0.11511229151E+04  0.50400001928E-02 0.  1.
</event>
<event>
 5   0  0.6423388E-05  0.1903934E+04  0.7818609E-02  0.8652901E-01
        2   -1    0    0  501    0  0.00000000000E+00  0.00000000000E+00  0.13607016102E+04  0.13607016102E+04  0.25500000920E-02 0.  1.
       -2   -1    0    0    0  501  0.00000000000E+00  0.00000000000E+00 -0.66600986670E+03  0.66600986670E+03  0.25500000920E-02 0. -1.
    10030    2    1    2    0    0  0.00000000000E+00  0.00000000000E+00  0.69469174354E+03  0.20267114769E+04  0.19039335052E+04 0.  0.
        2    1    3    3  502    0 -0.47534657936E+03  0.77343385638E+03  0.42362790357E+02  0.90881731207E+03  0.25500000920E-02 0. -1.
       -2    1    3    3    0  502  0.47534657936E+03 -0.77343385638E+03  0.65232895319E+03  0.11178941649E+04  0.25500000920E-02 0.  1.
</event>
<event>
 5   0  0.3144958E-05  0.1915190E+04  0.7818609E-02  0.8647332E-01
        1   -1    0    0  501    0  0.00000000000E+00  0.00000000000E+00  0.90899438199E+03  0.90899438201E+03  0.50400001928E-02 0. -1.
       -1   -1    0    0    0  501  0.00000000000E+00  0.00000000000E+00 -0.10087940441E+04  0.10087940441E+04  0.50400001928E-02 0.  1.
    10030    2    1    2    0    0  0.00000000000E+00  0.00000000000E+00 -0.99799662077E+02  0.19177884261E+04  0.19151899318E+04 0.  0.
        4    1    3    3  502    0  0.72783571465E+03  0.60888359730E+03 -0.17853596120E+03  0.96558829991E+03  0.12699999809E+01 0.  1.
       -4    1    3    3    0  502 -0.72783571465E+03 -0.60888359730E+03  0.78736299123E+02  0.95220012617E+03  0.12699999809E+01 0. -1.
</event>
<event>
 5   0  0.6395992E-05  0.1898697E+04  0.7818609E-02  0.8655505E-01
        2   -1    0    0  501    0  0.00000000000E+00  0.00000000000E+00  0.17932279298E+04  0.17932279298E+04  0.25500000920E-02 0.  1.
       -2   -1    0    0    0  501  0.00000000000E+00  0.00000000000E+00 -0.50259210383E+03  0.50259210384E+03  0.25500000920E-02 0. -1.
    10030    2    1    2    0    0  0.00000000000E+00  0.00000000000E+00  0.12906358260E+04  0.22958200337E+04  0.18986966034E+04 0.  0.
        4    1    3    3  502    0  0.85780218065E+03 -0.36643065258E+03  0.85877614707E+03  0.12679093374E+04  0.12699999809E+01 0.  1.
       -4    1    3    3    0  502 -0.85780218065E+03  0.36643065258E+03  0.43185967895E+03  0.10279106963E+04  0.12699999809E+01 0. -1.
</event>
<event>
 5   0  0.3203527E-05  0.1903105E+04  0.7818609E-02  0.8653312E-01
        1   -1    0    0  501    0  0.00000000000E+00  0.00000000000E+00  0.72762381960E+03  0.72762381962E+03  0.50400001928E-02 0.  1.
       -1   -1    0    0    0  501  0.00000000000E+00  0.00000000000E+00 -0.12443964549E+04  0.12443964549E+04  0.50400001928E-02 0. -1.
    10030    2    1    2    0    0  0.00000000000E+00  0.00000000000E+00 -0.51677263528E+03  0.19720202745E+04  0.19031053588E+04 0.  0.
        1    1    3    3  502    0 -0.57890206563E+03 -0.51029252231E+03 -0.83525619065E+03  0.11371802689E+04  0.50400001928E-02 0.  1.
       -1    1    3    3    0  502  0.57890206563E+03  0.51029252231E+03  0.31848355537E+03  0.83484000562E+03  0.50400001928E-02 0. -1.
</event>
<event>
 5   0  0.3083469E-05  0.1906944E+04  0.7818609E-02  0.8651408E-01
        1   -1    0    0  501    0  0.00000000000E+00  0.00000000000E+00  0.82046879904E+03  0.82046879906E+03  0.50400001928E-02 0.  1.
       -1   -1    0    0    0  501  0.00000000000E+00  0.00000000000E+00 -0.11080354444E+04  0.11080354444E+04  0.50400001928E-02 0. -1.
    10030    2    1    2    0    0  0.00000000000E+00  0.00000000000E+00 -0.28756664532E+03  0.19285042434E+04  0.19069436388E+04 0.  0.
        3    1    3    3  502    0  0.76673264098E+03  0.14238936403E+03  0.41101277512E+03  0.88152435318E+03  0.10100000352E+00 0.  1.
       -3    1    3    3    0  502 -0.76673264098E+03 -0.14238936403E+03 -0.69857942044E+03  0.10469798903E+04  0.10100000352E+00 0. -1.
</event>
<event>
 5   0  0.6423388E-05  0.1898329E+04  0.7818609E-02  0.8655689E-01
       -2   -1    0    0    0  501  0.00000000000E+00  0.00000000000E+00  0.36496701590E+03  0.36496701591E+03  0.25500000920E-02 0.  1.
        2   -1    0    0  501    0  0.00000000000E+00  0.00000000000E+00 -0.24684780963E+04  0.24684780963E+04  0.25500000920E-02 0. -1.
    10030    2    1    2    0    0  0.00000000000E+00  0.00000000000E+00 -0.21035110804E+04  0.28334451123E+04  0.18983288278E+04 0.  0.
        2    1    3    3  502    0 -0.32040312297E+03  0.62577556367E+03 -0.20035847286E+04  0.21233475886E+04  0.25500000920E-02 0. -1.
       -2    1    3    3    0  502  0.32040312297E+03 -0.62577556367E+03 -0.99926351828E+02  0.71009752365E+03  0.25500000920E-02 0.  1.
</event>
<event>
 5   0  0.6452182E-05  0.1901077E+04  0.7818609E-02  0.8654321E-01
       -2   -1    0    0    0  501  0.00000000000E+00  0.00000000000E+00  0.58862067090E+03  0.58862067090E+03  0.25500000920E-02 0.  1.
        2   -1    0    0  501    0  0.00000000000E+00  0.00000000000E+00 -0.15349841252E+04  0.15349841252E+04  0.25500000920E-02 0. -1.
    10030    2    1    2    0    0  0.00000000000E+00  0.00000000000E+00 -0.94636345431E+03  0.21236047961E+04  0.19010769428E+04 0.  0.
        3    1    3    3  502    0  0.78747974447E+01 -0.85116256664E+03 -0.59591319613E+00  0.85119920853E+03  0.10100000352E+00 0.  1.
       -3    1    3    3    0  502 -0.78747974447E+01  0.85116256664E+03 -0.94576754112E+03  0.12724055876E+04  0.10100000352E+00 0. -1.
</event>
<event>
 5   0  0.6098377E-05  0.1901731E+04  0.7818609E-02  0.8653995E-01
        2   -1    0    0  501    0  0.00000000000E+00  0.00000000000E+00  0.17790837051E+04  0.17790837051E+04  0.25500000920E-02 0. -1.
       -2   -1    0    0    0  501  0.00000000000E+00  0.00000000000E+00 -0.50820812585E+03  0.50820812585E+03  0.25500000920E-02 0.  1.
    10030    2    1    2    0    0  0.00000000000E+00  0.00000000000E+00  0.12708755793E+04  0.22872918310E+04  0.19017305756E+04 0.  0.
        5    1    3    3  502    0  0.44252145282E+03 -0.82859053660E+03  0.81275640448E+03  0.12421684977E+04  0.46999998093E+01 0. -1.
       -5    1    3    3    0  502 -0.44252145282E+03  0.82859053660E+03  0.45811917480E+03  0.10451233333E+04  0.46999998093E+01 0.  1.
</event>
<event>
 5   0  0.3144958E-05  0.1874623E+04  0.7818609E-02  0.8667592E-01
       -1   -1    0    0    0  501  0.00000000000E+00  0.00000000000E+00  0.62404317587E+03  0.62404317589E+03  0.50400001928E-02 0.  1.
        1   -1    0    0  501    0  0.00000000000E+00  0.00000000000E+00 -0.14078403210E+04  0.14078403210E+04  0.50400001928E-02 0. -1.
    10030    2    1    2    0    0  0.00000000000E+00  0.00000000000E+00 -0.78379714509E+03  0.20318834969E+04  0.18746233169E+04 0.  0.
        4    1    3    3  502    0 -0.10852942498E+03  0.47194470560E+03 -0.12617429826E+04  0.13514834103E+04  0.12699999809E+01 0. -1.
       -4    1    3    3    0  502  0.10852942498E+03 -0.47194470560E+03  0.47794583756E+03  0.68040008654E+03  0.12699999809E+01 0.  1.
</event>
<event>
 5   0  0.3203527E-05  0.1863289E+04  0.7818609E-02  0.8673349E-01
       -1   -1    0    0    0  501  0.00000000000E+00  0.00000000000E+00  0.10956526745E+04  0.10956526745E+04  0.50400001928E-02 0.  1.
        1   -1    0    0  501    0  0.00000000000E+00  0.00000000000E+00 -0.79218640035E+03  0.79218640036E+03  0.50400001928E-02 0. -1.
    10030    2    1    2    0    0  0.00000000000E+00  0.00000000000E+00  0.30346627418E+03  0.18878390749E+04  0.18632886500E+04 0.  0.
        1    1    3    3  502    0  0.20379845389E+02 -0.54041548311E+03  0.92034367182E+03  0.10674721105E+04  0.50400001928E-02 0.  1.
       -1    1    3    3    0  502 -0.20379845389E+02  0.54041548311E+03 -0.61687739764E+03  0.82036696437E+03  0.50400001928E-02 0. -1.
</event>
<event>
 5   0  0.3083469E-05  0.1897541E+04  0.7818609E-02  0.8656081E-01
        1   -1    0    0  501    0  0.00000000000E+00  0.00000000000E+00  0.14486399500E+04  0.14486399500E+04  0.50400001928E-02 0. -1.
       -1   -1    0    0    0  501  0.00000000000E+00  0.00000000000E+00 -0.62138649036E+03  0.62138649038E+03  0.50400001928E-02 0.  1.
    10030    2    1    2    0    0  0.00000000000E+00  0.00000000000E+00  0.82725345962E+03  0.20700264404E+04  0.18975408236E+04 0.  0.
        3    1    3    3  502    0  0.31304123185E+03  0.26078445099E+03 -0.52109146860E+03  0.66146781597E+03  0.10100000352E+00 0.  1.
       -3    1    3    3    0  502 -0.31304123185E+03 -0.26078445099E+03  0.13483449282E+04  0.14085586244E+04  0.10100000352E+00 0. -1.
</event>
<event>
 5   0  0.6452182E-05  0.1919580E+04  0.7818609E-02  0.8645171E-01
        2   -1    0    0  501    0  0.00000000000E+00  0.00000000000E+00  0.16572038629E+04  0.16572038629E+04  0.25500000920E-02 0. -1.
       -2   -1    0    0    0  501  0.00000000000E+00  0.00000000000E+00 -0.55587427227E+03  0.55587427227E+03  0.25500000920E-02 0.  1.
    10030    2    1    2    0    0  0.00000000000E+00  0.00000000000E+00  0.11013295906E+04  0.22130781351E+04  0.19195801533E+04 0.  0.
        3    1    3    3  502    0 -0.83730052935E+02  0.93955580768E+03  0.34630216211E+03  0.10048388106E+04  0.10100000352E+00 0.  1.
       -3    1    3    3    0  502  0.83730052935E+02 -0.93955580768E+03  0.75502742847E+03  0.12082393246E+04  0.10100000352E+00 0. -1.
</event>
<event>
 5   0  0.6423388E-05  0.1890541E+04  0.7818609E-02  0.8659579E-01
        2   -1    0    0  501    0  0.00000000000E+00  0.00000000000E+00  0.17334149556E+04  0.17334149556E+04  0.25500000920E-02 0.  1.
       -2   -1    0    0    0  501  0.00000000000E+00  0.00000000000E+00 -0.51547753082E+03  0.51547753083E+03  0.25500000920E-02 0. -1.
    10030    2    1    2    0    0  0.00000000000E+00  0.00000000000E+00  0.12179374247E+04  0.22488924864E+04  0.18905411513E+04 0.  0.
        2    1    3    3  502    0 -0.72560272839E+03  0.56912471573E+03  0.36191383585E+03  0.99064821510E+03  0.25500000920E-02 0. -1.
       -2    1    3    3    0  502  0.72560272839E+03 -0.56912471573E+03  0.85602358888E+03  0.12582442713E+04  0.25500000920E-02 0.  1.
</event>
<event>
 5   0  0.3086139E-05  0.1899429E+04  0.7818609E-02  0.8655141E-01
       -1   -1    0    0    0  501  0.00000000000E+00  0.00000000000E+00  0.81220103661E+03  0.81220103662E+03  0.50400001928E-02 0. -1.
        1   -1    0    0  501    0  0.00000000000E+00  0.00000000000E+00 -0.11105097359E+04  0.11105097359E+04  0.50400001928E-02 0.  1.
    10030    2    1    2    0    0  0.00000000000E+00  0.00000000000E+00 -0.29830869925E+03  0.19227107725E+04  0.18994285021E+04 0.  0.
        2    1    3    3  502    0 -0.23461161362E+03  0.14159580987E+03 -0.10696216395E+04  0.11041659451E+04  0.25500000920E-02 0.  1.
       -2    1    3    3    0  502  0.23461161362E+03 -0.14159580987E+03  0.77131294026E+03  0.81854482738E+03  0.25500000920E-02 0. -1.
</event>
<event>
 5   0  0.3086139E-05  0.1906727E+04  0.7818609E-02  0.8651515E-01
       -1   -1    0    0    0  501  0.00000000000E+00  0.00000000000E+00  0.35371438231E+03  0.35371438234E+03  0.50400001928E-02 0. -1.
        1   -1    0    0  501    0  0.00000000000E+00  0.00000000000E+00 -0.25695930087E+04  0.25695930087E+04  0.50400001928E-02 0.  1.
    10030    2    1    2    0    0  0.00000000000E+00  0.00000000000E+00 -0.22158786264E+04  0.29233073911E+04  0.19067270428E+04 0.  0.
        2    1    3    3  502    0 -0.33818858852E+03 -0.74803349250E+03 -0.36475238937E+03  0.89831505212E+03  0.25500000920E-02 0. -1.
       -2    1    3    3    0  502  0.33818858852E+03  0.74803349250E+03 -0.18511262370E+04  0.20249923389E+04  0.25500000920E-02 0.  1.
</event>
<event>
 5   0  0.6361762E-05  0.1848109E+04  0.7818609E-02  0.8681126E-01
        2   -1    0    0  501    0  0.00000000000E+00  0.00000000000E+00  0.76575273507E+03  0.76575273507E+03  0.25500000920E-02 0.  1.
       -2   -1    0    0    0  501  0.00000000000E+00  0.00000000000E+00 -0.11150817518E+04  0.11150817518E+04  0.25500000920E-02 0. -1.
    10030    2    1    2    0    0  0.00000000000E+00  0.00000000000E+00 -0.34932901673E+03  0.18808344869E+04  0.18481091973E+04 0.  0.
        1    1    3    3  502    0  0.47523106605E+02 -0.22823919467E+02  0.76422095427E+03  0.76603723404E+03  0.50400001928E-02 0.  1.
       -1    1    3    3    0  502 -0.47523106605E+02  0.22823919467E+02 -0.11135499710E+04  0.11147972528E+04  0.50400001928E-02 0. -1.
</event>
<event>
 5   0  0.3083469E-05  0.1897952E+04  0.7818609E-02  0.8655877E-01
       -1   -1    0    0    0  501  0.00000000000E+00  0.00000000000E+00  0.43049840570E+03  0.43049840573E+03  0.50400001928E-02 0.  1.
        1   -1    0    0  501    0  0.00000000000E+00  0.00000000000E+00 -0.20918895913E+04  0.20918895913E+04  0.50400001928E-02 0. -1.
    10030    2    1    2    0    0  0.00000000000E+00  0.00000000000E+00 -0.16613911856E+04  0.25223879971E+04  0.18979516685E+04 0.  0.
        3    1    3    3  502    0  0.74196919991E+03 -0.91312179611E+02 -0.16075659362E+04  0.17728859121E+04  0.10100000352E+00 0. -1.
       -3    1    3    3    0  502 -0.74196919991E+03  0.91312179611E+02 -0.53825249428E+02  0.74950208501E+03  0.10100000352E+00 0.  1.
</event>
<event>
 5   0  0.6361762E-05  0.1889227E+04  0.7818609E-02  0.8660237E-01
        2   -1    0    0  501    0  0.00000000000E+00  0.00000000000E+00  0.81959754039E+03  0.81959754040E+03  0.25500000920E-02 0.  1.
       -2   -1    0    0    0  501  0.00000000000E+00  0.00000000000E+00 -0.10886991243E+04  0.10886991243E+04  0.25500000920E-02 0. -1.
    10030    2    1    2    0    0  0.00000000000E+00  0.00000000000E+00 -0.26910158393E+03  0.19082966647E+04  0.18892274871E+04 0.  0.
        1    1    3    3  502    0  0.87099303087E+03 -0.15838823303E+03 -0.46739071961E+03  0.10010843006E+04  0.50400001928E-02 0.  1.
       -1    1    3    3    0  502 -0.87099303087E+03  0.15838823303E+03  0.19828913568E+03  0.90721236408E+03  0.50400001928E-02 0. -1.
</event>
<event>
 5   0  0.3086139E-05  0.1898953E+04  0.7818609E-02  0.8655378E-01
       -1   -1    0    0    0  501  0.00000000000E+00  0.00000000000E+00  0.58143024277E+03  0.58143024279E+03  0.50400001928E-02 0. -1.
        1   -1    0    0  501    0  0.00000000000E+00  0.00000000000E+00 -0.15504962163E+04  0.15504962163E+04  0.50400001928E-02 0.  1.
    10030    2    1    2    0    0  0.00000000000E+00  0.00000000000E+00 -0.96906597349E+03  0.21319264591E+04  0.18989527550E+04 0.  0.
        2    1    3    3  502    0 -0.12021596168E+03 -0.78415309389E+03 -0.10702234666E+04  0.13321885079E+04  0.25500000920E-02 0. -1.
       -2    1    3    3    0  502  0.12021596168E+03  0.78415309389E+03  0.10115749312E+03  0.79973795115E+03  0.25500000920E-02 0.  1.
</event>
<event>
 5   0  0.3144958E-05  0.1903871E+04  0.7818609E-02  0.8652932E-01
       -1   -1    0    0    0  501  0.00000000000E+00  0.00000000000E+00  0.59202477681E+03  0.59202477684E+03  0.50400001928E-02 0. -1.
        1   -1    0    0  501    0  0.00000000000E+00  0.00000000000E+00 -0.15306475239E+04  0.15306475239E+04  0.50400001928E-02 0.  1.
    10030    2    1    2    0    0  0.00000000000E+00  0.00000000000E+00 -0.93862274711E+03  0.21226723008E+04  0.19038710658E+04 0.  0.
        4    1    3    3  502    0  0.41037564176E+03 -0.85422669000E+03 -0.36916508947E+03  0.10170525461E+04  0.12699999809E+01 0.  1.
       -4    1    3    3    0  502 -0.41037564176E+03  0.85422669000E+03 -0.56945765764E+03  0.11056197547E+04  0.12699999809E+01 0. -1.
</event>
<event>
 5   0  0.6395992E-05  0.1900709E+04  0.7818609E-02  0.8654504E-01
       -2   -1    0    0    0  501  0.00000000000E+00  0.00000000000E+00  0.68604293168E+03  0.68604293168E+03  0.25500000920E-02 0. -1.
        2   -1    0    0  501    0  0.00000000000E+00  0.00000000000E+00 -0.13164969988E+04  0.13164969988E+04  0.25500000920E-02 0.  1.
    10030    2    1    2    0    0  0.00000000000E+00  0.00000000000E+00 -0.63045406715E+03  0.20025399305E+04  0.19007087737E+04 0.  0.
        4    1    3    3  502    0 -0.72281405722E+03  0.17050828505E+03 -0.93998799311E+03  0.11979617175E+04  0.12699999809E+01 0.  1.
       -4    1    3    3    0  502  0.72281405722E+03 -0.17050828505E+03  0.30953392596E+03  0.80457821298E+03  0.12699999809E+01 0. -1.
</event>
<event>
 5   0  0.6423388E-05  0.1895233E+04  0.7818609E-02  0.8657233E-01
        2   -1    0    0  501    0  0.00000000000E+00  0.00000000000E+00  0.18607874788E+04  0.18607874788E+04  0.25500000920E-02 0. -1.
       -2   -1    0    0    0  501  0.00000000000E+00  0.00000000000E+00 -0.48257922273E+03  0.48257922274E+03  0.25500000920E-02 0.  1.
    10030    2    1    2    0    0  0.00000000000E+00  0.00000000000E+00  0.13782082561E+04  0.23433667016E+04  0.18952333632E+04 0.  0.
        2    1    3    3  502    0 -0.11462835533E+03 -0.85894090972E+03  0.11632611944E+04  0.14505501551E+04  0.25500000920E-02 0. -1.
       -2    1    3    3    0  502  0.11462835533E+03  0.85894090972E+03  0.21494706174E+03  0.89281654644E+03  0.25500000920E-02 0.  1.
</event>
<event>
 5   0  0.3147063E-05  0.1897176E+04  0.7818609E-02  0.8656263E-01
        1   -1    0    0  501    0  0.00000000000E+00  0.00000000000E+00  0.13161017903E+04  0.13161017903E+04  0.50400001928E-02 0.  1.
       -1   -1    0    0    0  501  0.00000000000E+00  0.00000000000E+00 -0.68370035198E+03  0.68370035199E+03  0.50400001928E-02 0. -1.
    10030    2    1    2    0    0  0.00000000000E+00  0.00000000000E+00  0.63240143832E+03  0.19998021423E+04  0.18971760670E+04 0.  0.
        5    1    3    3  502    0 -0.38632790135E+03 -0.69912406135E+03  0.85551535245E+03  0.11704496182E+04  0.46999998093E+01 0.  1.
       -5    1    3    3    0  502  0.38632790135E+03  0.69912406135E+03 -0.22311391413E+03  0.82935252408E+03  0.46999998093E+01 0. -1.
</event>
<event>
 5   0  0.6098377E-05  0.1932476E+04  0.7818609E-02  0.8638858E-01
        2   -1    0    0  501    0  0.00000000000E+00  0.00000000000E+00  0.10888728413E+04  0.10888728413E+04  0.25500000920E-02 0. -1.
       -2   -1    0    0    0  501  0.00000000000E+00  0.00000000000E+00 -0.85741528573E+03  0.85741528573E+03  0.25500000920E-02 0.  1.
    10030    2    1    2    0    0  0.00000000000E+00  0.00000000000E+00  0.23145755561E+03  0.19462881271E+04  0.19324763578E+04 0.  0.
        5    1    3    3  502    0 -0.87187804442E+03 -0.40984560480E+03  0.41381228021E+02  0.96430246300E+03  0.46999998093E+01 0.  1.
       -5    1    3    3    0  502  0.87187804442E+03  0.40984560480E+03  0.19007632758E+03  0.98198566407E+03  0.46999998093E+01 0. -1.
</event>
<event>
 5   0  0.6423388E-05  0.1901824E+04  0.7818609E-02  0.8653949E-01
       -2   -1    0    0    0  501  0.00000000000E+00  0.00000000000E+00  0.42876799986E+03  0.42876799987E+03  0.25500000920E-02 0. -1.
        2   -1    0    0  501    0  0.00000000000E+00  0.00000000000E+00 -0.21089122667E+04  0.21089122667E+04  0.25500000920E-02 0.  1.
    10030    2    1    2    0    0  0.00000000000E+00  0.00000000000E+00 -0.16801442668E+04  0.25376802666E+04  0.19018244866E+04 0.  0.
        2    1    3    3  502    0  0.25568685619E+03  0.22584635269E+03  0.34430147140E+03  0.48469149638E+03  0.25500000920E-02 0. -1.
       -2    1    3    3    0  502 -0.25568685619E+03 -0.22584635269E+03 -0.20244457382E+04  0.20529887702E+04  0.25500000920E-02 0.  1.
</event>
<event>
 5   0  0.2279625E-05  0.1901849E+04  0.7818609E-02  0.8653937E-01
        4   -1    0    0  501    0  0.00000000000E+00  0.00000000000E+00  0.12375800208E+04  0.12375806724E+04  0.12699999809E+01 0.  1.
       -4   -1    0    0    0  501  0.00000000000E+00  0.00000000000E+00 -0.73066450013E+03  0.73066560385E+03  0.12699999809E+01 0. -1.
    10030    2    1    2    0    0  0.00000000000E+00  0.00000000000E+00  0.50691552068E+03  0.19682462763E+04  0.19018491157E+04 0.  0.
        4    1    3    3  502    0  0.45855613142E+03 -0.57491243579E+00 -0.60868152330E+03  0.76208192860E+03  0.12699999809E+01 0. -1.
       -4    1    3    3    0  502 -0.45855613142E+03  0.57491243579E+00  0.11155970440E+04  0.12061643477E+04  0.12699999809E+01 0.  1.
</event>
<event>
 5   0  0.3083469E-05  0.1904202E+04  0.7818609E-02  0.8652768E-01
        1   -1    0    0  501    0  0.00000000000E+00  0.00000000000E+00  0.93743798550E+03  0.93743798551E+03  0.50400001928E-02 0.  1.
       -1   -1    0    0    0  501  0.00000000000E+00  0.00000000000E+00 -0.96699326872E+03  0.96699326873E+03  0.50400001928E-02 0. -1.
    10030    2    1    2    0    0  0.00000000000E+00  0.00000000000E+00 -0.29555283220E+02  0.19044312542E+04  0.19042019030E+04 0.  0.
        3    1    3    3  502    0 -0.84066353884E+02  0.46426474970E+03 -0.84185203564E+03  0.96505117469E+03  0.10100000352E+00 0. -1.
       -3    1    3    3    0  502  0.84066353884E+02 -0.46426474970E+03  0.81229675242E+03  0.93938007955E+03  0.10100000352E+00 0.  1.
</event>
<event>
 5   0  0.6361762E-05  0.1877802E+04  0.7818609E-02  0.8665986E-01
       -2   -1    0    0    0  501  0.00000000000E+00  0.00000000000E+00  0.85052691328E+03  0.85052691328E+03  0.25500000920E-02 0.  1.
        2   -1    0    0  501    0  0.00000000000E+00  0.00000000000E+00 -0.10364571397E+04  0.10364571397E+04  0.25500000920E-02 0. -1.
    10030    2    1    2    0    0  0.00000000000E+00  0.00000000000E+00 -0.18593022642E+03  0.18869840530E+04  0.18778015782E+04 0.  0.
        1    1    3    3  502    0  0.18268274055E+03  0.12276442067E+03 -0.10101663858E+04  0.10338666325E+04  0.50400001928E-02 0. -1.
       -1    1    3    3    0  502 -0.18268274055E+03 -0.12276442067E+03  0.82423615940E+03  0.85311742051E+03  0.50400001928E-02 0.  1.
</event>
<event>
 5   0  0.3083469E-05  0.1901505E+04  0.7818609E-02  0.8654108E-01
       -1   -1    0    0    0  501  0.00000000000E+00  0.00000000000E+00  0.12160181289E+04  0.12160181289E+04  0.50400001928E-02 0.  1.
        1   -1    0    0  501    0  0.00000000000E+00  0.00000000000E+00 -0.74335271956E+03  0.74335271958E+03  0.50400001928E-02 0. -1.
    10030    2    1    2    0    0  0.00000000000E+00  0.00000000000E+00  0.47266540930E+03  0.19593708485E+04  0.19015050704E+04 0.  0.
        3    1    3    3  502    0  0.66043266274E+03  0.28503631815E+03 -0.40428865407E+03  0.82514624806E+03  0.10100000352E+00 0. -1.
       -3    1    3    3    0  502 -0.66043266274E+03 -0.28503631815E+03  0.87695406337E+03  0.11342246004E+04  0.10100000352E+00 0.  1.
</event>
<event>
 5   0  0.6423388E-05  0.1912790E+04  0.7818609E-02  0.8648516E-01
        2   -1    0    0  501    0  0.00000000000E+00  0.00000000000E+00  0.11073203520E+04  0.11073203520E+04  0.25500000920E-02 0. -1.
       -2   -1    0    0    0  501  0.00000000000E+00  0.00000000000E+00 -0.82604072148E+03  0.82604072149E+03  0.25500000920E-02 0.  1.
    10030    2    1    2    0    0  0.00000000000E+00  0.00000000000E+00  0.28127963048E+03  0.19333610735E+04  0.19127903204E+04 0.  0.
        2    1    3    3  502    0 -0.66480124638E+03  0.29952611587E+03  0.76617761633E+03  0.10576883903E+04  0.25500000920E-02 0. -1.
       -2    1    3    3    0  502  0.66480124638E+03 -0.29952611587E+03 -0.48489798585E+03  0.87567268312E+03  0.25500000920E-02 0.  1.
</event>
<event>
 5   0  0.6452182E-05  0.1946906E+04  0.7818609E-02  0.8631854E-01
       -2   -1    0    0    0  501  0.00000000000E+00  0.00000000000E+00  0.98198463330E+03  0.98198463331E+03  0.25500000920E-02 0.  1.
        2   -1    0    0  501    0  0.00000000000E+00  0.00000000000E+00 -0.96499544050E+03  0.96499544050E+03  0.25500000920E-02 0. -1.
    10030    2    1    2    0    0  0.00000000000E+00  0.00000000000E+00  0.16989192804E+02  0.19469800738E+04  0.19469059492E+04 0.  0.
        3    1    3    3  502    0  0.49226859832E+03 -0.97514522305E+02 -0.82566738428E+03  0.96621120601E+03  0.10100000352E+00 0. -1.
       -3    1    3    3    0  502 -0.49226859832E+03  0.97514522305E+02  0.84265657708E+03  0.98076886780E+03  0.10100000352E+00 0.  1.
</event>
<event>
 5   0  0.6361762E-05  0.1892158E+04  0.7818609E-02  0.8658770E-01
        2   -1    0    0  501    0  0.00000000000E+00  0.00000000000E+00  0.21069803226E+04  0.21069803226E+04  0.25500000920E-02 0.  1.
       -2   -1    0    0    0  501  0.00000000000E+00  0.00000000000E+00 -0.42480957571E+03  0.42480957572E+03  0.25500000920E-02 0. -1.
    10030    2    1    2    0    0  0.00000000000E+00  0.00000000000E+00  0.16821707468E+04  0.25317898983E+04  0.18921579394E+04 0.  0.
        1    1    3    3  502    0  0.81569680644E+03  0.37286149604E+03  0.12440085992E+04  0.15336050242E+04  0.50400001928E-02 0.  1.
       -1    1    3    3    0  502 -0.81569680644E+03 -0.37286149604E+03  0.43816214767E+03  0.99818487413E+03  0.50400001928E-02 0. -1.
</event>
<event>
 5   0  0.6098377E-05  0.1915656E+04  0.7818609E-02  0.8647102E-01
       -2   -1    0    0    0  501  0.00000000000E+00  0.00000000000E+00  0.54193841759E+03  0.54193841759E+03  0.25500000920E-02 0. -1.
        2   -1    0    0  501    0  0.00000000000E+00  0.00000000000E+00 -0.16928756807E+04  0.16928756807E+04  0.25500000920E-02 0.  1.
    10030    2    1    2    0    0  0.00000000000E+00  0.00000000000E+00 -0.11509372631E+04  0.22348140983E+04  0.19156558852E+04 0.  0.
        5    1    3    3  502    0  0.30252378800E+03 -0.57456599513E+03  0.24594532547E+03  0.69437591993E+03  0.46999998093E+01 0. -1.
       -5    1    3    3    0  502 -0.30252378800E+03  0.57456599513E+03 -0.13968825886E+04  0.15404381784E+04  0.46999998093E+01 0.  1.
</event>
<event>
 5   0  0.3144958E-05  0.1887209E+04  0.7818609E-02  0.8661250E-01
        1   -1    0    0  501    0  0.00000000000E+00  0.00000000000E+00  0.14555115159E+04  0.14555115159E+04  0.50400001928E-02 0. -1.
       -1   -1    0    0    0  501  0.00000000000E+00  0.00000000000E+00 -0.61173619197E+03  0.61173619199E+03  0.50400001928E-02 0.  1.
    10030    2    1    2    0    0  0.00000000000E+00  0.00000000000E+00  0.84377532396E+03  0.20672477079E+04  0.18872085970E+04 0.  0.
        4    1    3    3  502    0  0.43374307601E+03  0.80670383270E+03  0.67043317422E+03  0.11350710919E+04  0.12699999809E+01 0. -1.
       -4    1    3    3    0  502 -0.43374307601E+03 -0.80670383270E+03  0.17334214973E+03  0.93217661602E+03  0.12699999809E+01 0.  1.
</event>
<event>
 5   0  0.3147063E-05  0.1894852E+04  0.7818609E-02  0.8657423E-01
       -1   -1    0    0    0  501  0.00000000000E+00  0.00000000000E+00  0.38811061019E+03  0.38811061022E+03  0.50400001928E-02 0. -1.
        1   -1    0    0  501    0  0.00000000000E+00  0.00000000000E+00 -0.23127836990E+04  0.23127836990E+04  0.50400001928E-02 0.  1.
    10030    2    1    2    0    0  0.00000000000E+00  0.00000000000E+00 -0.19246730888E+04  0.27008943092E+04  0.18948518599E+04 0.  0.
        5    1    3    3  502    0 -0.50945339358E+02  0.35263096720E+03  0.28896175906E+03  0.45876466170E+03  0.46999998093E+01 0. -1.
       -5    1    3    3    0  502  0.50945339358E+02 -0.35263096720E+03 -0.22136348479E+04  0.22421296475E+04  0.46999998093E+01 0.  1.
</event>
<event>
 5   0  0.6395992E-05  0.1896233E+04  0.7818609E-02  0.8656734E-01
        2   -1    0    0  501    0  0.00000000000E+00  0.00000000000E+00  0.20469087137E+04  0.20469087137E+04  0.25500000920E-02 0. -1.
       -2   -1    0    0    0  501  0.00000000000E+00  0.00000000000E+00 -0.43916230666E+03  0.43916230667E+03  0.25500000920E-02 0.  1.
    10030    2    1    2    0    0  0.00000000000E+00  0.00000000000E+00  0.16077464070E+04  0.24860710203E+04  0.18962332686E+04 0.  0.
        4    1    3    3  502    0 -0.20558925970E+03 -0.57887774579E+03  0.17507047547E+04  0.18553531037E+04  0.12699999809E+01 0. -1.
       -4    1    3    3    0  502  0.20558925970E+03  0.57887774579E+03 -0.14295834773E+03  0.63071791663E+03  0.12699999809E+01 0.  1.
</event>
<event>
 5   0  0.3144958E-05  0.1883437E+04  0.7818609E-02  0.8663145E-01
        1   -1    0    0  501    0  0.00000000000E+00  0.00000000000E+00  0.10428548335E+04  0.10428548336E+04  0.50400001928E-02 0.  1.
       -1   -1    0    0    0  501  0.00000000000E+00  0.00000000000E+00 -0.85038998864E+03  0.85038998866E+03  0.50400001928E-02 0. -1.
    10030    2    1    2    0    0  0.00000000000E+00  0.00000000000E+00  0.19246484490E+03  0.18932448222E+04  0.18834365507E+04 0.  0.
        4    1    3    3  502    0 -0.73630033452E+03 -0.90922113544E+01 -0.49386029469E+03  0.88663434092E+03  0.12699999809E+01 0. -1.
       -4    1    3    3    0  502  0.73630033452E+03  0.90922113544E+01  0.68632513959E+03  0.10066104813E+04  0.12699999809E+01 0.  1.
</event>
<event>
 5   0  0.3203527E-05  0.1900079E+04  0.7818609E-02  0.8654817E-01
       -1   -1    0    0    0  501  0.00000000000E+00  0.00000000000E+00  0.66996045977E+03  0.66996045979E+03  0.50400001928E-02 0. -1.
        1   -1    0    0  501    0  0.00000000000E+00  0.00000000000E+00 -0.13472066933E+04  0.13472066933E+04  0.50400001928E-02 0.  1.
    10030    2    1    2    0    0  0.00000000000E+00  0.00000000000E+00 -0.67724623357E+03  0.20171671531E+04  0.19000791728E+04 0.  0.
        1    1    3    3  502    0 -0.65905900202E+03 -0.59157405499E+01 -0.10650255528E+04  0.12524668428E+04  0.50400001928E-02 0.  1.
       -1    1    3    3    0  502  0.65905900202E+03  0.59157405499E+01  0.38777931926E+03  0.76470031032E+03  0.50400001928E-02 0. -1.
</event>
<event>
 5   0  0.6361762E-05  0.1902425E+04  0.7818609E-02  0.8653650E-01
       -2   -1    0    0    0  501  0.00000000000E+00  0.00000000000E+00  0.73480852393E+03  0.73480852393E+03  0.25500000920E-02 0. -1.
        2   -1    0    0  501    0  0.00000000000E+00  0.00000000000E+00 -0.12313478075E+04  0.12313478075E+04  0.25500000920E-02 0.  1.
    10030    2    1    2    0    0  0.00000000000E+00  0.00000000000E+00 -0.49653928353E+03  0.19661563314E+04  0.19024246265E+04 0.  0.
        1    1    3    3  502    0 -0.81748718087E+03  0.43544849655E+03 -0.47209864697E+03  0.10396046443E+04  0.50400001928E-02 0.  1.
       -1    1    3    3    0  502  0.81748718087E+03 -0.43544849655E+03 -0.24440636560E+02  0.92655168705E+03  0.50400001928E-02 0. -1.
</event>
<event>
 5   0  0.3147063E-05  0.1903695E+04  0.7818609E-02  0.8653019E-01
       -1   -1    0    0    0  501  0.00000000000E+00  0.00000000000E+00  0.13598963817E+04  0.13598963817E+04  0.50400001928E-02 0. -1.
        1   -1    0    0  501    0  0.00000000000E+00  0.00000000000E+00 -0.66623736169E+03  0.66623736170E+03  0.50400001928E-02 0.  1.
    10030    2    1    2    0    0  0.00000000000E+00  0.00000000000E+00  0.69365902002E+03  0.20261337434E+04  0.19036951201E+04 0.  0.
        5    1    3    3  502    0  0.36630892572E+03 -0.87660495425E+03  0.28501469494E+03  0.99190419961E+03  0.46999998093E+01 0.  1.
       -5    1    3    3    0  502 -0.36630892572E+03  0.87660495425E+03  0.40864432508E+03  0.10342295438E+04  0.46999998093E+01 0. -1.
</event>
<event>
 5   0  0.6395992E-05  0.1900101E+04  0.7818609E-02  0.8654806E-01
        2   -1    0    0  501    0  0.00000000000E+00  0.00000000000E+00  0.12564769981E+04  0.12564769981E+04  0.25500000920E-02 0. -1.
       -2   -1    0    0    0  501  0.00000000000E+00  0.00000000000E+00 -0.71835453662E+03  0.71835453662E+03  0.25500000920E-02 0.  1.
    10030    2    1    2    0    0  0.00000000000E+00  0.00000000000E+00  0.53812246143E+03  0.19748315347E+04  0.19001009991E+04 0.  0.
        4    1    3    3  502    0 -0.34551608206E+03  0.55132564173E+03  0.98856950560E+03  0.11834748018E+04  0.12699999809E+01 0. -1.
       -4    1    3    3    0  502  0.34551608206E+03 -0.55132564173E+03 -0.45044704416E+03  0.79135673288E+03  0.12699999809E+01 0.  1.
</event>
<event>
 5   0  0.6361762E-05  0.1885493E+04  0.7818609E-02  0.8662111E-01
        2   -1    0    0  501    0  0.00000000000E+00  0.00000000000E+00  0.16649578746E+04  0.16649578746E+04  0.25500000920E-02 0. -1.
       -2   -1    0    0    0  501  0.00000000000E+00  0.00000000000E+00 -0.53380986091E+03  0.53380986092E+03  0.25500000920E-02 0.  1.
    10030    2    1    2    0    0  0.00000000000E+00  0.00000000000E+00  0.11311480137E+04  0.21987677355E+04  0.18854929663E+04 0.  0.
        1    1    3    3  502    0 -0.78977294667E+03  0.49117169626E+03  0.74540322784E+03  0.11918963523E+04  0.50400001928E-02 0. -1.
       -1    1    3    3    0  502  0.78977294667E+03 -0.49117169626E+03  0.38574478582E+03  0.10068713832E+04  0.50400001928E-02 0.  1.
</event>
<event>
 5   0  0.6452182E-05  0.1918585E+04  0.7818609E-02  0.8645660E-01
       -2   -1    0    0    0  501  0.00000000000E+00  0.00000000000E+00  0.59784317863E+03  0.59784317863E+03  0.25500000920E-02 0.  1.
        2   -1    0    0  501    0  0.00000000000E+00  0.00000000000E+00 -0.15392707837E+04  0.15392707837E+04  0.25500000920E-02 0. -1.
    10030    2    1    2    0    0  0.00000000000E+00  0.00000000000E+00 -0.94142760504E+03  0.21371139623E+04  0.19185854561E+04 0.  0.
        3    1    3    3  502    0 -0.71436356435E+03 -0.45044494869E+03 -0.97754061406E+03  0.12918210465E+04  0.10100000352E+00 0. -1.
       -3    1    3    3    0  502  0.71436356435E+03  0.45044494869E+03  0.36113009023E+02  0.84529291579E+03  0.10100000352E+00 0.  1.
</event>
<event>
 5   0  0.6423388E-05  0.1900745E+04  0.7818609E-02  0.8654486E-01
       -2   -1    0    0    0  501  0.00000000000E+00  0.00000000000E+00  0.59919200890E+03  0.59919200891E+03  0.25500000920E-02 0.  1.
        2   -1    0    0  501    0  0.00000000000E+00  0.00000000000E+00 -0.15073756373E+04  0.15073756373E+04  0.25500000920E-02 0. -1.
    10030    2    1    2    0    0  0.00000000000E+00  0.00000000000E+00 -0.90818362841E+03  0.21065676462E+04  0.19007445239E+04 0.  0.
        2    1    3    3  502    0 -0.78838837027E+03  0.47304212701E+03 -0.18745213586E+03  0.93833010159E+03  0.25500000920E-02 0.  1.
       -2    1    3    3    0  502  0.78838837027E+03 -0.47304212701E+03 -0.72073149255E+03  0.11682375446E+04  0.25500000920E-02 0. -1.
</event>
<event>
 5   0  0.6361762E-05  0.1901179E+04  0.7818609E-02  0.8654270E-01
       -2   -1    0    0    0  501  0.00000000000E+00  0.00000000000E+00  0.64846944509E+03  0.64846944510E+03  0.25500000920E-02 0. -1.
        2   -1    0    0  501    0  0.00000000000E+00  0.00000000000E+00 -0.13934662809E+04  0.13934662809E+04  0.25500000920E-02 0.  1.
    10030    2    1    2    0    0  0.00000000000E+00  0.00000000000E+00 -0.74499683581E+03  0.20419357260E+04  0.19011789037E+04 0.  0.
        1    1    3    3  502    0 -0.80759277958E+03 -0.48965026537E+03 -0.48845869289E+03  0.10632757755E+04  0.50400001928E-02 0. -1.
       -1    1    3    3    0  502  0.80759277958E+03  0.48965026537E+03 -0.25653814292E+03  0.97865995055E+03  0.50400001928E-02 0.  1.
</event>
<event>
 5   0  0.6098377E-05  0.1900429E+04  0.7818609E-02  0.8654643E-01
        2   -1    0    0  501    0  0.00000000000E+00  0.00000000000E+00  0.20187975627E+04  0.20187975627E+04  0.25500000920E-02 0.  1.
       -2   -1    0    0    0  501  0.00000000000E+00  0.00000000000E+00 -0.44725016818E+03  0.44725016818E+03  0.25500000920E-02 0. -1.
    10030    2    1    2    0    0  0.00000000000E+00  0.00000000000E+00  0.15715473946E+04  0.24660477309E+04  0.19004289510E+04 0.  0.
        5    1    3    3  502    0  0.43791483662E+03 -0.58925299752E+03  0.29948988126E+01  0.73417951390E+03  0.46999998093E+01 0. -1.
       -5    1    3    3    0  502 -0.43791483662E+03  0.58925299752E+03  0.15685524958E+04  0.17318682170E+04  0.46999998093E+01 0.  1.
</event>
<event>
 5   0  0.6423388E-05  0.1898850E+04  0.7818609E-02  0.8655429E-01
       -2   -1    0    0    0  501  0.00000000000E+00  0.00000000000E+00  0.95344019762E+03  0.95344019762E+03  0.25500000920E-02 0.  1.
        2   -1    0    0  501    0  0.00000000000E+00  0.00000000000E+00 -0.94542717910E+03  0.94542717911E+03  0.25500000920E-02 0. -1.
    10030    2    1    2    0    0  0.00000000000E+00  0.00000000000E+00  0.80130185146E+01  0.18988673767E+04  0.18988504696E+04 0.  0.
        2    1    3    3  502    0 -0.33214229496E+03 -0.82560788824E+03 -0.32684592994E+03  0.94803752623E+03  0.25500000920E-02 0. -1.
       -2    1    3    3    0  502  0.33214229496E+03  0.82560788824E+03  0.33485894846E+03  0.95082985049E+03  0.25500000920E-02 0.  1.
</event>
<event>
 5   0  0.3083469E-05  0.1887866E+04  0.7818609E-02  0.8660920E-01
       -1   -1    0    0    0  501  0.00000000000E+00  0.00000000000E+00  0.82724550737E+03  0.82724550739E+03  0.50400001928E-02 0.  1.
        1   -1    0    0  501    0  0.00000000000E+00  0.00000000000E+00 -0.10770802511E+04  0.10770802511E+04  0.50400001928E-02 0. -1.
    10030    2    1    2    0    0  0.00000000000E+00  0.00000000000E+00 -0.24983474376E+03  0.19043257585E+04  0.18878663076E+04 0.  0.
        3    1    3    3  502    0  0.35881541094E+03  0.28360803553E+03  0.70801041269E+03  0.84288835063E+03  0.10100000352E+00 0.  1.
       -3    1    3    3    0  502 -0.35881541094E+03 -0.28360803553E+03 -0.95784515645E+03  0.10614374079E+04  0.10100000352E+00 0. -1.
</event>
<event>
 5   0  0.3203527E-05  0.1897897E+04  0.7818609E-02  0.8655904E-01
        1   -1    0    0  501    0  0.00000000000E+00  0.00000000000E+00  0.12432882298E+04  0.12432882298E+04  0.50400001928E-02 0.  1.
       -1   -1    0    0    0  501  0.00000000000E+00  0.00000000000E+00 -0.72429127818E+03  0.72429127820E+03  0.50400001928E-02 0. -1.
    10030    2    1    2    0    0  0.00000000000E+00  0.00000000000E+00  0.51899695161E+03  0.19675795080E+04  0.18978965421E+04 0.  0.
        1    1    3    3  502    0  0.19513212528E+03 -0.95311814244E+02 -0.69818346932E+03  0.73117784780E+03  0.50400001928E-02 0. -1.
       -1    1    3    3    0  502 -0.19513212528E+03  0.95311814244E+02  0.12171804209E+04  0.12364016602E+04  0.50400001928E-02 0.  1.
</event>
<event>
 5   0  0.6395992E-05  0.1889425E+04  0.7818609E-02  0.8660138E-01
        2   -1    0    0  501    0  0.00000000000E+00  0.00000000000E+00  0.17884726610E+04  0.17884726610E+04  0.25500000920E-02 0. -1.
       -2   -1    0    0    0  501  0.00000000000E+00  0.00000000000E+00 -0.49901908749E+03  0.49901908750E+03  0.25500000920E-02 0.  1.
    10030    2    1    2    0    0  0.00000000000E+00  0.00000000000E+00  0.12894535735E+04  0.22874917485E+04  0.18894253045E+04 0.  0.
        4    1    3    3  502    0 -0.87286153403E+03 -0.70666627458E+02  0.10737922014E+04  0.13856090122E+04  0.12699999809E+01 0. -1.
       -4    1    3    3    0  502  0.87286153403E+03  0.70666627458E+02  0.21566137209E+03  0.90188273636E+03  0.12699999809E+01 0.  1.
</event>
<event>
 5   0  0.6098377E-05  0.1894859E+04  0.7818609E-02  0.8657419E-01
       -2   -1    0    0    0  501  0.00000000000E+00  0.00000000000E+00  0.70092551509E+03  0.70092551509E+03  0.25500000920E-02 0. -1.
        2   -1    0    0  501    0  0.00000000000E+00  0.00000000000E+00 -0.12806252362E+04  0.12806252362E+04  0.25500000920E-02 0.  1.
    10030    2    1    2    0    0  0.00000000000E+00  0.00000000000E+00 -0.57969972108E+03  0.19815507513E+04  0.18948592595E+04 0.  0.
        5    1    3    3  502    0  0.57230119537E+03 -0.53749176017E+03  0.26466911261E+03  0.82855167590E+03  0.46999998093E+01 0. -1.
       -5    1    3    3    0  502 -0.57230119537E+03  0.53749176017E+03 -0.84436883369E+03  0.11529990754E+04  0.46999998093E+01 0.  1.
</event>
<event>
 5   0  0.6098377E-05  0.1903487E+04  0.7818609E-02  0.8653123E-01
       -2   -1    0    0    0  501  0.00000000000E+00  0.00000000000E+00  0.11090020364E+04  0.11090020364E+04  0.25500000920E-02 0.  1.
        2   -1    0    0  501    0  0.00000000000E+00  0.00000000000E+00 -0.81678417385E+03  0.81678417386E+03  0.25500000920E-02 0. -1.
    10030    2    1    2    0    0  0.00000000000E+00  0.00000000000E+00  0.29221786257E+03  0.19257862103E+04  0.19034866032E+04 0.  0.
        5    1    3    3  502    0 -0.57016504200E+03 -0.97564073620E+02 -0.61851368323E+03  0.84686964164E+03  0.46999998093E+01 0. -1.
       -5    1    3    3    0  502  0.57016504200E+03  0.97564073620E+02  0.91073154580E+03  0.10789165686E+04  0.46999998093E+01 0.  1.
</event>
<event>
 5   0  0.3144958E-05  0.1903863E+04  0.7818609E-02  0.8652936E-01
       -1   -1    0    0    0  501  0.00000000000E+00  0.00000000000E+00  0.57317181047E+03  0.57317181049E+03  0.50400001928E-02 0. -1.
        1   -1    0    0  501    0  0.00000000000E+00  0.00000000000E+00 -0.15809810089E+04  0.15809810089E+04  0.50400001928E-02 0.  1.
    10030    2    1    2    0    0  0.00000000000E+00  0.00000000000E+00 -0.10078091984E+04  0.21541528194E+04  0.19038631749E+04 0.  0.
        4    1    3    3  502    0 -0.90935437327E+03 -0.65131130874E+01 -0.82233553918E+03  0.12260526696E+04  0.12699999809E+01 0.  1.
       -4    1    3    3    0  502  0.90935437327E+03  0.65131130874E+01 -0.18547365927E+03  0.92810014977E+03  0.12699999809E+01 0. -1.
</event>
<event>
 5   0  0.3147063E-05  0.1904880E+04  0.7818609E-02  0.8652431E-01
       -1   -1    0    0    0  501  0.00000000000E+00  0.00000000000E+00  0.10640458943E+04  0.10640458943E+04  0.50400001928E-02 0.  1.
        1   -1    0    0  501    0  0.00000000000E+00  0.00000000000E+00 -0.85254052883E+03  0.85254052884E+03  0.50400001928E-02 0. -1.
    10030    2    1    2    0    0  0.00000000000E+00  0.00000000000E+00  0.21150536546E+03  0.19165864231E+04  0.19048803106E+04 0.  0.
        5    1    3    3  502    0 -0.49794431440E+03 -0.78549157081E+03  0.31237929687E+03  0.98109554232E+03  0.46999998093E+01 0.  1.
       -5    1    3    3    0  502  0.49794431440E+03  0.78549157081E+03 -0.10087393141E+03  0.93549088082E+03  0.46999998093E+01 0. -1.
</event>
<event>
 5   0  0.6361762E-05  0.1904733E+04  0.7818609E-02  0.8652504E-01
       -2   -1    0    0    0  501  0.00000000000E+00  0.00000000000E+00  0.94879342003E+03  0.94879342004E+03  0.25500000920E-02 0. -1.
        2   -1    0    0  501    0  0.00000000000E+00  0.00000000000E+00 -0.95595324563E+03  0.95595324564E+03  0.25500000920E-02 0.  1.
    10030    2    1    2    0    0  0.00000000000E+00  0.00000000000E+00 -0.71598255993E+01  0.19047466657E+04  0.19047332090E+04 0.  0.
        1    1    3    3  502    0  0.29555611096E+03 -0.44481613651E+02 -0.90783743925E+03  0.95577238128E+03  0.50400001928E-02 0.  1.
       -1    1    3    3    0  502 -0.29555611096E+03  0.44481613651E+02  0.90067761365E+03  0.94897428439E+03  0.50400001928E-02 0. -1.
</event>
<event>
 5   0  0.6395992E-05  0.1898732E+04  0.7818609E-02  0.8655488E-01
        2   -1    0    0  501    0  0.00000000000E+00  0.00000000000E+00  0.69963829071E+03  0.69963829072E+03  0.25500000920E-02 0. -1.
       -2   -1    0    0    0  501  0.00000000000E+00  0.00000000000E+00 -0.12882305897E+04  0.12882305897E+04  0.25500000920E-02 0.  1.
    10030    2    1    2    0    0  0.00000000000E+00  0.00000000000E+00 -0.58859229895E+03  0.19878688804E+04  0.18987316270E+04 0.  0.
        4    1    3    3  502    0  0.22177744655E+03 -0.80573344466E+03 -0.76588936095E+03  0.11335694711E+04  0.12699999809E+01 0.  1.
       -4    1    3    3    0  502 -0.22177744655E+03  0.80573344466E+03  0.17729706200E+03  0.85429940930E+03  0.12699999809E+01 0. -1.
</event>
<event>
 5   0  0.6423388E-05  0.1859803E+04  0.7818609E-02  0.8675128E-01
       -2   -1    0    0    0  501  0.00000000000E+00  0.00000000000E+00  0.63644555404E+03  0.63644555405E+03  0.25500000920E-02 0.  1.
        2   -1    0    0  501    0  0.00000000000E+00  0.00000000000E+00 -0.13586663568E+04  0.13586663568E+04  0.25500000920E-02 0. -1.
    10030    2    1    2    0    0  0.00000000000E+00  0.00000000000E+00 -0.72222080273E+03  0.19951119108E+04  0.18598033898E+04 0.  0.
        2    1    3    3  502    0  0.46241698229E+03 -0.69519998245E+03 -0.80026494963E+03  0.11565277648E+04  0.25500000920E-02 0. -1.
       -2    1    3    3    0  502 -0.46241698229E+03  0.69519998245E+03  0.78044146897E+02  0.83858414604E+03  0.25500000920E-02 0.  1.
</event>
<event>
 5   0  0.6423388E-05  0.1922600E+04  0.7818609E-02  0.8643688E-01
        2   -1    0    0  501    0  0.00000000000E+00  0.00000000000E+00  0.67724736145E+03  0.67724736146E+03  0.25500000920E-02 0. -1.
       -2   -1    0    0    0  501  0.00000000000E+00  0.00000000000E+00 -0.13644902798E+04  0.13644902798E+04  0.25500000920E-02 0.  1.
    10030    2    1    2    0    0  0.00000000000E+00  0.00000000000E+00 -0.68724291835E+03  0.20417376413E+04  0.19225997417E+04 0.  0.
        2    1    3    3  502    0  0.93492353632E+03 -0.37365905097E+02 -0.10946021655E+03  0.94205083124E+03  0.25500000920E-02 0. -1.
       -2    1    3    3    0  502 -0.93492353632E+03  0.37365905097E+02 -0.57778270180E+03  0.10996868100E+04  0.25500000920E-02 0.  1.
</event>
<event>
 5   0  0.3086139E-05  0.1907163E+04  0.7818609E-02  0.8651299E-01
        1   -1    0    0  501    0  0.00000000000E+00  0.00000000000E+00  0.93371466691E+03  0.93371466693E+03  0.50400001928E-02 0. -1.
       -1   -1    0    0    0  501  0.00000000000E+00  0.00000000000E+00 -0.97387144518E+03  0.97387144520E+03  0.50400001928E-02 0.  1.
    10030    2    1    2    0    0  0.00000000000E+00  0.00000000000E+00 -0.40156778268E+02  0.19075861121E+04  0.19071633932E+04 0.  0.
        2    1    3    3  502    0  0.93306300542E+03  0.35366205896E+02 -0.21366898677E+03  0.95786835031E+03  0.25500000920E-02 0. -1.
       -2    1    3    3    0  502 -0.93306300542E+03 -0.35366205896E+02  0.17351220850E+03  0.94971776182E+03  0.25500000920E-02 0.  1.
</event>
<event>
 5   0  0.3083469E-05  0.1888901E+04  0.7818609E-02  0.8660401E-01
        1   -1    0    0  501    0  0.00000000000E+00  0.00000000000E+00  0.13525928459E+04  0.13525928459E+04  0.50400001928E-02 0.  1.
       -1   -1    0    0    0  501  0.00000000000E+00  0.00000000000E+00 -0.65946400636E+03  0.65946400638E+03  0.50400001928E-02 0. -1.
    10030    2    1    2    0    0  0.00000000000E+00  0.00000000000E+00  0.69312883957E+03  0.20120568523E+04  0.18889005238E+04 0.  0.
        3    1    3    3  502    0  0.44574814059E+03  0.41707278812E+03 -0.42107843170E+03  0.74158490497E+03  0.10100000352E+00 0. -1.
       -3    1    3    3    0  502 -0.44574814059E+03 -0.41707278812E+03  0.11142072713E+04  0.12704719473E+04  0.10100000352E+00 0.  1.
</event>
<event>
 5   0  0.6098377E-05  0.1901754E+04  0.7818609E-02  0.8653984E-01
        2   -1    0    0  501    0  0.00000000000E+00  0.00000000000E+00  0.92518641199E+03  0.92518641200E+03  0.25500000920E-02 0. -1.
       -2   -1    0    0    0  501  0.00000000000E+00  0.00000000000E+00 -0.97728121171E+03  0.97728121171E+03  0.25500000920E-02 0.  1.
    10030    2    1    2    0    0  0.00000000000E+00  0.00000000000E+00 -0.52094799718E+02  0.19024676237E+04  0.19017542405E+04 0.  0.
        5    1    3    3  502    0  0.32581331655E+03 -0.76498135195E+03 -0.48751689820E+03  0.96387011683E+03  0.46999998093E+01 0.  1.
       -5    1    3    3    0  502 -0.32581331655E+03  0.76498135195E+03  0.43542209848E+03  0.93859750688E+03  0.46999998093E+01 0. -1.
</event>
<event>
 5   0  0.6361762E-05  0.1908646E+04  0.7818609E-02  0.8650564E-01
       -2   -1    0    0    0  501  0.00000000000E+00  0.00000000000E+00  0.59626859402E+03  0.59626859403E+03  0.25500000920E-02 0. -1.
        2   -1    0    0  501    0  0.00000000000E+00  0.00000000000E+00 -0.15273867712E+04  0.15273867712E+04  0.25500000920E-02 0.  1.
    10030    2    1    2    0    0  0.00000000000E+00  0.00000000000E+00 -0.93111817715E+03  0.21236553652E+04  0.19086463922E+04 0.  0.
        1    1    3    3  502    0  0.72553600473E+03  0.73708082924E+01 -0.11552907464E+04  0.13642410094E+04  0.50400001928E-02 0.  1.
       -1    1    3    3    0  502 -0.72553600473E+03 -0.73708082924E+01  0.22417256925E+03  0.75941435581E+03  0.50400001928E-02 0. -1.
</event>
<event>
 5   0  0.3144958E-05  0.1881963E+04  0.7818609E-02  0.8663887E-01
        1   -1    0    0  501    0  0.00000000000E+00  0.00000000000E+00  0.85258434508E+03  0.85258434509E+03  0.50400001928E-02 0. -1.
       -1   -1    0    0    0  501  0.00000000000E+00  0.00000000000E+00 -0.10385441028E+04  0.10385441028E+04  0.50400001928E-02 0.  1.
    10030    2    1    2    0    0  0.00000000000E+00  0.00000000000E+00 -0.18595975774E+03  0.18911284479E+04  0.18819632768E+04 0.  0.
        4    1    3    3  502    0 -0.23595636610E+03 -0.57178568504E+03  0.61957892930E+03  0.87549639568E+03  0.12699999809E+01 0. -1.
       -4    1    3    3    0  502  0.23595636610E+03  0.57178568504E+03 -0.80553868704E+03  0.10156320522E+04  0.12699999809E+01 0.  1.
</event>
<event>
 5   0  0.3083469E-05  0.1895480E+04  0.7818609E-02  0.8657109E-01
        1   -1    0    0  501    0  0.00000000000E+00  0.00000000000E+00  0.14616872450E+04  0.14616872450E+04  0.50400001928E-02 0. -1.
       -1   -1    0    0    0  501  0.00000000000E+00  0.00000000000E+00 -0.61450301725E+03  0.61450301727E+03  0.50400001928E-02 0.  1.
    10030    2    1    2    0    0  0.00000000000E+00  0.00000000000E+00  0.84718422778E+03  0.20761902623E+04  0.18954801211E+04 0.  0.
        3    1    3    3  502    0  0.32578765212E+03 -0.43329862959E+00  0.13984260473E+04  0.14358736720E+04  0.10100000352E+00 0. -1.
       -3    1    3    3    0  502 -0.32578765212E+03  0.43329862959E+00 -0.55124181951E+03  0.64031659029E+03  0.10100000352E+00 0.  1.
</event>
<event>
 5   0  0.6098377E-05  0.1898233E+04  0.7818609E-02  0.8655736E-01
        2   -1    0    0  501    0  0.00000000000E+00  0.00000000000E+00  0.12496288967E+04  0.12496288967E+04  0.25500000920E-02 0. -1.
       -2   -1    0    0    0  501  0.00000000000E+00  0.00000000000E+00 -0.72087178084E+03  0.72087178085E+03  0.25500000920E-02 0.  1.
    10030    2    1    2    0    0  0.00000000000E+00  0.00000000000E+00  0.52875711583E+03  0.19705006775E+04  0.18982330817E+04 0.  0.
        5    1    3    3  502    0 -0.74885099516E+03  0.10537328063E+03 -0.33097010695E+03  0.82549660382E+03  0.46999998093E+01 0.  1.
       -5    1    3    3    0  502  0.74885099516E+03 -0.10537328063E+03  0.85972722278E+03  0.11450040737E+04  0.46999998093E+01 0. -1.
</event>
<event>
 5   0  0.6098377E-05  0.1901898E+04  0.7818609E-02  0.8653912E-01
       -2   -1    0    0    0  501  0.00000000000E+00  0.00000000000E+00  0.64597890948E+03  0.64597890949E+03  0.25500000920E-02 0.  1.
        2   -1    0    0  501    0  0.00000000000E+00  0.00000000000E+00 -0.13998976809E+04  0.13998976809E+04  0.25500000920E-02 0. -1.
    10030    2    1    2    0    0  0.00000000000E+00  0.00000000000E+00 -0.75391877138E+03  0.20458765903E+04  0.19018983961E+04 0.  0.
        5    1    3    3  502    0 -0.23048171086E+03  0.89575050555E+03 -0.13934966380E+03  0.93537757405E+03  0.46999998093E+01 0.  1.
       -5    1    3    3    0  502  0.23048171086E+03 -0.89575050555E+03 -0.61456910757E+03  0.11104990163E+04  0.46999998093E+01 0. -1.
</event>
<event>
 5   0  0.6423388E-05  0.1860812E+04  0.7818609E-02  0.8674612E-01
       -2   -1    0    0    0  501  0.00000000000E+00  0.00000000000E+00  0.53803758046E+03  0.53803758046E+03  0.25500000920E-02 0. -1.
        2   -1    0    0  501    0  0.00000000000E+00  0.00000000000E+00 -0.16089130754E+04  0.16089130754E+04  0.25500000920E-02 0.  1.
    10030    2    1    2    0    0  0.00000000000E+00  0.00000000000E+00 -0.10708754949E+04  0.21469506558E+04  0.18608124013E+04 0.  0.
        2    1    3    3  502    0 -0.45740243631E+03 -0.25516929947E+03  0.35178659746E+03  0.63093753280E+03  0.25500000920E-02 0. -1.
       -2    1    3    3    0  502  0.45740243631E+03  0.25516929947E+03 -0.14226620924E+04  0.15160131230E+04  0.25500000920E-02 0.  1.
</event>
<event>
 5   0  0.6395992E-05  0.1898364E+04  0.7818609E-02  0.8655671E-01
       -2   -1    0    0    0  501  0.00000000000E+00  0.00000000000E+00  0.13486364808E+04  0.13486364808E+04  0.25500000920E-02 0. -1.
        2   -1    0    0  501    0  0.00000000000E+00  0.00000000000E+00 -0.66804222109E+03  0.66804222109E+03  0.25500000920E-02 0.  1.
    10030    2    1    2    0    0  0.00000000000E+00  0.00000000000E+00  0.68059425974E+03  0.20166787019E+04  0.18983636217E+04 0.  0.
        4    1    3    3  502    0  0.46648917322E+03  0.60050194376E+03  0.94379649703E+03  0.12120099727E+04  0.12699999809E+01 0.  1.
       -4    1    3    3    0  502 -0.46648917322E+03 -0.60050194376E+03 -0.26320223729E+03  0.80466872923E+03  0.12699999809E+01 0. -1.
</event>
<event>
 5   0  0.3203527E-05  0.1902524E+04  0.7818609E-02  0.8653601E-01
        1   -1    0    0  501    0  0.00000000000E+00  0.00000000000E+00  0.10847017546E+04  0.10847017546E+04  0.50400001928E-02 0. -1.
       -1   -1    0    0    0  501  0.00000000000E+00  0.00000000000E+00 -0.83423761688E+03  0.83423761690E+03  0.50400001928E-02 0.  1.
    10030    2    1    2    0    0  0.00000000000E+00  0.00000000000E+00  0.25046413773E+03  0.19189393715E+04  0.19025235944E+04 0.  0.
        1    1    3    3  502    0  0.26389209315E+03  0.92352862534E+02  0.10423248862E+04  0.10791706337E+04  0.50400001928E-02 0. -1.
       -1    1    3    3    0  502 -0.26389209315E+03 -0.92352862534E+02 -0.79186074851E+03  0.83976873787E+03  0.50400001928E-02 0.  1.
</event>
<event>
 5   0  0.3203527E-05  0.1877701E+04  0.7818609E-02  0.8666036E-01
       -1   -1    0    0    0  501  0.00000000000E+00  0.00000000000E+00  0.80076934800E+03  0.80076934801E+03  0.50400001928E-02 0.  1.
        1   -1    0    0  501    0  0.00000000000E+00  0.00000000000E+00 -0.11007418970E+04  0.11007418970E+04  0.50400001928E-02 0. -1.
    10030    2    1    2    0    0  0.00000000000E+00  0.00000000000E+00 -0.29997254900E+03  0.19015112450E+04  0.18777011170E+04 0.  0.
        1    1    3    3  502    0  0.67433807334E+03  0.44213268163E+03  0.33697218832E+03  0.87393558175E+03  0.50400001928E-02 0.  1.
       -1    1    3    3    0  502 -0.67433807334E+03 -0.44213268163E+03 -0.63694473732E+03  0.10275756633E+04  0.50400001928E-02 0. -1.
</event>
<event>
 5   0  0.3147063E-05  0.1898149E+04  0.7818609E-02  0.8655778E-01
        1   -1    0    0  501    0  0.00000000000E+00  0.00000000000E+00  0.17624273302E+04  0.17624273302E+04  0.50400001928E-02 0.  1.
       -1   -1    0    0    0  501  0.00000000000E+00  0.00000000000E+00 -0.51108064111E+03  0.51108064114E+03  0.50400001928E-02 0. -1.
    10030    2    1    2    0    0  0.00000000000E+00  0.00000000000E+00  0.12513466891E+04  0.22735079714E+04  0.18981490878E+04 0.  0.
        5    1    3    3  502    0 -0.30576288146E+03  0.33158845332E+03  0.16258329630E+04  0.16872453158E+04  0.46999998093E+01 0.  1.
       -5    1    3    3    0  502  0.30576288146E+03 -0.33158845332E+03 -0.37448627386E+03  0.58626265561E+03  0.46999998093E+01 0. -1.
</event>
<event>
 5   0  0.6361762E-05  0.1905480E+04  0.7818609E-02  0.8652134E-01
        2   -1    0    0  501    0  0.00000000000E+00  0.00000000000E+00  0.10160212533E+04  0.10160212533E+04  0.25500000920E-02 0. -1.
       -2   -1    0    0    0  501  0.00000000000E+00  0.00000000000E+00 -0.89339976291E+03  0.89339976292E+03  0.25500000920E-02 0.  1.
    10030    2    1    2    0    0  0.00000000000E+00  0.00000000000E+00  0.12262149035E+03  0.19094210162E+04  0.19054796213E+04 0.  0.
        1    1    3    3  502    0  0.86583281850E+03 -0.34511555837E+02 -0.33555850000E+03  0.92922388261E+03  0.50400001928E-02 0.  1.
       -1    1    3    3    0  502 -0.86583281850E+03  0.34511555837E+02  0.45817999035E+03  0.98019713357E+03  0.50400001928E-02 0. -1.
</event>
<event>
 5   0  0.6395992E-05  0.1906782E+04  0.7818609E-02  0.8651488E-01
        2   -1    0    0  501    0  0.00000000000E+00  0.00000000000E+00  0.14852396095E+04  0.14852396095E+04  0.25500000920E-02 0.  1.
       -2   -1    0    0    0  501  0.00000000000E+00  0.00000000000E+00 -0.61199202029E+03  0.61199202029E+03  0.25500000920E-02 0. -1.
    10030    2    1    2    0    0  0.00000000000E+00  0.00000000000E+00  0.87324758924E+03  0.20972316298E+04  0.19067824095E+04 0.  0.
        4    1    3    3  502    0  0.11846879158E+03  0.13099493500E+03 -0.59384019800E+03  0.61955009582E+03  0.12699999809E+01 0. -1.
       -4    1    3    3    0  502 -0.11846879158E+03 -0.13099493500E+03  0.14670877872E+04  0.14776815340E+04  0.12699999809E+01 0.  1.
</event>
<event>
 5   0  0.3144958E-05  0.1907591E+04  0.7818609E-02  0.8651087E-01
       -1   -1    0    0    0  501  0.00000000000E+00  0.00000000000E+00  0.81842570176E+03  0.81842570177E+03  0.50400001928E-02 0. -1.
        1   -1    0    0  501    0  0.00000000000E+00  0.00000000000E+00 -0.11115559138E+04  0.11115559138E+04  0.50400001928E-02 0.  1.
    10030    2    1    2    0    0  0.00000000000E+00  0.00000000000E+00 -0.29313021202E+03  0.19299816156E+04  0.19075910765E+04 0.  0.
        4    1    3    3  502    0  0.36926124699E+03  0.42547157735E+03  0.63210773538E+03  0.84672411900E+03  0.12699999809E+01 0. -1.
       -4    1    3    3    0  502 -0.36926124699E+03 -0.42547157735E+03 -0.92523794740E+03  0.10832574966E+04  0.12699999809E+01 0.  1.
</event>
<event>
 5   0  0.3147063E-05  0.1896474E+04  0.7818609E-02  0.8656613E-01
       -1   -1    0    0    0  501  0.00000000000E+00  0.00000000000E+00  0.52330803384E+03  0.52330803387E+03  0.50400001928E-02 0. -1.
        1   -1    0    0  501    0  0.00000000000E+00  0.00000000000E+00 -0.17182113329E+04  0.17182113329E+04  0.50400001928E-02 0.  1.
    10030    2    1    2    0    0  0.00000000000E+00  0.00000000000E+00 -0.11949032991E+04  0.22415193668E+04  0.18964744073E+04 0.  0.
        5    1    3    3  502    0  0.53117985441E+03 -0.18306697252E+03 -0.15002761619E+04  0.16020350202E+04  0.46999998093E+01 0.  1.
       -5    1    3    3    0  502 -0.53117985441E+03  0.18306697252E+03  0.30537286280E+03  0.63948434656E+03  0.46999998093E+01 0. -1.
</event>
<event>
 5   0  0.6361762E-05  0.1901450E+04  0.7818609E-02  0.8654135E-01
       -2   -1    0    0    0  501  0.00000000000E+00  0.00000000000E+00  0.28220399547E+03  0.28220399548E+03  0.25500000920E-02 0.  1.
        2   -1    0    0  501    0  0.00000000000E+00  0.00000000000E+00 -0.32029240157E+04  0.32029240157E+04  0.25500000920E-02 0. -1.
    10030    2    1    2    0    0  0.00000000000E+00  0.00000000000E+00 -0.29207200202E+04  0.34851280111E+04  0.19014499251E+04 0.  0.
        1    1    3    3  502    0 -0.87130580356E+02 -0.89195690592E+03 -0.87873024404E+03  0.12551277632E+04  0.50400001928E-02 0.  1.
       -1    1    3    3    0  502  0.87130580356E+02  0.89195690592E+03 -0.20419897762E+04  0.22300002480E+04  0.50400001928E-02 0. -1.
</event>
<event>
 5   0  0.3083469E-05  0.1908280E+04  0.7818609E-02  0.8650746E-01
        1   -1    0    0  501    0  0.00000000000E+00  0.00000000000E+00  0.60756951495E+03  0.60756951497E+03  0.50400001928E-02 0.  1.
       -1   -1    0    0    0  501  0.00000000000E+00  0.00000000000E+00 -0.14984009508E+04  0.14984009508E+04  0.50400001928E-02 0. -1.
    10030    2    1    2    0    0  0.00000000000E+00  0.00000000000E+00 -0.89083143588E+03  0.21059704658E+04  0.19082795801E+04 0.  0.
        3    1    3    3  502    0 -0.36571772287E+03  0.86078488495E+03 -0.23694797207E+03  0.96480278951E+03  0.10100000352E+00 0. -1.
       -3    1    3    3    0  502  0.36571772287E+03 -0.86078488495E+03 -0.65388346381E+03  0.11411676763E+04  0.10100000352E+00 0.  1.
</event>
<event>
 5   0  0.6423388E-05  0.1917567E+04  0.7818609E-02  0.8646161E-01
        2   -1    0    0  501    0  0.00000000000E+00  0.00000000000E+00  0.14221006593E+04  0.14221006593E+04  0.25500000920E-02 0.  1.
       -2   -1    0    0    0  501  0.00000000000E+00  0.00000000000E+00 -0.64641423736E+03  0.64641423736E+03  0.25500000920E-02 0. -1.
    10030    2    1    2    0    0  0.00000000000E+00  0.00000000000E+00  0.77568642194E+03  0.20685148967E+04  0.19175673267E+04 0.  0.
        2    1    3    3  502    0 -0.89279158954E+02 -0.58558273201E+03  0.12011053636E+04  0.13392281354E+04  0.25500000920E-02 0.  1.
       -2    1    3    3    0  502  0.89279158954E+02  0.58558273201E+03 -0.42541894163E+03  0.72928676126E+03  0.25500000920E-02 0. -1.
</event>
<event>
 5   0  0.6423388E-05  0.1894107E+04  0.7818609E-02  0.8657795E-01
        2   -1    0    0  501    0  0.00000000000E+00  0.00000000000E+00  0.80012643392E+03  0.80012643393E+03  0.25500000920E-02 0.  1.
       -2   -1    0    0    0  501  0.00000000000E+00  0.00000000000E+00 -0.11209606950E+04  0.11209606950E+04  0.25500000920E-02 0. -1.
    10030    2    1    2    0    0  0.00000000000E+00  0.00000000000E+00 -0.32083426109E+03  0.19210871289E+04  0.18941069489E+04 0.  0.
        2    1    3    3  502    0 -0.16921276841E+03 -0.19809163262E+03  0.76306719594E+03  0.80631557187E+03  0.25500000920E-02 0.  1.
       -2    1    3    3    0  502  0.16921276841E+03  0.19809163262E+03 -0.10839014570E+04  0.11147715571E+04  0.25500000920E-02 0. -1.
</event>
<event>
 5   0  0.6395992E-05  0.1900646E+04  0.7818609E-02  0.8654535E-01
        2   -1    0    0  501    0  0.00000000000E+00  0.00000000000E+00  0.78876382062E+03  0.78876382062E+03  0.25500000920E-02 0.  1.
       -2   -1    0    0    0  501  0.00000000000E+00  0.00000000000E+00 -0.11449738297E+04  0.11449738297E+04  0.25500000920E-02 0. -1.
    10030    2    1    2    0    0  0.00000000000E+00  0.00000000000E+00 -0.35621000910E+03  0.19337376503E+04  0.19006461348E+04 0.  0.
        4    1    3    3  502    0  0.23160898229E+02 -0.18340307920E+03 -0.11265037743E+04  0.11415714971E+04  0.12699999809E+01 0. -1.
       -4    1    3    3    0  502 -0.23160898229E+02  0.18340307920E+03  0.77029376520E+03  0.79216615320E+03  0.12699999809E+01 0.  1.
</event>
<event>
 5   0  0.6098377E-05  0.1895761E+04  0.7818609E-02  0.8656969E-01
       -2   -1    0    0    0  501  0.00000000000E+00  0.00000000000E+00  0.16942559852E+04  0.16942559852E+04  0.25500000920E-02 0.  1.
        2   -1    0    0  501    0  0.00000000000E+00  0.00000000000E+00 -0.53030808550E+03  0.53030808551E+03  0.25500000920E-02 0. -1.
    10030    2    1    2    0    0  0.00000000000E+00  0.00000000000E+00  0.11639478997E+04  0.22245640707E+04  0.18957612169E+04 0.  0.
        5    1    3    3  502    0  0.93431539234E+03 -0.46264227303E+02  0.76136053390E+03  0.12061416101E+04  0.46999998093E+01 0. -1.
       -5    1    3    3    0  502 -0.93431539234E+03  0.46264227303E+02  0.40258736576E+03  0.10184224606E+04  0.46999998093E+01 0.  1.
</event>
<event>
 5   0  0.6361762E-05  0.1899741E+04  0.7818609E-02  0.8654985E-01
        2   -1    0    0  501    0  0.00000000000E+00  0.00000000000E+00  0.59930556842E+03  0.59930556843E+03  0.25500000920E-02 0. -1.
       -2   -1    0    0    0  501  0.00000000000E+00  0.00000000000E+00 -0.15054992384E+04  0.15054992384E+04  0.25500000920E-02 0.  1.
    10030    2    1    2    0    0  0.00000000000E+00  0.00000000000E+00 -0.90619366996E+03  0.21048048068E+04  0.18997411159E+04 0.  0.
        1    1    3    3  502    0  0.20195618974E+03 -0.83995611932E+03 -0.15576495832E+02  0.86403426564E+03  0.50400001928E-02 0. -1.
       -1    1    3    3    0  502 -0.20195618974E+03  0.83995611932E+03 -0.89061717412E+03  0.12407705412E+04  0.50400001928E-02 0.  1.
</event>
<event>
 5   0  0.6098377E-05  0.1912080E+04  0.7818609E-02  0.8648866E-01
       -2   -1    0    0    0  501  0.00000000000E+00  0.00000000000E+00  0.20480563910E+04  0.20480563910E+04  0.25500000920E-02 0.  1.
        2   -1    0    0  501    0  0.00000000000E+00  0.00000000000E+00 -0.44628309280E+03  0.44628309281E+03  0.25500000920E-02 0. -1.
    10030    2    1    2    0    0  0.00000000000E+00  0.00000000000E+00  0.16017732982E+04  0.24943394838E+04  0.19120804799E+04 0.  0.
        5    1    3    3  502    0 -0.60045575573E+01  0.23115978250E+03  0.20110106242E+04  0.20242669588E+04  0.46999998093E+01 0.  1.
       -5    1    3    3    0  502  0.60045575573E+01 -0.23115978250E+03 -0.40923732603E+03  0.47007252501E+03  0.46999998093E+01 0. -1.
</event>
<event>
 5   0  0.3144958E-05  0.1899019E+04  0.7818609E-02  0.8655345E-01
       -1   -1    0    0    0  501  0.00000000000E+00  0.00000000000E+00  0.10034618792E+04  0.10034618793E+04  0.50400001928E-02 0. -1.
        1   -1    0    0  501    0  0.00000000000E+00  0.00000000000E+00 -0.89845821254E+03  0.89845821256E+03  0.50400001928E-02 0.  1.
    10030    2    1    2    0    0  0.00000000000E+00  0.00000000000E+00  0.10500366670E+03  0.19019200918E+04  0.18990192905E+04 0.  0.
        4    1    3    3  502    0 -0.84215797325E+03 -0.25754209711E+03 -0.30301782543E+03  0.93133205632E+03  0.12699999809E+01 0.  1.
       -4    1    3    3    0  502  0.84215797325E+03  0.25754209711E+03  0.40802149212E+03  0.97058803549E+03  0.12699999809E+01 0. -1.
</event>
<event>
 5   0  0.3147063E-05  0.1895788E+04  0.7818609E-02  0.8656956E-01
       -1   -1    0    0    0  501  0.00000000000E+00  0.00000000000E+00  0.64321633623E+03  0.64321633625E+03  0.50400001928E-02 0. -1.
        1   -1    0    0  501    0  0.00000000000E+00  0.00000000000E+00 -0.13968902883E+04  0.13968902883E+04  0.50400001928E-02 0.  1.
    10030    2    1    2    0    0  0.00000000000E+00  0.00000000000E+00 -0.75367395206E+03  0.20401066246E+04  0.18957875972E+04 0.  0.
        5    1    3    3  502    0 -0.59704076292E+03  0.71414311800E+03 -0.56940793394E+03  0.10911945522E+04  0.46999998093E+01 0. -1.
       -5    1    3    3    0  502  0.59704076292E+03 -0.71414311800E+03 -0.18426601812E+03  0.94891207233E+03  0.46999998093E+01 0.  1.
</event>
<event>
 5   0  0.6395992E-05  0.1899502E+04  0.7818609E-02  0.8655104E-01
        2   -1    0    0  501    0  0.00000000000E+00  0.00000000000E+00  0.99149309079E+03  0.99149309079E+03  0.25500000920E-02 0.  1.
       -2   -1    0    0    0  501  0.00000000000E+00  0.00000000000E+00 -0.90976614134E+03  0.90976614135E+03  0.25500000920E-02 0. -1.
    10030    2    1    2    0    0  0.00000000000E+00  0.00000000000E+00  0.81726949446E+02  0.19012592321E+04  0.18995018751E+04 0.  0.
        4    1    3    3  502    0  0.13225937054E+03  0.79417855499E+03  0.54512825499E+03  0.97230578811E+03  0.12699999809E+01 0.  1.
       -4    1    3    3    0  502 -0.13225937054E+03 -0.79417855499E+03 -0.46340130554E+03  0.92895344403E+03  0.12699999809E+01 0. -1.
</event>
<event>
 5   0  0.6423388E-05  0.1882432E+04  0.7818609E-02  0.8663651E-01
        2   -1    0    0  501    0  0.00000000000E+00  0.00000000000E+00  0.20695018232E+04  0.20695018232E+04  0.25500000920E-02 0. -1.
       -2   -1    0    0    0  501  0.00000000000E+00  0.00000000000E+00 -0.42806813304E+03  0.42806813305E+03  0.25500000920E-02 0.  1.
    10030    2    1    2    0    0  0.00000000000E+00  0.00000000000E+00  0.16414336901E+04  0.24975699562E+04  0.18824322371E+04 0.  0.
        2    1    3    3  502    0  0.12828936588E+03  0.54858505534E+03 -0.17964577382E+03  0.59133436260E+03  0.25500000920E-02 0.  1.
       -2    1    3    3    0  502 -0.12828936588E+03 -0.54858505534E+03  0.18210794639E+04  0.19062355936E+04  0.25500000920E-02 0. -1.
</event>
<event>
 5   0  0.3147063E-05  0.1899011E+04  0.7818609E-02  0.8655349E-01
       -1   -1    0    0    0  501  0.00000000000E+00  0.00000000000E+00  0.37239736430E+03  0.37239736433E+03  0.50400001928E-02 0. -1.
        1   -1    0    0  501    0  0.00000000000E+00  0.00000000000E+00 -0.24209633176E+04  0.24209633177E+04  0.50400001928E-02 0.  1.
    10030    2    1    2    0    0  0.00000000000E+00  0.00000000000E+00 -0.20485659533E+04  0.27933606820E+04  0.18990106462E+04 0.  0.
        5    1    3    3  502    0 -0.70809796088E+03  0.58880275776E+03 -0.13643470164E+04  0.16460729877E+04  0.46999998093E+01 0.  1.
       -5    1    3    3    0  502  0.70809796088E+03 -0.58880275776E+03 -0.68421893697E+03  0.11472876943E+04  0.46999998093E+01 0. -1.
</event>
<event>
 5   0  0.3086139E-05  0.1901700E+04  0.7818609E-02  0.8654011E-01
        1   -1    0    0  501    0  0.00000000000E+00  0.00000000000E+00  0.14777183264E+04  0.14777183264E+04  0.50400001928E-02 0.  1.
       -1   -1    0    0    0  501  0.00000000000E+00  0.00000000000E+00 -0.61183203827E+03  0.61183203829E+03  0.50400001928E-02 0. -1.
    10030    2    1    2    0    0  0.00000000000E+00  0.00000000000E+00  0.86588628811E+03  0.20895503647E+04  0.19016996773E+04 0.  0.
        2    1    3    3  502    0  0.42909118070E+03  0.84742179338E+03  0.38539656049E+03  0.10250724102E+04  0.25500000920E-02 0. -1.
       -2    1    3    3    0  502 -0.42909118070E+03 -0.84742179338E+03  0.48048972762E+03  0.10644779545E+04  0.25500000920E-02 0.  1.
</event>
<event>
 5   0  0.6098377E-05  0.1910951E+04  0.7818609E-02  0.8649425E-01
        2   -1    0    0  501    0  0.00000000000E+00  0.00000000000E+00  0.13142896824E+04  0.13142896824E+04  0.25500000920E-02 0. -1.
       -2   -1    0    0    0  501  0.00000000000E+00  0.00000000000E+00 -0.69462090576E+03  0.69462090577E+03  0.25500000920E-02 0.  1.
    10030    2    1    2    0    0  0.00000000000E+00  0.00000000000E+00  0.61966877667E+03  0.20089105882E+04  0.19109506426E+04 0.  0.
        5    1    3    3  502    0 -0.46238947672E+03  0.16097760118E+03 -0.55270908379E+03  0.73839504167E+03  0.46999998093E+01 0.  1.
       -5    1    3    3    0  502  0.46238947672E+03 -0.16097760118E+03  0.11723778605E+04  0.12705155465E+04  0.46999998093E+01 0. -1.
</event>
<event>
 5   0  0.3086139E-05  0.1954373E+04  0.7818609E-02  0.8628255E-01
        1   -1    0    0  501    0  0.00000000000E+00  0.00000000000E+00  0.13377182507E+04  0.13377182507E+04  0.50400001928E-02 0.  1.
       -1   -1    0    0    0  501  0.00000000000E+00  0.00000000000E+00 -0.71382236506E+03  0.71382236508E+03  0.50400001928E-02 0. -1.
    10030    2    1    2    0    0  0.00000000000E+00  0.00000000000E+00  0.62389588568E+03  0.20515406158E+04  0.19543727439E+04 0.  0.
        2    1    3    3  502    0  0.43999906150E+03  0.57677633457E+03 -0.37529534087E+03  0.81677212681E+03  0.25500000920E-02 0. -1.
       -2    1    3    3    0  502 -0.43999906150E+03 -0.57677633457E+03  0.99919122655E+03  0.12347684890E+04  0.25500000920E-02 0.  1.
</event>
<event>
 5   0  0.3083469E-05  0.1904989E+04  0.7818609E-02  0.8652377E-01
        1   -1    0    0  501    0  0.00000000000E+00  0.00000000000E+00  0.21076238596E+04  0.21076238596E+04  0.50400001928E-02 0. -1.
       -1   -1    0    0    0  501  0.00000000000E+00  0.00000000000E+00 -0.43045913166E+03  0.43045913169E+03  0.50400001928E-02 0.  1.
    10030    2    1    2    0    0  0.00000000000E+00  0.00000000000E+00  0.16771647279E+04  0.25380829913E+04  0.19049891722E+04 0.  0.
        3    1    3    3  502    0 -0.22086040773E+03 -0.25831582565E+03  0.20240903248E+04  0.20524249167E+04  0.10100000352E+00 0. -1.
       -3    1    3    3    0  502  0.22086040773E+03  0.25831582565E+03 -0.34692559686E+03  0.48565807462E+03  0.10100000352E+00 0.  1.
</event>
<event>
 5   0  0.3203527E-05  0.1815309E+04  0.7818609E-02  0.8698201E-01
       -1   -1    0    0    0  501  0.00000000000E+00  0.00000000000E+00  0.19905988968E+04  0.19905988968E+04  0.50400001928E-02 0.  1.
        1   -1    0    0  501    0  0.00000000000E+00  0.00000000000E+00 -0.41386352158E+03  0.41386352161E+03  0.50400001928E-02 0. -1.
    10030    2    1    2    0    0  0.00000000000E+00  0.00000000000E+00  0.15767353752E+04  0.24044624184E+04  0.18153085352E+04 0.  0.
        1    1    3    3  502    0  0.83797384200E+03 -0.16602808157E+03  0.38211623242E+03  0.93583027246E+03  0.50400001928E-02 0. -1.
       -1    1    3    3    0  502 -0.83797384200E+03  0.16602808157E+03  0.11946191428E+04  0.14686321459E+04  0.50400001928E-02 0.  1.
</event>
<event>
 5   0  0.6361762E-05  0.1903000E+04  0.7818609E-02  0.8653364E-01
        2   -1    0    0  501    0  0.00000000000E+00  0.00000000000E+00  0.16428892991E+04  0.16428892991E+04  0.25500000920E-02 0. -1.
       -2   -1    0    0    0  501  0.00000000000E+00  0.00000000000E+00 -0.55107330355E+03  0.55107330356E+03  0.25500000920E-02 0.  1.
    10030    2    1    2    0    0  0.00000000000E+00  0.00000000000E+00  0.10918159955E+04  0.21939626026E+04  0.19030001928E+04 0.  0.
        1    1    3    3  502    0  0.75659135765E+03  0.55198840674E+03  0.73961779850E+03  0.11933801454E+04  0.50400001928E-02 0. -1.
       -1    1    3    3    0  502 -0.75659135765E+03 -0.55198840674E+03  0.35219819702E+03  0.10005824572E+04  0.50400001928E-02 0.  1.
</event>
<event>
 5   0  0.6452182E-05  0.1944557E+04  0.7818609E-02  0.8632990E-01
        2   -1    0    0  501    0  0.00000000000E+00  0.00000000000E+00  0.14034907691E+04  0.14034907691E+04  0.25500000920E-02 0.  1.
       -2   -1    0    0    0  501  0.00000000000E+00  0.00000000000E+00 -0.67355283444E+03  0.67355283444E+03  0.25500000920E-02 0. -1.
    10030    2    1    2    0    0  0.00000000000E+00  0.00000000000E+00  0.72993793468E+03  0.20770436036E+04  0.19445566957E+04 0.  0.
        3    1    3    3  502    0  0.78886985974E+03  0.54941002336E+03  0.52033776662E+03  0.10931232460E+04  0.10100000352E+00 0.  1.
       -3    1    3    3    0  502 -0.78886985974E+03 -0.54941002336E+03  0.20960016806E+03  0.98392035757E+03  0.10100000352E+00 0. -1.
</event>
<event>
 5   0  0.6098377E-05  0.1897852E+04  0.7818609E-02  0.8655926E-01
       -2   -1    0    0    0  501  0.00000000000E+00  0.00000000000E+00  0.78220345731E+03  0.78220345731E+03  0.25500000920E-02 0. -1.
        2   -1    0    0  501    0  0.00000000000E+00  0.00000000000E+00 -0.11511843156E+04  0.11511843156E+04  0.25500000920E-02 0.  1.
    10030    2    1    2    0    0  0.00000000000E+00  0.00000000000E+00 -0.36898085825E+03  0.19333877729E+04  0.18978517873E+04 0.  0.
        5    1    3    3  502    0  0.12054398022E+03 -0.92814494320E+03 -0.25183393161E+02  0.93629064934E+03  0.46999998093E+01 0.  1.
       -5    1    3    3    0  502 -0.12054398022E+03  0.92814494320E+03 -0.34379746509E+03  0.99709712353E+03  0.46999998093E+01 0. -1.
</event>
<event>
 5   0  0.6395992E-05  0.1899532E+04  0.7818609E-02  0.8655089E-01
        2   -1    0    0  501    0  0.00000000000E+00  0.00000000000E+00  0.88156381415E+03  0.88156381416E+03  0.25500000920E-02 0.  1.
       -2   -1    0    0    0  501  0.00000000000E+00  0.00000000000E+00 -0.10232449389E+04  0.10232449389E+04  0.25500000920E-02 0. -1.
    10030    2    1    2    0    0  0.00000000000E+00  0.00000000000E+00 -0.14168112470E+03  0.19048087530E+04  0.18995322699E+04 0.  0.
        4    1    3    3  502    0  0.54975412563E+03 -0.74309283987E+03 -0.28970707794E+03  0.96868383450E+03  0.12699999809E+01 0.  1.
       -4    1    3    3    0  502 -0.54975412563E+03  0.74309283987E+03  0.14802595324E+03  0.93612491851E+03  0.12699999809E+01 0. -1.
</event>
<event>
 5   0  0.6361762E-05  0.1896218E+04  0.7818609E-02  0.8656741E-01
        2   -1    0    0  501    0  0.00000000000E+00  0.00000000000E+00  0.89997253968E+03  0.89997253968E+03  0.25500000920E-02 0. -1.
       -2   -1    0    0    0  501  0.00000000000E+00  0.00000000000E+00 -0.99882030018E+03  0.99882030018E+03  0.25500000920E-02 0.  1.
    10030    2    1    2    0    0  0.00000000000E+00  0.00000000000E+00 -0.98847760503E+02  0.18987928399E+04  0.18962181755E+04 0.  0.
        1    1    3    3  502    0 -0.15364891494E+03  0.63424462189E+03 -0.73813430762E+03  0.98524945347E+03  0.50400001928E-02 0.  1.
       -1    1    3    3    0  502  0.15364891494E+03 -0.63424462189E+03  0.63928654712E+03  0.91354338639E+03  0.50400001928E-02 0. -1.
</event>
<event>
 5   0  0.3086139E-05  0.1892647E+04  0.7818609E-02  0.8658525E-01
       -1   -1    0    0    0  501  0.00000000000E+00  0.00000000000E+00  0.88940400929E+03  0.88940400931E+03  0.50400001928E-02 0.  1.
        1   -1    0    0  501    0  0.00000000000E+00  0.00000000000E+00 -0.10068859830E+04  0.10068859830E+04  0.50400001928E-02 0. -1.
    10030    2    1    2    0    0  0.00000000000E+00  0.00000000000E+00 -0.11748197367E+03  0.18962899923E+04  0.18926472785E+04 0.  0.
        2    1    3    3  502    0 -0.30134889709E+03 -0.57264025860E+03 -0.75057733734E+03  0.99100674210E+03  0.25500000920E-02 0. -1.
       -2    1    3    3    0  502  0.30134889709E+03  0.57264025860E+03  0.63309536367E+03  0.90528325018E+03  0.25500000920E-02 0.  1.
</event>
<event>
 5   0  0.3083469E-05  0.1900231E+04  0.7818609E-02  0.8654742E-01
       -1   -1    0    0    0  501  0.00000000000E+00  0.00000000000E+00  0.51342392286E+03  0.51342392288E+03  0.50400001928E-02 0.  1.
        1   -1    0    0  501    0  0.00000000000E+00  0.00000000000E+00 -0.17582335291E+04  0.17582335292E+04  0.50400001928E-02 0. -1.
    10030    2    1    2    0    0  0.00000000000E+00  0.00000000000E+00 -0.12448096063E+04  0.22716574520E+04  0.19002306764E+04 0.  0.
        3    1    3    3  502    0 -0.77350615510E+03 -0.51329997405E+03 -0.86426260349E+03  0.12683605534E+04  0.10100000352E+00 0. -1.
       -3    1    3    3    0  502  0.77350615510E+03  0.51329997405E+03 -0.38054700280E+03  0.10032968987E+04  0.10100000352E+00 0.  1.
</event>
<event>
 5   0  0.6452182E-05  0.1889812E+04  0.7818609E-02  0.8659944E-01
        2   -1    0    0  501    0  0.00000000000E+00  0.00000000000E+00  0.43070100985E+03  0.43070100986E+03  0.25500000920E-02 0. -1.
       -2   -1    0    0    0  501  0.00000000000E+00  0.00000000000E+00 -0.20730096681E+04  0.20730096681E+04  0.25500000920E-02 0.  1.
    10030    2    1    2    0    0  0.00000000000E+00  0.00000000000E+00 -0.16423086583E+04  0.25037106780E+04  0.18898120092E+04 0.  0.
        3    1    3    3  502    0  0.50510649828E+01  0.71620318243E+03 -0.16377100006E+04  0.17874749140E+04  0.10100000352E+00 0.  1.
       -3    1    3    3    0  502 -0.50510649828E+01 -0.71620318243E+03 -0.45986576491E+01  0.71623576400E+03  0.10100000352E+00 0. -1.
</event>
<event>
 5   0  0.6452182E-05  0.1894146E+04  0.7818609E-02  0.8657776E-01
        2   -1    0    0  501    0  0.00000000000E+00  0.00000000000E+00  0.24808383445E+04  0.24808383445E+04  0.25500000920E-02 0.  1.
       -2   -1    0    0    0  501  0.00000000000E+00  0.00000000000E+00 -0.36154990043E+03  0.36154990044E+03  0.25500000920E-02 0. -1.
    10030    2    1    2    0    0  0.00000000000E+00  0.00000000000E+00  0.21192884441E+04  0.28423882450E+04  0.18941455662E+04 0.  0.
        3    1    3    3  502    0  0.19237532757E+03 -0.51222509594E+02  0.24490855607E+04  0.24571634268E+04  0.10100000352E+00 0.  1.
       -3    1    3    3    0  502 -0.19237532757E+03  0.51222509594E+02 -0.32979711666E+03  0.38522481813E+03  0.10100000352E+00 0. -1.
</event>
<event>
 5   0  0.3086139E-05  0.1904335E+04  0.7818609E-02  0.8652702E-01
       -1   -1    0    0    0  501  0.00000000000E+00  0.00000000000E+00  0.10638619438E+04  0.10638619438E+04  0.50400001928E-02 0. -1.
        1   -1    0    0  501    0  0.00000000000E+00  0.00000000000E+00 -0.85219957739E+03  0.85219957741E+03  0.50400001928E-02 0.  1.
    10030    2    1    2    0    0  0.00000000000E+00  0.00000000000E+00  0.21166236640E+03  0.19160615212E+04  0.19043347384E+04 0.  0.
        2    1    3    3  502    0 -0.50155220829E+03 -0.10464843246E+03  0.91334222309E+03  0.10472344191E+04  0.25500000920E-02 0. -1.
       -2    1    3    3    0  502  0.50155220829E+03  0.10464843246E+03 -0.70167985670E+03  0.86882710211E+03  0.25500000920E-02 0.  1.
</event>
<event>
 5   0  0.3203527E-05  0.1911030E+04  0.7818609E-02  0.8649385E-01
        1   -1    0    0  501    0  0.00000000000E+00  0.00000000000E+00  0.14308922347E+04  0.14308922347E+04  0.50400001928E-02 0.  1.
       -1   -1    0    0    0  501  0.00000000000E+00  0.00000000000E+00 -0.63806981627E+03  0.63806981629E+03  0.50400001928E-02 0. -1.
    10030    2    1    2    0    0  0.00000000000E+00  0.00000000000E+00  0.79282241842E+03  0.20689620510E+04  0.19110302408E+04 0.  0.
        1    1    3    3  502    0  0.17145866328E+03 -0.44826051344E+03  0.12909342151E+04  0.13772605813E+04  0.50400001928E-02 0.  1.
       -1    1    3    3    0  502 -0.17145866328E+03  0.44826051344E+03 -0.49811179668E+03  0.69170146967E+03  0.50400001928E-02 0. -1.
</event>
<event>
 5   0  0.6098377E-05  0.1902218E+04  0.7818609E-02  0.8653753E-01
        2   -1    0    0  501    0  0.00000000000E+00  0.00000000000E+00  0.15417386848E+04  0.15417386848E+04  0.25500000920E-02 0.  1.
       -2   -1    0    0    0  501  0.00000000000E+00  0.00000000000E+00 -0.58674573832E+03  0.58674573833E+03  0.25500000920E-02 0. -1.
    10030    2    1    2    0    0  0.00000000000E+00  0.00000000000E+00  0.95499294645E+03  0.21284844231E+04  0.19022182871E+04 0.  0.
        5    1    3    3  502    0 -0.50232366351E+02 -0.36507248289E+03 -0.50360213655E+03  0.62405000627E+03  0.46999998093E+01 0. -1.
       -5    1    3    3    0  502  0.50232366351E+02  0.36507248289E+03  0.14585950830E+04  0.15044344168E+04  0.46999998093E+01 0.  1.
</event>
<event>
 5   0  0.3144958E-05  0.1904995E+04  0.7818609E-02  0.8652374E-01
        1   -1    0    0  501    0  0.00000000000E+00  0.00000000000E+00  0.76608096574E+03  0.76608096576E+03  0.50400001928E-02 0.  1.
       -1   -1    0    0    0  501  0.00000000000E+00  0.00000000000E+00 -0.11842763393E+04  0.11842763393E+04  0.50400001928E-02 0. -1.
    10030    2    1    2    0    0  0.00000000000E+00  0.00000000000E+00 -0.41819537351E+03  0.19503573050E+04  0.19049950779E+04 0.  0.
        4    1    3    3  502    0  0.33731259407E+03 -0.87620857101E+03 -0.37331890458E+03  0.10103909458E+04  0.12699999809E+01 0.  1.
       -4    1    3    3    0  502 -0.33731259407E+03  0.87620857101E+03 -0.44876468926E+02  0.93996635918E+03  0.12699999809E+01 0. -1.
</event>
<event>
 5   0  0.3203527E-05  0.1903314E+04  0.7818609E-02  0.8653208E-01
       -1   -1    0    0    0  501  0.00000000000E+00  0.00000000000E+00  0.51451261767E+03  0.51451261769E+03  0.50400001928E-02 0.  1.
        1   -1    0    0  501    0  0.00000000000E+00  0.00000000000E+00 -0.17602119430E+04  0.17602119430E+04  0.50400001928E-02 0. -1.
    10030    2    1    2    0    0  0.00000000000E+00  0.00000000000E+00 -0.12456993253E+04  0.22747245607E+04  0.19033142194E+04 0.  0.
        1    1    3    3  502    0  0.45575817917E+03 -0.80830104278E+03 -0.37049374499E+03  0.99916550618E+03  0.50400001928E-02 0.  1.
       -1    1    3    3    0  502 -0.45575817917E+03  0.80830104278E+03 -0.87520558032E+03  0.12755590545E+04  0.50400001928E-02 0. -1.
</event>
<event>
 5   0  0.6395992E-05  0.1899008E+04  0.7818609E-02  0.8655350E-01
       -2   -1    0    0    0  501  0.00000000000E+00  0.00000000000E+00  0.42432557826E+03  0.42432557827E+03  0.25500000920E-02 0. -1.
        2   -1    0    0  501    0  0.00000000000E+00  0.00000000000E+00 -0.21246839729E+04  0.21246839729E+04  0.25500000920E-02 0.  1.
    10030    2    1    2    0    0  0.00000000000E+00  0.00000000000E+00 -0.17003583947E+04  0.25490095512E+04  0.18990079046E+04 0.  0.
        4    1    3    3  502    0 -0.44067776874E+03 -0.62803668600E+03 -0.16010543147E+04  0.17753882691E+04  0.12699999809E+01 0.  1.
       -4    1    3    3    0  502  0.44067776874E+03  0.62803668600E+03 -0.99304079992E+02  0.77362128204E+03  0.12699999809E+01 0. -1.
</event>
<event>
 5   0  0.3083469E-05  0.1900751E+04  0.7818609E-02  0.8654483E-01
       -1   -1    0    0    0  501  0.00000000000E+00  0.00000000000E+00  0.15456482654E+04  0.15456482654E+04  0.50400001928E-02 0. -1.
        1   -1    0    0  501    0  0.00000000000E+00  0.00000000000E+00 -0.58435911568E+03  0.58435911570E+03  0.50400001928E-02 0.  1.
    10030    2    1    2    0    0  0.00000000000E+00  0.00000000000E+00  0.96128914971E+03  0.21300073811E+04  0.19007510658E+04 0.  0.
        3    1    3    3  502    0 -0.34062407677E+03  0.70228289690E+03  0.10882482370E+04  0.13392200209E+04  0.10100000352E+00 0. -1.
       -3    1    3    3    0  502  0.34062407677E+03 -0.70228289690E+03 -0.12695908729E+03  0.79078736017E+03  0.10100000352E+00 0.  1.
</event>
<event>
 5   0  0.3083469E-05  0.1874111E+04  0.7818609E-02  0.8667851E-01
       -1   -1    0    0    0  501  0.00000000000E+00  0.00000000000E+00  0.16053240716E+04  0.16053240716E+04  0.50400001928E-02 0. -1.
        1   -1    0    0  501    0  0.00000000000E+00  0.00000000000E+00 -0.54697572120E+03  0.54697572123E+03  0.50400001928E-02 0.  1.
    10030    2    1    2    0    0  0.00000000000E+00  0.00000000000E+00  0.10583483504E+04  0.21522997928E+04  0.18741113007E+04 0.  0.
        3    1    3    3  502    0  0.51464727033E+03 -0.28794317844E+03  0.13654860777E+04  0.14873887607E+04  0.10100000352E+00 0. -1.
       -3    1    3    3    0  502 -0.51464727033E+03  0.28794317844E+03 -0.30713772732E+03  0.66491103211E+03  0.10100000352E+00 0.  1.
</event>
<event>
 5   0  0.3203527E-05  0.1933573E+04  0.7818609E-02  0.8638323E-01
        1   -1    0    0  501    0  0.00000000000E+00  0.00000000000E+00  0.13802437322E+04  0.13802437322E+04  0.50400001928E-02 0. -1.
       -1   -1    0    0    0  501  0.00000000000E+00  0.00000000000E+00 -0.67718196552E+03  0.67718196553E+03  0.50400001928E-02 0.  1.
    10030    2    1    2    0    0  0.00000000000E+00  0.00000000000E+00  0.70306176670E+03  0.20574256978E+04  0.19335730278E+04 0.  0.
        1    1    3    3  502    0  0.29379062236E+03  0.75874038748E+03  0.90716287539E+03  0.12185829426E+04  0.50400001928E-02 0. -1.
       -1    1    3    3    0  502 -0.29379062236E+03 -0.75874038748E+03 -0.20410110868E+03  0.83884275521E+03  0.50400001928E-02 0.  1.
</event>
<event>
 5   0  0.3147063E-05  0.1893256E+04  0.7818609E-02  0.8658220E-01
        1   -1    0    0  501    0  0.00000000000E+00  0.00000000000E+00  0.74632989737E+03  0.74632989738E+03  0.50400001928E-02 0.  1.
       -1   -1    0    0    0  501  0.00000000000E+00  0.00000000000E+00 -0.12006818336E+04  0.12006818336E+04  0.50400001928E-02 0. -1.
    10030    2    1    2    0    0  0.00000000000E+00  0.00000000000E+00 -0.45435193620E+03  0.19470117310E+04  0.18932561894E+04 0.  0.
        5    1    3    3  502    0 -0.65074513687E+03  0.16546799643E+03  0.45902800907E+03  0.81337426448E+03  0.46999998093E+01 0.  1.
       -5    1    3    3    0  502  0.65074513687E+03 -0.16546799643E+03 -0.91337994527E+03  0.11336374665E+04  0.46999998093E+01 0. -1.
</event>
<event>
 5   0  0.3147063E-05  0.1788110E+04  0.7818609E-02  0.8712648E-01
       -1   -1    0    0    0  501  0.00000000000E+00  0.00000000000E+00  0.66748483099E+03  0.66748483101E+03  0.50400001928E-02 0.  1.
        1   -1    0    0  501    0  0.00000000000E+00  0.00000000000E+00 -0.11975322297E+04  0.11975322297E+04  0.50400001928E-02 0. -1.
    10030    2    1    2    0    0  0.00000000000E+00  0.00000000000E+00 -0.53004739869E+03  0.18650170607E+04  0.17881102851E+04 0.  0.
        5    1    3    3  502    0  0.63847043796E+03 -0.51598196935E+03  0.10437068067E+03  0.82752475602E+03  0.46999998093E+01 0.  1.
       -5    1    3    3    0  502 -0.63847043796E+03  0.51598196935E+03 -0.63441807936E+03  0.10374923047E+04  0.46999998093E+01 0. -1.
</event>
<event>
 5   0  0.3086139E-05  0.1905499E+04  0.7818609E-02  0.8652124E-01
       -1   -1    0    0    0  501  0.00000000000E+00  0.00000000000E+00  0.10878725412E+04  0.10878725412E+04  0.50400001928E-02 0. -1.
        1   -1    0    0  501    0  0.00000000000E+00  0.00000000000E+00 -0.83440978049E+03  0.83440978050E+03  0.50400001928E-02 0.  1.
    10030    2    1    2    0    0  0.00000000000E+00  0.00000000000E+00  0.25346276069E+03  0.19222823217E+04  0.19054988725E+04 0.  0.
        2    1    3    3  502    0 -0.72244739100E+03  0.38911124321E+03 -0.36167512438E+03  0.89674226396E+03  0.25500000920E-02 0.  1.
       -2    1    3    3    0  502  0.72244739100E+03 -0.38911124321E+03  0.61513788506E+03  0.10255400577E+04  0.25500000920E-02 0. -1.
</event>
<event>
 5   0  0.3086139E-05  0.1960046E+04  0.7818609E-02  0.8625532E-01
       -1   -1    0    0    0  501  0.00000000000E+00  0.00000000000E+00  0.51948974998E+03  0.51948975001E+03  0.50400001928E-02 0.  1.
        1   -1    0    0  501    0  0.00000000000E+00  0.00000000000E+00 -0.18488230885E+04  0.18488230885E+04  0.50400001928E-02 0. -1.
    10030    2    1    2    0    0  0.00000000000E+00  0.00000000000E+00 -0.13293333385E+04  0.23683128385E+04  0.19600455546E+04 0.  0.
        2    1    3    3  502    0  0.31993499437E+03 -0.85610197873E+03 -0.23716991298E+03  0.94420260868E+03  0.25500000920E-02 0.  1.
       -2    1    3    3    0  502 -0.31993499437E+03  0.85610197873E+03 -0.10921634255E+04  0.14241102298E+04  0.25500000920E-02 0. -1.
</event>
<event>
 5   0  0.3086139E-05  0.1898833E+04  0.7818609E-02  0.8655438E-01
        1   -1    0    0  501    0  0.00000000000E+00  0.00000000000E+00  0.11899196203E+04  0.11899196203E+04  0.50400001928E-02 0. -1.
       -1   -1    0    0    0  501  0.00000000000E+00  0.00000000000E+00 -0.75752313323E+03  0.75752313325E+03  0.50400001928E-02 0.  1.
    10030    2    1    2    0    0  0.00000000000E+00  0.00000000000E+00  0.43239648709E+03  0.19474427536E+04  0.18988329459E+04 0.  0.
        2    1    3    3  502    0  0.65913408204E+03  0.68162857853E+03  0.26555913853E+03  0.98468112262E+03  0.25500000920E-02 0.  1.
       -2    1    3    3    0  502 -0.65913408204E+03 -0.68162857853E+03  0.16683734857E+03  0.96276163097E+03  0.25500000920E-02 0. -1.
</event>
<event>
 5   0  0.6098377E-05  0.1892662E+04  0.7818609E-02  0.8658517E-01
       -2   -1    0    0    0  501  0.00000000000E+00  0.00000000000E+00  0.71656421888E+03  0.71656421888E+03  0.25500000920E-02 0.  1.
        2   -1    0    0  501    0  0.00000000000E+00  0.00000000000E+00 -0.12497730001E+04  0.12497730001E+04  0.25500000920E-02 0. -1.
    10030    2    1    2    0    0  0.00000000000E+00  0.00000000000E+00 -0.53320878125E+03  0.19663372190E+04  0.18926622664E+04 0.  0.
        5    1    3    3  502    0 -0.38520175822E+03 -0.23813666676E+02 -0.11642833105E+04  0.12265908863E+04  0.46999998093E+01 0. -1.
       -5    1    3    3    0  502  0.38520175822E+03  0.23813666676E+02  0.63107452926E+03  0.73974633270E+03  0.46999998093E+01 0.  1.
</event>
<event>
 5   0  0.3203527E-05  0.1909113E+04  0.7818609E-02  0.8650333E-01
        1   -1    0    0  501    0  0.00000000000E+00  0.00000000000E+00  0.13690391703E+04  0.13690391704E+04  0.50400001928E-02 0. -1.
       -1   -1    0    0    0  501  0.00000000000E+00  0.00000000000E+00 -0.66556058948E+03  0.66556058950E+03  0.50400001928E-02 0.  1.
    10030    2    1    2    0    0  0.00000000000E+00  0.00000000000E+00  0.70347858086E+03  0.20345997599E+04  0.19091134249E+04 0.  0.
        1    1    3    3  502    0  0.12504531164E+03  0.62092499730E+03 -0.40934005028E+03  0.75415081981E+03  0.50400001928E-02 0.  1.
       -1    1    3    3    0  502 -0.12504531164E+03 -0.62092499730E+03  0.11128186311E+04  0.12804489400E+04  0.50400001928E-02 0. -1.
</event>
<event>
 5   0  0.2279625E-05  0.1902395E+04  0.7818609E-02  0.8653665E-01
        3   -1    0    0  501    0  0.00000000000E+00  0.00000000000E+00  0.99693469932E+03  0.99693470443E+03  0.10100000352E+00 0. -1.
       -3   -1    0    0    0  501  0.00000000000E+00  0.00000000000E+00 -0.90755861347E+03  0.90755861909E+03  0.10100000352E+00 0.  1.
    10030    2    1    2    0    0  0.00000000000E+00  0.00000000000E+00  0.89376085846E+02  0.19044933235E+04  0.19023949996E+04 0.  0.
        3    1    3    3  502    0 -0.57284757198E+03  0.24979572695E+03 -0.67319733971E+03  0.91855697391E+03  0.10100000352E+00 0.  1.
       -3    1    3    3    0  502  0.57284757198E+03 -0.24979572695E+03  0.76257342556E+03  0.98593634961E+03  0.10100000352E+00 0. -1.
</event>
<event>
 5   0  0.6098377E-05  0.1927696E+04  0.7818609E-02  0.8641192E-01
       -2   -1    0    0    0  501  0.00000000000E+00  0.00000000000E+00  0.72724654752E+03  0.72724654752E+03  0.25500000920E-02 0.  1.
        2   -1    0    0  501    0  0.00000000000E+00  0.00000000000E+00 -0.12774255135E+04  0.12774255135E+04  0.25500000920E-02 0. -1.
    10030    2    1    2    0    0  0.00000000000E+00  0.00000000000E+00 -0.55017896600E+03  0.20046720610E+04  0.19276963396E+04 0.  0.
        5    1    3    3  502    0 -0.45909756740E+03 -0.84720745144E+03 -0.25302522852E+03  0.99628053199E+03  0.46999998093E+01 0. -1.
       -5    1    3    3    0  502  0.45909756740E+03  0.84720745144E+03 -0.29715373748E+03  0.10083915290E+04  0.46999998093E+01 0.  1.
</event>
<event>
 5   0  0.3144958E-05  0.1878766E+04  0.7818609E-02  0.8665499E-01
        1   -1    0    0  501    0  0.00000000000E+00  0.00000000000E+00  0.84502138855E+03  0.84502138856E+03  0.50400001928E-02 0.  1.
       -1   -1    0    0    0  501  0.00000000000E+00  0.00000000000E+00 -0.10442819416E+04  0.10442819416E+04  0.50400001928E-02 0. -1.
    10030    2    1    2    0    0  0.00000000000E+00  0.00000000000E+00 -0.19926055308E+03  0.18893033302E+04  0.18787661657E+04 0.  0.
        4    1    3    3  502    0 -0.24530284545E+03  0.21441590162E+03  0.78638522183E+03  0.85120561257E+03  0.12699999809E+01 0.  1.
       -4    1    3    3    0  502  0.24530284545E+03 -0.21441590162E+03 -0.98564577491E+03  0.10380977176E+04  0.12699999809E+01 0. -1.
</event>
<event>
 5   0  0.6395992E-05  0.1911775E+04  0.7818609E-02  0.8649017E-01
       -2   -1    0    0    0  501  0.00000000000E+00  0.00000000000E+00  0.43050358961E+03  0.43050358961E+03  0.25500000920E-02 0. -1.
        2   -1    0    0  501    0  0.00000000000E+00  0.00000000000E+00 -0.21224471428E+04  0.21224471428E+04  0.25500000920E-02 0.  1.
    10030    2    1    2    0    0  0.00000000000E+00  0.00000000000E+00 -0.16919435532E+04  0.25529507325E+04  0.19117752104E+04 0.  0.
        4    1    3    3  502    0 -0.24157041515E+03 -0.28881388850E+02 -0.20804090778E+04  0.20945868194E+04  0.12699999809E+01 0.  1.
       -4    1    3    3    0  502  0.24157041515E+03  0.28881388850E+02  0.38846552458E+03  0.45836391305E+03  0.12699999809E+01 0. -1.
</event>
<event>
 5   0  0.6361762E-05  0.1893368E+04  0.7818609E-02  0.8658165E-01
       -2   -1    0    0    0  501  0.00000000000E+00  0.00000000000E+00  0.84003657250E+03  0.84003657250E+03  0.25500000920E-02 0. -1.
        2   -1    0    0  501    0  0.00000000000E+00  0.00000000000E+00 -0.10668707122E+04  0.10668707122E+04  0.25500000920E-02 0.  1.
    10030    2    1    2    0    0  0.00000000000E+00  0.00000000000E+00 -0.22683413971E+03  0.19069072847E+04  0.18933678104E+04 0.  0.
        1    1    3    3  502    0 -0.89621893232E+02 -0.63276291476E+02 -0.10604467005E+04  0.10661065507E+04  0.50400001928E-02 0.  1.
       -1    1    3    3    0  502  0.89621893232E+02  0.63276291476E+02  0.83361256079E+03  0.84080073402E+03  0.50400001928E-02 0. -1.
</event>
<event>
 5   0  0.3083469E-05  0.1926201E+04  0.7818609E-02  0.8641923E-01
       -1   -1    0    0    0  501  0.00000000000E+00  0.00000000000E+00  0.78443871735E+03  0.78443871736E+03  0.50400001928E-02 0.  1.
        1   -1    0    0  501    0  0.00000000000E+00  0.00000000000E+00 -0.11824544506E+04  0.11824544507E+04  0.50400001928E-02 0. -1.
    10030    2    1    2    0    0  0.00000000000E+00  0.00000000000E+00 -0.39801573329E+03  0.19668931680E+04  0.19262014979E+04 0.  0.
        3    1    3    3  502    0 -0.45512874294E+03  0.47098816660E+03 -0.92003445555E+03  0.11293517766E+04  0.10100000352E+00 0. -1.
       -3    1    3    3    0  502  0.45512874294E+03 -0.47098816660E+03  0.52201872226E+03  0.83754139140E+03  0.10100000352E+00 0.  1.
</event>
<event>
 5   0  0.6452182E-05  0.1898263E+04  0.7818609E-02  0.8655721E-01
       -2   -1    0    0    0  501  0.00000000000E+00  0.00000000000E+00  0.54689533380E+03  0.54689533381E+03  0.25500000920E-02 0.  1.
        2   -1    0    0  501    0  0.00000000000E+00  0.00000000000E+00 -0.16472091797E+04  0.16472091797E+04  0.25500000920E-02 0. -1.
    10030    2    1    2    0    0  0.00000000000E+00  0.00000000000E+00 -0.11003138459E+04  0.21941045136E+04  0.18982634319E+04 0.  0.
        3    1    3    3  502    0 -0.52790753899E+02  0.10461008593E+01  0.54519643085E+03  0.54774731075E+03  0.10100000352E+00 0.  1.
       -3    1    3    3    0  502  0.52790753899E+02 -0.10461008593E+01 -0.16455102768E+04  0.16463572028E+04  0.10100000352E+00 0. -1.
</event>
<event>
 5   0  0.3144958E-05  0.1902879E+04  0.7818609E-02  0.8653425E-01
        1   -1    0    0  501    0  0.00000000000E+00  0.00000000000E+00  0.14542614806E+04  0.14542614806E+04  0.50400001928E-02 0. -1.
       -1   -1    0    0    0  501  0.00000000000E+00  0.00000000000E+00 -0.62247215277E+03  0.62247215279E+03  0.50400001928E-02 0.  1.
    10030    2    1    2    0    0  0.00000000000E+00  0.00000000000E+00  0.83178932784E+03  0.20767336334E+04  0.19028791602E+04 0.  0.
        4    1    3    3  502    0 -0.20769766283E+03 -0.34870726193E+03  0.13550388851E+04  0.14145200835E+04  0.12699999809E+01 0. -1.
       -4    1    3    3    0  502  0.20769766283E+03  0.34870726193E+03 -0.52324955722E+03  0.66221354992E+03  0.12699999809E+01 0.  1.
</event>
<event>
 5   0  0.6423388E-05  0.1897839E+04  0.7818609E-02  0.8655933E-01
        2   -1    0    0  501    0  0.00000000000E+00  0.00000000000E+00  0.11061764118E+04  0.11061764118E+04  0.25500000920E-02 0. -1.
       -2   -1    0    0    0  501  0.00000000000E+00  0.00000000000E+00 -0.81401881169E+03  0.81401881169E+03  0.25500000920E-02 0.  1.
    10030    2    1    2    0    0  0.00000000000E+00  0.00000000000E+00  0.29215760012E+03  0.19201952235E+04  0.18978392010E+04 0.  0.
        2    1    3    3  502    0  0.28167186374E+03  0.77739606670E+03 -0.32498559146E+03  0.88842518988E+03  0.25500000920E-02 0.  1.
       -2    1    3    3    0  502 -0.28167186374E+03 -0.77739606670E+03  0.61714319157E+03  0.10317700336E+04  0.25500000920E-02 0. -1.
</event>
<event>
 5   0  0.3144958E-05  0.1904037E+04  0.7818609E-02  0.8652849E-01
        1   -1    0    0  501    0  0.00000000000E+00  0.00000000000E+00  0.22928014459E+04  0.22928014459E+04  0.50400001928E-02 0. -1.
       -1   -1    0    0    0  501  0.00000000000E+00  0.00000000000E+00 -0.39529789766E+03  0.39529789769E+03  0.50400001928E-02 0.  1.
    10030    2    1    2    0    0  0.00000000000E+00  0.00000000000E+00  0.18975035482E+04  0.26880993436E+04  0.19040373855E+04 0.  0.
        4    1    3    3  502    0  0.93171778397E+03 -0.27418511854E+02  0.67540308787E+03  0.11510954555E+04  0.12699999809E+01 0. -1.
       -4    1    3    3    0  502 -0.93171778397E+03  0.27418511854E+02  0.12221004603E+04  0.15370038880E+04  0.12699999809E+01 0.  1.
</event>
<event>
 5   0  0.3144958E-05  0.1905218E+04  0.7818609E-02  0.8652264E-01
        1   -1    0    0  501    0  0.00000000000E+00  0.00000000000E+00  0.11043524611E+04  0.11043524611E+04  0.50400001928E-02 0.  1.
       -1   -1    0    0    0  501  0.00000000000E+00  0.00000000000E+00 -0.82171545492E+03  0.82171545493E+03  0.50400001928E-02 0. -1.
    10030    2    1    2    0    0  0.00000000000E+00  0.00000000000E+00  0.28263700614E+03  0.19260679160E+04  0.19052175571E+04 0.  0.
        4    1    3    3  502    0 -0.78239360804E+03 -0.47970322077E+03 -0.11683255687E+03  0.92515209407E+03  0.12699999809E+01 0. -1.
       -4    1    3    3    0  502  0.78239360804E+03  0.47970322077E+03  0.39946956301E+03  0.10009158219E+04  0.12699999809E+01 0.  1.
</event>
<event>
 5   0  0.3086139E-05  0.1902388E+04  0.7818609E-02  0.8653669E-01
       -1   -1    0    0    0  501  0.00000000000E+00  0.00000000000E+00  0.12153579823E+04  0.12153579823E+04  0.50400001928E-02 0. -1.
        1   -1    0    0  501    0  0.00000000000E+00  0.00000000000E+00 -0.74444718293E+03  0.74444718295E+03  0.50400001928E-02 0.  1.
    10030    2    1    2    0    0  0.00000000000E+00  0.00000000000E+00  0.47091079937E+03  0.19598051653E+04  0.19023877903E+04 0.  0.
        2    1    3    3  502    0 -0.25300009370E+03 -0.88575122856E+03 -0.87770749811E+01  0.92121730518E+03  0.25500000920E-02 0.  1.
       -2    1    3    3    0  502  0.25300009370E+03  0.88575122856E+03  0.47968787435E+03  0.10385878601E+04  0.25500000920E-02 0. -1.
</event>
<event>
 5   0  0.6423388E-05  0.1902983E+04  0.7818609E-02  0.8653373E-01
       -2   -1    0    0    0  501  0.00000000000E+00  0.00000000000E+00  0.66138084159E+03  0.66138084160E+03  0.25500000920E-02 0.  1.
        2   -1    0    0  501    0  0.00000000000E+00  0.00000000000E+00 -0.13688578509E+04  0.13688578509E+04  0.25500000920E-02 0. -1.
    10030    2    1    2    0    0  0.00000000000E+00  0.00000000000E+00 -0.70747700933E+03  0.20302386925E+04  0.19029832973E+04 0.  0.
        2    1    3    3  502    0 -0.37269062109E+03 -0.26098935014E+03  0.53780015069E+03  0.70444498865E+03  0.25500000920E-02 0.  1.
       -2    1    3    3    0  502  0.37269062109E+03  0.26098935014E+03 -0.12452771600E+04  0.13257937039E+04  0.25500000920E-02 0. -1.
</event>
<event>
 5   0  0.6361762E-05  0.1898946E+04  0.7818609E-02  0.8655381E-01
        2   -1    0    0  501    0  0.00000000000E+00  0.00000000000E+00  0.12848360197E+04  0.12848360197E+04  0.25500000920E-02 0. -1.
       -2   -1    0    0    0  501  0.00000000000E+00  0.00000000000E+00 -0.70164531713E+03  0.70164531714E+03  0.25500000920E-02 0.  1.
    10030    2    1    2    0    0  0.00000000000E+00  0.00000000000E+00  0.58319070259E+03  0.19864813369E+04  0.18989462094E+04 0.  0.
        1    1    3    3  502    0  0.70193522536E+03  0.53447473472E+03  0.65865884873E+03  0.11010030798E+04  0.50400001928E-02 0.  1.
       -1    1    3    3    0  502 -0.70193522536E+03 -0.53447473472E+03 -0.75468146143E+02  0.88547825708E+03  0.50400001928E-02 0. -1.
</event>
<event>
 5   0  0.2279625E-05  0.1918870E+04  0.7818609E-02  0.8645520E-01
        4   -1    0    0  501    0  0.00000000000E+00  0.00000000000E+00  0.12662292087E+04  0.12662298455E+04  0.12699999809E+01 0.  1.
       -4   -1    0    0    0  501  0.00000000000E+00  0.00000000000E+00 -0.72697246725E+03  0.72697357658E+03  0.12699999809E+01 0. -1.
    10030    2    1    2    0    0  0.00000000000E+00  0.00000000000E+00  0.53925674140E+03  0.19932034221E+04  0.19188699927E+04 0.  0.
        4    1    3    3  502    0 -0.37588899204E+03 -0.58413631698E+03 -0.41782962276E+03  0.81061148383E+03  0.12699999809E+01 0. -1.
       -4    1    3    3    0  502  0.37588899204E+03  0.58413631698E+03  0.95708636416E+03  0.11825919383E+04  0.12699999809E+01 0.  1.
</event>
<event>
 5   0  0.6361762E-05  0.1921346E+04  0.7818609E-02  0.8644303E-01
        2   -1    0    0  501    0  0.00000000000E+00  0.00000000000E+00  0.11283196215E+04  0.11283196215E+04  0.25500000920E-02 0. -1.
       -2   -1    0    0    0  501  0.00000000000E+00  0.00000000000E+00 -0.81793564282E+03  0.81793564283E+03  0.25500000920E-02 0.  1.
    10030    2    1    2    0    0  0.00000000000E+00  0.00000000000E+00  0.31038397863E+03  0.19462552643E+04  0.19213462311E+04 0.  0.
        1    1    3    3  502    0 -0.55352209982E+03 -0.60157427546E+03 -0.35594315525E+03  0.89161306276E+03  0.50400001928E-02 0.  1.
       -1    1    3    3    0  502  0.55352209982E+03  0.60157427546E+03  0.66632713388E+03  0.10546422015E+04  0.50400001928E-02 0. -1.
</event>
<event>
 5   0  0.3203527E-05  0.1885339E+04  0.7818609E-02  0.8662189E-01
       -1   -1    0    0    0  501  0.00000000000E+00  0.00000000000E+00  0.86629692369E+03  0.86629692371E+03  0.50400001928E-02 0. -1.
        1   -1    0    0  501    0  0.00000000000E+00  0.00000000000E+00 -0.10257746849E+04  0.10257746849E+04  0.50400001928E-02 0.  1.
    10030    2    1    2    0    0  0.00000000000E+00  0.00000000000E+00 -0.15947776117E+03  0.18920716086E+04  0.18853386475E+04 0.  0.
        1    1    3    3  502    0  0.15189160636E+03  0.34431246235E+02 -0.10127735057E+04  0.10246788495E+04  0.50400001928E-02 0.  1.
       -1    1    3    3    0  502 -0.15189160636E+03 -0.34431246235E+02  0.85329574453E+03  0.86739275905E+03  0.50400001928E-02 0. -1.
</event>
<event>
 5   0  0.6098377E-05  0.1902522E+04  0.7818609E-02  0.8653602E-01
       -2   -1    0    0    0  501  0.00000000000E+00  0.00000000000E+00  0.64592508876E+03  0.64592508876E+03  0.25500000920E-02 0.  1.
        2   -1    0    0  501    0  0.00000000000E+00  0.00000000000E+00 -0.14009329092E+04  0.14009329092E+04  0.25500000920E-02 0. -1.
    10030    2    1    2    0    0  0.00000000000E+00  0.00000000000E+00 -0.75500782041E+03  0.20468579979E+04  0.19025222350E+04 0.  0.
        5    1    3    3  502    0  0.78845404118E+03 -0.22942562028E+03  0.13911290703E+03  0.83286876589E+03  0.46999998093E+01 0.  1.
       -5    1    3    3    0  502 -0.78845404118E+03  0.22942562028E+03 -0.89412072744E+03  0.12139892320E+04  0.46999998093E+01 0. -1.
</event>
<event>
 5   0  0.6395992E-05  0.1897893E+04  0.7818609E-02  0.8655906E-01
       -2   -1    0    0    0  501  0.00000000000E+00  0.00000000000E+00  0.60821658448E+03  0.60821658449E+03  0.25500000920E-02 0.  1.
        2   -1    0    0  501    0  0.00000000000E+00  0.00000000000E+00 -0.14805572911E+04  0.14805572911E+04  0.25500000920E-02 0. -1.
    10030    2    1    2    0    0  0.00000000000E+00  0.00000000000E+00 -0.87234070666E+03  0.20887738756E+04  0.18978930410E+04 0.  0.
        4    1    3    3  502    0 -0.16288994828E+03  0.87743894689E+03 -0.81133542269E+02  0.89611188217E+03  0.12699999809E+01 0.  1.
       -4    1    3    3    0  502  0.16288994828E+03 -0.87743894689E+03 -0.79120716439E+03  0.11926619935E+04  0.12699999809E+01 0. -1.
</event>
<event>
 5   0  0.6395992E-05  0.1900586E+04  0.7818609E-02  0.8654565E-01
        2   -1    0    0  501    0  0.00000000000E+00  0.00000000000E+00  0.11845994124E+04  0.11845994124E+04  0.25500000920E-02 0.  1.
       -2   -1    0    0    0  501  0.00000000000E+00  0.00000000000E+00 -0.76233078382E+03  0.76233078383E+03  0.25500000920E-02 0. -1.
    10030    2    1    2    0    0  0.00000000000E+00  0.00000000000E+00  0.42226862854E+03  0.19469301962E+04  0.19005858029E+04 0.  0.
        4    1    3    3  502    0 -0.66865599188E+03 -0.22156176013E+03  0.86454738646E+03  0.11151835030E+04  0.12699999809E+01 0.  1.
       -4    1    3    3    0  502  0.66865599188E+03  0.22156176013E+03 -0.44227875792E+03  0.83174669319E+03  0.12699999809E+01 0. -1.
</event>
<event>
 5   0  0.3086139E-05  0.1895415E+04  0.7818609E-02  0.8657142E-01
       -1   -1    0    0    0  501  0.00000000000E+00  0.00000000000E+00  0.85881279952E+03  0.85881279953E+03  0.50400001928E-02 0. -1.
        1   -1    0    0  501    0  0.00000000000E+00  0.00000000000E+00 -0.10458033583E+04  0.10458033583E+04  0.50400001928E-02 0.  1.
    10030    2    1    2    0    0  0.00000000000E+00  0.00000000000E+00 -0.18699055879E+03  0.19046161578E+04  0.18954147936E+04 0.  0.
        2    1    3    3  502    0 -0.43153545573E+03 -0.18384870322E+03 -0.92097704631E+03  0.10335482161E+04  0.25500000920E-02 0.  1.
       -2    1    3    3    0  502  0.43153545573E+03  0.18384870322E+03  0.73398648752E+03  0.87106794172E+03  0.25500000920E-02 0. -1.
</event>
<event>
 5   0  0.3083469E-05  0.1868576E+04  0.7818609E-02  0.8670658E-01
       -1   -1    0    0    0  501  0.00000000000E+00  0.00000000000E+00  0.12282861249E+04  0.12282861249E+04  0.50400001928E-02 0.  1.
        1   -1    0    0  501    0  0.00000000000E+00  0.00000000000E+00 -0.71065999292E+03  0.71065999293E+03  0.50400001928E-02 0. -1.
    10030    2    1    2    0    0  0.00000000000E+00  0.00000000000E+00  0.51762613197E+03  0.19389461178E+04  0.18685757237E+04 0.  0.
        3    1    3    3  502    0  0.33017152862E+03 -0.41934313520E+03  0.10545242821E+04  0.11818982084E+04  0.10100000352E+00 0.  1.
       -3    1    3    3    0  502 -0.33017152862E+03  0.41934313520E+03 -0.53689815011E+03  0.75704790941E+03  0.10100000352E+00 0. -1.
</event>
<event>
 5   0  0.3147063E-05  0.1889010E+04  0.7818609E-02  0.8660346E-01
        1   -1    0    0  501    0  0.00000000000E+00  0.00000000000E+00  0.14601681191E+04  0.14601681191E+04  0.50400001928E-02 0. -1.
       -1   -1    0    0    0  501  0.00000000000E+00  0.00000000000E+00 -0.61095000192E+03  0.61095000194E+03  0.50400001928E-02 0.  1.
    10030    2    1    2    0    0  0.00000000000E+00  0.00000000000E+00  0.84921811716E+03  0.20711181210E+04  0.18890100213E+04 0.  0.
        5    1    3    3  502    0 -0.60330801672E+02  0.84991134134E+03 -0.22205540351E+02  0.85235219820E+03  0.46999998093E+01 0.  1.
       -5    1    3    3    0  502  0.60330801672E+02 -0.84991134134E+03  0.87142365751E+03  0.12187659228E+04  0.46999998093E+01 0. -1.
</event>
<event>
 5   0  0.6395992E-05  0.1914266E+04  0.7818609E-02  0.8647788E-01
        2   -1    0    0  501    0  0.00000000000E+00  0.00000000000E+00  0.63440777357E+03  0.63440777358E+03  0.25500000920E-02 0. -1.
       -2   -1    0    0    0  501  0.00000000000E+00  0.00000000000E+00 -0.14440295648E+04  0.14440295648E+04  0.25500000920E-02 0.  1.
    10030    2    1    2    0    0  0.00000000000E+00  0.00000000000E+00 -0.80962179120E+03  0.20784373384E+04  0.19142660015E+04 0.  0.
        4    1    3    3  502    0  0.84844730804E+03 -0.15467666321E+03  0.45897101326E+02  0.86365262778E+03  0.12699999809E+01 0. -1.
       -4    1    3    3    0  502 -0.84844730804E+03  0.15467666321E+03 -0.85551889253E+03  0.12147847106E+04  0.12699999809E+01 0.  1.
</event>
<event>
 5   0  0.6098377E-05  0.1897567E+04  0.7818609E-02  0.8656068E-01
        2   -1    0    0  501    0  0.00000000000E+00  0.00000000000E+00  0.15350625934E+04  0.15350625934E+04  0.25500000920E-02 0.  1.
       -2   -1    0    0    0  501  0.00000000000E+00  0.00000000000E+00 -0.58641907572E+03  0.58641907573E+03  0.25500000920E-02 0. -1.
    10030    2    1    2    0    0  0.00000000000E+00  0.00000000000E+00  0.94864351769E+03  0.21214816691E+04  0.18975668496E+04 0.  0.
        5    1    3    3  502    0  0.59345802483E+02 -0.36429582260E+03  0.14514920806E+04  0.14976931330E+04  0.46999998093E+01 0.  1.
       -5    1    3    3    0  502 -0.59345802483E+02  0.36429582260E+03 -0.50284856289E+03  0.62378853615E+03  0.46999998093E+01 0. -1.
</event>
<event>
 5   0  0.6361762E-05  0.1901820E+04  0.7818609E-02  0.8653951E-01
       -2   -1    0    0    0  501  0.00000000000E+00  0.00000000000E+00  0.30429672816E+03  0.30429672817E+03  0.25500000920E-02 0. -1.
        2   -1    0    0  501    0  0.00000000000E+00  0.00000000000E+00 -0.29715399758E+04  0.29715399758E+04  0.25500000920E-02 0.  1.
    10030    2    1    2    0    0  0.00000000000E+00  0.00000000000E+00 -0.26672432476E+04  0.32758367039E+04  0.19018200674E+04 0.  0.
        1    1    3    3  502    0 -0.24037131520E+03 -0.73388811521E+03 -0.37790469153E+03  0.85975699516E+03  0.50400001928E-02 0. -1.
       -1    1    3    3    0  502  0.24037131520E+03  0.73388811521E+03 -0.22893385561E+04  0.24160797088E+04  0.50400001928E-02 0.  1.
</event>
<event>
 5   0  0.6361762E-05  0.1899544E+04  0.7818609E-02  0.8655083E-01
       -2   -1    0    0    0  501  0.00000000000E+00  0.00000000000E+00  0.39828641915E+03  0.39828641915E+03  0.25500000920E-02 0.  1.
        2   -1    0    0  501    0  0.00000000000E+00  0.00000000000E+00 -0.22648708452E+04  0.22648708452E+04  0.25500000920E-02 0. -1.
    10030    2    1    2    0    0  0.00000000000E+00  0.00000000000E+00 -0.18665844261E+04  0.26631572644E+04  0.18995444704E+04 0.  0.
        1    1    3    3  502    0  0.37167301895E+03 -0.37222376511E+03  0.17541769892E+03  0.55449322218E+03  0.50400001928E-02 0.  1.
       -1    1    3    3    0  502 -0.37167301895E+03  0.37222376511E+03 -0.20420021250E+04  0.21086640422E+04  0.50400001928E-02 0. -1.
</event>
<event>
 5   0  0.2279625E-05  0.1925152E+04  0.7818609E-02  0.8642437E-01
        3   -1    0    0  501    0  0.00000000000E+00  0.00000000000E+00  0.13704729256E+04  0.13704729293E+04  0.10100000352E+00 0. -1.
       -3   -1    0    0    0  501  0.00000000000E+00  0.00000000000E+00 -0.67608233578E+03  0.67608234333E+03  0.10100000352E+00 0.  1.
    10030    2    1    2    0    0  0.00000000000E+00  0.00000000000E+00  0.69439058980E+03  0.20465552726E+04  0.19251519921E+04 0.  0.
        4    1    3    3  502    0  0.85828990420E+03 -0.32079673903E+03  0.33675309161E+02  0.91690116522E+03  0.12699999809E+01 0.  1.
       -4    1    3    3    0  502 -0.85828990420E+03  0.32079673903E+03  0.66071528064E+03  0.11296541074E+04  0.12699999809E+01 0. -1.
</event>
<event>
 5   0  0.2279625E-05  0.1913160E+04  0.7818609E-02  0.8648334E-01
       -3   -1    0    0    0  501  0.00000000000E+00  0.00000000000E+00  0.90808522339E+03  0.90808522901E+03  0.10100000352E+00 0. -1.
        3   -1    0    0  501    0  0.00000000000E+00  0.00000000000E+00 -0.10076641049E+04  0.10076641099E+04  0.10100000352E+00 0.  1.
    10030    2    1    2    0    0  0.00000000000E+00  0.00000000000E+00 -0.99578881493E+02  0.19157493389E+04  0.19131595793E+04 0.  0.
        4    1    3    3  502    0  0.86902309329E+02 -0.94356207836E+03 -0.18104652513E+03  0.96469729151E+03  0.12699999809E+01 0.  1.
       -4    1    3    3    0  502 -0.86902309329E+02  0.94356207836E+03  0.81467643635E+02  0.95105204744E+03  0.12699999809E+01 0. -1.
</event>
<event>
 5   0  0.6395992E-05  0.1901909E+04  0.7818609E-02  0.8653907E-01
       -2   -1    0    0    0  501  0.00000000000E+00  0.00000000000E+00  0.63524335856E+03  0.63524335857E+03  0.25500000920E-02 0. -1.
        2   -1    0    0  501    0  0.00000000000E+00  0.00000000000E+00 -0.14235717419E+04  0.14235717419E+04  0.25500000920E-02 0.  1.
    10030    2    1    2    0    0  0.00000000000E+00  0.00000000000E+00 -0.78832838335E+03  0.20588151005E+04  0.19019090352E+04 0.  0.
        4    1    3    3  502    0 -0.77680932655E+03 -0.22212215861E+03  0.14875197059E+03  0.82152282063E+03  0.12699999809E+01 0. -1.
       -4    1    3    3    0  502  0.77680932655E+03  0.22212215861E+03 -0.93708035394E+03  0.12372922799E+04  0.12699999809E+01 0.  1.
</event>
<event>
 5   0  0.3144958E-05  0.1891791E+04  0.7818609E-02  0.8658953E-01
        1   -1    0    0  501    0  0.00000000000E+00  0.00000000000E+00  0.29876055924E+04  0.29876055924E+04  0.50400001928E-02 0. -1.
       -1   -1    0    0    0  501  0.00000000000E+00  0.00000000000E+00 -0.29947661050E+03  0.29947661054E+03  0.50400001928E-02 0.  1.
    10030    2    1    2    0    0  0.00000000000E+00  0.00000000000E+00  0.26881289819E+04  0.32870822029E+04  0.18917906823E+04 0.  0.
        4    1    3    3  502    0  0.39373431847E+03 -0.55390176225E+03  0.24872652426E+04  0.25784343846E+04  0.12699999809E+01 0. -1.
       -4    1    3    3    0  502 -0.39373431847E+03  0.55390176225E+03  0.20086373928E+03  0.70864781833E+03  0.12699999809E+01 0.  1.
</event>
<event>
 5   0  0.6395992E-05  0.1913821E+04  0.7818609E-02  0.8648007E-01
       -2   -1    0    0    0  501  0.00000000000E+00  0.00000000000E+00  0.13393123976E+04  0.13393123976E+04  0.25500000920E-02 0. -1.
        2   -1    0    0  501    0  0.00000000000E+00  0.00000000000E+00 -0.68369247829E+03  0.68369247830E+03  0.25500000920E-02 0.  1.
    10030    2    1    2    0    0  0.00000000000E+00  0.00000000000E+00  0.65561991935E+03  0.20230048759E+04  0.19138211122E+04 0.  0.
        4    1    3    3  502    0 -0.65958771045E+03 -0.59253286945E+03 -0.52618039537E+02  0.88821248591E+03  0.12699999809E+01 0.  1.
       -4    1    3    3    0  502  0.65958771045E+03  0.59253286945E+03  0.70823795889E+03  0.11347923900E+04  0.12699999809E+01 0. -1.
</event>
<event>
 5   0  0.3083469E-05  0.1904544E+04  0.7818609E-02  0.8652598E-01
       -1   -1    0    0    0  501  0.00000000000E+00  0.00000000000E+00  0.37243424419E+03  0.37243424422E+03  0.50400001928E-02 0.  1.
        1   -1    0    0  501    0  0.00000000000E+00  0.00000000000E+00 -0.24348514510E+04  0.24348514510E+04  0.50400001928E-02 0. -1.
    10030    2    1    2    0    0  0.00000000000E+00  0.00000000000E+00 -0.20624172068E+04  0.28072856952E+04  0.19045441028E+04 0.  0.
        3    1    3    3  502    0  0.55880207006E+03  0.14449935376E+02  0.10515676398E+03  0.56879390762E+03  0.10100000352E+00 0.  1.
       -3    1    3    3    0  502 -0.55880207006E+03 -0.14449935376E+02 -0.21675739708E+04  0.22384917876E+04  0.10100000352E+00 0. -1.
</event>
<event>
 5   0  0.3144958E-05  0.1894776E+04  0.7818609E-02  0.8657461E-01
        1   -1    0    0  501    0  0.00000000000E+00  0.00000000000E+00  0.10306706738E+04  0.10306706738E+04  0.50400001928E-02 0. -1.
       -1   -1    0    0    0  501  0.00000000000E+00  0.00000000000E+00 -0.87083455389E+03  0.87083455391E+03  0.50400001928E-02 0.  1.
    10030    2    1    2    0    0  0.00000000000E+00  0.00000000000E+00  0.15983611993E+03  0.19015052277E+04  0.18947755925E+04 0.  0.
        4    1    3    3  502    0  0.54286900162E+03 -0.59564580759E+03  0.57972442053E+03  0.99276517751E+03  0.12699999809E+01 0. -1.
       -4    1    3    3    0  502 -0.54286900162E+03  0.59564580759E+03 -0.41988830059E+03  0.90874005023E+03  0.12699999809E+01 0.  1.
</event>
<event>
 5   0  0.3086139E-05  0.1896881E+04  0.7818609E-02  0.8656410E-01
       -1   -1    0    0    0  501  0.00000000000E+00  0.00000000000E+00  0.43011272126E+03  0.43011272129E+03  0.50400001928E-02 0.  1.
        1   -1    0    0  501    0  0.00000000000E+00  0.00000000000E+00 -0.20914040822E+04  0.20914040822E+04  0.50400001928E-02 0. -1.
    10030    2    1    2    0    0  0.00000000000E+00  0.00000000000E+00 -0.16612913609E+04  0.25215168034E+04  0.18968811255E+04 0.  0.
        2    1    3    3  502    0 -0.46432437737E+02 -0.90417222329E+03 -0.45500220050E+03  0.10132671825E+04  0.25500000920E-02 0.  1.
       -2    1    3    3    0  502  0.46432437737E+02  0.90417222329E+03 -0.12062891604E+04  0.15082496210E+04  0.25500000920E-02 0. -1.
</event>
<event>
 5   0  0.6361762E-05  0.1891779E+04  0.7818609E-02  0.8658959E-01
       -2   -1    0    0    0  501  0.00000000000E+00  0.00000000000E+00  0.41707206481E+03  0.41707206482E+03  0.25500000920E-02 0.  1.
        2   -1    0    0  501    0  0.00000000000E+00  0.00000000000E+00 -0.21452090164E+04  0.21452090164E+04  0.25500000920E-02 0. -1.
    10030    2    1    2    0    0  0.00000000000E+00  0.00000000000E+00 -0.17281369516E+04  0.25622810812E+04  0.18917787967E+04 0.  0.
        1    1    3    3  502    0 -0.57235749907E+03 -0.63337710273E+03 -0.14158170769E+04  0.16532687792E+04  0.50400001928E-02 0. -1.
       -1    1    3    3    0  502  0.57235749907E+03  0.63337710273E+03 -0.31231987462E+03  0.90901230196E+03  0.50400001928E-02 0.  1.
</event>
<event>
 5   0  0.3083469E-05  0.1900318E+04  0.7818609E-02  0.8654698E-01
        1   -1    0    0  501    0  0.00000000000E+00  0.00000000000E+00  0.83674693438E+03  0.83674693440E+03  0.50400001928E-02 0.  1.
       -1   -1    0    0    0  501  0.00000000000E+00  0.00000000000E+00 -0.10789427516E+04  0.10789427516E+04  0.50400001928E-02 0. -1.
    10030    2    1    2    0    0  0.00000000000E+00  0.00000000000E+00 -0.24219581722E+03  0.19156896860E+04  0.19003179100E+04 0.  0.
        3    1    3    3  502    0 -0.89410190737E+03 -0.31669680944E+03 -0.17710757353E+03  0.96492600373E+03  0.10100000352E+00 0. -1.
       -3    1    3    3    0  502  0.89410190737E+03  0.31669680944E+03 -0.65088243692E+02  0.95076368228E+03  0.10100000352E+00 0.  1.
</event>
<event>
 5   0  0.6361762E-05  0.1898265E+04  0.7818609E-02  0.8655720E-01
       -2   -1    0    0    0  501  0.00000000000E+00  0.00000000000E+00  0.69454000815E+03  0.69454000815E+03  0.25500000920E-02 0. -1.
        2   -1    0    0  501    0  0.00000000000E+00  0.00000000000E+00 -0.12970494563E+04  0.12970494563E+04  0.25500000920E-02 0.  1.
    10030    2    1    2    0    0  0.00000000000E+00  0.00000000000E+00 -0.60250944816E+03  0.19915894645E+04  0.18982652501E+04 0.  0.
        1    1    3    3  502    0 -0.20029580012E+03 -0.22321797475E+03 -0.12460304650E+04  0.12816148375E+04  0.50400001928E-02 0.  1.
       -1    1    3    3    0  502  0.20029580012E+03  0.22321797475E+03  0.64352101687E+03  0.70997462700E+03  0.50400001928E-02 0. -1.
</event>
<event>
 5   0  0.6423388E-05  0.1905054E+04  0.7818609E-02  0.8652345E-01
       -2   -1    0    0    0  501  0.00000000000E+00  0.00000000000E+00  0.10391262466E+04  0.10391262466E+04  0.25500000920E-02 0. -1.
        2   -1    0    0  501    0  0.00000000000E+00  0.00000000000E+00 -0.87314476288E+03  0.87314476289E+03  0.25500000920E-02 0.  1.
    10030    2    1    2    0    0  0.00000000000E+00  0.00000000000E+00  0.16598148376E+03  0.19122710095E+04  0.19050539522E+04 0.  0.
        2    1    3    3  502    0 -0.63667357115E+03  0.17594573436E+03 -0.60590176921E+03  0.89634094606E+03  0.25500000920E-02 0.  1.
       -2    1    3    3    0  502  0.63667357115E+03 -0.17594573436E+03  0.77188325297E+03  0.10159300635E+04  0.25500000920E-02 0. -1.
</event>
<event>
 5   0  0.6395992E-05  0.1903829E+04  0.7818609E-02  0.8652953E-01
       -2   -1    0    0    0  501  0.00000000000E+00  0.00000000000E+00  0.67817077664E+03  0.67817077664E+03  0.25500000920E-02 0. -1.
        2   -1    0    0  501    0  0.00000000000E+00  0.00000000000E+00 -0.13361544381E+04  0.13361544381E+04  0.25500000920E-02 0.  1.
    10030    2    1    2    0    0  0.00000000000E+00  0.00000000000E+00 -0.65798366147E+03  0.20143252148E+04  0.19038286614E+04 0.  0.
        4    1    3    3  502    0 -0.65690654974E+03  0.19166587768E+03  0.37113693660E+03  0.77846404050E+03  0.12699999809E+01 0. -1.
       -4    1    3    3    0  502  0.65690654974E+03 -0.19166587768E+03 -0.10291205981E+04  0.12358611742E+04  0.12699999809E+01 0.  1.
</event>
<event>
 5   0  0.3144958E-05  0.1964459E+04  0.7818609E-02  0.8623420E-01
       -1   -1    0    0    0  501  0.00000000000E+00  0.00000000000E+00  0.62224442481E+03  0.62224442483E+03  0.50400001928E-02 0. -1.
        1   -1    0    0  501    0  0.00000000000E+00  0.00000000000E+00 -0.15504748753E+04  0.15504748753E+04  0.50400001928E-02 0.  1.
    10030    2    1    2    0    0  0.00000000000E+00  0.00000000000E+00 -0.92823045051E+03  0.21727193001E+04  0.19644585483E+04 0.  0.
        4    1    3    3  502    0  0.69136671565E+03  0.68750916114E+03 -0.33270903076E+03  0.10302202164E+04  0.12699999809E+01 0. -1.
       -4    1    3    3    0  502 -0.69136671565E+03 -0.68750916114E+03 -0.59552141974E+03  0.11424990838E+04  0.12699999809E+01 0.  1.
</event>
<event>
 5   0  0.3203527E-05  0.1898015E+04  0.7818609E-02  0.8655845E-01
        1   -1    0    0  501    0  0.00000000000E+00  0.00000000000E+00  0.11996049408E+04  0.11996049408E+04  0.50400001928E-02 0. -1.
       -1   -1    0    0    0  501  0.00000000000E+00  0.00000000000E+00 -0.75075949766E+03  0.75075949768E+03  0.50400001928E-02 0.  1.
    10030    2    1    2    0    0  0.00000000000E+00  0.00000000000E+00  0.44884544315E+03  0.19503644385E+04  0.18980145445E+04 0.  0.
        1    1    3    3  502    0  0.32990514318E+03  0.84949841151E+03 -0.47701802659E+02  0.91255707584E+03  0.50400001928E-02 0.  1.
       -1    1    3    3    0  502 -0.32990514318E+03 -0.84949841151E+03  0.49654724581E+03  0.10378073627E+04  0.50400001928E-02 0. -1.
</event>
<event>
 5   0  0.6395992E-05  0.1904945E+04  0.7818609E-02  0.8652399E-01
       -2   -1    0    0    0  501  0.00000000000E+00  0.00000000000E+00  0.39357535256E+03  0.39357535257E+03  0.25500000920E-02 0. -1.
        2   -1    0    0  501    0  0.00000000000E+00  0.00000000000E+00 -0.23050329361E+04  0.23050329361E+04  0.25500000920E-02 0.  1.
    10030    2    1    2    0    0  0.00000000000E+00  0.00000000000E+00 -0.19114575835E+04  0.26986082886E+04  0.19049453016E+04 0.  0.
        4    1    3    3  502    0 -0.31701382117E+03 -0.29666937864E+03  0.24523181411E+03  0.49864891316E+03  0.12699999809E+01 0. -1.
       -4    1    3    3    0  502  0.31701382117E+03  0.29666937864E+03 -0.21566893976E+04  0.21999593755E+04  0.12699999809E+01 0.  1.
</event>
<event>
 5   0  0.6098377E-05  0.1902320E+04  0.7818609E-02  0.8653703E-01
       -2   -1    0    0    0  501  0.00000000000E+00  0.00000000000E+00  0.37351822414E+03  0.37351822415E+03  0.25500000920E-02 0. -1.
        2   -1    0    0  501    0  0.00000000000E+00  0.00000000000E+00 -0.24221179394E+04  0.24221179394E+04  0.25500000920E-02 0.  1.
    10030    2    1    2    0    0  0.00000000000E+00  0.00000000000E+00 -0.20485997152E+04  0.27956361635E+04  0.19023198379E+04 0.  0.
        5    1    3    3  502    0 -0.12114217733E+03 -0.63982347720E+03 -0.54641125908E+01  0.65123072381E+03  0.46999998093E+01 0. -1.
       -5    1    3    3    0  502  0.12114217733E+03  0.63982347720E+03 -0.20431356026E+04  0.21444054397E+04  0.46999998093E+01 0.  1.
</event>
<event>
 5   0  0.3086139E-05  0.1908904E+04  0.7818609E-02  0.8650437E-01
        1   -1    0    0  501    0  0.00000000000E+00  0.00000000000E+00  0.12851031127E+04  0.12851031127E+04  0.50400001928E-02 0. -1.
       -1   -1    0    0    0  501  0.00000000000E+00  0.00000000000E+00 -0.70887562430E+03  0.70887562431E+03  0.50400001928E-02 0.  1.
    10030    2    1    2    0    0  0.00000000000E+00  0.00000000000E+00  0.57622748840E+03  0.19939787370E+04  0.19089036344E+04 0.  0.
        2    1    3    3  502    0  0.78812892769E+03  0.15848224097E+03  0.82554799110E+03  0.11522991421E+04  0.25500000920E-02 0. -1.
       -2    1    3    3    0  502 -0.78812892769E+03 -0.15848224097E+03 -0.24932050269E+03  0.84167959488E+03  0.25500000920E-02 0.  1.
</event>
<event>
 5   0  0.3083469E-05  0.1896039E+04  0.7818609E-02  0.8656830E-01
       -1   -1    0    0    0  501  0.00000000000E+00  0.00000000000E+00  0.60766824158E+03  0.60766824160E+03  0.50400001928E-02 0. -1.
        1   -1    0    0  501    0  0.00000000000E+00  0.00000000000E+00 -0.14789995356E+04  0.14789995356E+04  0.50400001928E-02 0.  1.
    10030    2    1    2    0    0  0.00000000000E+00  0.00000000000E+00 -0.87133129398E+03  0.20866677772E+04  0.18960390788E+04 0.  0.
        3    1    3    3  502    0 -0.37248211636E+03  0.76378048630E+03  0.26872390971E+02  0.85019156304E+03  0.10100000352E+00 0.  1.
       -3    1    3    3    0  502  0.37248211636E+03 -0.76378048630E+03 -0.89820368495E+03  0.12364762141E+04  0.10100000352E+00 0. -1.
</event>
<event>
 5   0  0.6423388E-05  0.1896829E+04  0.7818609E-02  0.8656436E-01
       -2   -1    0    0    0  501  0.00000000000E+00  0.00000000000E+00  0.38756451448E+03  0.38756451448E+03  0.25500000920E-02 0.  1.
        2   -1    0    0  501    0  0.00000000000E+00  0.00000000000E+00 -0.23208778835E+04  0.23208778835E+04  0.25500000920E-02 0. -1.
    10030    2    1    2    0    0  0.00000000000E+00  0.00000000000E+00 -0.19333133690E+04  0.27084423980E+04  0.18968288379E+04 0.  0.
        2    1    3    3  502    0 -0.93559546539E+02  0.62461278296E+03 -0.19769206997E+04  0.20753577933E+04  0.25500000920E-02 0. -1.
       -2    1    3    3    0  502  0.93559546539E+02 -0.62461278296E+03  0.43607330659E+02  0.63308460468E+03  0.25500000920E-02 0.  1.
</event>
<event>
 5   0  0.6395992E-05  0.1914611E+04  0.7818609E-02  0.8647618E-01
       -2   -1    0    0    0  501  0.00000000000E+00  0.00000000000E+00  0.12160092872E+04  0.12160092872E+04  0.25500000920E-02 0. -1.
        2   -1    0    0  501    0  0.00000000000E+00  0.00000000000E+00 -0.75364030810E+03  0.75364030810E+03  0.25500000920E-02 0.  1.
    10030    2    1    2    0    0  0.00000000000E+00  0.00000000000E+00  0.46236897908E+03  0.19696495953E+04  0.19146107843E+04 0.  0.
        4    1    3    3  502    0 -0.83162333646E+03  0.46380410177E+03  0.33261068725E+03  0.10086342750E+04  0.12699999809E+01 0.  1.
       -4    1    3    3    0  502  0.83162333646E+03 -0.46380410177E+03  0.12975829183E+03  0.96101532026E+03  0.12699999809E+01 0. -1.
</event>
<event>
 5   0  0.3203527E-05  0.1896802E+04  0.7818609E-02  0.8656450E-01
        1   -1    0    0  501    0  0.00000000000E+00  0.00000000000E+00  0.11603067280E+04  0.11603067280E+04  0.50400001928E-02 0.  1.
       -1   -1    0    0    0  501  0.00000000000E+00  0.00000000000E+00 -0.77519569858E+03  0.77519569860E+03  0.50400001928E-02 0. -1.
    10030    2    1    2    0    0  0.00000000000E+00  0.00000000000E+00  0.38511102939E+03  0.19355024266E+04  0.18968023456E+04 0.  0.
        1    1    3    3  502    0 -0.48652548199E+03 -0.96949481095E+02  0.10173531887E+04  0.11318629586E+04  0.50400001928E-02 0.  1.
       -1    1    3    3    0  502  0.48652548199E+03  0.96949481095E+02 -0.63224215928E+03  0.80363946799E+03  0.50400001928E-02 0. -1.
</event>
<event>
 5   0  0.3203527E-05  0.1895510E+04  0.7818609E-02  0.8657095E-01
        1   -1    0    0  501    0  0.00000000000E+00  0.00000000000E+00  0.82085836897E+03  0.82085836899E+03  0.50400001928E-02 0. -1.
       -1   -1    0    0    0  501  0.00000000000E+00  0.00000000000E+00 -0.10942685308E+04  0.10942685308E+04  0.50400001928E-02 0.  1.
    10030    2    1    2    0    0  0.00000000000E+00  0.00000000000E+00 -0.27341016186E+03  0.19151268998E+04  0.18955099382E+04 0.  0.
        1    1    3    3  502    0  0.91495514069E+03 -0.23829067076E+03 -0.70343302905E+02  0.94808941220E+03  0.50400001928E-02 0.  1.
       -1    1    3    3    0  502 -0.91495514069E+03  0.23829067076E+03 -0.20306685896E+03  0.96703748763E+03  0.50400001928E-02 0. -1.
</event>
<event>
 5   0  0.6452182E-05  0.1898931E+04  0.7818609E-02  0.8655389E-01
        2   -1    0    0  501    0  0.00000000000E+00  0.00000000000E+00  0.14130522907E+04  0.14130522907E+04  0.25500000920E-02 0.  1.
       -2   -1    0    0    0  501  0.00000000000E+00  0.00000000000E+00 -0.63796954349E+03  0.63796954349E+03  0.25500000920E-02 0. -1.
    10030    2    1    2    0    0  0.00000000000E+00  0.00000000000E+00  0.77508274716E+03  0.20510218341E+04  0.18989305672E+04 0.  0.
        3    1    3    3  502    0 -0.54311635809E+03  0.46621588390E+02 -0.45211231945E+03  0.70820513309E+03  0.10100000352E+00 0. -1.
       -3    1    3    3    0  502  0.54311635809E+03 -0.46621588390E+02  0.12271950666E+04  0.13428167011E+04  0.10100000352E+00 0.  1.
</event>
<event>
 5   0  0.3144958E-05  0.1900073E+04  0.7818609E-02  0.8654820E-01
        1   -1    0    0  501    0  0.00000000000E+00  0.00000000000E+00  0.74497875767E+03  0.74497875769E+03  0.50400001928E-02 0.  1.
       -1   -1    0    0    0  501  0.00000000000E+00  0.00000000000E+00 -0.12115366211E+04  0.12115366211E+04  0.50400001928E-02 0. -1.
    10030    2    1    2    0    0  0.00000000000E+00  0.00000000000E+00 -0.46655786344E+03  0.19565153788E+04  0.19000726796E+04 0.  0.
        4    1    3    3  502    0 -0.11313752937E+03  0.94289257138E+03 -0.26092671340E+03  0.98485068126E+03  0.12699999809E+01 0. -1.
       -4    1    3    3    0  502  0.11313752937E+03 -0.94289257138E+03 -0.20563115004E+03  0.97166469756E+03  0.12699999809E+01 0.  1.
</event>
<event>
 5   0  0.3083469E-05  0.1890357E+04  0.7818609E-02  0.8659671E-01
        1   -1    0    0  501    0  0.00000000000E+00  0.00000000000E+00  0.14853072698E+04  0.14853072698E+04  0.50400001928E-02 0.  1.
       -1   -1    0    0    0  501  0.00000000000E+00  0.00000000000E+00 -0.60146618345E+03  0.60146618347E+03  0.50400001928E-02 0. -1.
    10030    2    1    2    0    0  0.00000000000E+00  0.00000000000E+00  0.88384108633E+03  0.20867734533E+04  0.18903566804E+04 0.  0.
        3    1    3    3  502    0  0.13222753571E+03 -0.91472021332E+03  0.66038461742E+03  0.11359159489E+04  0.10100000352E+00 0.  1.
       -3    1    3    3    0  502 -0.13222753571E+03  0.91472021332E+03  0.22345646891E+03  0.95085750434E+03  0.10100000352E+00 0. -1.
</event>
<event>
 5   0  0.3203527E-05  0.1878221E+04  0.7818609E-02  0.8665774E-01
        1   -1    0    0  501    0  0.00000000000E+00  0.00000000000E+00  0.93385941819E+03  0.93385941820E+03  0.50400001928E-02 0.  1.
       -1   -1    0    0    0  501  0.00000000000E+00  0.00000000000E+00 -0.94439091217E+03  0.94439091218E+03  0.50400001928E-02 0. -1.
    10030    2    1    2    0    0  0.00000000000E+00  0.00000000000E+00 -0.10531493982E+02  0.18782503304E+04  0.18782208047E+04 0.  0.
        1    1    3    3  502    0 -0.74551199841E+03  0.13595380471E+03 -0.55994262934E+03  0.94223528111E+03  0.50400001928E-02 0. -1.
       -1    1    3    3    0  502  0.74551199841E+03 -0.13595380471E+03  0.54941113536E+03  0.93601504928E+03  0.50400001928E-02 0.  1.
</event>
<event>
 5   0  0.3083469E-05  0.1910123E+04  0.7818609E-02  0.8649834E-01
       -1   -1    0    0    0  501  0.00000000000E+00  0.00000000000E+00  0.88935769449E+03  0.88935769450E+03  0.50400001928E-02 0.  1.
        1   -1    0    0  501    0  0.00000000000E+00  0.00000000000E+00 -0.10256198384E+04  0.10256198384E+04  0.50400001928E-02 0. -1.
    10030    2    1    2    0    0  0.00000000000E+00  0.00000000000E+00 -0.13626214390E+03  0.19149775329E+04  0.19101234462E+04 0.  0.
        3    1    3    3  502    0  0.91770432647E+03 -0.16980898769E+03  0.13518113209E+03  0.94302188299E+03  0.10100000352E+00 0.  1.
       -3    1    3    3    0  502 -0.91770432647E+03  0.16980898769E+03 -0.27144327600E+03  0.97195564991E+03  0.10100000352E+00 0. -1.
</event>
<event>
 5   0  0.6098377E-05  0.1901562E+04  0.7818609E-02  0.8654079E-01
        2   -1    0    0  501    0  0.00000000000E+00  0.00000000000E+00  0.12973180436E+04  0.12973180436E+04  0.25500000920E-02 0.  1.
       -2   -1    0    0    0  501  0.00000000000E+00  0.00000000000E+00 -0.69681047057E+03  0.69681047057E+03  0.25500000920E-02 0. -1.
    10030    2    1    2    0    0  0.00000000000E+00  0.00000000000E+00  0.60050757305E+03  0.19941285142E+04  0.19015623013E+04 0.  0.
        5    1    3    3  502    0 -0.66260983192E+03  0.59223837310E+03  0.65458414599E+03  0.11037665397E+04  0.46999998093E+01 0.  1.
       -5    1    3    3    0  502  0.66260983192E+03 -0.59223837310E+03 -0.54076572932E+02  0.89036197452E+03  0.46999998093E+01 0. -1.
</event>
<event>
 5   0  0.3144958E-05  0.1881448E+04  0.7818609E-02  0.8664146E-01
       -1   -1    0    0    0  501  0.00000000000E+00  0.00000000000E+00  0.76179288112E+03  0.76179288114E+03  0.50400001928E-02 0.  1.
        1   -1    0    0  501    0  0.00000000000E+00  0.00000000000E+00 -0.11616826355E+04  0.11616826355E+04  0.50400001928E-02 0. -1.
    10030    2    1    2    0    0  0.00000000000E+00  0.00000000000E+00 -0.39988975441E+03  0.19234755167E+04  0.18814479125E+04 0.  0.
        4    1    3    3  502    0 -0.33528740271E+03  0.26406019123E+03 -0.10570119816E+04  0.11399216504E+04  0.12699999809E+01 0. -1.
       -4    1    3    3    0  502  0.33528740271E+03 -0.26406019123E+03  0.65712222716E+03  0.78355386626E+03  0.12699999809E+01 0.  1.
</event>
<event>
 5   0  0.3203527E-05  0.1914656E+04  0.7818609E-02  0.8647596E-01
        1   -1    0    0  501    0  0.00000000000E+00  0.00000000000E+00  0.11877181628E+04  0.11877181628E+04  0.50400001928E-02 0. -1.
       -1   -1    0    0    0  501  0.00000000000E+00  0.00000000000E+00 -0.77162797670E+03  0.77162797672E+03  0.50400001928E-02 0.  1.
    10030    2    1    2    0    0  0.00000000000E+00  0.00000000000E+00  0.41609018610E+03  0.19593461395E+04  0.19146556483E+04 0.  0.
        1    1    3    3  502    0 -0.30797269867E+02 -0.47073270116E+03  0.10605189680E+04  0.11607059185E+04  0.50400001928E-02 0.  1.
       -1    1    3    3    0  502  0.30797269867E+02  0.47073270116E+03 -0.64442878186E+03  0.79864022105E+03  0.50400001928E-02 0. -1.
</event>
<event>
 5   0  0.3083469E-05  0.1892984E+04  0.7818609E-02  0.8658357E-01
        1   -1    0    0  501    0  0.00000000000E+00  0.00000000000E+00  0.10662856223E+04  0.10662856223E+04  0.50400001928E-02 0.  1.
       -1   -1    0    0    0  501  0.00000000000E+00  0.00000000000E+00 -0.84015637589E+03  0.84015637590E+03  0.50400001928E-02 0. -1.
    10030    2    1    2    0    0  0.00000000000E+00  0.00000000000E+00  0.22612924641E+03  0.19064419982E+04  0.18929835331E+04 0.  0.
        3    1    3    3  502    0 -0.34481134299E+03 -0.11452912359E+03  0.99325476763E+03  0.10576231966E+04  0.10100000352E+00 0.  1.
       -3    1    3    3    0  502  0.34481134299E+03  0.11452912359E+03 -0.76712552123E+03  0.84881880158E+03  0.10100000352E+00 0. -1.
</event>
<event>
 5   0  0.6098377E-05  0.1922612E+04  0.7818609E-02  0.8643682E-01
       -2   -1    0    0    0  501  0.00000000000E+00  0.00000000000E+00  0.46044136015E+03  0.46044136016E+03  0.25500000920E-02 0. -1.
        2   -1    0    0  501    0  0.00000000000E+00  0.00000000000E+00 -0.20070069822E+04  0.20070069822E+04  0.25500000920E-02 0.  1.
    10030    2    1    2    0    0  0.00000000000E+00  0.00000000000E+00 -0.15465656221E+04  0.24674483424E+04  0.19226117910E+04 0.  0.
        5    1    3    3  502    0  0.57794027389E+03 -0.71649080332E+03 -0.41782285928E+03  0.10109263391E+04  0.46999998093E+01 0. -1.
       -5    1    3    3    0  502 -0.57794027389E+03  0.71649080332E+03 -0.11287427628E+04  0.14565220033E+04  0.46999998093E+01 0.  1.
</event>
<event>
 5   0  0.6395992E-05  0.1898651E+04  0.7818609E-02  0.8655528E-01
       -2   -1    0    0    0  501  0.00000000000E+00  0.00000000000E+00  0.71705869643E+03  0.71705869643E+03  0.25500000920E-02 0.  1.
        2   -1    0    0  501    0  0.00000000000E+00  0.00000000000E+00 -0.12568268769E+04  0.12568268769E+04  0.25500000920E-02 0. -1.
    10030    2    1    2    0    0  0.00000000000E+00  0.00000000000E+00 -0.53976818045E+03  0.19738855733E+04  0.18986507230E+04 0.  0.
        4    1    3    3  502    0  0.64858503619E+03  0.16986860383E+03 -0.96860143544E+03  0.11780102909E+04  0.12699999809E+01 0. -1.
       -4    1    3    3    0  502 -0.64858503619E+03 -0.16986860383E+03  0.42883325499E+03  0.79587528245E+03  0.12699999809E+01 0.  1.
</event>
<event>
 5   0  0.3147063E-05  0.1904375E+04  0.7818609E-02  0.8652682E-01
       -1   -1    0    0    0  501  0.00000000000E+00  0.00000000000E+00  0.69023278294E+03  0.69023278296E+03  0.50400001928E-02 0. -1.
        1   -1    0    0  501    0  0.00000000000E+00  0.00000000000E+00 -0.13135586922E+04  0.13135586922E+04  0.50400001928E-02 0.  1.
    10030    2    1    2    0    0  0.00000000000E+00  0.00000000000E+00 -0.62332590921E+03  0.20037914751E+04  0.19043752484E+04 0.  0.
        5    1    3    3  502    0  0.82220091421E+02 -0.22656205507E+03 -0.12809186817E+04  0.13034052583E+04  0.46999998093E+01 0.  1.
       -5    1    3    3    0  502 -0.82220091421E+02  0.22656205507E+03  0.65759277251E+03  0.70038621680E+03  0.46999998093E+01 0. -1.
</event>
<event>
 5   0  0.6395992E-05  0.1887399E+04  0.7818609E-02  0.8661154E-01
        2   -1    0    0  501    0  0.00000000000E+00  0.00000000000E+00  0.24246389466E+04  0.24246389466E+04  0.25500000920E-02 0. -1.
       -2   -1    0    0    0  501  0.00000000000E+00  0.00000000000E+00 -0.36729963155E+03  0.36729963156E+03  0.25500000920E-02 0.  1.
    10030    2    1    2    0    0  0.00000000000E+00  0.00000000000E+00  0.20573393151E+04  0.27919385782E+04  0.18873992601E+04 0.  0.
        4    1    3    3  502    0  0.58382869407E+03  0.43687805017E+03  0.19148007023E+04  0.20489464895E+04  0.12699999809E+01 0. -1.
       -4    1    3    3    0  502 -0.58382869407E+03 -0.43687805017E+03  0.14253861283E+03  0.74299208865E+03  0.12699999809E+01 0.  1.
</event>
<event>
 5   0  0.3083469E-05  0.1911789E+04  0.7818609E-02  0.8649010E-01
       -1   -1    0    0    0  501  0.00000000000E+00  0.00000000000E+00  0.78013942875E+03  0.78013942877E+03  0.50400001928E-02 0.  1.
        1   -1    0    0  501    0  0.00000000000E+00  0.00000000000E+00 -0.11712450634E+04  0.11712450634E+04  0.50400001928E-02 0. -1.
    10030    2    1    2    0    0  0.00000000000E+00  0.00000000000E+00 -0.39110563466E+03  0.19513844922E+04  0.19117891670E+04 0.  0.
        3    1    3    3  502    0  0.64902439044E+03 -0.12001530614E+03 -0.90131984835E+03  0.11171453855E+04  0.10100000352E+00 0. -1.
       -3    1    3    3    0  502 -0.64902439044E+03  0.12001530614E+03  0.51021421369E+03  0.83423910670E+03  0.10100000352E+00 0.  1.
</event>
<event>
 5   0  0.6423388E-05  0.1899002E+04  0.7818609E-02  0.8655353E-01
        2   -1    0    0  501    0  0.00000000000E+00  0.00000000000E+00  0.86990753829E+03  0.86990753829E+03  0.25500000920E-02 0. -1.
       -2   -1    0    0    0  501  0.00000000000E+00  0.00000000000E+00 -0.10363771404E+04  0.10363771404E+04  0.25500000920E-02 0.  1.
    10030    2    1    2    0    0  0.00000000000E+00  0.00000000000E+00 -0.16646960216E+03  0.19062846787E+04  0.18990021453E+04 0.  0.
        2    1    3    3  502    0  0.34020334794E+03 -0.11852854486E+03 -0.96510532826E+03  0.10301532063E+04  0.25500000920E-02 0.  1.
       -2    1    3    3    0  502 -0.34020334794E+03  0.11852854486E+03  0.79863572610E+03  0.87613147239E+03  0.25500000920E-02 0. -1.
</event>
<event>
 5   0  0.6361762E-05  0.1898485E+04  0.7818609E-02  0.8655611E-01
        2   -1    0    0  501    0  0.00000000000E+00  0.00000000000E+00  0.12089492193E+04  0.12089492193E+04  0.25500000920E-02 0. -1.
       -2   -1    0    0    0  501  0.00000000000E+00  0.00000000000E+00 -0.74532638387E+03  0.74532638387E+03  0.25500000920E-02 0.  1.
    10030    2    1    2    0    0  0.00000000000E+00  0.00000000000E+00  0.46362283547E+03  0.19542756032E+04  0.18984854489E+04 0.  0.
        1    1    3    3  502    0  0.52765688780E+03 -0.70926021265E+03  0.58779158770E+03  0.10615888051E+04  0.50400001928E-02 0. -1.
       -1    1    3    3    0  502 -0.52765688780E+03  0.70926021265E+03 -0.12416875223E+03  0.89268679813E+03  0.50400001928E-02 0.  1.
</event>
<event>
 5   0  0.3144958E-05  0.1889177E+04  0.7818609E-02  0.8660263E-01
       -1   -1    0    0    0  501  0.00000000000E+00  0.00000000000E+00  0.93932147310E+03  0.93932147311E+03  0.50400001928E-02 0.  1.
        1   -1    0    0  501    0  0.00000000000E+00  0.00000000000E+00 -0.94988485708E+03  0.94988485710E+03  0.50400001928E-02 0. -1.
    10030    2    1    2    0    0  0.00000000000E+00  0.00000000000E+00 -0.10563383986E+02  0.18892063302E+04  0.18891767977E+04 0.  0.
        4    1    3    3  502    0 -0.10817533873E+02 -0.90435890373E+03  0.26723602566E+03  0.94307939862E+03  0.12699999809E+01 0.  1.
       -4    1    3    3    0  502  0.10817533873E+02  0.90435890373E+03 -0.27779940965E+03  0.94612693159E+03  0.12699999809E+01 0. -1.
</event>
<event>
 5   0  0.6361762E-05  0.1898783E+04  0.7818609E-02  0.8655463E-01
        2   -1    0    0  501    0  0.00000000000E+00  0.00000000000E+00  0.21165707348E+04  0.21165707348E+04  0.25500000920E-02 0. -1.
       -2   -1    0    0    0  501  0.00000000000E+00  0.00000000000E+00 -0.42585102429E+03  0.42585102429E+03  0.25500000920E-02 0.  1.
    10030    2    1    2    0    0  0.00000000000E+00  0.00000000000E+00  0.16907197105E+04  0.25424217591E+04  0.18987825735E+04 0.  0.
        1    1    3    3  502    0 -0.64790693269E+03 -0.38136023346E+03  0.16216474288E+04  0.17874449374E+04  0.50400001928E-02 0.  1.
       -1    1    3    3    0  502  0.64790693269E+03  0.38136023346E+03  0.69072281725E+02  0.75497682164E+03  0.50400001928E-02 0. -1.
</event>
<event>
 5   0  0.3086139E-05  0.1898567E+04  0.7818609E-02  0.8655570E-01
       -1   -1    0    0    0  501  0.00000000000E+00  0.00000000000E+00  0.92089679712E+03  0.92089679714E+03  0.50400001928E-02 0.  1.
        1   -1    0    0  501    0  0.00000000000E+00  0.00000000000E+00 -0.97854536199E+03  0.97854536200E+03  0.50400001928E-02 0. -1.
    10030    2    1    2    0    0  0.00000000000E+00  0.00000000000E+00 -0.57648564863E+02  0.18994421591E+04  0.18985671331E+04 0.  0.
        2    1    3    3  502    0  0.67871136216E+03 -0.25783364625E+03  0.58302277514E+03  0.93115136181E+03  0.25500000920E-02 0.  1.
       -2    1    3    3    0  502 -0.67871136216E+03  0.25783364625E+03 -0.64067134001E+03  0.96829079732E+03  0.25500000920E-02 0. -1.
</event>
<event>
 5   0  0.6395992E-05  0.1901081E+04  0.7818609E-02  0.8654319E-01
        2   -1    0    0  501    0  0.00000000000E+00  0.00000000000E+00  0.10828323872E+04  0.10828323872E+04  0.25500000920E-02 0. -1.
       -2   -1    0    0    0  501  0.00000000000E+00  0.00000000000E+00 -0.83441074547E+03  0.83441074548E+03  0.25500000920E-02 0.  1.
    10030    2    1    2    0    0  0.00000000000E+00  0.00000000000E+00  0.24842164168E+03  0.19172431326E+04  0.19010807236E+04 0.  0.
        4    1    3    3  502    0 -0.41519650236E+03  0.30384186562E+03 -0.68184475140E+03  0.85417907536E+03  0.12699999809E+01 0.  1.
       -4    1    3    3    0  502  0.41519650236E+03 -0.30384186562E+03  0.93026639308E+03  0.10630640573E+04  0.12699999809E+01 0. -1.
</event>
<event>
 5   0  0.6452182E-05  0.1887420E+04  0.7818609E-02  0.8661144E-01
       -2   -1    0    0    0  501  0.00000000000E+00  0.00000000000E+00  0.98104495366E+03  0.98104495366E+03  0.25500000920E-02 0. -1.
        2   -1    0    0  501    0  0.00000000000E+00  0.00000000000E+00 -0.90779576858E+03  0.90779576858E+03  0.25500000920E-02 0.  1.
    10030    2    1    2    0    0  0.00000000000E+00  0.00000000000E+00  0.73249185082E+02  0.18888407222E+04  0.18874198873E+04 0.  0.
        3    1    3    3  502    0 -0.54634954777E+03 -0.27035894015E+03 -0.68433195958E+03  0.91646168822E+03  0.10100000352E+00 0.  1.
       -3    1    3    3    0  502  0.54634954777E+03  0.27035894015E+03  0.75758114466E+03  0.97237903403E+03  0.10100000352E+00 0. -1.
</event>
<event>
 5   0  0.3086139E-05  0.1899146E+04  0.7818609E-02  0.8655282E-01
        1   -1    0    0  501    0  0.00000000000E+00  0.00000000000E+00  0.76656351208E+03  0.76656351210E+03  0.50400001928E-02 0. -1.
       -1   -1    0    0    0  501  0.00000000000E+00  0.00000000000E+00 -0.11762736325E+04  0.11762736325E+04  0.50400001928E-02 0.  1.
    10030    2    1    2    0    0  0.00000000000E+00  0.00000000000E+00 -0.40971012041E+03  0.19428371446E+04  0.18991455415E+04 0.  0.
        2    1    3    3  502    0  0.38747995755E+03 -0.37744614065E+02  0.68116674881E+03  0.78457218475E+03  0.25500000920E-02 0. -1.
       -2    1    3    3    0  502 -0.38747995755E+03  0.37744614065E+02 -0.10908768692E+04  0.11582649598E+04  0.25500000920E-02 0.  1.
</event>
<event>
 5   0  0.3144958E-05  0.1899450E+04  0.7818609E-02  0.8655130E-01
       -1   -1    0    0    0  501  0.00000000000E+00  0.00000000000E+00  0.56081767792E+03  0.56081767794E+03  0.50400001928E-02 0.  1.
        1   -1    0    0  501    0  0.00000000000E+00  0.00000000000E+00 -0.16083264290E+04  0.16083264290E+04  0.50400001928E-02 0. -1.
    10030    2    1    2    0    0  0.00000000000E+00  0.00000000000E+00 -0.10475087511E+04  0.21691441070E+04  0.18994503345E+04 0.  0.
        4    1    3    3  502    0  0.40893907102E+03 -0.61423498031E+03 -0.12065244777E+04  0.14142908834E+04  0.12699999809E+01 0. -1.
       -4    1    3    3    0  502 -0.40893907102E+03  0.61423498031E+03  0.15901572660E+03  0.75485322351E+03  0.12699999809E+01 0.  1.
</event>
<event>
 5   0  0.3083469E-05  0.1910593E+04  0.7818609E-02  0.8649602E-01
        1   -1    0    0  501    0  0.00000000000E+00  0.00000000000E+00  0.13638052820E+04  0.13638052820E+04  0.50400001928E-02 0.  1.
       -1   -1    0    0    0  501  0.00000000000E+00  0.00000000000E+00 -0.66915063047E+03  0.66915063049E+03  0.50400001928E-02 0. -1.
    10030    2    1    2    0    0  0.00000000000E+00  0.00000000000E+00  0.69465465149E+03  0.20329559125E+04  0.19105927502E+04 0.  0.
        3    1    3    3  502    0  0.22852992725E+03  0.74367191397E+03  0.93719330269E+03  0.12180333083E+04  0.10100000352E+00 0.  1.
       -3    1    3    3    0  502 -0.22852992725E+03 -0.74367191397E+03 -0.24253865120E+03  0.81492260418E+03  0.10100000352E+00 0. -1.
</event>
<event>
 5   0  0.3083469E-05  0.1886602E+04  0.7818609E-02  0.8661554E-01
       -1   -1    0    0    0  501  0.00000000000E+00  0.00000000000E+00  0.10886798994E+04  0.10886798995E+04  0.50400001928E-02 0.  1.
        1   -1    0    0  501    0  0.00000000000E+00  0.00000000000E+00 -0.81733528064E+03  0.81733528066E+03  0.50400001928E-02 0. -1.
    10030    2    1    2    0    0  0.00000000000E+00  0.00000000000E+00  0.27134461880E+03  0.19060151801E+04  0.18866016974E+04 0.  0.
        3    1    3    3  502    0  0.82380070876E+03  0.26451693071E+03  0.51530444665E+03  0.10070528771E+04  0.10100000352E+00 0.  1.
       -3    1    3    3    0  502 -0.82380070876E+03 -0.26451693071E+03 -0.24395982785E+03  0.89896230299E+03  0.10100000352E+00 0. -1.
</event>
<event>
 5   0  0.6452182E-05  0.1900731E+04  0.7818609E-02  0.8654493E-01
       -2   -1    0    0    0  501  0.00000000000E+00  0.00000000000E+00  0.11264433581E+04  0.11264433581E+04  0.25500000920E-02 0.  1.
        2   -1    0    0  501    0  0.00000000000E+00  0.00000000000E+00 -0.80181079467E+03  0.80181079468E+03  0.25500000920E-02 0. -1.
    10030    2    1    2    0    0  0.00000000000E+00  0.00000000000E+00  0.32463256347E+03  0.19282541528E+04  0.19007308533E+04 0.  0.
        3    1    3    3  502    0  0.54446795372E+03 -0.67917798798E+02  0.94952707353E+03  0.10966584945E+04  0.10100000352E+00 0.  1.
       -3    1    3    3    0  502 -0.54446795372E+03  0.67917798798E+02 -0.62489451006E+03  0.83159565831E+03  0.10100000352E+00 0. -1.
</event>
<event>
 5   0  0.6098377E-05  0.1917600E+04  0.7818609E-02  0.8646145E-01
       -2   -1    0    0    0  501  0.00000000000E+00  0.00000000000E+00  0.94306887920E+03  0.94306887920E+03  0.25500000920E-02 0.  1.
        2   -1    0    0  501    0  0.00000000000E+00  0.00000000000E+00 -0.97479392451E+03  0.97479392451E+03  0.25500000920E-02 0. -1.
    10030    2    1    2    0    0  0.00000000000E+00  0.00000000000E+00 -0.31725045308E+02  0.19178628037E+04  0.19176003899E+04 0.  0.
        5    1    3    3  502    0  0.75332417200E+03 -0.83003858351E+02 -0.60321520564E+03  0.96864731607E+03  0.46999998093E+01 0. -1.
       -5    1    3    3    0  502 -0.75332417200E+03  0.83003858351E+02  0.57149016033E+03  0.94921548764E+03  0.46999998093E+01 0.  1.
</event>
<event>
 5   0  0.6423388E-05  0.1893915E+04  0.7818609E-02  0.8657891E-01
       -2   -1    0    0    0  501  0.00000000000E+00  0.00000000000E+00  0.46902887925E+03  0.46902887926E+03  0.25500000920E-02 0.  1.
        2   -1    0    0  501    0  0.00000000000E+00  0.00000000000E+00 -0.19118827363E+04  0.19118827363E+04  0.25500000920E-02 0. -1.
    10030    2    1    2    0    0  0.00000000000E+00  0.00000000000E+00 -0.14428538570E+04  0.23809116156E+04  0.18939146940E+04 0.  0.
        2    1    3    3  502    0  0.69904367283E+03  0.59569577629E+03 -0.10114219344E+04  0.13661953900E+04  0.25500000920E-02 0. -1.
       -2    1    3    3    0  502 -0.69904367283E+03 -0.59569577629E+03 -0.43143192267E+03  0.10147162255E+04  0.25500000920E-02 0.  1.
</event>
<event>
 5   0  0.3203527E-05  0.1901522E+04  0.7818609E-02  0.8654099E-01
        1   -1    0    0  501    0  0.00000000000E+00  0.00000000000E+00  0.66014452715E+03  0.66014452717E+03  0.50400001928E-02 0. -1.
       -1   -1    0    0    0  501  0.00000000000E+00  0.00000000000E+00 -0.13693167148E+04  0.13693167148E+04  0.50400001928E-02 0.  1.
    10030    2    1    2    0    0  0.00000000000E+00  0.00000000000E+00 -0.70917218763E+03  0.20294612420E+04  0.19015224797E+04 0.  0.
        1    1    3    3  502    0  0.92842750588E+03  0.99271910319E+02 -0.16332390046E+03  0.94789621918E+03  0.50400001928E-02 0.  1.
       -1    1    3    3    0  502 -0.92842750588E+03 -0.99271910319E+02 -0.54584828717E+03  0.10815650228E+04  0.50400001928E-02 0. -1.
</event>
<event>
 5   0  0.6423388E-05  0.1910230E+04  0.7818609E-02  0.8649781E-01
        2   -1    0    0  501    0  0.00000000000E+00  0.00000000000E+00  0.72849080326E+03  0.72849080326E+03  0.25500000920E-02 0.  1.
       -2   -1    0    0    0  501  0.00000000000E+00  0.00000000000E+00 -0.12522392984E+04  0.12522392984E+04  0.25500000920E-02 0. -1.
    10030    2    1    2    0    0  0.00000000000E+00  0.00000000000E+00 -0.52374849515E+03  0.19807301017E+04  0.19102301562E+04 0.  0.
        2    1    3    3  502    0  0.23517382474E+03 -0.79540162865E+03  0.22917990998E+03  0.86051955809E+03  0.25500000920E-02 0.  1.
       -2    1    3    3    0  502 -0.23517382474E+03  0.79540162865E+03 -0.75292840513E+03  0.11202105436E+04  0.25500000920E-02 0. -1.
</event>
<event>
 5   0  0.3203527E-05  0.1902680E+04  0.7818609E-02  0.8653524E-01
        1   -1    0    0  501    0  0.00000000000E+00  0.00000000000E+00  0.15637838658E+04  0.15637838658E+04  0.50400001928E-02 0.  1.
       -1   -1    0    0    0  501  0.00000000000E+00  0.00000000000E+00 -0.57875489771E+03  0.57875489773E+03  0.50400001928E-02 0. -1.
    10030    2    1    2    0    0  0.00000000000E+00  0.00000000000E+00  0.98502896805E+03  0.21425387635E+04  0.19026797642E+04 0.  0.
        1    1    3    3  502    0 -0.88661622732E+03  0.28350548245E+03  0.71370470751E+03  0.11729612537E+04  0.50400001928E-02 0.  1.
       -1    1    3    3    0  502  0.88661622732E+03 -0.28350548245E+03  0.27132426054E+03  0.96957750980E+03  0.50400001928E-02 0. -1.
</event>
<event>
 5   0  0.3147063E-05  0.1855395E+04  0.7818609E-02  0.8677383E-01
       -1   -1    0    0    0  501  0.00000000000E+00  0.00000000000E+00  0.63644026348E+03  0.63644026350E+03  0.50400001928E-02 0.  1.
        1   -1    0    0  501    0  0.00000000000E+00  0.00000000000E+00 -0.13522440840E+04  0.13522440840E+04  0.50400001928E-02 0. -1.
    10030    2    1    2    0    0  0.00000000000E+00  0.00000000000E+00 -0.71580382053E+03  0.19886843475E+04  0.18553949242E+04 0.  0.
        5    1    3    3  502    0  0.69500213066E+03  0.59660263273E+03 -0.20023653644E+03  0.93759235467E+03  0.46999998093E+01 0.  1.
       -5    1    3    3    0  502 -0.69500213066E+03 -0.59660263273E+03 -0.51556728409E+03  0.10510919928E+04  0.46999998093E+01 0. -1.
</event>
<event>
 5   0  0.6395992E-05  0.1882933E+04  0.7818609E-02  0.8663399E-01
        2   -1    0    0  501    0  0.00000000000E+00  0.00000000000E+00  0.11259688486E+04  0.11259688486E+04  0.25500000920E-02 0. -1.
       -2   -1    0    0    0  501  0.00000000000E+00  0.00000000000E+00 -0.78719669642E+03  0.78719669643E+03  0.25500000920E-02 0.  1.
    10030    2    1    2    0    0  0.00000000000E+00  0.00000000000E+00  0.33877215220E+03  0.19131655451E+04  0.18829327741E+04 0.  0.
        4    1    3    3  502    0  0.60438762278E+02 -0.83641446149E+03  0.60417664122E+03  0.10335729399E+04  0.12699999809E+01 0. -1.
       -4    1    3    3    0  502 -0.60438762278E+02  0.83641446149E+03 -0.26540448902E+03  0.87959260517E+03  0.12699999809E+01 0.  1.
</event>
<event>
 5   0  0.3083469E-05  0.1900920E+04  0.7818609E-02  0.8654399E-01
       -1   -1    0    0    0  501  0.00000000000E+00  0.00000000000E+00  0.88826055437E+03  0.88826055439E+03  0.50400001928E-02 0. -1.
        1   -1    0    0  501    0  0.00000000000E+00  0.00000000000E+00 -0.10170149980E+04  0.10170149980E+04  0.50400001928E-02 0.  1.
    10030    2    1    2    0    0  0.00000000000E+00  0.00000000000E+00 -0.12875444365E+03  0.19052755524E+04  0.19009200993E+04 0.  0.
        3    1    3    3  502    0  0.43143403916E+03 -0.17310174357E+03 -0.89529705843E+03  0.10087895602E+04  0.10100000352E+00 0.  1.
       -3    1    3    3    0  502 -0.43143403916E+03  0.17310174357E+03  0.76654261477E+03  0.89648599221E+03  0.10100000352E+00 0. -1.
</event>
<event>
 5   0  0.2279625E-05  0.1899914E+04  0.7818609E-02  0.8654899E-01
        3   -1    0    0  501    0  0.00000000000E+00  0.00000000000E+00  0.54479532025E+03  0.54479532961E+03  0.10100000352E+00 0. -1.
       -3   -1    0    0    0  501  0.00000000000E+00  0.00000000000E+00 -0.16564361055E+04  0.16564361086E+04  0.10100000352E+00 0.  1.
    10030    2    1    2    0    0  0.00000000000E+00  0.00000000000E+00 -0.11116407852E+04  0.22012314382E+04  0.18999143689E+04 0.  0.
        3    1    3    3  502    0 -0.75864047906E+03 -0.26858802715E+03 -0.11405881753E+04  0.13959284726E+04  0.10100000352E+00 0.  1.
       -3    1    3    3    0  502  0.75864047906E+03  0.26858802715E+03  0.28947390034E+02  0.80530296559E+03  0.10100000352E+00 0. -1.
</event>
<event>
 5   0  0.3203527E-05  0.1898187E+04  0.7818609E-02  0.8655759E-01
       -1   -1    0    0    0  501  0.00000000000E+00  0.00000000000E+00  0.18762708541E+04  0.18762708541E+04  0.50400001928E-02 0.  1.
        1   -1    0    0  501    0  0.00000000000E+00  0.00000000000E+00 -0.48008977521E+03  0.48008977524E+03  0.50400001928E-02 0. -1.
    10030    2    1    2    0    0  0.00000000000E+00  0.00000000000E+00  0.13961810789E+04  0.23563606294E+04  0.18981869799E+04 0.  0.
        1    1    3    3  502    0 -0.42422778308E+02  0.92576071649E+03  0.44384853725E+03  0.10275378924E+04  0.50400001928E-02 0. -1.
       -1    1    3    3    0  502  0.42422778308E+02 -0.92576071649E+03  0.95233254166E+03  0.13288227370E+04  0.50400001928E-02 0.  1.
</event>
<event>
 5   0  0.3086139E-05  0.1900551E+04  0.7818609E-02  0.8654582E-01
       -1   -1    0    0    0  501  0.00000000000E+00  0.00000000000E+00  0.10580574160E+04  0.10580574160E+04  0.50400001928E-02 0.  1.
        1   -1    0    0  501    0  0.00000000000E+00  0.00000000000E+00 -0.85347313291E+03  0.85347313292E+03  0.50400001928E-02 0. -1.
    10030    2    1    2    0    0  0.00000000000E+00  0.00000000000E+00  0.20458428309E+03  0.19115305489E+04  0.19005510545E+04 0.  0.
        2    1    3    3  502    0 -0.80055341272E+03 -0.48677198323E+02  0.61491127627E+03  0.10106290684E+04  0.25500000920E-02 0.  1.
       -2    1    3    3    0  502  0.80055341272E+03  0.48677198323E+02 -0.41032699318E+03  0.90090148051E+03  0.25500000920E-02 0. -1.
</event>
<event>
 5   0  0.3144958E-05  0.1897536E+04  0.7818609E-02  0.8656084E-01
        1   -1    0    0  501    0  0.00000000000E+00  0.00000000000E+00  0.66800747220E+03  0.66800747222E+03  0.50400001928E-02 0. -1.
       -1   -1    0    0    0  501  0.00000000000E+00  0.00000000000E+00 -0.13475311564E+04  0.13475311564E+04  0.50400001928E-02 0.  1.
    10030    2    1    2    0    0  0.00000000000E+00  0.00000000000E+00 -0.67952368418E+03  0.20155386286E+04  0.18975361725E+04 0.  0.
        4    1    3    3  502    0  0.86167874398E+03 -0.25643080975E+03 -0.17738196190E+02  0.89920146492E+03  0.12699999809E+01 0. -1.
       -4    1    3    3    0  502 -0.86167874398E+03  0.25643080975E+03 -0.66178548799E+03  0.11163371637E+04  0.12699999809E+01 0.  1.
</event>
<event>
 5   0  0.2279625E-05  0.1904303E+04  0.7818609E-02  0.8652717E-01
       -3   -1    0    0    0  501  0.00000000000E+00  0.00000000000E+00  0.67467343007E+03  0.67467343763E+03  0.10100000352E+00 0. -1.
        3   -1    0    0  501    0  0.00000000000E+00  0.00000000000E+00 -0.13437501363E+04  0.13437501401E+04  0.10100000352E+00 0.  1.
    10030    2    1    2    0    0  0.00000000000E+00  0.00000000000E+00 -0.66907670620E+03  0.20184235777E+04  0.19043030484E+04 0.  0.
        2    1    3    3  502    0  0.81483097765E+03 -0.37241200988E+03 -0.67627636994E+03  0.11224927420E+04  0.25500000920E-02 0.  1.
       -2    1    3    3    0  502 -0.81483097765E+03  0.37241200988E+03  0.71996637398E+01  0.89593083572E+03  0.25500000920E-02 0. -1.
</event>
<event>
 5   0  0.6361762E-05  0.1900208E+04  0.7818609E-02  0.8654753E-01
        2   -1    0    0  501    0  0.00000000000E+00  0.00000000000E+00  0.84743229200E+03  0.84743229200E+03  0.25500000920E-02 0.  1.
       -2   -1    0    0    0  501  0.00000000000E+00  0.00000000000E+00 -0.10652144998E+04  0.10652144998E+04  0.25500000920E-02 0. -1.
    10030    2    1    2    0    0  0.00000000000E+00  0.00000000000E+00 -0.21778220782E+03  0.19126467918E+04  0.19002075308E+04 0.  0.
        1    1    3    3  502    0 -0.40710376877E+03 -0.73669392009E+03 -0.55250946113E+03  0.10068356942E+04  0.50400001928E-02 0. -1.
       -1    1    3    3    0  502  0.40710376877E+03  0.73669392009E+03  0.33472725331E+03  0.90581109763E+03  0.50400001928E-02 0.  1.
</event>
<event>
 5   0  0.3086139E-05  0.1900009E+04  0.7818609E-02  0.8654852E-01
       -1   -1    0    0    0  501  0.00000000000E+00  0.00000000000E+00  0.59674445472E+03  0.59674445475E+03  0.50400001928E-02 0. -1.
        1   -1    0    0  501    0  0.00000000000E+00  0.00000000000E+00 -0.15123865115E+04  0.15123865115E+04  0.50400001928E-02 0.  1.
    10030    2    1    2    0    0  0.00000000000E+00  0.00000000000E+00 -0.91564205677E+03  0.21091309662E+04  0.19000086991E+04 0.  0.
        2    1    3    3  502    0 -0.56125849630E+03  0.74834003951E+03 -0.27379015300E+03  0.97467172027E+03  0.25500000920E-02 0. -1.
       -2    1    3    3    0  502  0.56125849630E+03 -0.74834003951E+03 -0.64185190376E+03  0.11344592460E+04  0.25500000920E-02 0.  1.
</event>
<event>
 5   0  0.6452182E-05  0.1896212E+04  0.7818609E-02  0.8656744E-01
       -2   -1    0    0    0  501  0.00000000000E+00  0.00000000000E+00  0.68773008387E+03  0.68773008387E+03  0.25500000920E-02 0. -1.
        2   -1    0    0  501    0  0.00000000000E+00  0.00000000000E+00 -0.13070602595E+04  0.13070602595E+04  0.25500000920E-02 0.  1.
    10030    2    1    2    0    0  0.00000000000E+00  0.00000000000E+00 -0.61933017563E+03  0.19947903434E+04  0.18962116569E+04 0.  0.
        3    1    3    3  502    0  0.86591881093E+03 -0.38310551996E+03 -0.36032922214E+03  0.10131250589E+04  0.10100000352E+00 0. -1.
       -3    1    3    3    0  502 -0.86591881093E+03  0.38310551996E+03 -0.25900095350E+03  0.98166528443E+03  0.10100000352E+00 0.  1.
</event>
<event>
 5   0  0.3144958E-05  0.1895848E+04  0.7818609E-02  0.8656926E-01
        1   -1    0    0  501    0  0.00000000000E+00  0.00000000000E+00  0.81437113525E+03  0.81437113527E+03  0.50400001928E-02 0. -1.
       -1   -1    0    0    0  501  0.00000000000E+00  0.00000000000E+00 -0.11033784913E+04  0.11033784914E+04  0.50400001928E-02 0.  1.
    10030    2    1    2    0    0  0.00000000000E+00  0.00000000000E+00 -0.28900735609E+03  0.19177496266E+04  0.18958476675E+04 0.  0.
        4    1    3    3  502    0 -0.18900906569E+02 -0.12158640418E+03  0.80625755093E+03  0.81559386295E+03  0.12699999809E+01 0. -1.
       -4    1    3    3    0  502  0.18900906569E+02  0.12158640418E+03 -0.10952649070E+04  0.11021557637E+04  0.12699999809E+01 0.  1.
</event>
<event>
 5   0  0.6361762E-05  0.1896135E+04  0.7818609E-02  0.8656783E-01
       -2   -1    0    0    0  501  0.00000000000E+00  0.00000000000E+00  0.69736689767E+03  0.69736689768E+03  0.25500000920E-02 0.  1.
        2   -1    0    0  501    0  0.00000000000E+00  0.00000000000E+00 -0.12888941646E+04  0.12888941646E+04  0.25500000920E-02 0. -1.
    10030    2    1    2    0    0  0.00000000000E+00  0.00000000000E+00 -0.59152726691E+03  0.19862610623E+04  0.18961351481E+04 0.  0.
        1    1    3    3  502    0  0.41367049843E+03  0.51173382793E+03 -0.10107276515E+04  0.12060535550E+04  0.50400001928E-02 0. -1.
       -1    1    3    3    0  502 -0.41367049843E+03 -0.51173382793E+03  0.41920038461E+03  0.78020750728E+03  0.50400001928E-02 0.  1.
</event>
<event>
 5   0  0.3083469E-05  0.1901188E+04  0.7818609E-02  0.8654265E-01
        1   -1    0    0  501    0  0.00000000000E+00  0.00000000000E+00  0.11343262595E+04  0.11343262595E+04  0.50400001928E-02 0. -1.
       -1   -1    0    0    0  501  0.00000000000E+00  0.00000000000E+00 -0.79662187436E+03  0.79662187438E+03  0.50400001928E-02 0.  1.
    10030    2    1    2    0    0  0.00000000000E+00  0.00000000000E+00  0.33770438510E+03  0.19309481338E+04  0.19011881664E+04 0.  0.
        3    1    3    3  502    0 -0.23157472267E+03 -0.20187410234E+03 -0.74481202664E+03  0.80568292188E+03  0.10100000352E+00 0.  1.
       -3    1    3    3    0  502  0.23157472267E+03  0.20187410234E+03  0.10825164117E+04  0.11252652120E+04  0.10100000352E+00 0. -1.
</event>
<event>
 5   0  0.6395992E-05  0.1905934E+04  0.7818609E-02  0.8651908E-01
        2   -1    0    0  501    0  0.00000000000E+00  0.00000000000E+00  0.16785619827E+04  0.16785619827E+04  0.25500000920E-02 0.  1.
       -2   -1    0    0    0  501  0.00000000000E+00  0.00000000000E+00 -0.54102610072E+03  0.54102610072E+03  0.25500000920E-02 0. -1.
    10030    2    1    2    0    0  0.00000000000E+00  0.00000000000E+00  0.11375358820E+04  0.22195880834E+04  0.19059337285E+04 0.  0.
        4    1    3    3  502    0  0.34275408478E+03  0.74355997208E+03  0.11366451974E+04  0.14008303653E+04  0.12699999809E+01 0.  1.
       -4    1    3    3    0  502 -0.34275408478E+03 -0.74355997208E+03  0.89068455461E+00  0.81875771809E+03  0.12699999809E+01 0. -1.
</event>
<event>
 5   0  0.6395992E-05  0.1970238E+04  0.7818609E-02  0.8620663E-01
       -2   -1    0    0    0  501  0.00000000000E+00  0.00000000000E+00  0.93893624738E+03  0.93893624738E+03  0.25500000920E-02 0.  1.
        2   -1    0    0  501    0  0.00000000000E+00  0.00000000000E+00 -0.10335732190E+04  0.10335732190E+04  0.25500000920E-02 0. -1.
    10030    2    1    2    0    0  0.00000000000E+00  0.00000000000E+00 -0.94636971596E+02  0.19725094664E+04  0.19702379142E+04 0.  0.
        4    1    3    3  502    0 -0.84405166431E+03 -0.18781099951E+03  0.42520190270E+03  0.96358417096E+03  0.12699999809E+01 0.  1.
       -4    1    3    3    0  502  0.84405166431E+03  0.18781099951E+03 -0.51983887430E+03  0.10089252954E+04  0.12699999809E+01 0. -1.
</event>
<event>
 5   0  0.6098377E-05  0.1904210E+04  0.7818609E-02  0.8652763E-01
        2   -1    0    0  501    0  0.00000000000E+00  0.00000000000E+00  0.17516425330E+04  0.17516425330E+04  0.25500000920E-02 0. -1.
       -2   -1    0    0    0  501  0.00000000000E+00  0.00000000000E+00 -0.51751672970E+03  0.51751672971E+03  0.25500000920E-02 0.  1.
    10030    2    1    2    0    0  0.00000000000E+00  0.00000000000E+00  0.12341258033E+04  0.22691592627E+04  0.19042104036E+04 0.  0.
        5    1    3    3  502    0  0.84758376010E+03  0.42627042431E+03  0.52189818301E+03  0.10828224732E+04  0.46999998093E+01 0. -1.
       -5    1    3    3    0  502 -0.84758376010E+03 -0.42627042431E+03  0.71222762027E+03  0.11863367895E+04  0.46999998093E+01 0.  1.
</event>
<event>
 5   0  0.6423388E-05  0.1903446E+04  0.7818609E-02  0.8653143E-01
        2   -1    0    0  501    0  0.00000000000E+00  0.00000000000E+00  0.87898719541E+03  0.87898719542E+03  0.25500000920E-02 0.  1.
       -2   -1    0    0    0  501  0.00000000000E+00  0.00000000000E+00 -0.10304779812E+04  0.10304779812E+04  0.25500000920E-02 0. -1.
    10030    2    1    2    0    0  0.00000000000E+00  0.00000000000E+00 -0.15149078582E+03  0.19094651766E+04  0.19034462962E+04 0.  0.
        2    1    3    3  502    0 -0.11900275602E+03  0.20384236146E+03  0.84915895448E+03  0.88135367149E+03  0.25500000920E-02 0.  1.
       -2    1    3    3    0  502  0.11900275602E+03 -0.20384236146E+03 -0.10006497403E+04  0.10281115052E+04  0.25500000920E-02 0. -1.
</event>
<event>
 5   0  0.6452182E-05  0.1899642E+04  0.7818609E-02  0.8655034E-01
        2   -1    0    0  501    0  0.00000000000E+00  0.00000000000E+00  0.11639567961E+04  0.11639567961E+04  0.25500000920E-02 0. -1.
       -2   -1    0    0    0  501  0.00000000000E+00  0.00000000000E+00 -0.77508062563E+03  0.77508062564E+03  0.25500000920E-02 0.  1.
    10030    2    1    2    0    0  0.00000000000E+00  0.00000000000E+00  0.38887617043E+03  0.19390374217E+04  0.18996424524E+04 0.  0.
        3    1    3    3  502    0 -0.37406197764E+02 -0.66102868679E+03 -0.50071543741E+03  0.83010487762E+03  0.10100000352E+00 0.  1.
       -3    1    3    3    0  502  0.37406197764E+02  0.66102868679E+03  0.88959160784E+03  0.11089325441E+04  0.10100000352E+00 0. -1.
</event>
<event>
 5   0  0.6452182E-05  0.1897105E+04  0.7818609E-02  0.8656299E-01
        2   -1    0    0  501    0  0.00000000000E+00  0.00000000000E+00  0.61989110180E+03  0.61989110180E+03  0.25500000920E-02 0.  1.
       -2   -1    0    0    0  501  0.00000000000E+00  0.00000000000E+00 -0.14514678054E+04  0.14514678054E+04  0.25500000920E-02 0. -1.
    10030    2    1    2    0    0  0.00000000000E+00  0.00000000000E+00 -0.83157670359E+03  0.20713589072E+04  0.18971051390E+04 0.  0.
        3    1    3    3  502    0 -0.34158807082E+03 -0.46111148578E+03 -0.12404411403E+04  0.13667481279E+04  0.10100000352E+00 0. -1.
       -3    1    3    3    0  502  0.34158807082E+03  0.46111148578E+03  0.40886443671E+03  0.70461077926E+03  0.10100000352E+00 0.  1.
</event>
<event>
 5   0  0.6423388E-05  0.1897413E+04  0.7818609E-02  0.8656145E-01
       -2   -1    0    0    0  501  0.00000000000E+00  0.00000000000E+00  0.76535114364E+03  0.76535114364E+03  0.25500000920E-02 0. -1.
        2   -1    0    0  501    0  0.00000000000E+00  0.00000000000E+00 -0.11759883925E+04  0.11759883925E+04  0.25500000920E-02 0.  1.
    10030    2    1    2    0    0  0.00000000000E+00  0.00000000000E+00 -0.41063724883E+03  0.19413395361E+04  0.18974130400E+04 0.  0.
        2    1    3    3  502    0  0.36079206136E+03  0.13766318210E+03  0.68130037118E+03  0.78312978428E+03  0.25500000920E-02 0. -1.
       -2    1    3    3    0  502 -0.36079206136E+03 -0.13766318210E+03 -0.10919376200E+04  0.11582097518E+04  0.25500000920E-02 0.  1.
</event>
<event>
 5   0  0.2279625E-05  0.1900749E+04  0.7818609E-02  0.8654484E-01
        4   -1    0    0  501    0  0.00000000000E+00  0.00000000000E+00  0.94983394696E+03  0.94983479600E+03  0.12699999809E+01 0. -1.
       -4   -1    0    0    0  501  0.00000000000E+00  0.00000000000E+00 -0.95091327611E+03  0.95091412419E+03  0.12699999809E+01 0.  1.
    10030    2    1    2    0    0  0.00000000000E+00  0.00000000000E+00 -0.10793291592E+01  0.19007489202E+04  0.19007486137E+04 0.  0.
        4    1    3    3  502    0 -0.59984538690E+03  0.47816190430E+03  0.56049198948E+03  0.95005588155E+03  0.12699999809E+01 0. -1.
       -4    1    3    3    0  502  0.59984538690E+03 -0.47816190430E+03 -0.56157131864E+03  0.95069303864E+03  0.12699999809E+01 0.  1.
</event>
<event>
 5   0  0.6452182E-05  0.1897767E+04  0.7818609E-02  0.8655969E-01
       -2   -1    0    0    0  501  0.00000000000E+00  0.00000000000E+00  0.81526847722E+03  0.81526847722E+03  0.25500000920E-02 0. -1.
        2   -1    0    0  501    0  0.00000000000E+00  0.00000000000E+00 -0.11043967964E+04  0.11043967964E+04  0.25500000920E-02 0.  1.
    10030    2    1    2    0    0  0.00000000000E+00  0.00000000000E+00 -0.28912831915E+03  0.19196652736E+04  0.18977669977E+04 0.  0.
        3    1    3    3  502    0  0.15813591244E+03  0.91525988869E+02 -0.10864345479E+04  0.11016914317E+04  0.10100000352E+00 0.  1.
       -3    1    3    3    0  502 -0.15813591244E+03 -0.91525988869E+02  0.79730622878E+03  0.81797384194E+03  0.10100000352E+00 0. -1.
</event>
<event>
 5   0  0.3144958E-05  0.1901454E+04  0.7818609E-02  0.8654133E-01
       -1   -1    0    0    0  501  0.00000000000E+00  0.00000000000E+00  0.11710821994E+04  0.11710821994E+04  0.50400001928E-02 0. -1.
        1   -1    0    0  501    0  0.00000000000E+00  0.00000000000E+00 -0.77183439528E+03  0.77183439530E+03  0.50400001928E-02 0.  1.
    10030    2    1    2    0    0  0.00000000000E+00  0.00000000000E+00  0.39924780412E+03  0.19429165947E+04  0.19014536768E+04 0.  0.
        4    1    3    3  502    0 -0.68392400766E+03 -0.62530223901E+03  0.41668243883E+03  0.10160614185E+04  0.12699999809E+01 0.  1.
       -4    1    3    3    0  502  0.68392400766E+03  0.62530223901E+03 -0.17434634705E+02  0.92685517625E+03  0.12699999809E+01 0. -1.
</event>
<event>
 5   0  0.6361762E-05  0.1893727E+04  0.7818609E-02  0.8657985E-01
       -2   -1    0    0    0  501  0.00000000000E+00  0.00000000000E+00  0.64273786814E+03  0.64273786815E+03  0.25500000920E-02 0. -1.
        2   -1    0    0  501    0  0.00000000000E+00  0.00000000000E+00 -0.13948926630E+04  0.13948926630E+04  0.25500000920E-02 0.  1.
    10030    2    1    2    0    0  0.00000000000E+00  0.00000000000E+00 -0.75215479490E+03  0.20376305312E+04  0.18937268404E+04 0.  0.
        1    1    3    3  502    0 -0.69883886945E+03 -0.50881791340E+03  0.39648730980E+02  0.86535741537E+03  0.50400001928E-02 0. -1.
       -1    1    3    3    0  502  0.69883886945E+03  0.50881791340E+03 -0.79180352588E+03  0.11722731158E+04  0.50400001928E-02 0.  1.
</event>
<event>
 5   0  0.6423388E-05  0.1899123E+04  0.7818609E-02  0.8655293E-01
       -2   -1    0    0    0  501  0.00000000000E+00  0.00000000000E+00  0.34195645232E+03  0.34195645233E+03  0.25500000920E-02 0. -1.
        2   -1    0    0  501    0  0.00000000000E+00  0.00000000000E+00 -0.26367893612E+04  0.26367893612E+04  0.25500000920E-02 0.  1.
    10030    2    1    2    0    0  0.00000000000E+00  0.00000000000E+00 -0.22948329089E+04  0.29787458135E+04  0.18991230982E+04 0.  0.
        2    1    3    3  502    0  0.25658494768E+03 -0.55173336559E+03 -0.22908210349E+04  0.23702545340E+04  0.25500000920E-02 0.  1.
       -2    1    3    3    0  502 -0.25658494768E+03  0.55173336559E+03 -0.40118739652E+01  0.60849127950E+03  0.25500000920E-02 0. -1.
</event>
<event>
 5   0  0.3086139E-05  0.1895177E+04  0.7818609E-02  0.8657261E-01
        1   -1    0    0  501    0  0.00000000000E+00  0.00000000000E+00  0.18720391538E+04  0.18720391538E+04  0.50400001928E-02 0. -1.
       -1   -1    0    0    0  501  0.00000000000E+00  0.00000000000E+00 -0.47965043913E+03  0.47965043916E+03  0.50400001928E-02 0.  1.
    10030    2    1    2    0    0  0.00000000000E+00  0.00000000000E+00  0.13923887146E+04  0.23516895929E+04  0.18951774610E+04 0.  0.
        2    1    3    3  502    0  0.21238024049E+03 -0.65123862869E+03 -0.11628165158E+03  0.69479388350E+03  0.25500000920E-02 0.  1.
       -2    1    3    3    0  502 -0.21238024049E+03  0.65123862869E+03  0.15086703662E+04  0.16568957094E+04  0.25500000920E-02 0. -1.
</event>
<event>
 5   0  0.6098377E-05  0.1900476E+04  0.7818609E-02  0.8654619E-01
       -2   -1    0    0    0  501  0.00000000000E+00  0.00000000000E+00  0.93912593922E+03  0.93912593922E+03  0.25500000920E-02 0.  1.
        2   -1    0    0  501    0  0.00000000000E+00  0.00000000000E+00 -0.96148152955E+03  0.96148152955E+03  0.25500000920E-02 0. -1.
    10030    2    1    2    0    0  0.00000000000E+00  0.00000000000E+00 -0.22355590332E+02  0.19006074688E+04  0.19004759872E+04 0.  0.
        5    1    3    3  502    0 -0.88146621636E+03 -0.32053877231E+02  0.34228691065E+03  0.94614616251E+03  0.46999998093E+01 0.  1.
       -5    1    3    3    0  502  0.88146621636E+03  0.32053877231E+02 -0.36464250098E+03  0.95446130626E+03  0.46999998093E+01 0. -1.
</event>
<event>
 5   0  0.3083469E-05  0.1905184E+04  0.7818609E-02  0.8652280E-01
        1   -1    0    0  501    0  0.00000000000E+00  0.00000000000E+00  0.11874848837E+04  0.11874848837E+04  0.50400001928E-02 0.  1.
       -1   -1    0    0    0  501  0.00000000000E+00  0.00000000000E+00 -0.76416277782E+03  0.76416277784E+03  0.50400001928E-02 0. -1.
    10030    2    1    2    0    0  0.00000000000E+00  0.00000000000E+00  0.42332210587E+03  0.19516476615E+04  0.19051842403E+04 0.  0.
        3    1    3    3  502    0 -0.48285157861E+03 -0.76849434684E+03  0.50803070166E+03  0.10401078848E+04  0.10100000352E+00 0.  1.
       -3    1    3    3    0  502  0.48285157861E+03  0.76849434684E+03 -0.84708595787E+02  0.91153977669E+03  0.10100000352E+00 0. -1.
</event>
<event>
 5   0  0.3083469E-05  0.1890543E+04  0.7818609E-02  0.8659578E-01
       -1   -1    0    0    0  501  0.00000000000E+00  0.00000000000E+00  0.66253432979E+03  0.66253432981E+03  0.50400001928E-02 0.  1.
        1   -1    0    0  501    0  0.00000000000E+00  0.00000000000E+00 -0.13486666015E+04  0.13486666015E+04  0.50400001928E-02 0. -1.
    10030    2    1    2    0    0  0.00000000000E+00  0.00000000000E+00 -0.68613227167E+03  0.20112009313E+04  0.18905426977E+04 0.  0.
        3    1    3    3  502    0 -0.36572290687E+03 -0.66263709992E+03 -0.94550952776E+03  0.12111273459E+04  0.10100000352E+00 0. -1.
       -3    1    3    3    0  502  0.36572290687E+03  0.66263709992E+03  0.25937725609E+03  0.80007358535E+03  0.10100000352E+00 0.  1.
</event>
<event>
 5   0  0.3144958E-05  0.1903293E+04  0.7818609E-02  0.8653219E-01
       -1   -1    0    0    0  501  0.00000000000E+00  0.00000000000E+00  0.74962569146E+03  0.74962569147E+03  0.50400001928E-02 0. -1.
        1   -1    0    0  501    0  0.00000000000E+00  0.00000000000E+00 -0.12081106018E+04  0.12081106018E+04  0.50400001928E-02 0.  1.
    10030    2    1    2    0    0  0.00000000000E+00  0.00000000000E+00 -0.45848491031E+03  0.19577362933E+04  0.19032926682E+04 0.  0.
        4    1    3    3  502    0  0.70828418800E+02 -0.52381009527E+03  0.58474449472E+03  0.78823944194E+03  0.12699999809E+01 0. -1.
       -4    1    3    3    0  502 -0.70828418800E+02  0.52381009527E+03 -0.10432294050E+04  0.11694968513E+04  0.12699999809E+01 0.  1.
</event>
<event>
 5   0  0.6395992E-05  0.1903821E+04  0.7818609E-02  0.8652957E-01
        2   -1    0    0  501    0  0.00000000000E+00  0.00000000000E+00  0.19988799219E+04  0.19988799219E+04  0.25500000920E-02 0. -1.
       -2   -1    0    0    0  501  0.00000000000E+00  0.00000000000E+00 -0.45332069378E+03  0.45332069379E+03  0.25500000920E-02 0.  1.
    10030    2    1    2    0    0  0.00000000000E+00  0.00000000000E+00  0.15455592281E+04  0.24522006157E+04  0.19038210347E+04 0.  0.
        4    1    3    3  502    0  0.66623549835E+03  0.63514292775E+03  0.10852611039E+04  0.14230493858E+04  0.12699999809E+01 0.  1.
       -4    1    3    3    0  502 -0.66623549835E+03 -0.63514292775E+03  0.46029812427E+03  0.10291512299E+04  0.12699999809E+01 0. -1.
</event>
<event>
 5   0  0.6423388E-05  0.1905925E+04  0.7818609E-02  0.8651912E-01
        2   -1    0    0  501    0  0.00000000000E+00  0.00000000000E+00  0.80785480963E+03  0.80785480963E+03  0.25500000920E-02 0. -1.
       -2   -1    0    0    0  501  0.00000000000E+00  0.00000000000E+00 -0.11241351585E+04  0.11241351585E+04  0.25500000920E-02 0.  1.
    10030    2    1    2    0    0  0.00000000000E+00  0.00000000000E+00 -0.31628034892E+03  0.19319899682E+04  0.19059254912E+04 0.  0.
        2    1    3    3  502    0 -0.60296204624E+03  0.48931518933E+03  0.40181384927E+03  0.87432657125E+03  0.25500000920E-02 0. -1.
       -2    1    3    3    0  502  0.60296204624E+03 -0.48931518933E+03 -0.71809419819E+03  0.10576633969E+04  0.25500000920E-02 0.  1.
</event>
<event>
 5   0  0.6395992E-05  0.1902253E+04  0.7818609E-02  0.8653736E-01
       -2   -1    0    0    0  501  0.00000000000E+00  0.00000000000E+00  0.50309871241E+03  0.50309871241E+03  0.25500000920E-02 0. -1.
        2   -1    0    0  501    0  0.00000000000E+00  0.00000000000E+00 -0.17981398602E+04  0.17981398602E+04  0.25500000920E-02 0.  1.
    10030    2    1    2    0    0  0.00000000000E+00  0.00000000000E+00 -0.12950411478E+04  0.23012385726E+04  0.19022532412E+04 0.  0.
        4    1    3    3  502    0  0.69080611584E+03 -0.33721379655E+03  0.30058934037E+02  0.76930578230E+03  0.12699999809E+01 0. -1.
       -4    1    3    3    0  502 -0.69080611584E+03  0.33721379655E+03 -0.13251000818E+04  0.15319327903E+04  0.12699999809E+01 0.  1.
</event>
<event>
 5   0  0.6361762E-05  0.1913349E+04  0.7818609E-02  0.8648240E-01
        2   -1    0    0  501    0  0.00000000000E+00  0.00000000000E+00  0.16802388247E+04  0.16802388247E+04  0.25500000920E-02 0.  1.
       -2   -1    0    0    0  501  0.00000000000E+00  0.00000000000E+00 -0.54469992485E+03  0.54469992485E+03  0.25500000920E-02 0. -1.
    10030    2    1    2    0    0  0.00000000000E+00  0.00000000000E+00  0.11355388999E+04  0.22249387496E+04  0.19133488564E+04 0.  0.
        1    1    3    3  502    0 -0.57666892174E+03 -0.34977160850E+03  0.13567433926E+04  0.15151369103E+04  0.50400001928E-02 0.  1.
       -1    1    3    3    0  502  0.57666892174E+03  0.34977160850E+03 -0.22120449276E+03  0.70980183929E+03  0.50400001928E-02 0. -1.
</event>
<event>
 5   0  0.6452182E-05  0.1902434E+04  0.7818609E-02  0.8653646E-01
       -2   -1    0    0    0  501  0.00000000000E+00  0.00000000000E+00  0.44394183936E+03  0.44394183937E+03  0.25500000920E-02 0. -1.
        2   -1    0    0  501    0  0.00000000000E+00  0.00000000000E+00 -0.20381355520E+04  0.20381355520E+04  0.25500000920E-02 0.  1.
    10030    2    1    2    0    0  0.00000000000E+00  0.00000000000E+00 -0.15941937127E+04  0.24820773914E+04  0.19024338578E+04 0.  0.
        3    1    3    3  502    0 -0.93867145731E+03 -0.50431920469E+02 -0.98691018723E+03  0.13629523877E+04  0.10100000352E+00 0. -1.
       -3    1    3    3    0  502  0.93867145731E+03  0.50431920469E+02 -0.60728352545E+03  0.11191250037E+04  0.10100000352E+00 0.  1.
</event>
<event>
 5   0  0.3203527E-05  0.1899481E+04  0.7818609E-02  0.8655115E-01
       -1   -1    0    0    0  501  0.00000000000E+00  0.00000000000E+00  0.85191352497E+03  0.85191352499E+03  0.50400001928E-02 0.  1.
        1   -1    0    0  501    0  0.00000000000E+00  0.00000000000E+00 -0.10588013480E+04  0.10588013480E+04  0.50400001928E-02 0. -1.
    10030    2    1    2    0    0  0.00000000000E+00  0.00000000000E+00 -0.20688782299E+03  0.19107148730E+04  0.18994811803E+04 0.  0.
        1    1    3    3  502    0 -0.86864958971E+03  0.11262784275E+03  0.26583761344E+03  0.91537248015E+03  0.50400001928E-02 0. -1.
       -1    1    3    3    0  502  0.86864958971E+03 -0.11262784275E+03 -0.47272543644E+03  0.99534239282E+03  0.50400001928E-02 0.  1.
</event>
<event>
 5   0  0.6423388E-05  0.1891201E+04  0.7818609E-02  0.8659249E-01
        2   -1    0    0  501    0  0.00000000000E+00  0.00000000000E+00  0.22124419203E+04  0.22124419203E+04  0.25500000920E-02 0. -1.
       -2   -1    0    0    0  501  0.00000000000E+00  0.00000000000E+00 -0.40415081557E+03  0.40415081558E+03  0.25500000920E-02 0.  1.
    10030    2    1    2    0    0  0.00000000000E+00  0.00000000000E+00  0.18082911047E+04  0.26165927359E+04  0.18912008952E+04 0.  0.
        2    1    3    3  502    0 -0.33693527241E+03 -0.34508097229E+03 -0.22118756647E+03  0.53059419032E+03  0.25500000920E-02 0.  1.
       -2    1    3    3    0  502  0.33693527241E+03  0.34508097229E+03  0.20294786712E+04  0.20859985455E+04  0.25500000920E-02 0. -1.
</event>
<event>
 5   0  0.3086139E-05  0.1901834E+04  0.7818609E-02  0.8653944E-01
       -1   -1    0    0    0  501  0.00000000000E+00  0.00000000000E+00  0.10124315249E+04  0.10124315249E+04  0.50400001928E-02 0.  1.
        1   -1    0    0  501    0  0.00000000000E+00  0.00000000000E+00 -0.89314016157E+03  0.89314016159E+03  0.50400001928E-02 0. -1.
    10030    2    1    2    0    0  0.00000000000E+00  0.00000000000E+00  0.11929136329E+03  0.19055716865E+04  0.19018341208E+04 0.  0.
        2    1    3    3  502    0 -0.31838065189E+03 -0.85552625266E+03  0.32653703868E+03  0.96949360293E+03  0.25500000920E-02 0. -1.
       -2    1    3    3    0  502  0.31838065189E+03  0.85552625266E+03 -0.20724567539E+03  0.93607808353E+03  0.25500000920E-02 0.  1.
</event>
<event>
 5   0  0.6395992E-05  0.1905728E+04  0.7818609E-02  0.8652010E-01
       -2   -1    0    0    0  501  0.00000000000E+00  0.00000000000E+00  0.49251313730E+03  0.49251313731E+03  0.25500000920E-02 0.  1.
        2   -1    0    0  501    0  0.00000000000E+00  0.00000000000E+00 -0.18435035584E+04  0.18435035584E+04  0.25500000920E-02 0. -1.
    10030    2    1    2    0    0  0.00000000000E+00  0.00000000000E+00 -0.13509904211E+04  0.23360166957E+04  0.19057279147E+04 0.  0.
        4    1    3    3  502    0  0.12656016058E+03 -0.90227903046E+03 -0.10174506749E+04  0.13657717276E+04  0.12699999809E+01 0. -1.
       -4    1    3    3    0  502 -0.12656016058E+03  0.90227903046E+03 -0.33353974621E+03  0.97024496817E+03  0.12699999809E+01 0.  1.
</event>
<event>
 5   0  0.6395992E-05  0.1899147E+04  0.7818609E-02  0.8655281E-01
       -2   -1    0    0    0  501  0.00000000000E+00  0.00000000000E+00  0.22271004490E+04  0.22271004490E+04  0.25500000920E-02 0.  1.
        2   -1    0    0  501    0  0.00000000000E+00  0.00000000000E+00 -0.40487184736E+03  0.40487184737E+03  0.25500000920E-02 0. -1.
    10030    2    1    2    0    0  0.00000000000E+00  0.00000000000E+00  0.18222286016E+04  0.26319722963E+04  0.18991474646E+04 0.  0.
        4    1    3    3  502    0 -0.64453588418E+02 -0.94694085623E+03  0.87100993377E+03  0.12882201551E+04  0.12699999809E+01 0.  1.
       -4    1    3    3    0  502  0.64453588418E+02  0.94694085623E+03  0.95121866782E+03  0.13437521413E+04  0.12699999809E+01 0. -1.
</event>
<event>
 5   0  0.3203527E-05  0.1911111E+04  0.7818609E-02  0.8649345E-01
       -1   -1    0    0    0  501  0.00000000000E+00  0.00000000000E+00  0.64066011981E+03  0.64066011983E+03  0.50400001928E-02 0. -1.
        1   -1    0    0  501    0  0.00000000000E+00  0.00000000000E+00 -0.14252271909E+04  0.14252271909E+04  0.50400001928E-02 0.  1.
    10030    2    1    2    0    0  0.00000000000E+00  0.00000000000E+00 -0.78456707104E+03  0.20658873107E+04  0.19111109051E+04 0.  0.
        1    1    3    3  502    0 -0.55352811464E+03 -0.62799920118E+03 -0.89037122922E+03  0.12221036356E+04  0.50400001928E-02 0.  1.
       -1    1    3    3    0  502  0.55352811464E+03  0.62799920118E+03  0.10580415818E+03  0.84378367506E+03  0.50400001928E-02 0. -1.
</event>
<event>
 5   0  0.3083469E-05  0.1896039E+04  0.7818609E-02  0.8656830E-01
       -1   -1    0    0    0  501  0.00000000000E+00  0.00000000000E+00  0.10790032068E+04  0.10790032069E+04  0.50400001928E-02 0.  1.
        1   -1    0    0  501    0  0.00000000000E+00  0.00000000000E+00 -0.83293642242E+03  0.83293642243E+03  0.50400001928E-02 0. -1.
    10030    2    1    2    0    0  0.00000000000E+00  0.00000000000E+00  0.24606678442E+03  0.19119396293E+04  0.18960391039E+04 0.  0.
        3    1    3    3  502    0  0.54744685100E+03  0.73788592640E+03 -0.11252217828E+03  0.92565379373E+03  0.10100000352E+00 0. -1.
       -3    1    3    3    0  502 -0.54744685100E+03 -0.73788592640E+03  0.35858896270E+03  0.98628583556E+03  0.10100000352E+00 0.  1.
</event>
<event>
 5   0  0.6452182E-05  0.1899750E+04  0.7818609E-02  0.8654981E-01
        2   -1    0    0  501    0  0.00000000000E+00  0.00000000000E+00  0.16329084787E+04  0.16329084787E+04  0.25500000920E-02 0.  1.
       -2   -1    0    0    0  501  0.00000000000E+00  0.00000000000E+00 -0.55254911227E+03  0.55254911227E+03  0.25500000920E-02 0. -1.
    10030    2    1    2    0    0  0.00000000000E+00  0.00000000000E+00  0.10803593664E+04  0.21854575910E+04  0.18997495944E+04 0.  0.
        3    1    3    3  502    0 -0.94427152729E+03 -0.74977445426E+02  0.62145786567E+03  0.11329078619E+04  0.10100000352E+00 0. -1.
       -3    1    3    3    0  502  0.94427152729E+03  0.74977445426E+02  0.45890150077E+03  0.10525497291E+04  0.10100000352E+00 0.  1.
</event>
<event>
 5   0  0.3147063E-05  0.1901515E+04  0.7818609E-02  0.8654103E-01
        1   -1    0    0  501    0  0.00000000000E+00  0.00000000000E+00  0.18720231739E+04  0.18720231739E+04  0.50400001928E-02 0.  1.
       -1   -1    0    0    0  501  0.00000000000E+00  0.00000000000E+00 -0.48286795481E+03  0.48286795484E+03  0.50400001928E-02 0. -1.
    10030    2    1    2    0    0  0.00000000000E+00  0.00000000000E+00  0.13891552191E+04  0.23548911287E+04  0.19015151868E+04 0.  0.
        5    1    3    3  502    0  0.20098959253E+03  0.90781032758E+03  0.44875182360E+03  0.10324324173E+04  0.46999998093E+01 0. -1.
       -5    1    3    3    0  502 -0.20098959253E+03 -0.90781032758E+03  0.94040339546E+03  0.13224587114E+04  0.46999998093E+01 0.  1.
</event>
<event>
 5   0  0.3144958E-05  0.1877143E+04  0.7818609E-02  0.8666318E-01
        1   -1    0    0  501    0  0.00000000000E+00  0.00000000000E+00  0.15254979016E+04  0.15254979016E+04  0.50400001928E-02 0.  1.
       -1   -1    0    0    0  501  0.00000000000E+00  0.00000000000E+00 -0.57746145693E+03  0.57746145695E+03  0.50400001928E-02 0. -1.
    10030    2    1    2    0    0  0.00000000000E+00  0.00000000000E+00  0.94803644464E+03  0.21029593585E+04  0.18771427658E+04 0.  0.
        4    1    3    3  502    0  0.10971917723E+03  0.54482265317E+03 -0.37330385691E+03  0.66949787434E+03  0.12699999809E+01 0. -1.
       -4    1    3    3    0  502 -0.10971917723E+03 -0.54482265317E+03  0.13213403016E+04  0.14334614842E+04  0.12699999809E+01 0.  1.
</event>
<event>
 5   0  0.6395992E-05  0.1893560E+04  0.7818609E-02  0.8658069E-01
       -2   -1    0    0    0  501  0.00000000000E+00  0.00000000000E+00  0.41482293943E+03  0.41482293944E+03  0.25500000920E-02 0. -1.
        2   -1    0    0  501    0  0.00000000000E+00  0.00000000000E+00 -0.21609026121E+04  0.21609026121E+04  0.25500000920E-02 0.  1.
    10030    2    1    2    0    0  0.00000000000E+00  0.00000000000E+00 -0.17460796727E+04  0.25757255516E+04  0.18935595828E+04 0.  0.
        4    1    3    3  502    0  0.22149253481E+03 -0.82358118159E+03 -0.31376875927E+03  0.90873392852E+03  0.12699999809E+01 0. -1.
       -4    1    3    3    0  502 -0.22149253481E+03  0.82358118159E+03 -0.14323109134E+04  0.16669916230E+04  0.12699999809E+01 0.  1.
</event>
<event>
 5   0  0.6361762E-05  0.1894431E+04  0.7818609E-02  0.8657633E-01
        2   -1    0    0  501    0  0.00000000000E+00  0.00000000000E+00  0.13735668340E+04  0.13735668340E+04  0.25500000920E-02 0.  1.
       -2   -1    0    0    0  501  0.00000000000E+00  0.00000000000E+00 -0.65320247517E+03  0.65320247517E+03  0.25500000920E-02 0. -1.
    10030    2    1    2    0    0  0.00000000000E+00  0.00000000000E+00  0.72036435886E+03  0.20267693092E+04  0.18944310553E+04 0.  0.
        1    1    3    3  502    0 -0.85863741102E+03  0.33030554717E+03  0.11891282906E+03  0.92763151037E+03  0.50400001928E-02 0.  1.
       -1    1    3    3    0  502  0.85863741102E+03 -0.33030554717E+03  0.60145152980E+03  0.10991377988E+04  0.50400001928E-02 0. -1.
</event>
<event>
 5   0  0.3086139E-05  0.1915824E+04  0.7818609E-02  0.8647020E-01
       -1   -1    0    0    0  501  0.00000000000E+00  0.00000000000E+00  0.12429582062E+04  0.12429582062E+04  0.50400001928E-02 0. -1.
        1   -1    0    0  501    0  0.00000000000E+00  0.00000000000E+00 -0.73823520812E+03  0.73823520813E+03  0.50400001928E-02 0.  1.
    10030    2    1    2    0    0  0.00000000000E+00  0.00000000000E+00  0.50472299807E+03  0.19811934143E+04  0.19158241152E+04 0.  0.
        2    1    3    3  502    0  0.47406870846E+03  0.67527168179E+03 -0.25092979482E+03  0.86237969973E+03  0.25500000920E-02 0. -1.
       -2    1    3    3    0  502 -0.47406870846E+03 -0.67527168179E+03  0.75565279290E+03  0.11188137146E+04  0.25500000920E-02 0.  1.
</event>
<event>
 5   0  0.6423388E-05  0.1930973E+04  0.7818609E-02  0.8639591E-01
       -2   -1    0    0    0  501  0.00000000000E+00  0.00000000000E+00  0.92641416120E+03  0.92641416120E+03  0.25500000920E-02 0. -1.
        2   -1    0    0  501    0  0.00000000000E+00  0.00000000000E+00 -0.10062063237E+04  0.10062063237E+04  0.25500000920E-02 0.  1.
    10030    2    1    2    0    0  0.00000000000E+00  0.00000000000E+00 -0.79792162509E+02  0.19326204849E+04  0.19309725916E+04 0.  0.
        2    1    3    3  502    0  0.16386896891E+03 -0.49895368248E+03 -0.85074546210E+03  0.99978780625E+03  0.25500000920E-02 0.  1.
       -2    1    3    3    0  502 -0.16386896891E+03  0.49895368248E+03  0.77095329959E+03  0.93283267867E+03  0.25500000920E-02 0. -1.
</event>
<event>
 5   0  0.6361762E-05  0.1883861E+04  0.7818609E-02  0.8662932E-01
       -2   -1    0    0    0  501  0.00000000000E+00  0.00000000000E+00  0.55646506105E+03  0.55646506105E+03  0.25500000920E-02 0.  1.
        2   -1    0    0  501    0  0.00000000000E+00  0.00000000000E+00 -0.15944091569E+04  0.15944091569E+04  0.25500000920E-02 0. -1.
    10030    2    1    2    0    0  0.00000000000E+00  0.00000000000E+00 -0.10379440959E+04  0.21508742180E+04  0.18838609172E+04 0.  0.
        1    1    3    3  502    0 -0.56106528998E+03 -0.69028223081E+03 -0.16531135707E+03  0.90477160797E+03  0.50400001928E-02 0.  1.
       -1    1    3    3    0  502  0.56106528998E+03  0.69028223081E+03 -0.87263273881E+03  0.12461026100E+04  0.50400001928E-02 0. -1.
</event>
<event>
 5   0  0.6452182E-05  0.1778349E+04  0.7818609E-02  0.8717899E-01
       -2   -1    0    0    0  501  0.00000000000E+00  0.00000000000E+00  0.10265538341E+04  0.10265538341E+04  0.25500000920E-02 0. -1.
        2   -1    0    0  501    0  0.00000000000E+00  0.00000000000E+00 -0.77018013754E+03  0.77018013754E+03  0.25500000920E-02 0.  1.
    10030    2    1    2    0    0  0.00000000000E+00  0.00000000000E+00  0.25637369660E+03  0.17967339717E+04  0.17783490919E+04 0.  0.
        3    1    3    3  502    0  0.84773127663E+03  0.40273552908E+02 -0.13981206342E+03  0.86012656029E+03  0.10100000352E+00 0.  1.
       -3    1    3    3    0  502 -0.84773127663E+03 -0.40273552908E+02  0.39618576003E+03  0.93660741140E+03  0.10100000352E+00 0. -1.
</event>
<event>
 5   0  0.6423388E-05  0.1907056E+04  0.7818609E-02  0.8651352E-01
        2   -1    0    0  501    0  0.00000000000E+00  0.00000000000E+00  0.17730152637E+04  0.17730152637E+04  0.25500000920E-02 0. -1.
       -2   -1    0    0    0  501  0.00000000000E+00  0.00000000000E+00 -0.51280752294E+03  0.51280752294E+03  0.25500000920E-02 0.  1.
    10030    2    1    2    0    0  0.00000000000E+00  0.00000000000E+00  0.12602077407E+04  0.22858227866E+04  0.19070559148E+04 0.  0.
        2    1    3    3  502    0  0.84823186427E+02 -0.94971861776E+02  0.17627782797E+04  0.17673714638E+04  0.25500000920E-02 0. -1.
       -2    1    3    3    0  502 -0.84823186427E+02  0.94971861776E+02 -0.50257053899E+03  0.51845132284E+03  0.25500000920E-02 0.  1.
</event>
<event>
 5   0  0.3147063E-05  0.1896988E+04  0.7818609E-02  0.8656357E-01
        1   -1    0    0  501    0  0.00000000000E+00  0.00000000000E+00  0.12068606759E+04  0.12068606760E+04  0.50400001928E-02 0. -1.
       -1   -1    0    0    0  501  0.00000000000E+00  0.00000000000E+00 -0.74543923327E+03  0.74543923329E+03  0.50400001928E-02 0.  1.
    10030    2    1    2    0    0  0.00000000000E+00  0.00000000000E+00  0.46142144267E+03  0.19522999092E+04  0.18969884522E+04 0.  0.
        5    1    3    3  502    0  0.85858125795E+03 -0.21347057804E+02  0.64494084445E+03  0.10740522595E+04  0.46999998093E+01 0. -1.
       -5    1    3    3    0  502 -0.85858125795E+03  0.21347057804E+02 -0.18351940177E+03  0.87824764970E+03  0.46999998093E+01 0.  1.
</event>
<event>
 5   0  0.6395992E-05  0.1881604E+04  0.7818609E-02  0.8664068E-01
       -2   -1    0    0    0  501  0.00000000000E+00  0.00000000000E+00  0.69344233205E+03  0.69344233205E+03  0.25500000920E-02 0. -1.
        2   -1    0    0  501    0  0.00000000000E+00  0.00000000000E+00 -0.12763977332E+04  0.12763977332E+04  0.25500000920E-02 0.  1.
    10030    2    1    2    0    0  0.00000000000E+00  0.00000000000E+00 -0.58295540115E+03  0.19698400653E+04  0.18816038061E+04 0.  0.
        4    1    3    3  502    0  0.72766920709E+03 -0.33898165867E+03  0.22213627247E+03  0.83292087037E+03  0.12699999809E+01 0.  1.
       -4    1    3    3    0  502 -0.72766920709E+03  0.33898165867E+03 -0.80509167362E+03  0.11369191949E+04  0.12699999809E+01 0. -1.
</event>
<event>
 5   0  0.3083469E-05  0.1911540E+04  0.7818609E-02  0.8649134E-01
       -1   -1    0    0    0  501  0.00000000000E+00  0.00000000000E+00  0.76648325815E+03  0.76648325816E+03  0.50400001928E-02 0. -1.
        1   -1    0    0  501    0  0.00000000000E+00  0.00000000000E+00 -0.11918014458E+04  0.11918014458E+04  0.50400001928E-02 0.  1.
    10030    2    1    2    0    0  0.00000000000E+00  0.00000000000E+00 -0.42531818767E+03  0.19582847040E+04  0.19115395421E+04 0.  0.
        3    1    3    3  502    0  0.72020713330E+02  0.45471109043E+03  0.64540718347E+03  0.79277966774E+03  0.10100000352E+00 0. -1.
       -3    1    3    3    0  502 -0.72020713330E+02 -0.45471109043E+03 -0.10707253711E+04  0.11655050363E+04  0.10100000352E+00 0.  1.
</event>
<event>
 5   0  0.3083469E-05  0.1899391E+04  0.7818609E-02  0.8655159E-01
        1   -1    0    0  501    0  0.00000000000E+00  0.00000000000E+00  0.15756145939E+04  0.15756145939E+04  0.50400001928E-02 0.  1.
       -1   -1    0    0    0  501  0.00000000000E+00  0.00000000000E+00 -0.57242535815E+03  0.57242535817E+03  0.50400001928E-02 0. -1.
    10030    2    1    2    0    0  0.00000000000E+00  0.00000000000E+00  0.10031892358E+04  0.21480399521E+04  0.18993912164E+04 0.  0.
        3    1    3    3  502    0  0.14804299661E+03 -0.13882474380E+03 -0.54761455918E+03  0.58401263169E+03  0.10100000352E+00 0. -1.
       -3    1    3    3    0  502 -0.14804299661E+03  0.13882474380E+03  0.15508037950E+04  0.15640273204E+04  0.10100000352E+00 0.  1.
</event>
<event>
 5   0  0.6452182E-05  0.1902489E+04  0.7818609E-02  0.8653619E-01
       -2   -1    0    0    0  501  0.00000000000E+00  0.00000000000E+00  0.41703446707E+03  0.41703446707E+03  0.25500000920E-02 0.  1.
        2   -1    0    0  501    0  0.00000000000E+00  0.00000000000E+00 -0.21697625606E+04  0.21697625606E+04  0.25500000920E-02 0. -1.
    10030    2    1    2    0    0  0.00000000000E+00  0.00000000000E+00 -0.17527280936E+04  0.25867970277E+04  0.19024886577E+04 0.  0.
        3    1    3    3  502    0  0.46040368424E+02  0.42599241582E+03 -0.20311225557E+04  0.20758246795E+04  0.10100000352E+00 0. -1.
       -3    1    3    3    0  502 -0.46040368424E+02 -0.42599241582E+03  0.27839446210E+03  0.51097234817E+03  0.10100000352E+00 0.  1.
</event>
<event>
 5   0  0.2279625E-05  0.1894632E+04  0.7818609E-02  0.8657533E-01
        3   -1    0    0  501    0  0.00000000000E+00  0.00000000000E+00  0.64133983145E+03  0.64133983941E+03  0.10100000352E+00 0.  1.
       -3   -1    0    0    0  501  0.00000000000E+00  0.00000000000E+00 -0.13992695585E+04  0.13992695622E+04  0.10100000352E+00 0. -1.
    10030    2    1    2    0    0  0.00000000000E+00  0.00000000000E+00 -0.75792972706E+03  0.20406094016E+04  0.18946316947E+04 0.  0.
        3    1    3    3  502    0 -0.53039677113E+03 -0.51474607393E+03 -0.10171765531E+04  0.12573513454E+04  0.10100000352E+00 0. -1.
       -3    1    3    3    0  502  0.53039677113E+03  0.51474607393E+03  0.25924682607E+03  0.78325805612E+03  0.10100000352E+00 0.  1.
</event>
<event>
 5   0  0.3083469E-05  0.1888836E+04  0.7818609E-02  0.8660433E-01
        1   -1    0    0  501    0  0.00000000000E+00  0.00000000000E+00  0.78416296441E+03  0.78416296442E+03  0.50400001928E-02 0. -1.
       -1   -1    0    0    0  501  0.00000000000E+00  0.00000000000E+00 -0.11374238255E+04  0.11374238255E+04  0.50400001928E-02 0.  1.
    10030    2    1    2    0    0  0.00000000000E+00  0.00000000000E+00 -0.35326086111E+03  0.19215867899E+04  0.18888362966E+04 0.  0.
        3    1    3    3  502    0 -0.69622886755E+03  0.21861376592E+03  0.43326323874E+03  0.84867170267E+03  0.10100000352E+00 0. -1.
       -3    1    3    3    0  502  0.69622886755E+03 -0.21861376592E+03 -0.78652409985E+03  0.10729150873E+04  0.10100000352E+00 0.  1.
</event>
<event>
 5   0  0.3144958E-05  0.1899552E+04  0.7818609E-02  0.8655079E-01
       -1   -1    0    0    0  501  0.00000000000E+00  0.00000000000E+00  0.69286014040E+03  0.69286014042E+03  0.50400001928E-02 0.  1.
        1   -1    0    0  501    0  0.00000000000E+00  0.00000000000E+00 -0.13019572907E+04  0.13019572907E+04  0.50400001928E-02 0. -1.
    10030    2    1    2    0    0  0.00000000000E+00  0.00000000000E+00 -0.60909715029E+03  0.19948174311E+04  0.18995518537E+04 0.  0.
        4    1    3    3  502    0  0.10077997339E+03  0.87907227595E+03  0.57940925841E+02  0.88672624477E+03  0.12699999809E+01 0.  1.
       -4    1    3    3    0  502 -0.10077997339E+03 -0.87907227595E+03 -0.66703807613E+03  0.11080911864E+04  0.12699999809E+01 0. -1.
</event>
<event>
 5   0  0.3147063E-05  0.1901936E+04  0.7818609E-02  0.8653893E-01
        1   -1    0    0  501    0  0.00000000000E+00  0.00000000000E+00  0.13708714397E+04  0.13708714397E+04  0.50400001928E-02 0. -1.
       -1   -1    0    0    0  501  0.00000000000E+00  0.00000000000E+00 -0.65968255546E+03  0.65968255548E+03  0.50400001928E-02 0.  1.
    10030    2    1    2    0    0  0.00000000000E+00  0.00000000000E+00  0.71118888420E+03  0.20305539951E+04  0.19019358291E+04 0.  0.
        5    1    3    3  502    0 -0.56738764000E+02 -0.48245760532E+03  0.12283954090E+04  0.13209700977E+04  0.46999998093E+01 0. -1.
       -5    1    3    3    0  502  0.56738764000E+02  0.48245760532E+03 -0.51720652475E+03  0.70958389745E+03  0.46999998093E+01 0.  1.
</event>
<event>
 5   0  0.3144958E-05  0.1905169E+04  0.7818609E-02  0.8652288E-01
       -1   -1    0    0    0  501  0.00000000000E+00  0.00000000000E+00  0.67347356094E+03  0.67347356096E+03  0.50400001928E-02 0.  1.
        1   -1    0    0  501    0  0.00000000000E+00  0.00000000000E+00 -0.13473692779E+04  0.13473692779E+04  0.50400001928E-02 0. -1.
    10030    2    1    2    0    0  0.00000000000E+00  0.00000000000E+00 -0.67389571697E+03  0.20208428389E+04  0.19051693736E+04 0.  0.
        4    1    3    3  502    0  0.39117745298E+03  0.67783135616E+03 -0.91300609956E+03  0.12025210592E+04  0.12699999809E+01 0. -1.
       -4    1    3    3    0  502 -0.39117745298E+03 -0.67783135616E+03  0.23911038259E+03  0.81832177966E+03  0.12699999809E+01 0.  1.
</event>
<event>
 5   0  0.6452182E-05  0.1904329E+04  0.7818609E-02  0.8652705E-01
        2   -1    0    0  501    0  0.00000000000E+00  0.00000000000E+00  0.19048631742E+04  0.19048631742E+04  0.25500000920E-02 0.  1.
       -2   -1    0    0    0  501  0.00000000000E+00  0.00000000000E+00 -0.47594852015E+03  0.47594852015E+03  0.25500000920E-02 0. -1.
    10030    2    1    2    0    0  0.00000000000E+00  0.00000000000E+00  0.14289146540E+04  0.23808116943E+04  0.19043285524E+04 0.  0.
        3    1    3    3  502    0 -0.57882919307E+02 -0.84361153201E+03  0.16723350410E+03  0.86197326199E+03  0.10100000352E+00 0. -1.
       -3    1    3    3    0  502  0.57882919307E+02  0.84361153201E+03  0.12616811499E+04  0.15188384324E+04  0.10100000352E+00 0.  1.
</event>
<event>
 5   0  0.3203527E-05  0.1899619E+04  0.7818609E-02  0.8655046E-01
       -1   -1    0    0    0  501  0.00000000000E+00  0.00000000000E+00  0.74833318342E+03  0.74833318344E+03  0.50400001928E-02 0.  1.
        1   -1    0    0  501    0  0.00000000000E+00  0.00000000000E+00 -0.12055301101E+04  0.12055301101E+04  0.50400001928E-02 0. -1.
    10030    2    1    2    0    0  0.00000000000E+00  0.00000000000E+00 -0.45719692669E+03  0.19538632936E+04  0.18996191040E+04 0.  0.
        1    1    3    3  502    0 -0.65889164749E+02 -0.32210032251E+03  0.68794079998E+03  0.76246478220E+03  0.50400001928E-02 0.  1.
       -1    1    3    3    0  502  0.65889164749E+02  0.32210032251E+03 -0.11451377267E+04  0.11913985114E+04  0.50400001928E-02 0. -1.
</event>
<event>
 5   0  0.6452182E-05  0.1894116E+04  0.7818609E-02  0.8657791E-01
       -2   -1    0    0    0  501  0.00000000000E+00  0.00000000000E+00  0.77169882072E+03  0.77169882073E+03  0.25500000920E-02 0.  1.
        2   -1    0    0  501    0  0.00000000000E+00  0.00000000000E+00 -0.11622651808E+04  0.11622651808E+04  0.25500000920E-02 0. -1.
    10030    2    1    2    0    0  0.00000000000E+00  0.00000000000E+00 -0.39056636011E+03  0.19339640016E+04  0.18941158037E+04 0.  0.
        3    1    3    3  502    0  0.17241383265E+03  0.49012799022E+03  0.61318715615E+03  0.80371044236E+03  0.10100000352E+00 0.  1.
       -3    1    3    3    0  502 -0.17241383265E+03 -0.49012799022E+03 -0.10037535163E+04  0.11302535592E+04  0.10100000352E+00 0. -1.
</event>
<event>
 5   0  0.6395992E-05  0.1898433E+04  0.7818609E-02  0.8655637E-01
       -2   -1    0    0    0  501  0.00000000000E+00  0.00000000000E+00  0.58543320672E+03  0.58543320673E+03  0.25500000920E-02 0. -1.
        2   -1    0    0  501    0  0.00000000000E+00  0.00000000000E+00 -0.15390517250E+04  0.15390517250E+04  0.25500000920E-02 0.  1.
    10030    2    1    2    0    0  0.00000000000E+00  0.00000000000E+00 -0.95361851829E+03  0.21244849318E+04  0.18984330240E+04 0.  0.
        4    1    3    3  502    0  0.72855708325E+02  0.93227477297E+03 -0.65920841597E+03  0.11441160584E+04  0.12699999809E+01 0.  1.
       -4    1    3    3    0  502 -0.72855708325E+02 -0.93227477297E+03 -0.29441010233E+03  0.98036887333E+03  0.12699999809E+01 0. -1.
</event>
<event>
 5   0  0.3144958E-05  0.1902122E+04  0.7818609E-02  0.8653801E-01
        1   -1    0    0  501    0  0.00000000000E+00  0.00000000000E+00  0.15553239345E+04  0.15553239346E+04  0.50400001928E-02 0. -1.
       -1   -1    0    0    0  501  0.00000000000E+00  0.00000000000E+00 -0.58156188689E+03  0.58156188691E+03  0.50400001928E-02 0.  1.
    10030    2    1    2    0    0  0.00000000000E+00  0.00000000000E+00  0.97376204765E+03  0.21368858215E+04  0.19021221014E+04 0.  0.
        4    1    3    3  502    0 -0.76149617982E+02  0.59863886662E+03  0.13126903842E+04  0.14447577356E+04  0.12699999809E+01 0. -1.
       -4    1    3    3    0  502  0.76149617982E+02 -0.59863886662E+03 -0.33892833658E+03  0.69212808582E+03  0.12699999809E+01 0.  1.
</event>
<event>
 5   0  0.3203527E-05  0.1810299E+04  0.7818609E-02  0.8700842E-01
        1   -1    0    0  501    0  0.00000000000E+00  0.00000000000E+00  0.32388102396E+04  0.32388102396E+04  0.50400001928E-02 0.  1.
       -1   -1    0    0    0  501  0.00000000000E+00  0.00000000000E+00 -0.25296183338E+03  0.25296183343E+03  0.50400001928E-02 0. -1.
    10030    2    1    2    0    0  0.00000000000E+00  0.00000000000E+00  0.29858484062E+04  0.34917720731E+04  0.18102987337E+04 0.  0.
        1    1    3    3  502    0  0.31875664316E+03 -0.32523170087E+02 -0.13991599734E+03  0.34962843203E+03  0.50400001928E-02 0. -1.
       -1    1    3    3    0  502 -0.31875664316E+03  0.32523170087E+02  0.31257644036E+04  0.31421436410E+04  0.50400001928E-02 0.  1.
</event>
<event>
 5   0  0.6423388E-05  0.1906942E+04  0.7818609E-02  0.8651409E-01
       -2   -1    0    0    0  501  0.00000000000E+00  0.00000000000E+00  0.57221859517E+03  0.57221859518E+03  0.25500000920E-02 0.  1.
        2   -1    0    0  501    0  0.00000000000E+00  0.00000000000E+00 -0.15887402622E+04  0.15887402622E+04  0.25500000920E-02 0. -1.
    10030    2    1    2    0    0  0.00000000000E+00  0.00000000000E+00 -0.10165216670E+04  0.21609588573E+04  0.19069417620E+04 0.  0.
        2    1    3    3  502    0 -0.36204210919E+03  0.41575528425E+03  0.37329793904E+03  0.66579148126E+03  0.25500000920E-02 0.  1.
       -2    1    3    3    0  502  0.36204210919E+03 -0.41575528425E+03 -0.13898196060E+04  0.14951673761E+04  0.25500000920E-02 0. -1.
</event>
<event>
 5   0  0.6452182E-05  0.1897250E+04  0.7818609E-02  0.8656226E-01
       -2   -1    0    0    0  501  0.00000000000E+00  0.00000000000E+00  0.38128142305E+03  0.38128142306E+03  0.25500000920E-02 0. -1.
        2   -1    0    0  501    0  0.00000000000E+00  0.00000000000E+00 -0.23601713364E+04  0.23601713364E+04  0.25500000920E-02 0.  1.
    10030    2    1    2    0    0  0.00000000000E+00  0.00000000000E+00 -0.19788899134E+04  0.27414527595E+04  0.18972501003E+04 0.  0.
        3    1    3    3  502    0  0.12040204133E+03 -0.39848950270E+03  0.24225113157E+03  0.48163903109E+03  0.10100000352E+00 0. -1.
       -3    1    3    3    0  502 -0.12040204133E+03  0.39848950270E+03 -0.22211410450E+04  0.22598137284E+04  0.10100000352E+00 0.  1.
</event>
<event>
 5   0  0.3144958E-05  0.1894450E+04  0.7818609E-02  0.8657624E-01
       -1   -1    0    0    0  501  0.00000000000E+00  0.00000000000E+00  0.10721041587E+04  0.10721041587E+04  0.50400001928E-02 0. -1.
        1   -1    0    0  501    0  0.00000000000E+00  0.00000000000E+00 -0.83689168512E+03  0.83689168513E+03  0.50400001928E-02 0.  1.
    10030    2    1    2    0    0  0.00000000000E+00  0.00000000000E+00  0.23521247355E+03  0.19089958438E+04  0.18944498473E+04 0.  0.
        4    1    3    3  502    0 -0.68490499697E+03  0.22548420176E+03 -0.50135387430E+03  0.87823419445E+03  0.12699999809E+01 0.  1.
       -4    1    3    3    0  502  0.68490499697E+03 -0.22548420176E+03  0.73656634785E+03  0.10307616494E+04  0.12699999809E+01 0. -1.
</event>
<event>
 5   0  0.3086139E-05  0.1901144E+04  0.7818609E-02  0.8654287E-01
       -1   -1    0    0    0  501  0.00000000000E+00  0.00000000000E+00  0.90238191953E+03  0.90238191955E+03  0.50400001928E-02 0. -1.
        1   -1    0    0  501    0  0.00000000000E+00  0.00000000000E+00 -0.10013357858E+04  0.10013357858E+04  0.50400001928E-02 0.  1.
    10030    2    1    2    0    0  0.00000000000E+00  0.00000000000E+00 -0.98953866265E+02  0.19037177054E+04  0.19011441908E+04 0.  0.
        2    1    3    3  502    0  0.72703289210E+03 -0.60788077730E+03  0.24727649810E+02  0.94800175225E+03  0.25500000920E-02 0. -1.
       -2    1    3    3    0  502 -0.72703289210E+03  0.60788077730E+03 -0.12368151607E+03  0.95571595311E+03  0.25500000920E-02 0.  1.
</event>
<event>
 5   0  0.3203527E-05  0.1896122E+04  0.7818609E-02  0.8656789E-01
        1   -1    0    0  501    0  0.00000000000E+00  0.00000000000E+00  0.26020176248E+04  0.26020176248E+04  0.50400001928E-02 0. -1.
       -1   -1    0    0    0  501  0.00000000000E+00  0.00000000000E+00 -0.34543170564E+03  0.34543170567E+03  0.50400001928E-02 0.  1.
    10030    2    1    2    0    0  0.00000000000E+00  0.00000000000E+00  0.22565859192E+04  0.29474493305E+04  0.18961217116E+04 0.  0.
        1    1    3    3  502    0  0.17686813774E+03  0.88693933830E+03  0.15703609314E+04  0.18121747109E+04  0.50400001928E-02 0. -1.
       -1    1    3    3    0  502 -0.17686813774E+03 -0.88693933830E+03  0.68622498773E+03  0.11352746195E+04  0.50400001928E-02 0.  1.
</event>
<event>
 5   0  0.6423388E-05  0.1863585E+04  0.7818609E-02  0.8673198E-01
       -2   -1    0    0    0  501  0.00000000000E+00  0.00000000000E+00  0.62511016391E+03  0.62511016392E+03  0.25500000920E-02 0. -1.
        2   -1    0    0  501    0  0.00000000000E+00  0.00000000000E+00 -0.13889343889E+04  0.13889343889E+04  0.25500000920E-02 0.  1.
    10030    2    1    2    0    0  0.00000000000E+00  0.00000000000E+00 -0.76382422494E+03  0.20140445528E+04  0.18635847214E+04 0.  0.
        2    1    3    3  502    0 -0.77795180865E+03  0.51284611788E+03 -0.38634791189E+03  0.10087045485E+04  0.25500000920E-02 0. -1.
       -2    1    3    3    0  502  0.77795180865E+03 -0.51284611788E+03 -0.37747631305E+03  0.10053400042E+04  0.25500000920E-02 0.  1.
</event>
<event>
 5   0  0.3147063E-05  0.1901201E+04  0.7818609E-02  0.8654259E-01
       -1   -1    0    0    0  501  0.00000000000E+00  0.00000000000E+00  0.10466439159E+04  0.10466439159E+04  0.50400001928E-02 0. -1.
        1   -1    0    0  501    0  0.00000000000E+00  0.00000000000E+00 -0.86337008846E+03  0.86337008848E+03  0.50400001928E-02 0.  1.
    10030    2    1    2    0    0  0.00000000000E+00  0.00000000000E+00  0.18327382740E+03  0.19100140044E+04  0.19012007261E+04 0.  0.
        5    1    3    3  502    0  0.33990818997E+03 -0.67368818964E+03  0.67243936360E+03  0.10107374249E+04  0.46999998093E+01 0. -1.
       -5    1    3    3    0  502 -0.33990818997E+03  0.67368818964E+03 -0.48916553620E+03  0.89927657941E+03  0.46999998093E+01 0.  1.
</event>
<event>
 5   0  0.3083469E-05  0.1882730E+04  0.7818609E-02  0.8663501E-01
        1   -1    0    0  501    0  0.00000000000E+00  0.00000000000E+00  0.69148408509E+03  0.69148408511E+03  0.50400001928E-02 0. -1.
       -1   -1    0    0    0  501  0.00000000000E+00  0.00000000000E+00 -0.12815455062E+04  0.12815455062E+04  0.50400001928E-02 0.  1.
    10030    2    1    2    0    0  0.00000000000E+00  0.00000000000E+00 -0.59006142114E+03  0.19730295913E+04  0.18827302748E+04 0.  0.
        3    1    3    3  502    0 -0.31598782805E+02  0.90571175618E+03 -0.28147829264E+02  0.90669982842E+03  0.10100000352E+00 0. -1.
       -3    1    3    3    0  502  0.31598782805E+02 -0.90571175618E+03 -0.56191359188E+03  0.10663297629E+04  0.10100000352E+00 0.  1.
</event>
<event>
 5   0  0.6452182E-05  0.1897401E+04  0.7818609E-02  0.8656151E-01
        2   -1    0    0  501    0  0.00000000000E+00  0.00000000000E+00  0.20080080371E+04  0.20080080371E+04  0.25500000920E-02 0. -1.
       -2   -1    0    0    0  501  0.00000000000E+00  0.00000000000E+00 -0.44822164335E+03  0.44822164336E+03  0.25500000920E-02 0.  1.
    10030    2    1    2    0    0  0.00000000000E+00  0.00000000000E+00  0.15597863937E+04  0.24562296804E+04  0.18974010248E+04 0.  0.
        3    1    3    3  502    0  0.22775215329E+03  0.68910626568E+03 -0.11032059432E+02  0.72585136582E+03  0.10100000352E+00 0.  1.
       -3    1    3    3    0  502 -0.22775215329E+03 -0.68910626568E+03  0.15708184532E+04  0.17303783146E+04  0.10100000352E+00 0. -1.
</event>
<event>
 5   0  0.6452182E-05  0.1903051E+04  0.7818609E-02  0.8653339E-01
       -2   -1    0    0    0  501  0.00000000000E+00  0.00000000000E+00  0.43009496443E+03  0.43009496443E+03  0.25500000920E-02 0.  1.
        2   -1    0    0  501    0  0.00000000000E+00  0.00000000000E+00 -0.21051191317E+04  0.21051191317E+04  0.25500000920E-02 0. -1.
    10030    2    1    2    0    0  0.00000000000E+00  0.00000000000E+00 -0.16750241673E+04  0.25352140961E+04  0.19030513793E+04 0.  0.
        3    1    3    3  502    0 -0.16982374276E+03 -0.69416808589E+03 -0.16744497623E+04  0.18205744840E+04  0.10100000352E+00 0. -1.
       -3    1    3    3    0  502  0.16982374276E+03  0.69416808589E+03 -0.57440494997E+00  0.71463961213E+03  0.10100000352E+00 0.  1.
</event>
<event>
 5   0  0.3203527E-05  0.1908695E+04  0.7818609E-02  0.8650541E-01
        1   -1    0    0  501    0  0.00000000000E+00  0.00000000000E+00  0.19058943960E+04  0.19058943960E+04  0.50400001928E-02 0. -1.
       -1   -1    0    0    0  501  0.00000000000E+00  0.00000000000E+00 -0.47787480854E+03  0.47787480857E+03  0.50400001928E-02 0.  1.
    10030    2    1    2    0    0  0.00000000000E+00  0.00000000000E+00  0.14280195875E+04  0.23837692046E+04  0.19086947578E+04 0.  0.
        1    1    3    3  502    0  0.18098977520E+03  0.75127699839E+03  0.14133988977E+04  0.16108602891E+04  0.50400001928E-02 0. -1.
       -1    1    3    3    0  502 -0.18098977520E+03 -0.75127699839E+03  0.14620689807E+02  0.77290891548E+03  0.50400001928E-02 0.  1.
</event>
<event>
 5   0  0.6361762E-05  0.1900231E+04  0.7818609E-02  0.8654741E-01
        2   -1    0    0  501    0  0.00000000000E+00  0.00000000000E+00  0.86104214966E+03  0.86104214966E+03  0.25500000920E-02 0. -1.
       -2   -1    0    0    0  501  0.00000000000E+00  0.00000000000E+00 -0.10484033291E+04  0.10484033291E+04  0.25500000920E-02 0.  1.
    10030    2    1    2    0    0  0.00000000000E+00  0.00000000000E+00 -0.18736117941E+03  0.19094454787E+04  0.19002309925E+04 0.  0.
        1    1    3    3  502    0  0.67921891018E+03 -0.63951493868E+03  0.87197199858E+02  0.93697440543E+03  0.50400001928E-02 0. -1.
       -1    1    3    3    0  502 -0.67921891018E+03  0.63951493868E+03 -0.27455837926E+03  0.97247107329E+03  0.50400001928E-02 0.  1.
</event>
<event>
 5   0  0.3086139E-05  0.1897312E+04  0.7818609E-02  0.8656195E-01
       -1   -1    0    0    0  501  0.00000000000E+00  0.00000000000E+00  0.76436784618E+03  0.76436784620E+03  0.50400001928E-02 0. -1.
        1   -1    0    0  501    0  0.00000000000E+00  0.00000000000E+00 -0.11773762412E+04  0.11773762412E+04  0.50400001928E-02 0.  1.
    10030    2    1    2    0    0  0.00000000000E+00  0.00000000000E+00 -0.41300839502E+03  0.19417440874E+04  0.18973123535E+04 0.  0.
        2    1    3    3  502    0 -0.29039327982E+03 -0.85881162262E+03 -0.49244454865E+03  0.10316914721E+04  0.25500000920E-02 0.  1.
       -2    1    3    3    0  502  0.29039327982E+03  0.85881162262E+03  0.79436153623E+02  0.91005261530E+03  0.25500000920E-02 0. -1.
</event>
<event>
 5   0  0.3203527E-05  0.1897042E+04  0.7818609E-02  0.8656330E-01
        1   -1    0    0  501    0  0.00000000000E+00  0.00000000000E+00  0.60154350611E+03  0.60154350613E+03  0.50400001928E-02 0.  1.
       -1   -1    0    0    0  501  0.00000000000E+00  0.00000000000E+00 -0.14956400300E+04  0.14956400300E+04  0.50400001928E-02 0. -1.
    10030    2    1    2    0    0  0.00000000000E+00  0.00000000000E+00 -0.89409652389E+03  0.20971835361E+04  0.18970424851E+04 0.  0.
        1    1    3    3  502    0  0.32809349359E+03  0.72808887822E+03  0.11874158250E+03  0.80737743253E+03  0.50400001928E-02 0.  1.
       -1    1    3    3    0  502 -0.32809349359E+03 -0.72808887822E+03 -0.10128381064E+04  0.12898061036E+04  0.50400001928E-02 0. -1.
</event>
<event>
 5   0  0.2279625E-05  0.1899510E+04  0.7818609E-02  0.8655100E-01
        4   -1    0    0  501    0  0.00000000000E+00  0.00000000000E+00  0.49114338359E+03  0.49114502557E+03  0.12699999809E+01 0.  1.
       -4   -1    0    0    0  501  0.00000000000E+00  0.00000000000E+00 -0.18365964737E+04  0.18365969128E+04  0.12699999809E+01 0. -1.
    10030    2    1    2    0    0  0.00000000000E+00  0.00000000000E+00 -0.13454530901E+04  0.23277419383E+04  0.18995100721E+04 0.  0.
        3    1    3    3  502    0 -0.61824955571E+02 -0.13457635511E+03  0.47690748445E+03  0.49937348689E+03  0.10100000352E+00 0.  1.
       -3    1    3    3    0  502  0.61824955571E+02  0.13457635511E+03 -0.18223605745E+04  0.18283684514E+04  0.10100000352E+00 0. -1.
</event>
<event>
 5   0  0.6361762E-05  0.1870173E+04  0.7818609E-02  0.8669847E-01
       -2   -1    0    0    0  501  0.00000000000E+00  0.00000000000E+00  0.58361875218E+03  0.58361875219E+03  0.25500000920E-02 0.  1.
        2   -1    0    0  501    0  0.00000000000E+00  0.00000000000E+00 -0.14982155465E+04  0.14982155466E+04  0.25500000920E-02 0. -1.
    10030    2    1    2    0    0  0.00000000000E+00  0.00000000000E+00 -0.91459679436E+03  0.20818342987E+04  0.18701729201E+04 0.  0.
        1    1    3    3  502    0 -0.20631496740E+03  0.86978185456E+03 -0.76276440235E+03  0.11751152598E+04  0.50400001928E-02 0. -1.
       -1    1    3    3    0  502  0.20631496740E+03 -0.86978185456E+03 -0.15183239201E+03  0.90671903894E+03  0.50400001928E-02 0.  1.
</event>
<event>
 5   0  0.3144958E-05  0.1898190E+04  0.7818609E-02  0.8655758E-01
        1   -1    0    0  501    0  0.00000000000E+00  0.00000000000E+00  0.24630932924E+04  0.24630932924E+04  0.50400001928E-02 0. -1.
       -1   -1    0    0    0  501  0.00000000000E+00  0.00000000000E+00 -0.36571148155E+03  0.36571148159E+03  0.50400001928E-02 0.  1.
    10030    2    1    2    0    0  0.00000000000E+00  0.00000000000E+00  0.20973818109E+04  0.28288047740E+04  0.18981901878E+04 0.  0.
        4    1    3    3  502    0  0.50447197024E+02 -0.94056092190E+03  0.12223569871E+04  0.15431649245E+04  0.12699999809E+01 0.  1.
       -4    1    3    3    0  502 -0.50447197024E+02  0.94056092190E+03  0.87502482379E+03  0.12856398495E+04  0.12699999809E+01 0. -1.
</event>
<event>
 5   0  0.3086139E-05  0.1901846E+04  0.7818609E-02  0.8653938E-01
       -1   -1    0    0    0  501  0.00000000000E+00  0.00000000000E+00  0.50123893871E+03  0.50123893873E+03  0.50400001928E-02 0. -1.
        1   -1    0    0  501    0  0.00000000000E+00  0.00000000000E+00 -0.18040389949E+04  0.18040389949E+04  0.50400001928E-02 0.  1.
    10030    2    1    2    0    0  0.00000000000E+00  0.00000000000E+00 -0.13028000562E+04  0.23052779336E+04  0.19018460413E+04 0.  0.
        2    1    3    3  502    0  0.68589005811E+02 -0.81018593284E+03 -0.12491011695E+04  0.14904225673E+04  0.25500000920E-02 0.  1.
       -2    1    3    3    0  502 -0.68589005811E+02  0.81018593284E+03 -0.53698886615E+02  0.81485536626E+03  0.25500000920E-02 0. -1.
</event>
<event>
 5   0  0.6423388E-05  0.1899479E+04  0.7818609E-02  0.8655116E-01
        2   -1    0    0  501    0  0.00000000000E+00  0.00000000000E+00  0.13100576489E+04  0.13100576489E+04  0.25500000920E-02 0.  1.
       -2   -1    0    0    0  501  0.00000000000E+00  0.00000000000E+00 -0.68852353978E+03  0.68852353978E+03  0.25500000920E-02 0. -1.
    10030    2    1    2    0    0  0.00000000000E+00  0.00000000000E+00  0.62153410915E+03  0.19985811887E+04  0.18994794337E+04 0.  0.
        2    1    3    3  502    0  0.92012201568E+03  0.10365871800E+03  0.53306181784E+03  0.10684215251E+04  0.25500000920E-02 0.  1.
       -2    1    3    3    0  502 -0.92012201568E+03 -0.10365871800E+03  0.88472291315E+02  0.93015966366E+03  0.25500000920E-02 0. -1.
</event>
<event>
 5   0  0.3083469E-05  0.1899735E+04  0.7818609E-02  0.8654988E-01
        1   -1    0    0  501    0  0.00000000000E+00  0.00000000000E+00  0.12194199703E+04  0.12194199704E+04  0.50400001928E-02 0. -1.
       -1   -1    0    0    0  501  0.00000000000E+00  0.00000000000E+00 -0.73989956690E+03  0.73989956692E+03  0.50400001928E-02 0.  1.
    10030    2    1    2    0    0  0.00000000000E+00  0.00000000000E+00  0.47952040345E+03  0.19593195373E+04  0.18997350425E+04 0.  0.
        3    1    3    3  502    0  0.79071334173E+03  0.50826692183E+03  0.98778106852E+02  0.94515605971E+03  0.10100000352E+00 0. -1.
       -3    1    3    3    0  502 -0.79071334173E+03 -0.50826692183E+03  0.38074229659E+03  0.10141634776E+04  0.10100000352E+00 0.  1.
</event>
<event>
 5   0  0.6098377E-05  0.1901334E+04  0.7818609E-02  0.8654193E-01
       -2   -1    0    0    0  501  0.00000000000E+00  0.00000000000E+00  0.75414637134E+03  0.75414637135E+03  0.25500000920E-02 0. -1.
        2   -1    0    0  501    0  0.00000000000E+00  0.00000000000E+00 -0.11983985063E+04  0.11983985063E+04  0.25500000920E-02 0.  1.
    10030    2    1    2    0    0  0.00000000000E+00  0.00000000000E+00 -0.44425213496E+03  0.19525448777E+04  0.19013341473E+04 0.  0.
        5    1    3    3  502    0  0.93470880319E+03 -0.13889741422E+03 -0.32871349945E+03  0.10005237094E+04  0.46999998093E+01 0.  1.
       -5    1    3    3    0  502 -0.93470880319E+03  0.13889741422E+03 -0.11553863552E+03  0.95202116822E+03  0.46999998093E+01 0. -1.
</event>
<event>
 5   0  0.3083469E-05  0.1890335E+04  0.7818609E-02  0.8659682E-01
       -1   -1    0    0    0  501  0.00000000000E+00  0.00000000000E+00  0.13186369204E+04  0.13186369204E+04  0.50400001928E-02 0.  1.
        1   -1    0    0  501    0  0.00000000000E+00  0.00000000000E+00 -0.67747355327E+03  0.67747355329E+03  0.50400001928E-02 0. -1.
    10030    2    1    2    0    0  0.00000000000E+00  0.00000000000E+00  0.64116336711E+03  0.19961104737E+04  0.18903350390E+04 0.  0.
        3    1    3    3  502    0  0.18947016328E+03 -0.91997104095E+03  0.20935001777E+03  0.96232691904E+03  0.10100000352E+00 0. -1.
       -3    1    3    3    0  502 -0.18947016328E+03  0.91997104095E+03  0.43181334935E+03  0.10337835546E+04  0.10100000352E+00 0.  1.
</event>
<event>
 5   0  0.6423388E-05  0.1894461E+04  0.7818609E-02  0.8657619E-01
       -2   -1    0    0    0  501  0.00000000000E+00  0.00000000000E+00  0.62939887185E+03  0.62939887186E+03  0.25500000920E-02 0. -1.
        2   -1    0    0  501    0  0.00000000000E+00  0.00000000000E+00 -0.14255590540E+04  0.14255590540E+04  0.25500000920E-02 0.  1.
    10030    2    1    2    0    0  0.00000000000E+00  0.00000000000E+00 -0.79616018216E+03  0.20549579259E+04  0.18944606202E+04 0.  0.
        2    1    3    3  502    0  0.11885221385E+03 -0.90098524737E+03 -0.68781385621E+03  0.11397316199E+04  0.25500000920E-02 0.  1.
       -2    1    3    3    0  502 -0.11885221385E+03  0.90098524737E+03 -0.10834632595E+03  0.91522630593E+03  0.25500000920E-02 0. -1.
</event>
<event>
 5   0  0.6423388E-05  0.1890755E+04  0.7818609E-02  0.8659472E-01
        2   -1    0    0  501    0  0.00000000000E+00  0.00000000000E+00  0.11142796388E+04  0.11142796388E+04  0.25500000920E-02 0.  1.
       -2   -1    0    0    0  501  0.00000000000E+00  0.00000000000E+00 -0.80207757463E+03  0.80207757463E+03  0.25500000920E-02 0. -1.
    10030    2    1    2    0    0  0.00000000000E+00  0.00000000000E+00  0.31220206420E+03  0.19163572135E+04  0.18907550980E+04 0.  0.
        2    1    3    3  502    0 -0.48774344390E+03  0.26713324384E+03 -0.61876714203E+03  0.83194147216E+03  0.25500000920E-02 0. -1.
       -2    1    3    3    0  502  0.48774344390E+03 -0.26713324384E+03  0.93096920623E+03  0.10844157413E+04  0.25500000920E-02 0.  1.
</event>
<event>
 5   0  0.3203527E-05  0.1888740E+04  0.7818609E-02  0.8660482E-01
        1   -1    0    0  501    0  0.00000000000E+00  0.00000000000E+00  0.13935110740E+04  0.13935110740E+04  0.50400001928E-02 0. -1.
       -1   -1    0    0    0  501  0.00000000000E+00  0.00000000000E+00 -0.63999110112E+03  0.63999110114E+03  0.50400001928E-02 0.  1.
    10030    2    1    2    0    0  0.00000000000E+00  0.00000000000E+00  0.75351997285E+03  0.20335021751E+04  0.18887399892E+04 0.  0.
        1    1    3    3  502    0 -0.24201347758E+00 -0.84410932386E+03  0.83267055404E+03  0.11856900357E+04  0.50400001928E-02 0. -1.
       -1    1    3    3    0  502  0.24201347758E+00  0.84410932386E+03 -0.79150581187E+02  0.84781213940E+03  0.50400001928E-02 0.  1.
</event>
<event>
 5   0  0.6452182E-05  0.1902089E+04  0.7818609E-02  0.8653817E-01
       -2   -1    0    0    0  501  0.00000000000E+00  0.00000000000E+00  0.31473145836E+03  0.31473145837E+03  0.25500000920E-02 0.  1.
        2   -1    0    0  501    0  0.00000000000E+00  0.00000000000E+00 -0.28738327370E+04  0.28738327370E+04  0.25500000920E-02 0. -1.
    10030    2    1    2    0    0  0.00000000000E+00  0.00000000000E+00 -0.25591012786E+04  0.31885641953E+04  0.19020889237E+04 0.  0.
        3    1    3    3  502    0 -0.33578578643E+03  0.82159621888E+03 -0.18522466821E+04  0.20539206953E+04  0.10100000352E+00 0. -1.
       -3    1    3    3    0  502  0.33578578643E+03 -0.82159621888E+03 -0.70685459652E+03  0.11346435000E+04  0.10100000352E+00 0.  1.
</event>
<event>
 5   0  0.6423388E-05  0.1903776E+04  0.7818609E-02  0.8652979E-01
       -2   -1    0    0    0  501  0.00000000000E+00  0.00000000000E+00  0.47055790660E+03  0.47055790660E+03  0.25500000920E-02 0.  1.
        2   -1    0    0  501    0  0.00000000000E+00  0.00000000000E+00 -0.19255672325E+04  0.19255672325E+04  0.25500000920E-02 0. -1.
    10030    2    1    2    0    0  0.00000000000E+00  0.00000000000E+00 -0.14550093259E+04  0.23961251391E+04  0.19037761276E+04 0.  0.
        2    1    3    3  502    0 -0.83452208054E+03  0.45627298525E+03 -0.67910521509E+03  0.11686727656E+04  0.25500000920E-02 0. -1.
       -2    1    3    3    0  502  0.83452208054E+03 -0.45627298525E+03 -0.77590411086E+03  0.12274523735E+04  0.25500000920E-02 0.  1.
</event>
<event>
 5   0  0.3083469E-05  0.1896279E+04  0.7818609E-02  0.8656711E-01
        1   -1    0    0  501    0  0.00000000000E+00  0.00000000000E+00  0.10150435736E+04  0.10150435737E+04  0.50400001928E-02 0.  1.
       -1   -1    0    0    0  501  0.00000000000E+00  0.00000000000E+00 -0.88564561287E+03  0.88564561288E+03  0.50400001928E-02 0. -1.
    10030    2    1    2    0    0  0.00000000000E+00  0.00000000000E+00  0.12939796077E+03  0.19006891865E+04  0.18962793970E+04 0.  0.
        3    1    3    3  502    0  0.11829351889E+03 -0.70437841411E+03  0.68970866236E+03  0.99289493705E+03  0.10100000352E+00 0.  1.
       -3    1    3    3    0  502 -0.11829351889E+03  0.70437841411E+03 -0.56031070159E+03  0.90779424949E+03  0.10100000352E+00 0. -1.
</event>
<event>
 5   0  0.3083469E-05  0.1900976E+04  0.7818609E-02  0.8654371E-01
        1   -1    0    0  501    0  0.00000000000E+00  0.00000000000E+00  0.73671616643E+03  0.73671616644E+03  0.50400001928E-02 0. -1.
       -1   -1    0    0    0  501  0.00000000000E+00  0.00000000000E+00 -0.12262895353E+04  0.12262895353E+04  0.50400001928E-02 0.  1.
    10030    2    1    2    0    0  0.00000000000E+00  0.00000000000E+00 -0.48957336891E+03  0.19630057018E+04  0.19009758814E+04 0.  0.
        3    1    3    3  502    0 -0.20160908420E+03  0.45307239536E+03  0.59254009010E+03  0.77267366129E+03  0.10100000352E+00 0. -1.
       -3    1    3    3    0  502  0.20160908420E+03 -0.45307239536E+03 -0.10821134590E+04  0.11903320405E+04  0.10100000352E+00 0.  1.
</event>
<event>
 5   0  0.3144958E-05  0.1889925E+04  0.7818609E-02  0.8659888E-01
       -1   -1    0    0    0  501  0.00000000000E+00  0.00000000000E+00  0.10617827277E+04  0.10617827277E+04  0.50400001928E-02 0.  1.
        1   -1    0    0  501    0  0.00000000000E+00  0.00000000000E+00 -0.84099485493E+03  0.84099485494E+03  0.50400001928E-02 0. -1.
    10030    2    1    2    0    0  0.00000000000E+00  0.00000000000E+00  0.22078787278E+03  0.19027775827E+04  0.18899246663E+04 0.  0.
        4    1    3    3  502    0 -0.82652622508E+03 -0.11872039907E+03  0.55579610967E+03  0.10030708162E+04  0.12699999809E+01 0. -1.
       -4    1    3    3    0  502  0.82652622508E+03  0.11872039907E+03 -0.33500823690E+03  0.89970676645E+03  0.12699999809E+01 0.  1.
</event>
<event>
 5   0  0.6452182E-05  0.1925454E+04  0.7818609E-02  0.8642289E-01
        2   -1    0    0  501    0  0.00000000000E+00  0.00000000000E+00  0.52515304753E+03  0.52515304754E+03  0.25500000920E-02 0.  1.
       -2   -1    0    0    0  501  0.00000000000E+00  0.00000000000E+00 -0.17649009780E+04  0.17649009780E+04  0.25500000920E-02 0. -1.
    10030    2    1    2    0    0  0.00000000000E+00  0.00000000000E+00 -0.12397479305E+04  0.22900540256E+04  0.19254538449E+04 0.  0.
        3    1    3    3  502    0 -0.30856810197E+03 -0.91187762737E+03 -0.60751172556E+03  0.11383345676E+04  0.10100000352E+00 0.  1.
       -3    1    3    3    0  502  0.30856810197E+03  0.91187762737E+03 -0.63223620493E+03  0.11517194580E+04  0.10100000352E+00 0. -1.
</event>
<event>
 5   0  0.6423388E-05  0.1918289E+04  0.7818609E-02  0.8645806E-01
       -2   -1    0    0    0  501  0.00000000000E+00  0.00000000000E+00  0.12979578503E+04  0.12979578503E+04  0.25500000920E-02 0.  1.
        2   -1    0    0  501    0  0.00000000000E+00  0.00000000000E+00 -0.70877368554E+03  0.70877368555E+03  0.25500000920E-02 0. -1.
    10030    2    1    2    0    0  0.00000000000E+00  0.00000000000E+00  0.58918416477E+03  0.20067315359E+04  0.19182892058E+04 0.  0.
        2    1    3    3  502    0 -0.34231379799E+03  0.61236971783E+03 -0.38961400547E+03  0.80248020591E+03  0.25500000920E-02 0. -1.
       -2    1    3    3    0  502  0.34231379799E+03 -0.61236971783E+03  0.97879817025E+03  0.12042513300E+04  0.25500000920E-02 0.  1.
</event>
<event>
 5   0  0.6395992E-05  0.1896466E+04  0.7818609E-02  0.8656617E-01
        2   -1    0    0  501    0  0.00000000000E+00  0.00000000000E+00  0.54952878980E+03  0.54952878980E+03  0.25500000920E-02 0.  1.
       -2   -1    0    0    0  501  0.00000000000E+00  0.00000000000E+00 -0.16362131552E+04  0.16362131552E+04  0.25500000920E-02 0. -1.
    10030    2    1    2    0    0  0.00000000000E+00  0.00000000000E+00 -0.10866843654E+04  0.21857419450E+04  0.18964664353E+04 0.  0.
        4    1    3    3  502    0 -0.75354083112E+03  0.34123115060E+03 -0.90806743620E+01  0.82725241242E+03  0.12699999809E+01 0.  1.
       -4    1    3    3    0  502  0.75354083112E+03 -0.34123115060E+03 -0.10776036910E+04  0.13584895326E+04  0.12699999809E+01 0. -1.
</event>
<event>
 5   0  0.3086139E-05  0.1897789E+04  0.7818609E-02  0.8655958E-01
       -1   -1    0    0    0  501  0.00000000000E+00  0.00000000000E+00  0.92802932557E+03  0.92802932558E+03  0.50400001928E-02 0.  1.
        1   -1    0    0  501    0  0.00000000000E+00  0.00000000000E+00 -0.97022839970E+03  0.97022839971E+03  0.50400001928E-02 0. -1.
    10030    2    1    2    0    0  0.00000000000E+00  0.00000000000E+00 -0.42199074130E+02  0.18982577253E+04  0.18977886157E+04 0.  0.
        2    1    3    3  502    0  0.58669677756E+03 -0.67291416582E+03 -0.34269701192E+03  0.95627811088E+03  0.25500000920E-02 0. -1.
       -2    1    3    3    0  502 -0.58669677756E+03  0.67291416582E+03  0.30049793779E+03  0.94197961442E+03  0.25500000920E-02 0.  1.
</event>
<event>
 5   0  0.2279625E-05  0.1902812E+04  0.7818609E-02  0.8653458E-01
        3   -1    0    0  501    0  0.00000000000E+00  0.00000000000E+00  0.63892111220E+03  0.63892112019E+03  0.10100000352E+00 0. -1.
       -3   -1    0    0    0  501  0.00000000000E+00  0.00000000000E+00 -0.14167214009E+04  0.14167214045E+04  0.10100000352E+00 0.  1.
    10030    2    1    2    0    0  0.00000000000E+00  0.00000000000E+00 -0.77780028866E+03  0.20556425246E+04  0.19028118404E+04 0.  0.
        5    1    3    3  502    0  0.86988443130E+03  0.24976919380E+03 -0.70583608864E+03  0.11477413681E+04  0.46999998093E+01 0.  1.
       -5    1    3    3    0  502 -0.86988443130E+03 -0.24976919380E+03 -0.71964200019E+02  0.90790115656E+03  0.46999998093E+01 0. -1.
</event>
<event>
 5   0  0.6452182E-05  0.1896066E+04  0.7818609E-02  0.8656817E-01
       -2   -1    0    0    0  501  0.00000000000E+00  0.00000000000E+00  0.10994464229E+04  0.10994464229E+04  0.25500000920E-02 0.  1.
        2   -1    0    0  501    0  0.00000000000E+00  0.00000000000E+00 -0.81747184919E+03  0.81747184919E+03  0.25500000920E-02 0. -1.
    10030    2    1    2    0    0  0.00000000000E+00  0.00000000000E+00  0.28197457370E+03  0.19169182721E+04  0.18960659276E+04 0.  0.
        3    1    3    3  502    0 -0.30702371499E+03  0.20181063336E+03 -0.74256650573E+03  0.82849026484E+03  0.10100000352E+00 0. -1.
       -3    1    3    3    0  502  0.30702371499E+03 -0.20181063336E+03  0.10245410794E+04  0.10884280072E+04  0.10100000352E+00 0.  1.
</event>
<event>
 5   0  0.6423388E-05  0.1896853E+04  0.7818609E-02  0.8656424E-01
        2   -1    0    0  501    0  0.00000000000E+00  0.00000000000E+00  0.78800934370E+03  0.78800934370E+03  0.25500000920E-02 0. -1.
       -2   -1    0    0    0  501  0.00000000000E+00  0.00000000000E+00 -0.11415001017E+04  0.11415001017E+04  0.25500000920E-02 0.  1.
    10030    2    1    2    0    0  0.00000000000E+00  0.00000000000E+00 -0.35349075802E+03  0.19295094454E+04  0.18968529157E+04 0.  0.
        2    1    3    3  502    0 -0.87602752434E+03  0.13997987835E+03  0.16443043290E+03  0.90225049571E+03  0.25500000920E-02 0. -1.
       -2    1    3    3    0  502  0.87602752434E+03 -0.13997987835E+03 -0.51792119092E+03  0.10272589497E+04  0.25500000920E-02 0.  1.
</event>
<event>
 5   0  0.3203527E-05  0.1897782E+04  0.7818609E-02  0.8655961E-01
       -1   -1    0    0    0  501  0.00000000000E+00  0.00000000000E+00  0.13861929026E+04  0.13861929026E+04  0.50400001928E-02 0. -1.
        1   -1    0    0  501    0  0.00000000000E+00  0.00000000000E+00 -0.64954487492E+03  0.64954487494E+03  0.50400001928E-02 0.  1.
    10030    2    1    2    0    0  0.00000000000E+00  0.00000000000E+00  0.73664802763E+03  0.20357377775E+04  0.18977823853E+04 0.  0.
        1    1    3    3  502    0 -0.74232357223E+03 -0.29682037739E+03 -0.17995523164E+03  0.81946965029E+03  0.50400001928E-02 0.  1.
       -1    1    3    3    0  502  0.74232357223E+03  0.29682037739E+03  0.91660325927E+03  0.12162681272E+04  0.50400001928E-02 0. -1.
</event>
<event>
 5   0  0.3083469E-05  0.1906368E+04  0.7818609E-02  0.8651693E-01
       -1   -1    0    0    0  501  0.00000000000E+00  0.00000000000E+00  0.15770604621E+04  0.15770604621E+04  0.50400001928E-02 0.  1.
        1   -1    0    0  501    0  0.00000000000E+00  0.00000000000E+00 -0.57610940156E+03  0.57610940158E+03  0.50400001928E-02 0. -1.
    10030    2    1    2    0    0  0.00000000000E+00  0.00000000000E+00  0.10009510605E+04  0.21531698637E+04  0.19063676026E+04 0.  0.
        3    1    3    3  502    0  0.51022528584E+03  0.76153546048E+03  0.79563758914E+03  0.12137978758E+04  0.10100000352E+00 0. -1.
       -3    1    3    3    0  502 -0.51022528584E+03 -0.76153546048E+03  0.20531347140E+03  0.93937198788E+03  0.10100000352E+00 0.  1.
</event>
<event>
 5   0  0.3144958E-05  0.1902714E+04  0.7818609E-02  0.8653507E-01
       -1   -1    0    0    0  501  0.00000000000E+00  0.00000000000E+00  0.69708431606E+03  0.69708431607E+03  0.50400001928E-02 0.  1.
        1   -1    0    0  501    0  0.00000000000E+00  0.00000000000E+00 -0.12983793092E+04  0.12983793092E+04  0.50400001928E-02 0. -1.
    10030    2    1    2    0    0  0.00000000000E+00  0.00000000000E+00 -0.60129499316E+03  0.19954636253E+04  0.19027136966E+04 0.  0.
        4    1    3    3  502    0 -0.74956929453E+03  0.44129163932E+03 -0.70476981433E+03  0.11195063833E+04  0.12699999809E+01 0. -1.
       -4    1    3    3    0  502  0.74956929453E+03 -0.44129163932E+03  0.10347482117E+03  0.87595724197E+03  0.12699999809E+01 0.  1.
</event>
<event>
 5   0  0.3083469E-05  0.1896714E+04  0.7818609E-02  0.8656494E-01
       -1   -1    0    0    0  501  0.00000000000E+00  0.00000000000E+00  0.10549315442E+04  0.10549315442E+04  0.50400001928E-02 0.  1.
        1   -1    0    0  501    0  0.00000000000E+00  0.00000000000E+00 -0.85254904874E+03  0.85254904875E+03  0.50400001928E-02 0. -1.
    10030    2    1    2    0    0  0.00000000000E+00  0.00000000000E+00  0.20238249547E+03  0.19074805930E+04  0.18967138788E+04 0.  0.
        3    1    3    3  502    0  0.89265505862E+03  0.27976547378E+03 -0.55510774417E+02  0.93711431014E+03  0.10100000352E+00 0. -1.
       -3    1    3    3    0  502 -0.89265505862E+03 -0.27976547378E+03  0.25789326989E+03  0.97036628283E+03  0.10100000352E+00 0.  1.
</event>
<event>
 5   0  0.6452182E-05  0.1897120E+04  0.7818609E-02  0.8656291E-01
       -2   -1    0    0    0  501  0.00000000000E+00  0.00000000000E+00  0.11229300276E+04  0.11229300276E+04  0.25500000920E-02 0. -1.
        2   -1    0    0  501    0  0.00000000000E+00  0.00000000000E+00 -0.80126618677E+03  0.80126618677E+03  0.25500000920E-02 0.  1.
    10030    2    1    2    0    0  0.00000000000E+00  0.00000000000E+00  0.32166384082E+03  0.19241962144E+04  0.18971197761E+04 0.  0.
        3    1    3    3  502    0  0.33390328094E+03 -0.27134339862E+03  0.10182654371E+04  0.11054334678E+04  0.10100000352E+00 0. -1.
       -3    1    3    3    0  502 -0.33390328094E+03  0.27134339862E+03 -0.69660159632E+03  0.81876274659E+03  0.10100000352E+00 0.  1.
</event>
<event>
 5   0  0.3086139E-05  0.1910636E+04  0.7818609E-02  0.8649580E-01
       -1   -1    0    0    0  501  0.00000000000E+00  0.00000000000E+00  0.52595635149E+03  0.52595635151E+03  0.50400001928E-02 0. -1.
        1   -1    0    0  501    0  0.00000000000E+00  0.00000000000E+00 -0.17351865207E+04  0.17351865207E+04  0.50400001928E-02 0.  1.
    10030    2    1    2    0    0  0.00000000000E+00  0.00000000000E+00 -0.12092301692E+04  0.22611428722E+04  0.19106358854E+04 0.  0.
        2    1    3    3  502    0  0.76750708611E+03 -0.13392744745E+03  0.49640034297E+02  0.78068420082E+03  0.25500000920E-02 0. -1.
       -2    1    3    3    0  502 -0.76750708611E+03  0.13392744745E+03 -0.12588702035E+04  0.14804586714E+04  0.25500000920E-02 0.  1.
</event>
<event>
 5   0  0.6361762E-05  0.1906628E+04  0.7818609E-02  0.8651564E-01
       -2   -1    0    0    0  501  0.00000000000E+00  0.00000000000E+00  0.82358773286E+03  0.82358773286E+03  0.25500000920E-02 0.  1.
        2   -1    0    0  501    0  0.00000000000E+00  0.00000000000E+00 -0.11034743260E+04  0.11034743260E+04  0.25500000920E-02 0. -1.
    10030    2    1    2    0    0  0.00000000000E+00  0.00000000000E+00 -0.27988659317E+03  0.19270620589E+04  0.19066283523E+04 0.  0.
        1    1    3    3  502    0  0.64376075881E+03  0.32943603603E+03 -0.76777027906E+03  0.10547166529E+04  0.50400001928E-02 0. -1.
       -1    1    3    3    0  502 -0.64376075881E+03 -0.32943603603E+03  0.48788368589E+03  0.87234540602E+03  0.50400001928E-02 0.  1.
</event>
<event>
 5   0  0.3086139E-05  0.1899596E+04  0.7818609E-02  0.8655058E-01
       -1   -1    0    0    0  501  0.00000000000E+00  0.00000000000E+00  0.12108937436E+04  0.12108937436E+04  0.50400001928E-02 0.  1.
        1   -1    0    0  501    0  0.00000000000E+00  0.00000000000E+00 -0.74500010275E+03  0.74500010277E+03  0.50400001928E-02 0. -1.
    10030    2    1    2    0    0  0.00000000000E+00  0.00000000000E+00  0.46589364081E+03  0.19558938463E+04  0.18995957079E+04 0.  0.
        2    1    3    3  502    0  0.12358327168E+03 -0.46016779309E+03  0.10789354637E+04  0.11794612997E+04  0.25500000920E-02 0.  1.
       -2    1    3    3    0  502 -0.12358327168E+03  0.46016779309E+03 -0.61304182286E+03  0.77643254660E+03  0.25500000920E-02 0. -1.
</event>
<event>
 5   0  0.3083469E-05  0.1899296E+04  0.7818609E-02  0.8655207E-01
       -1   -1    0    0    0  501  0.00000000000E+00  0.00000000000E+00  0.10397224839E+04  0.10397224839E+04  0.50400001928E-02 0. -1.
        1   -1    0    0  501    0  0.00000000000E+00  0.00000000000E+00 -0.86737671161E+03  0.86737671162E+03  0.50400001928E-02 0.  1.
    10030    2    1    2    0    0  0.00000000000E+00  0.00000000000E+00  0.17234577232E+03  0.19070991956E+04  0.18992957317E+04 0.  0.
        3    1    3    3  502    0 -0.73206780229E+03  0.16307878033E+03  0.67107205770E+03  0.10064073095E+04  0.10100000352E+00 0. -1.
       -3    1    3    3    0  502  0.73206780229E+03 -0.16307878033E+03 -0.49872628538E+03  0.90069188609E+03  0.10100000352E+00 0.  1.
</event>
<event>
 5   0  0.6361762E-05  0.1899214E+04  0.7818609E-02  0.8655248E-01
        2   -1    0    0  501    0  0.00000000000E+00  0.00000000000E+00  0.10508905515E+04  0.10508905515E+04  0.25500000920E-02 0.  1.
       -2   -1    0    0    0  501  0.00000000000E+00  0.00000000000E+00 -0.85808496312E+03  0.85808496312E+03  0.25500000920E-02 0. -1.
    10030    2    1    2    0    0  0.00000000000E+00  0.00000000000E+00  0.19280558840E+03  0.19089755146E+04  0.18992139218E+04 0.  0.
        1    1    3    3  502    0  0.20982613307E+03 -0.20705759685E+03  0.10037348347E+04  0.10461278473E+04  0.50400001928E-02 0.  1.
       -1    1    3    3    0  502 -0.20982613307E+03  0.20705759685E+03 -0.81092924628E+03  0.86284766734E+03  0.50400001928E-02 0. -1.
</event>
<event>
 5   0  0.3144958E-05  0.1903845E+04  0.7818609E-02  0.8652945E-01
        1   -1    0    0  501    0  0.00000000000E+00  0.00000000000E+00  0.74931069932E+03  0.74931069934E+03  0.50400001928E-02 0. -1.
       -1   -1    0    0    0  501  0.00000000000E+00  0.00000000000E+00 -0.12093197411E+04  0.12093197411E+04  0.50400001928E-02 0.  1.
    10030    2    1    2    0    0  0.00000000000E+00  0.00000000000E+00 -0.46000904178E+03  0.19586304405E+04  0.19038447636E+04 0.  0.
        4    1    3    3  502    0  0.87951622934E+03  0.11759601025E+03  0.12455334237E+03  0.89604283787E+03  0.12699999809E+01 0. -1.
       -4    1    3    3    0  502 -0.87951622934E+03 -0.11759601025E+03 -0.58456238415E+03  0.10625876026E+04  0.12699999809E+01 0.  1.
</event>
<event>
 5   0  0.6423388E-05  0.1895216E+04  0.7818609E-02  0.8657241E-01
        2   -1    0    0  501    0  0.00000000000E+00  0.00000000000E+00  0.17474819166E+04  0.17474819166E+04  0.25500000920E-02 0. -1.
       -2   -1    0    0    0  501  0.00000000000E+00  0.00000000000E+00 -0.51385979520E+03  0.51385979521E+03  0.25500000920E-02 0.  1.
    10030    2    1    2    0    0  0.00000000000E+00  0.00000000000E+00  0.12336221214E+04  0.22613417119E+04  0.18952157659E+04 0.  0.
        2    1    3    3  502    0  0.73140540378E+03  0.32201960021E+03  0.12244104706E+04  0.14621325139E+04  0.25500000920E-02 0. -1.
       -2    1    3    3    0  502 -0.73140540378E+03 -0.32201960021E+03  0.92116508292E+01  0.79920919797E+03  0.25500000920E-02 0.  1.
</event>
<event>
 5   0  0.3147063E-05  0.1901806E+04  0.7818609E-02  0.8653958E-01
       -1   -1    0    0    0  501  0.00000000000E+00  0.00000000000E+00  0.11554586511E+04  0.11554586511E+04  0.50400001928E-02 0.  1.
        1   -1    0    0  501    0  0.00000000000E+00  0.00000000000E+00 -0.78256102514E+03  0.78256102516E+03  0.50400001928E-02 0. -1.
    10030    2    1    2    0    0  0.00000000000E+00  0.00000000000E+00  0.37289762595E+03  0.19380196763E+04  0.19018064113E+04 0.  0.
        5    1    3    3  502    0  0.86548529464E+03 -0.21938299467E+03  0.51978774727E+03  0.10331481432E+04  0.46999998093E+01 0.  1.
       -5    1    3    3    0  502 -0.86548529464E+03  0.21938299467E+03 -0.14689012132E+03  0.90487153306E+03  0.46999998093E+01 0. -1.
</event>
<event>
 5   0  0.6452182E-05  0.1902041E+04  0.7818609E-02  0.8653841E-01
       -2   -1    0    0    0  501  0.00000000000E+00  0.00000000000E+00  0.64967623546E+03  0.64967623547E+03  0.25500000920E-02 0. -1.
        2   -1    0    0  501    0  0.00000000000E+00  0.00000000000E+00 -0.13921392753E+04  0.13921392753E+04  0.25500000920E-02 0.  1.
    10030    2    1    2    0    0  0.00000000000E+00  0.00000000000E+00 -0.74246303981E+03  0.20418155107E+04  0.19020408025E+04 0.  0.
        3    1    3    3  502    0 -0.55924371342E+03  0.27919740352E+03 -0.11406564917E+04  0.13006928782E+04  0.10100000352E+00 0.  1.
       -3    1    3    3    0  502  0.55924371342E+03 -0.27919740352E+03  0.39819345190E+03  0.74112263254E+03  0.10100000352E+00 0. -1.
</event>
<event>
 5   0  0.3086139E-05  0.1894396E+04  0.7818609E-02  0.8657651E-01
        1   -1    0    0  501    0  0.00000000000E+00  0.00000000000E+00  0.14471276135E+04  0.14471276135E+04  0.50400001928E-02 0. -1.
       -1   -1    0    0    0  501  0.00000000000E+00  0.00000000000E+00 -0.61997565150E+03  0.61997565152E+03  0.50400001928E-02 0.  1.
    10030    2    1    2    0    0  0.00000000000E+00  0.00000000000E+00  0.82715196201E+03  0.20671032650E+04  0.18943958245E+04 0.  0.
        2    1    3    3  502    0 -0.82750663256E+03  0.46088529130E+03  0.41228197140E+03  0.10330338342E+04  0.25500000920E-02 0.  1.
       -2    1    3    3    0  502  0.82750663256E+03 -0.46088529130E+03  0.41486999061E+03  0.10340694308E+04  0.25500000920E-02 0. -1.
</event>
<event>
 5   0  0.6423388E-05  0.1895478E+04  0.7818609E-02  0.8657111E-01
       -2   -1    0    0    0  501  0.00000000000E+00  0.00000000000E+00  0.66985402891E+03  0.66985402892E+03  0.25500000920E-02 0. -1.
        2   -1    0    0  501    0  0.00000000000E+00  0.00000000000E+00 -0.13409022694E+04  0.13409022694E+04  0.25500000920E-02 0.  1.
    10030    2    1    2    0    0  0.00000000000E+00  0.00000000000E+00 -0.67104824049E+03  0.20107562983E+04  0.18954775520E+04 0.  0.
        2    1    3    3  502    0 -0.26693624577E+03  0.74346266413E+03 -0.89102922642E+03  0.11907664652E+04  0.25500000920E-02 0.  1.
       -2    1    3    3    0  502  0.26693624577E+03 -0.74346266413E+03  0.21998098594E+03  0.81998983314E+03  0.25500000920E-02 0. -1.
</event>
<event>
 5   0  0.6361762E-05  0.1893814E+04  0.7818609E-02  0.8657942E-01
       -2   -1    0    0    0  501  0.00000000000E+00  0.00000000000E+00  0.83642638764E+03  0.83642638764E+03  0.25500000920E-02 0. -1.
        2   -1    0    0  501    0  0.00000000000E+00  0.00000000000E+00 -0.10719810019E+04  0.10719810019E+04  0.25500000920E-02 0.  1.
    10030    2    1    2    0    0  0.00000000000E+00  0.00000000000E+00 -0.23555461429E+03  0.19084073896E+04  0.18938143489E+04 0.  0.
        1    1    3    3  502    0  0.58018309000E+03  0.28958519112E+03 -0.81313888009E+03  0.10400321337E+04  0.50400001928E-02 0.  1.
       -1    1    3    3    0  502 -0.58018309000E+03 -0.28958519112E+03  0.57758426580E+03  0.86837525585E+03  0.50400001928E-02 0. -1.
</event>
<event>
 5   0  0.3083469E-05  0.1889209E+04  0.7818609E-02  0.8660247E-01
       -1   -1    0    0    0  501  0.00000000000E+00  0.00000000000E+00  0.35392406520E+03  0.35392406524E+03  0.50400001928E-02 0. -1.
        1   -1    0    0  501    0  0.00000000000E+00  0.00000000000E+00 -0.25210983731E+04  0.25210983731E+04  0.50400001928E-02 0.  1.
    10030    2    1    2    0    0  0.00000000000E+00  0.00000000000E+00 -0.21671743079E+04  0.28750224383E+04  0.18892087074E+04 0.  0.
        3    1    3    3  502    0  0.76988295478E+03 -0.17890751120E+03 -0.29642619734E+03  0.84415411052E+03  0.10100000352E+00 0. -1.
       -3    1    3    3    0  502 -0.76988295478E+03  0.17890751120E+03 -0.18707481105E+04  0.20308683278E+04  0.10100000352E+00 0.  1.
</event>
<event>
 5   0  0.3144958E-05  0.1905989E+04  0.7818609E-02  0.8651881E-01
       -1   -1    0    0    0  501  0.00000000000E+00  0.00000000000E+00  0.97152579796E+03  0.97152579797E+03  0.50400001928E-02 0. -1.
        1   -1    0    0  501    0  0.00000000000E+00  0.00000000000E+00 -0.93481647296E+03  0.93481647297E+03  0.50400001928E-02 0.  1.
    10030    2    1    2    0    0  0.00000000000E+00  0.00000000000E+00  0.36709324998E+02  0.19063422709E+04  0.19059887931E+04 0.  0.
        4    1    3    3  502    0 -0.89658786033E+02  0.64060269192E+03 -0.68162239782E+03  0.93969208410E+03  0.12699999809E+01 0.  1.
       -4    1    3    3    0  502  0.89658786033E+02 -0.64060269192E+03  0.71833172282E+03  0.96665018684E+03  0.12699999809E+01 0. -1.
</event>
<event>
 5   0  0.6423388E-05  0.1927412E+04  0.7818609E-02  0.8641331E-01
        2   -1    0    0  501    0  0.00000000000E+00  0.00000000000E+00  0.11791792385E+04  0.11791792385E+04  0.25500000920E-02 0. -1.
       -2   -1    0    0    0  501  0.00000000000E+00  0.00000000000E+00 -0.78760685868E+03  0.78760685868E+03  0.25500000920E-02 0.  1.
    10030    2    1    2    0    0  0.00000000000E+00  0.00000000000E+00  0.39157237982E+03  0.19667860972E+04  0.19274124165E+04 0.  0.
        2    1    3    3  502    0  0.77127078582E+03  0.32136479086E+03  0.68579973090E+03  0.10809510742E+04  0.25500000920E-02 0. -1.
       -2    1    3    3    0  502 -0.77127078582E+03 -0.32136479086E+03 -0.29422735108E+03  0.88583502301E+03  0.25500000920E-02 0.  1.
</event>
<event>
 5   0  0.6395992E-05  0.1917194E+04  0.7818609E-02  0.8646345E-01
       -2   -1    0    0    0  501  0.00000000000E+00  0.00000000000E+00  0.72082499393E+03  0.72082499393E+03  0.25500000920E-02 0.  1.
        2   -1    0    0  501    0  0.00000000000E+00  0.00000000000E+00 -0.12748012646E+04  0.12748012646E+04  0.25500000920E-02 0. -1.
    10030    2    1    2    0    0  0.00000000000E+00  0.00000000000E+00 -0.55397627068E+03  0.19956262585E+04  0.19171944229E+04 0.  0.
        4    1    3    3  502    0  0.84622333108E+03 -0.99553036752E+02  0.18018607076E+03  0.87090376402E+03  0.12699999809E+01 0.  1.
       -4    1    3    3    0  502 -0.84622333108E+03  0.99553036752E+02 -0.73416234144E+03  0.11247224945E+04  0.12699999809E+01 0. -1.
</event>
<event>
 5   0  0.6452182E-05  0.1945001E+04  0.7818609E-02  0.8632775E-01
        2   -1    0    0  501    0  0.00000000000E+00  0.00000000000E+00  0.23727430738E+04  0.23727430738E+04  0.25500000920E-02 0.  1.
       -2   -1    0    0    0  501  0.00000000000E+00  0.00000000000E+00 -0.39859214420E+03  0.39859214421E+03  0.25500000920E-02 0. -1.
    10030    2    1    2    0    0  0.00000000000E+00  0.00000000000E+00  0.19741509296E+04  0.27713352180E+04  0.19450005136E+04 0.  0.
        3    1    3    3  502    0  0.51116732331E+03 -0.44415691749E+03 -0.74553152188E+01  0.67721709348E+03  0.10100000352E+00 0. -1.
       -3    1    3    3    0  502 -0.51116732331E+03  0.44415691749E+03  0.19816062448E+04  0.20941181246E+04  0.10100000352E+00 0.  1.
</event>
<event>
 5   0  0.6098377E-05  0.1918158E+04  0.7818609E-02  0.8645870E-01
        2   -1    0    0  501    0  0.00000000000E+00  0.00000000000E+00  0.97219658028E+03  0.97219658028E+03  0.25500000920E-02 0.  1.
       -2   -1    0    0    0  501  0.00000000000E+00  0.00000000000E+00 -0.94613852746E+03  0.94613852746E+03  0.25500000920E-02 0. -1.
    10030    2    1    2    0    0  0.00000000000E+00  0.00000000000E+00  0.26058052822E+02  0.19183351077E+04  0.19181581174E+04 0.  0.
        5    1    3    3  502    0  0.82131595936E+03  0.32167651481E+03  0.38959380199E+03  0.96428268979E+03  0.46999998093E+01 0.  1.
       -5    1    3    3    0  502 -0.82131595936E+03 -0.32167651481E+03 -0.36353574917E+03  0.95405241795E+03  0.46999998093E+01 0. -1.
</event>
<event>
 5   0  0.3144958E-05  0.1896062E+04  0.7818609E-02  0.8656819E-01
       -1   -1    0    0    0  501  0.00000000000E+00  0.00000000000E+00  0.48528959810E+03  0.48528959813E+03  0.50400001928E-02 0. -1.
        1   -1    0    0  501    0  0.00000000000E+00  0.00000000000E+00 -0.18520127491E+04  0.18520127491E+04  0.50400001928E-02 0.  1.
    10030    2    1    2    0    0  0.00000000000E+00  0.00000000000E+00 -0.13667231510E+04  0.23373023473E+04  0.18960617319E+04 0.  0.
        4    1    3    3  502    0 -0.29279153594E+03  0.59925008817E+03  0.14717444319E+03  0.68300035236E+03  0.12699999809E+01 0. -1.
       -4    1    3    3    0  502  0.29279153594E+03 -0.59925008817E+03 -0.15138975942E+04  0.16543019949E+04  0.12699999809E+01 0.  1.
</event>
<event>
 5   0  0.3147063E-05  0.1899711E+04  0.7818609E-02  0.8655000E-01
       -1   -1    0    0    0  501  0.00000000000E+00  0.00000000000E+00  0.73650982720E+03  0.73650982722E+03  0.50400001928E-02 0. -1.
        1   -1    0    0  501    0  0.00000000000E+00  0.00000000000E+00 -0.12250014486E+04  0.12250014487E+04  0.50400001928E-02 0.  1.
    10030    2    1    2    0    0  0.00000000000E+00  0.00000000000E+00 -0.48849162144E+03  0.19615112759E+04  0.18997111415E+04 0.  0.
        5    1    3    3  502    0 -0.21755760046E+03 -0.32334533175E+03 -0.11386349180E+04  0.12034928664E+04  0.46999998093E+01 0.  1.
       -5    1    3    3    0  502  0.21755760046E+03  0.32334533175E+03  0.65014329653E+03  0.75801840947E+03  0.46999998093E+01 0. -1.
</event>
<event>
 5   0  0.3203527E-05  0.1891125E+04  0.7818609E-02  0.8659287E-01
        1   -1    0    0  501    0  0.00000000000E+00  0.00000000000E+00  0.14662246027E+04  0.14662246027E+04  0.50400001928E-02 0. -1.
       -1   -1    0    0    0  501  0.00000000000E+00  0.00000000000E+00 -0.60978924366E+03  0.60978924368E+03  0.50400001928E-02 0.  1.
    10030    2    1    2    0    0  0.00000000000E+00  0.00000000000E+00  0.85643535905E+03  0.20760138464E+04  0.18911245242E+04 0.  0.
        1    1    3    3  502    0  0.62266108864E+02  0.28169096226E+03 -0.56029753708E+03  0.63020647142E+03  0.50400001928E-02 0.  1.
       -1    1    3    3    0  502 -0.62266108864E+02 -0.28169096226E+03  0.14167328961E+04  0.14458073750E+04  0.50400001928E-02 0. -1.
</event>
<event>
 5   0  0.6395992E-05  0.1904073E+04  0.7818609E-02  0.8652832E-01
       -2   -1    0    0    0  501  0.00000000000E+00  0.00000000000E+00  0.42352849594E+03  0.42352849595E+03  0.25500000920E-02 0.  1.
        2   -1    0    0  501    0  0.00000000000E+00  0.00000000000E+00 -0.21400534181E+04  0.21400534181E+04  0.25500000920E-02 0. -1.
    10030    2    1    2    0    0  0.00000000000E+00  0.00000000000E+00 -0.17165249222E+04  0.25635819141E+04  0.19040731135E+04 0.  0.
        4    1    3    3  502    0  0.58640874152E+03  0.18632638412E+03  0.11985213071E+03  0.62686432319E+03  0.12699999809E+01 0.  1.
       -4    1    3    3    0  502 -0.58640874152E+03 -0.18632638412E+03 -0.18363770529E+04  0.19367175909E+04  0.12699999809E+01 0. -1.
</event>
<event>
 5   0  0.6395992E-05  0.1893345E+04  0.7818609E-02  0.8658176E-01
        2   -1    0    0  501    0  0.00000000000E+00  0.00000000000E+00  0.11750573616E+04  0.11750573616E+04  0.25500000920E-02 0. -1.
       -2   -1    0    0    0  501  0.00000000000E+00  0.00000000000E+00 -0.76267670516E+03  0.76267670517E+03  0.25500000920E-02 0.  1.
    10030    2    1    2    0    0  0.00000000000E+00  0.00000000000E+00  0.41238065646E+03  0.19377340668E+04  0.18933450578E+04 0.  0.
        4    1    3    3  502    0  0.89304491230E+03  0.29123372097E+03  0.32659619353E+03  0.99449131829E+03  0.12699999809E+01 0. -1.
       -4    1    3    3    0  502 -0.89304491230E+03 -0.29123372097E+03  0.85784462926E+02  0.94324274850E+03  0.12699999809E+01 0.  1.
</event>
<event>
 5   0  0.2279625E-05  0.1900739E+04  0.7818609E-02  0.8654489E-01
       -3   -1    0    0    0  501  0.00000000000E+00  0.00000000000E+00  0.96699032338E+03  0.96699032865E+03  0.10100000352E+00 0. -1.
        3   -1    0    0  501    0  0.00000000000E+00  0.00000000000E+00 -0.93403433418E+03  0.93403433964E+03  0.10100000352E+00 0.  1.
    10030    2    1    2    0    0  0.00000000000E+00  0.00000000000E+00  0.32955989194E+02  0.19010246683E+04  0.19007389858E+04 0.  0.
        1    1    3    3  502    0  0.47370521912E+03  0.80797820931E+03  0.17767526793E+03  0.95330683529E+03  0.50400001928E-02 0. -1.
       -1    1    3    3    0  502 -0.47370521912E+03 -0.80797820931E+03 -0.14471927874E+03  0.94771783301E+03  0.50400001928E-02 0.  1.
</event>
<event>
 5   0  0.6423388E-05  0.1893276E+04  0.7818609E-02  0.8658210E-01
       -2   -1    0    0    0  501  0.00000000000E+00  0.00000000000E+00  0.10829861619E+04  0.10829861619E+04  0.25500000920E-02 0.  1.
        2   -1    0    0  501    0  0.00000000000E+00  0.00000000000E+00 -0.82745630818E+03  0.82745630818E+03  0.25500000920E-02 0. -1.
    10030    2    1    2    0    0  0.00000000000E+00  0.00000000000E+00  0.25552985373E+03  0.19104424701E+04  0.18932762412E+04 0.  0.
        2    1    3    3  502    0  0.94531565271E+03 -0.15550547515E+02  0.17573784741E+03  0.96163781841E+03  0.25500000920E-02 0.  1.
       -2    1    3    3    0  502 -0.94531565271E+03  0.15550547515E+02  0.79792006321E+02  0.94880465168E+03  0.25500000920E-02 0. -1.
</event>
<event>
 5   0  0.3086139E-05  0.1904142E+04  0.7818609E-02  0.8652797E-01
       -1   -1    0    0    0  501  0.00000000000E+00  0.00000000000E+00  0.71130752743E+03  0.71130752745E+03  0.50400001928E-02 0. -1.
        1   -1    0    0  501    0  0.00000000000E+00  0.00000000000E+00 -0.12743278448E+04  0.12743278449E+04  0.50400001928E-02 0.  1.
    10030    2    1    2    0    0  0.00000000000E+00  0.00000000000E+00 -0.56302031741E+03  0.19856353723E+04  0.19041417893E+04 0.  0.
        2    1    3    3  502    0  0.33234305319E+03  0.42822494354E+03 -0.10977023357E+04  0.12242462681E+04  0.25500000920E-02 0.  1.
       -2    1    3    3    0  502 -0.33234305319E+03 -0.42822494354E+03  0.53468201827E+03  0.76138910417E+03  0.25500000920E-02 0. -1.
</event>
<event>
 5   0  0.3083469E-05  0.1890354E+04  0.7818609E-02  0.8659673E-01
       -1   -1    0    0    0  501  0.00000000000E+00  0.00000000000E+00  0.67313639656E+03  0.67313639658E+03  0.50400001928E-02 0. -1.
        1   -1    0    0  501    0  0.00000000000E+00  0.00000000000E+00 -0.13271594904E+04  0.13271594904E+04  0.50400001928E-02 0.  1.
    10030    2    1    2    0    0  0.00000000000E+00  0.00000000000E+00 -0.65402309380E+03  0.20002958870E+04  0.18903537839E+04 0.  0.
        3    1    3    3  502    0  0.13533964211E+03 -0.63072769099E+03 -0.10580038320E+04  0.12391555018E+04  0.10100000352E+00 0.  1.
       -3    1    3    3    0  502 -0.13533964211E+03  0.63072769099E+03  0.40398073819E+03  0.76114038517E+03  0.10100000352E+00 0. -1.
</event>
<event>
 5   0  0.6098377E-05  0.1904937E+04  0.7818609E-02  0.8652403E-01
        2   -1    0    0  501    0  0.00000000000E+00  0.00000000000E+00  0.67611825518E+03  0.67611825518E+03  0.25500000920E-02 0.  1.
       -2   -1    0    0    0  501  0.00000000000E+00  0.00000000000E+00 -0.13417713098E+04  0.13417713098E+04  0.25500000920E-02 0. -1.
    10030    2    1    2    0    0  0.00000000000E+00  0.00000000000E+00 -0.66565305463E+03  0.20178895650E+04  0.19049368250E+04 0.  0.
        5    1    3    3  502    0 -0.40113263212E+03 -0.69775628072E+03  0.20668921662E+03  0.83097156275E+03  0.46999998093E+01 0.  1.
       -5    1    3    3    0  502  0.40113263212E+03  0.69775628072E+03 -0.87234227125E+03  0.11869180022E+04  0.46999998093E+01 0. -1.
</event>
<event>
 5   0  0.6361762E-05  0.1993461E+04  0.7818609E-02  0.8609684E-01
       -2   -1    0    0    0  501  0.00000000000E+00  0.00000000000E+00  0.81247025028E+03  0.81247025029E+03  0.25500000920E-02 0. -1.
        2   -1    0    0  501    0  0.00000000000E+00  0.00000000000E+00 -0.12227791421E+04  0.12227791421E+04  0.25500000920E-02 0.  1.
    10030    2    1    2    0    0  0.00000000000E+00  0.00000000000E+00 -0.41030889181E+03  0.20352493924E+04  0.19934609859E+04 0.  0.
        1    1    3    3  502    0 -0.67591243103E+03  0.29719470060E+03 -0.88873407831E+03  0.11554352281E+04  0.50400001928E-02 0.  1.
       -1    1    3    3    0  502  0.67591243103E+03 -0.29719470060E+03  0.47842518650E+03  0.87981416423E+03  0.50400001928E-02 0. -1.
</event>
<event>
 5   0  0.3144958E-05  0.1902991E+04  0.7818609E-02  0.8653369E-01
       -1   -1    0    0    0  501  0.00000000000E+00  0.00000000000E+00  0.10602001501E+04  0.10602001501E+04  0.50400001928E-02 0. -1.
        1   -1    0    0  501    0  0.00000000000E+00  0.00000000000E+00 -0.85393671175E+03  0.85393671177E+03  0.50400001928E-02 0.  1.
    10030    2    1    2    0    0  0.00000000000E+00  0.00000000000E+00  0.20626343833E+03  0.19141368619E+04  0.19029911508E+04 0.  0.
        4    1    3    3  502    0  0.66384739791E+03 -0.50240276553E+03  0.56652545035E+03  0.10070027832E+04  0.12699999809E+01 0. -1.
       -4    1    3    3    0  502 -0.66384739791E+03  0.50240276553E+03 -0.36026201202E+03  0.90713407869E+03  0.12699999809E+01 0.  1.
</event>
<event>
 5   0  0.3144958E-05  0.1895376E+04  0.7818609E-02  0.8657161E-01
       -1   -1    0    0    0  501  0.00000000000E+00  0.00000000000E+00  0.55897897635E+03  0.55897897637E+03  0.50400001928E-02 0. -1.
        1   -1    0    0  501    0  0.00000000000E+00  0.00000000000E+00 -0.16067019257E+04  0.16067019257E+04  0.50400001928E-02 0.  1.
    10030    2    1    2    0    0  0.00000000000E+00  0.00000000000E+00 -0.10477229493E+04  0.21656809021E+04  0.18953760553E+04 0.  0.
        4    1    3    3  502    0 -0.87847416357E+03 -0.30465475250E+03 -0.73324229863E+03  0.11841356576E+04  0.12699999809E+01 0. -1.
       -4    1    3    3    0  502  0.87847416357E+03  0.30465475250E+03 -0.31448065071E+03  0.98154524443E+03  0.12699999809E+01 0.  1.
</event>
<event>
 5   0  0.3147063E-05  0.1892806E+04  0.7818609E-02  0.8658446E-01
       -1   -1    0    0    0  501  0.00000000000E+00  0.00000000000E+00  0.64695836237E+03  0.64695836239E+03  0.50400001928E-02 0. -1.
        1   -1    0    0  501    0  0.00000000000E+00  0.00000000000E+00 -0.13844454484E+04  0.13844454484E+04  0.50400001928E-02 0.  1.
    10030    2    1    2    0    0  0.00000000000E+00  0.00000000000E+00 -0.73748708604E+03  0.20314038108E+04  0.18928059173E+04 0.  0.
        5    1    3    3  502    0  0.78547810599E+03 -0.45996567154E+03 -0.64677305873E+03  0.11166385957E+04  0.46999998093E+01 0.  1.
       -5    1    3    3    0  502 -0.78547810599E+03  0.45996567154E+03 -0.90714027313E+02  0.91476521508E+03  0.46999998093E+01 0. -1.
</event>
<event>
 5   0  0.6395992E-05  0.1893851E+04  0.7818609E-02  0.8657923E-01
       -2   -1    0    0    0  501  0.00000000000E+00  0.00000000000E+00  0.75233644465E+03  0.75233644465E+03  0.25500000920E-02 0.  1.
        2   -1    0    0  501    0  0.00000000000E+00  0.00000000000E+00 -0.11918447382E+04  0.11918447382E+04  0.25500000920E-02 0. -1.
    10030    2    1    2    0    0  0.00000000000E+00  0.00000000000E+00 -0.43950829352E+03  0.19441811828E+04  0.18938513489E+04 0.  0.
        4    1    3    3  502    0  0.82173567630E+03 -0.11854264489E+02  0.26314736816E+03  0.86292421195E+03  0.12699999809E+01 0.  1.
       -4    1    3    3    0  502 -0.82173567630E+03  0.11854264489E+02 -0.70265566167E+03  0.10812569709E+04  0.12699999809E+01 0. -1.
</event>
<event>
 5   0  0.3147063E-05  0.1901894E+04  0.7818609E-02  0.8653914E-01
       -1   -1    0    0    0  501  0.00000000000E+00  0.00000000000E+00  0.84041585651E+03  0.84041585652E+03  0.50400001928E-02 0.  1.
        1   -1    0    0  501    0  0.00000000000E+00  0.00000000000E+00 -0.10760151280E+04  0.10760151280E+04  0.50400001928E-02 0. -1.
    10030    2    1    2    0    0  0.00000000000E+00  0.00000000000E+00 -0.23559927147E+03  0.19164309845E+04  0.19018939775E+04 0.  0.
        5    1    3    3  502    0 -0.48366440619E+03 -0.46607276835E+03  0.56048961595E+03  0.87482900204E+03  0.46999998093E+01 0.  1.
       -5    1    3    3    0  502  0.48366440619E+03  0.46607276835E+03 -0.79608888742E+03  0.10416019825E+04  0.46999998093E+01 0. -1.
</event>
<event>
 5   0  0.6452182E-05  0.1898392E+04  0.7818609E-02  0.8655657E-01
       -2   -1    0    0    0  501  0.00000000000E+00  0.00000000000E+00  0.86889001084E+03  0.86889001085E+03  0.25500000920E-02 0.  1.
        2   -1    0    0  501    0  0.00000000000E+00  0.00000000000E+00 -0.10369244986E+04  0.10369244986E+04  0.25500000920E-02 0. -1.
    10030    2    1    2    0    0  0.00000000000E+00  0.00000000000E+00 -0.16803448772E+03  0.19058145094E+04  0.18983923080E+04 0.  0.
        3    1    3    3  502    0  0.57308470203E+03  0.15167417778E+03 -0.82822670378E+03  0.10185237430E+04  0.10100000352E+00 0. -1.
       -3    1    3    3    0  502 -0.57308470203E+03 -0.15167417778E+03  0.66019221606E+03  0.88729076646E+03  0.10100000352E+00 0.  1.
</event>
<event>
 5   0  0.6452182E-05  0.1896928E+04  0.7818609E-02  0.8656387E-01
       -2   -1    0    0    0  501  0.00000000000E+00  0.00000000000E+00  0.13104483232E+04  0.13104483232E+04  0.25500000920E-02 0.  1.
        2   -1    0    0  501    0  0.00000000000E+00  0.00000000000E+00 -0.68647026786E+03  0.68647026786E+03  0.25500000920E-02 0. -1.
    10030    2    1    2    0    0  0.00000000000E+00  0.00000000000E+00  0.62397805533E+03  0.19969185911E+04  0.18969278441E+04 0.  0.
        3    1    3    3  502    0 -0.33016128322E+03  0.26004810238E+03 -0.58309616881E+03  0.71877161935E+03  0.10100000352E+00 0. -1.
       -3    1    3    3    0  502  0.33016128322E+03 -0.26004810238E+03  0.12070742241E+04  0.12781469717E+04  0.10100000352E+00 0.  1.
</event>
<event>
 5   0  0.2279625E-05  0.1916049E+04  0.7818609E-02  0.8646909E-01
        3   -1    0    0  501    0  0.00000000000E+00  0.00000000000E+00  0.20208404301E+04  0.20208404327E+04  0.10100000352E+00 0.  1.
       -3   -1    0    0    0  501  0.00000000000E+00  0.00000000000E+00 -0.45417293292E+03  0.45417294415E+03  0.10100000352E+00 0. -1.
    10030    2    1    2    0    0  0.00000000000E+00  0.00000000000E+00  0.15666674972E+04  0.24750133768E+04  0.19160491039E+04 0.  0.
        3    1    3    3  502    0  0.11886912929E+03 -0.82327260881E+03  0.13972827171E+04  0.16261324239E+04  0.10100000352E+00 0.  1.
       -3    1    3    3    0  502 -0.11886912929E+03  0.82327260881E+03  0.16938478011E+03  0.84888095293E+03  0.10100000352E+00 0. -1.
</event>
<event>
 5   0  0.3147063E-05  0.1909497E+04  0.7818609E-02  0.8650144E-01
        1   -1    0    0  501    0  0.00000000000E+00  0.00000000000E+00  0.19794542824E+04  0.19794542824E+04  0.50400001928E-02 0.  1.
       -1   -1    0    0    0  501  0.00000000000E+00  0.00000000000E+00 -0.46050301697E+03  0.46050301700E+03  0.50400001928E-02 0. -1.
    10030    2    1    2    0    0  0.00000000000E+00  0.00000000000E+00  0.15189512654E+04  0.24399572994E+04  0.19094969694E+04 0.  0.
        5    1    3    3  502    0  0.80000167435E+03  0.47177385636E+03  0.10421826717E+04  0.13959728012E+04  0.46999998093E+01 0.  1.
       -5    1    3    3    0  502 -0.80000167435E+03 -0.47177385636E+03  0.47676859372E+03  0.10439844982E+04  0.46999998093E+01 0. -1.
</event>
<event>
 5   0  0.6452182E-05  0.1903401E+04  0.7818609E-02  0.8653165E-01
       -2   -1    0    0    0  501  0.00000000000E+00  0.00000000000E+00  0.54569375664E+03  0.54569375664E+03  0.25500000920E-02 0. -1.
        2   -1    0    0  501    0  0.00000000000E+00  0.00000000000E+00 -0.16597836962E+04  0.16597836962E+04  0.25500000920E-02 0.  1.
    10030    2    1    2    0    0  0.00000000000E+00  0.00000000000E+00 -0.11140899396E+04  0.22054774529E+04  0.19034007465E+04 0.  0.
        3    1    3    3  502    0  0.32788674886E+03  0.74699825427E+03 -0.11249486574E+04  0.13896134728E+04  0.10100000352E+00 0.  1.
       -3    1    3    3    0  502 -0.32788674886E+03 -0.74699825427E+03  0.10858717783E+02  0.81586398003E+03  0.10100000352E+00 0. -1.
</event>
<event>
 5   0  0.6423388E-05  0.1901010E+04  0.7818609E-02  0.8654354E-01
        2   -1    0    0  501    0  0.00000000000E+00  0.00000000000E+00  0.20209528444E+04  0.20209528444E+04  0.25500000920E-02 0. -1.
       -2   -1    0    0    0  501  0.00000000000E+00  0.00000000000E+00 -0.44704657155E+03  0.44704657156E+03  0.25500000920E-02 0.  1.
    10030    2    1    2    0    0  0.00000000000E+00  0.00000000000E+00  0.15739062729E+04  0.24679994160E+04  0.19010103002E+04 0.  0.
        2    1    3    3  502    0  0.43100396131E+03 -0.23833003911E+03 -0.26847003453E+03  0.56092939097E+03  0.25500000920E-02 0.  1.
       -2    1    3    3    0  502 -0.43100396131E+03  0.23833003911E+03  0.18423763074E+04  0.19070700250E+04  0.25500000920E-02 0. -1.
</event>
<event>
 5   0  0.6361762E-05  0.1900001E+04  0.7818609E-02  0.8654856E-01
        2   -1    0    0  501    0  0.00000000000E+00  0.00000000000E+00  0.17166148936E+04  0.17166148936E+04  0.25500000920E-02 0. -1.
       -2   -1    0    0    0  501  0.00000000000E+00  0.00000000000E+00 -0.52574472378E+03  0.52574472378E+03  0.25500000920E-02 0.  1.
    10030    2    1    2    0    0  0.00000000000E+00  0.00000000000E+00  0.11908701698E+04  0.22423596174E+04  0.19000012875E+04 0.  0.
        1    1    3    3  502    0  0.83469839757E+03 -0.10247251599E+03  0.73905016157E+02  0.84420612583E+03  0.50400001928E-02 0.  1.
       -1    1    3    3    0  502 -0.83469839757E+03  0.10247251599E+03  0.11169651537E+04  0.13981534916E+04  0.50400001928E-02 0. -1.
</event>
<event>
 5   0  0.3203527E-05  0.1899075E+04  0.7818609E-02  0.8655317E-01
       -1   -1    0    0    0  501  0.00000000000E+00  0.00000000000E+00  0.66750301808E+03  0.66750301810E+03  0.50400001928E-02 0. -1.
        1   -1    0    0  501    0  0.00000000000E+00  0.00000000000E+00 -0.13507377177E+04  0.13507377177E+04  0.50400001928E-02 0.  1.
    10030    2    1    2    0    0  0.00000000000E+00  0.00000000000E+00 -0.68323469966E+03  0.20182407358E+04  0.18990750414E+04 0.  0.
        1    1    3    3  502    0  0.12206162270E+03  0.93089170885E+03 -0.49252434954E+03  0.10602068894E+04  0.50400001928E-02 0.  1.
       -1    1    3    3    0  502 -0.12206162270E+03 -0.93089170885E+03 -0.19071035012E+03  0.95803384648E+03  0.50400001928E-02 0. -1.
</event>
<event>
 5   0  0.6395992E-05  0.1783641E+04  0.7818609E-02  0.8715048E-01
       -2   -1    0    0    0  501  0.00000000000E+00  0.00000000000E+00  0.10467083388E+04  0.10467083388E+04  0.25500000920E-02 0.  1.
        2   -1    0    0  501    0  0.00000000000E+00  0.00000000000E+00 -0.75985253272E+03  0.75985253272E+03  0.25500000920E-02 0. -1.
    10030    2    1    2    0    0  0.00000000000E+00  0.00000000000E+00  0.28685580605E+03  0.18065608715E+04  0.17836411996E+04 0.  0.
        4    1    3    3  502    0  0.40047526564E+03  0.25374991993E+03  0.90849703135E+03  0.10247623769E+04  0.12699999809E+01 0.  1.
       -4    1    3    3    0  502 -0.40047526564E+03 -0.25374991993E+03 -0.62164122529E+03  0.78179849459E+03  0.12699999809E+01 0. -1.
</event>
<event>
 5   0  0.6395992E-05  0.1899015E+04  0.7818609E-02  0.8655347E-01
       -2   -1    0    0    0  501  0.00000000000E+00  0.00000000000E+00  0.83798183442E+03  0.83798183442E+03  0.25500000920E-02 0. -1.
        2   -1    0    0  501    0  0.00000000000E+00  0.00000000000E+00 -0.10758754583E+04  0.10758754583E+04  0.25500000920E-02 0.  1.
    10030    2    1    2    0    0  0.00000000000E+00  0.00000000000E+00 -0.23789362383E+03  0.19138572927E+04  0.18990145762E+04 0.  0.
        4    1    3    3  502    0 -0.48812165607E+03  0.23810399859E+02 -0.93939372018E+03  0.10589106953E+04  0.12699999809E+01 0.  1.
       -4    1    3    3    0  502  0.48812165607E+03 -0.23810399859E+02  0.70150009634E+03  0.85494659736E+03  0.12699999809E+01 0. -1.
</event>
<event>
 5   0  0.6098377E-05  0.1875486E+04  0.7818609E-02  0.8667156E-01
        2   -1    0    0  501    0  0.00000000000E+00  0.00000000000E+00  0.14005691028E+04  0.14005691028E+04  0.25500000920E-02 0. -1.
       -2   -1    0    0    0  501  0.00000000000E+00  0.00000000000E+00 -0.62786064057E+03  0.62786064057E+03  0.25500000920E-02 0.  1.
    10030    2    1    2    0    0  0.00000000000E+00  0.00000000000E+00  0.77270846222E+03  0.20284297434E+04  0.18754862986E+04 0.  0.
        5    1    3    3  502    0 -0.65896288702E+03 -0.62359103762E+03  0.12986009647E+03  0.91650619383E+03  0.46999998093E+01 0. -1.
       -5    1    3    3    0  502  0.65896288702E+03  0.62359103762E+03  0.64284836575E+03  0.11119235495E+04  0.46999998093E+01 0.  1.
</event>
<event>
 5   0  0.3144958E-05  0.1909104E+04  0.7818609E-02  0.8650338E-01
       -1   -1    0    0    0  501  0.00000000000E+00  0.00000000000E+00  0.78162696180E+03  0.78162696181E+03  0.50400001928E-02 0. -1.
        1   -1    0    0  501    0  0.00000000000E+00  0.00000000000E+00 -0.11657347711E+04  0.11657347712E+04  0.50400001928E-02 0.  1.
    10030    2    1    2    0    0  0.00000000000E+00  0.00000000000E+00 -0.38410780935E+03  0.19473617330E+04  0.19091042166E+04 0.  0.
        4    1    3    3  502    0 -0.16117185472E+03 -0.41140884686E+03 -0.10551390517E+04  0.11439202932E+04  0.12699999809E+01 0.  1.
       -4    1    3    3    0  502  0.16117185472E+03  0.41140884686E+03  0.67103124231E+03  0.80344143974E+03  0.12699999809E+01 0. -1.
</event>
<event>
 5   0  0.3086139E-05  0.1897097E+04  0.7818609E-02  0.8656303E-01
        1   -1    0    0  501    0  0.00000000000E+00  0.00000000000E+00  0.15362739160E+04  0.15362739160E+04  0.50400001928E-02 0.  1.
       -1   -1    0    0    0  501  0.00000000000E+00  0.00000000000E+00 -0.58566642771E+03  0.58566642773E+03  0.50400001928E-02 0. -1.
    10030    2    1    2    0    0  0.00000000000E+00  0.00000000000E+00  0.95060748826E+03  0.21219403437E+04  0.18970967887E+04 0.  0.
        2    1    3    3  502    0 -0.23223782896E+03  0.90393258855E+03  0.66484425325E+03  0.11458823740E+04  0.25500000920E-02 0.  1.
       -2    1    3    3    0  502  0.23223782896E+03 -0.90393258855E+03  0.28576323501E+03  0.97605796976E+03  0.25500000920E-02 0. -1.
</event>
<event>
 5   0  0.6452182E-05  0.1879718E+04  0.7818609E-02  0.8665019E-01
        2   -1    0    0  501    0  0.00000000000E+00  0.00000000000E+00  0.18233893623E+04  0.18233893623E+04  0.25500000920E-02 0. -1.
       -2   -1    0    0    0  501  0.00000000000E+00  0.00000000000E+00 -0.48444657793E+03  0.48444657794E+03  0.25500000920E-02 0.  1.
    10030    2    1    2    0    0  0.00000000000E+00  0.00000000000E+00  0.13389427844E+04  0.23078359402E+04  0.18797177839E+04 0.  0.
        3    1    3    3  502    0 -0.74067307176E+03 -0.66774737397E+00 -0.40865848582E+02  0.74179988737E+03  0.10100000352E+00 0.  1.
       -3    1    3    3    0  502  0.74067307176E+03  0.66774737397E+00  0.13798086330E+04  0.15660360529E+04  0.10100000352E+00 0. -1.
</event>
<event>
 5   0  0.6361762E-05  0.1874627E+04  0.7818609E-02  0.8667590E-01
       -2   -1    0    0    0  501  0.00000000000E+00  0.00000000000E+00  0.36587598438E+03  0.36587598439E+03  0.25500000920E-02 0.  1.
        2   -1    0    0  501    0  0.00000000000E+00  0.00000000000E+00 -0.24012412283E+04  0.24012412283E+04  0.25500000920E-02 0. -1.
    10030    2    1    2    0    0  0.00000000000E+00  0.00000000000E+00 -0.20353652439E+04  0.27671172127E+04  0.18746268942E+04 0.  0.
        1    1    3    3  502    0 -0.50229927560E+03 -0.21939372930E+03 -0.21400139386E+04  0.22090943457E+04  0.50400001928E-02 0. -1.
       -1    1    3    3    0  502  0.50229927560E+03  0.21939372930E+03  0.10464869472E+03  0.55802286696E+03  0.50400001928E-02 0.  1.
</event>
<event>
 5   0  0.6395992E-05  0.1900231E+04  0.7818609E-02  0.8654742E-01
       -2   -1    0    0    0  501  0.00000000000E+00  0.00000000000E+00  0.99055279310E+03  0.99055279310E+03  0.25500000920E-02 0. -1.
        2   -1    0    0  501    0  0.00000000000E+00  0.00000000000E+00 -0.91132859589E+03  0.91132859589E+03  0.25500000920E-02 0.  1.
    10030    2    1    2    0    0  0.00000000000E+00  0.00000000000E+00  0.79224197207E+02  0.19018813890E+04  0.19002306029E+04 0.  0.
        4    1    3    3  502    0 -0.84038998725E+03 -0.42267524754E+03 -0.93949615041E+02  0.94537708806E+03  0.12699999809E+01 0. -1.
       -4    1    3    3    0  502  0.84038998725E+03  0.42267524754E+03  0.17317381225E+03  0.95650430093E+03  0.12699999809E+01 0.  1.
</event>
<event>
 5   0  0.3083469E-05  0.1899468E+04  0.7818609E-02  0.8655121E-01
       -1   -1    0    0    0  501  0.00000000000E+00  0.00000000000E+00  0.78594646883E+03  0.78594646884E+03  0.50400001928E-02 0. -1.
        1   -1    0    0  501    0  0.00000000000E+00  0.00000000000E+00 -0.11476538417E+04  0.11476538417E+04  0.50400001928E-02 0.  1.
    10030    2    1    2    0    0  0.00000000000E+00  0.00000000000E+00 -0.36170737289E+03  0.19336003106E+04  0.18994678037E+04 0.  0.
        3    1    3    3  502    0 -0.82342088644E+02 -0.92631855228E+03  0.15348401502E+02  0.93009777093E+03  0.10100000352E+00 0. -1.
       -3    1    3    3    0  502  0.82342088644E+02  0.92631855228E+03 -0.37705577440E+03  0.10035025396E+04  0.10100000352E+00 0.  1.
</event>
<event>
 5   0  0.3203527E-05  0.1902747E+04  0.7818609E-02  0.8653490E-01
        1   -1    0    0  501    0  0.00000000000E+00  0.00000000000E+00  0.17504527136E+04  0.17504527136E+04  0.50400001928E-02 0. -1.
       -1   -1    0    0    0  501  0.00000000000E+00  0.00000000000E+00 -0.51707280023E+03  0.51707280026E+03  0.50400001928E-02 0.  1.
    10030    2    1    2    0    0  0.00000000000E+00  0.00000000000E+00  0.12333799134E+04  0.22675255139E+04  0.19027469473E+04 0.  0.
        1    1    3    3  502    0  0.65914135800E+03  0.66945591961E+02 -0.19696409170E+03  0.69119020215E+03  0.50400001928E-02 0.  1.
       -1    1    3    3    0  502 -0.65914135800E+03 -0.66945591961E+02  0.14303440051E+04  0.15763353117E+04  0.50400001928E-02 0. -1.
</event>
<event>
 5   0  0.3086139E-05  0.1900357E+04  0.7818609E-02  0.8654679E-01
       -1   -1    0    0    0  501  0.00000000000E+00  0.00000000000E+00  0.52830847134E+03  0.52830847136E+03  0.50400001928E-02 0.  1.
        1   -1    0    0  501    0  0.00000000000E+00  0.00000000000E+00 -0.17089247124E+04  0.17089247124E+04  0.50400001928E-02 0. -1.
    10030    2    1    2    0    0  0.00000000000E+00  0.00000000000E+00 -0.11806162411E+04  0.22372331838E+04  0.19003572322E+04 0.  0.
        2    1    3    3  502    0 -0.82059900504E+03 -0.42438076198E+03 -0.32875902882E+03  0.98059382888E+03  0.25500000920E-02 0. -1.
       -2    1    3    3    0  502  0.82059900504E+03  0.42438076198E+03 -0.85185721225E+03  0.12566393549E+04  0.25500000920E-02 0.  1.
</event>
<event>
 5   0  0.6361762E-05  0.1950182E+04  0.7818609E-02  0.8630273E-01
        2   -1    0    0  501    0  0.00000000000E+00  0.00000000000E+00  0.95696466010E+03  0.95696466010E+03  0.25500000920E-02 0.  1.
       -2   -1    0    0    0  501  0.00000000000E+00  0.00000000000E+00 -0.99356049463E+03  0.99356049463E+03  0.25500000920E-02 0. -1.
    10030    2    1    2    0    0  0.00000000000E+00  0.00000000000E+00 -0.36595834530E+02  0.19505251547E+04  0.19501818182E+04 0.  0.
        1    1    3    3  502    0 -0.30357174569E+03  0.86502123243E+03  0.31400257079E+03  0.96902794172E+03  0.50400001928E-02 0.  1.
       -1    1    3    3    0  502  0.30357174569E+03 -0.86502123243E+03 -0.35059840532E+03  0.98149721302E+03  0.50400001928E-02 0. -1.
</event>
<event>
 5   0  0.6395992E-05  0.1903568E+04  0.7818609E-02  0.8653083E-01
        2   -1    0    0  501    0  0.00000000000E+00  0.00000000000E+00  0.12903986588E+04  0.12903986588E+04  0.25500000920E-02 0. -1.
       -2   -1    0    0    0  501  0.00000000000E+00  0.00000000000E+00 -0.70202535587E+03  0.70202535587E+03  0.25500000920E-02 0.  1.
    10030    2    1    2    0    0  0.00000000000E+00  0.00000000000E+00  0.58837330292E+03  0.19924240147E+04  0.19035677846E+04 0.  0.
        4    1    3    3  502    0  0.72450061232E+03  0.60899487724E+03  0.39945499844E+03  0.10272983045E+04  0.12699999809E+01 0. -1.
       -4    1    3    3    0  502 -0.72450061232E+03 -0.60899487724E+03  0.18891830449E+03  0.96512571017E+03  0.12699999809E+01 0.  1.
</event>
<event>
 5   0  0.3147063E-05  0.1894317E+04  0.7818609E-02  0.8657690E-01
        1   -1    0    0  501    0  0.00000000000E+00  0.00000000000E+00  0.58633019078E+03  0.58633019080E+03  0.50400001928E-02 0. -1.
       -1   -1    0    0    0  501  0.00000000000E+00  0.00000000000E+00 -0.15300405440E+04  0.15300405440E+04  0.50400001928E-02 0.  1.
    10030    2    1    2    0    0  0.00000000000E+00  0.00000000000E+00 -0.94371035320E+03  0.21163707348E+04  0.18943167255E+04 0.  0.
        5    1    3    3  502    0  0.59201228581E+03 -0.59557178924E+03 -0.96127274023E+03  0.12764214327E+04  0.46999998093E+01 0.  1.
       -5    1    3    3    0  502 -0.59201228581E+03  0.59557178924E+03  0.17562387030E+02  0.83994930212E+03  0.46999998093E+01 0. -1.
</event>
<event>
 5   0  0.6361762E-05  0.1898544E+04  0.7818609E-02  0.8655581E-01
       -2   -1    0    0    0  501  0.00000000000E+00  0.00000000000E+00  0.18410154387E+04  0.18410154387E+04  0.25500000920E-02 0. -1.
        2   -1    0    0  501    0  0.00000000000E+00  0.00000000000E+00 -0.48946776350E+03  0.48946776351E+03  0.25500000920E-02 0.  1.
    10030    2    1    2    0    0  0.00000000000E+00  0.00000000000E+00  0.13515476752E+04  0.23304832022E+04  0.18985443997E+04 0.  0.
        1    1    3    3  502    0 -0.81847885137E+03 -0.45328328624E+03  0.87272843090E+03  0.12794640604E+04  0.50400001928E-02 0. -1.
       -1    1    3    3    0  502  0.81847885137E+03  0.45328328624E+03  0.47881924433E+03  0.10510191418E+04  0.50400001928E-02 0.  1.
</event>
<event>
 5   0  0.3083469E-05  0.1892252E+04  0.7818609E-02  0.8658723E-01
        1   -1    0    0  501    0  0.00000000000E+00  0.00000000000E+00  0.74490839704E+03  0.74490839706E+03  0.50400001928E-02 0. -1.
       -1   -1    0    0    0  501  0.00000000000E+00  0.00000000000E+00 -0.12016972753E+04  0.12016972753E+04  0.50400001928E-02 0.  1.
    10030    2    1    2    0    0  0.00000000000E+00  0.00000000000E+00 -0.45678887821E+03  0.19466056723E+04  0.18922519822E+04 0.  0.
        3    1    3    3  502    0  0.59702155021E+03  0.12599646270E+02 -0.98334137202E+03  0.11504580595E+04  0.10100000352E+00 0.  1.
       -3    1    3    3    0  502 -0.59702155021E+03 -0.12599646270E+02  0.52655249381E+03  0.79614761284E+03  0.10100000352E+00 0. -1.
</event>
<event>
 5   0  0.2279625E-05  0.1916849E+04  0.7818609E-02  0.8646515E-01
       -3   -1    0    0    0  501  0.00000000000E+00  0.00000000000E+00  0.11844802058E+04  0.11844802102E+04  0.10100000352E+00 0.  1.
        3   -1    0    0  501    0  0.00000000000E+00  0.00000000000E+00 -0.77551107707E+03  0.77551108365E+03  0.10100000352E+00 0. -1.
    10030    2    1    2    0    0  0.00000000000E+00  0.00000000000E+00  0.40896912878E+03  0.19599912938E+04  0.19168490091E+04 0.  0.
        4    1    3    3  502    0 -0.56090462687E+03 -0.75144978687E+02  0.99540215986E+03  0.11450274412E+04  0.12699999809E+01 0.  1.
       -4    1    3    3    0  502  0.56090462687E+03  0.75144978687E+02 -0.58643303109E+03  0.81496385264E+03  0.12699999809E+01 0. -1.
</event>
<event>
 5   0  0.3147063E-05  0.1898396E+04  0.7818609E-02  0.8655655E-01
        1   -1    0    0  501    0  0.00000000000E+00  0.00000000000E+00  0.91111992892E+03  0.91111992893E+03  0.50400001928E-02 0. -1.
       -1   -1    0    0    0  501  0.00000000000E+00  0.00000000000E+00 -0.98886710288E+03  0.98886710289E+03  0.50400001928E-02 0.  1.
    10030    2    1    2    0    0  0.00000000000E+00  0.00000000000E+00 -0.77747173959E+02  0.18999870318E+04  0.18983956643E+04 0.  0.
        5    1    3    3  502    0  0.19014182719E+03 -0.39373375782E+03 -0.88206082080E+03  0.98449660643E+03  0.46999998093E+01 0.  1.
       -5    1    3    3    0  502 -0.19014182719E+03  0.39373375782E+03  0.80431364684E+03  0.91549042539E+03  0.46999998093E+01 0. -1.
</event>
<event>
 5   0  0.2279625E-05  0.1898485E+04  0.7818609E-02  0.8655611E-01
       -4   -1    0    0    0  501  0.00000000000E+00  0.00000000000E+00  0.11174364825E+04  0.11174372042E+04  0.12699999809E+01 0.  1.
        4   -1    0    0  501    0  0.00000000000E+00  0.00000000000E+00 -0.80636290045E+03  0.80636390056E+03  0.12699999809E+01 0. -1.
    10030    2    1    2    0    0  0.00000000000E+00  0.00000000000E+00  0.31107358203E+03  0.19238011047E+04  0.18984846371E+04 0.  0.
        2    1    3    3  502    0  0.41579271414E+03 -0.82907705092E+03 -0.49168540043E+02  0.92880023839E+03  0.25500000920E-02 0. -1.
       -2    1    3    3    0  502 -0.41579271414E+03  0.82907705092E+03  0.36024212207E+03  0.99500086634E+03  0.25500000920E-02 0.  1.
</event>
<event>
 5   0  0.6098377E-05  0.1884318E+04  0.7818609E-02  0.8662702E-01
        2   -1    0    0  501    0  0.00000000000E+00  0.00000000000E+00  0.97369796711E+03  0.97369796711E+03  0.25500000920E-02 0.  1.
       -2   -1    0    0    0  501  0.00000000000E+00  0.00000000000E+00 -0.91164156476E+03  0.91164156476E+03  0.25500000920E-02 0. -1.
    10030    2    1    2    0    0  0.00000000000E+00  0.00000000000E+00  0.62056402348E+02  0.18853395319E+04  0.18843179544E+04 0.  0.
        5    1    3    3  502    0 -0.29972687820E+02 -0.93656858808E+03  0.12897083266E+03  0.94589357112E+03  0.46999998093E+01 0.  1.
       -5    1    3    3    0  502  0.29972687820E+02  0.93656858808E+03 -0.66914430315E+02  0.93944596076E+03  0.46999998093E+01 0. -1.
</event>
<event>
 5   0  0.6395992E-05  0.1891889E+04  0.7818609E-02  0.8658904E-01
       -2   -1    0    0    0  501  0.00000000000E+00  0.00000000000E+00  0.95416511270E+03  0.95416511270E+03  0.25500000920E-02 0. -1.
        2   -1    0    0  501    0  0.00000000000E+00  0.00000000000E+00 -0.93779484764E+03  0.93779484764E+03  0.25500000920E-02 0.  1.
    10030    2    1    2    0    0  0.00000000000E+00  0.00000000000E+00  0.16370265063E+02  0.18919599603E+04  0.18918891368E+04 0.  0.
        4    1    3    3  502    0 -0.14559615784E+03  0.89522716731E+03 -0.26048752251E+03  0.94365527845E+03  0.12699999809E+01 0.  1.
       -4    1    3    3    0  502  0.14559615784E+03 -0.89522716731E+03  0.27685778758E+03  0.94830468190E+03  0.12699999809E+01 0. -1.
</event>
<event>
 5   0  0.3203527E-05  0.1903099E+04  0.7818609E-02  0.8653315E-01
        1   -1    0    0  501    0  0.00000000000E+00  0.00000000000E+00  0.13208294948E+04  0.13208294948E+04  0.50400001928E-02 0.  1.
       -1   -1    0    0    0  501  0.00000000000E+00  0.00000000000E+00 -0.68551343692E+03  0.68551343694E+03  0.50400001928E-02 0. -1.
    10030    2    1    2    0    0  0.00000000000E+00  0.00000000000E+00  0.63531605785E+03  0.20063429317E+04  0.19030989113E+04 0.  0.
        1    1    3    3  502    0 -0.37938359145E+03  0.20357470312E+03  0.12122638221E+04  0.12864517650E+04  0.50400001928E-02 0.  1.
       -1    1    3    3    0  502  0.37938359145E+03 -0.20357470312E+03 -0.57694776426E+03  0.71989116672E+03  0.50400001928E-02 0. -1.
</event>
<event>
 5   0  0.6098377E-05  0.1904474E+04  0.7818609E-02  0.8652632E-01
        2   -1    0    0  501    0  0.00000000000E+00  0.00000000000E+00  0.10564678448E+04  0.10564678448E+04  0.25500000920E-02 0.  1.
       -2   -1    0    0    0  501  0.00000000000E+00  0.00000000000E+00 -0.85828980982E+03  0.85828980983E+03  0.25500000920E-02 0. -1.
    10030    2    1    2    0    0  0.00000000000E+00  0.00000000000E+00  0.19817803495E+03  0.19147576546E+04  0.19044742955E+04 0.  0.
        5    1    3    3  502    0  0.89136828602E+03 -0.62719708273E+02  0.42989804194E+03  0.99161766805E+03  0.46999998093E+01 0.  1.
       -5    1    3    3    0  502 -0.89136828602E+03  0.62719708273E+02 -0.23172000699E+03  0.92313998655E+03  0.46999998093E+01 0. -1.
</event>
<event>
 5   0  0.3147063E-05  0.1900570E+04  0.7818609E-02  0.8654573E-01
        1   -1    0    0  501    0  0.00000000000E+00  0.00000000000E+00  0.22337156131E+04  0.22337156131E+04  0.50400001928E-02 0.  1.
       -1   -1    0    0    0  501  0.00000000000E+00  0.00000000000E+00 -0.40427766958E+03  0.40427766961E+03  0.50400001928E-02 0. -1.
    10030    2    1    2    0    0  0.00000000000E+00  0.00000000000E+00  0.18294379435E+04  0.26379932827E+04  0.19005697489E+04 0.  0.
        5    1    3    3  502    0  0.40892972923E+03 -0.82222019720E+03  0.57543944627E+03  0.10837076277E+04  0.46999998093E+01 0. -1.
       -5    1    3    3    0  502 -0.40892972923E+03  0.82222019720E+03  0.12539984972E+04  0.15542856549E+04  0.46999998093E+01 0.  1.
</event>
<event>
 5   0  0.6452182E-05  0.1907179E+04  0.7818609E-02  0.8651291E-01
        2   -1    0    0  501    0  0.00000000000E+00  0.00000000000E+00  0.18460815712E+04  0.18460815712E+04  0.25500000920E-02 0.  1.
       -2   -1    0    0    0  501  0.00000000000E+00  0.00000000000E+00 -0.49257450382E+03  0.49257450383E+03  0.25500000920E-02 0. -1.
    10030    2    1    2    0    0  0.00000000000E+00  0.00000000000E+00  0.13535070674E+04  0.23386560751E+04  0.19071787687E+04 0.  0.
        3    1    3    3  502    0  0.56566971485E+02  0.77446440631E+03 -0.19423653304E+01  0.77652992336E+03  0.10100000352E+00 0. -1.
       -3    1    3    3    0  502 -0.56566971485E+02 -0.77446440631E+03  0.13554494328E+04  0.15621261517E+04  0.10100000352E+00 0.  1.
</event>
<event>
 5   0  0.6098377E-05  0.1899413E+04  0.7818609E-02  0.8655149E-01
        2   -1    0    0  501    0  0.00000000000E+00  0.00000000000E+00  0.18909648442E+04  0.18909648442E+04  0.25500000920E-02 0. -1.
       -2   -1    0    0    0  501  0.00000000000E+00  0.00000000000E+00 -0.47697459191E+03  0.47697459192E+03  0.25500000920E-02 0.  1.
    10030    2    1    2    0    0  0.00000000000E+00  0.00000000000E+00  0.14139902523E+04  0.23679394361E+04  0.18994127354E+04 0.  0.
        5    1    3    3  502    0  0.21940458097E+03  0.33308324427E+03 -0.36748426382E+03  0.54235559545E+03  0.46999998093E+01 0.  1.
       -5    1    3    3    0  502 -0.21940458097E+03 -0.33308324427E+03  0.17814745161E+04  0.18255838407E+04  0.46999998093E+01 0. -1.
</event>
<event>
 5   0  0.3144958E-05  0.1915651E+04  0.7818609E-02  0.8647105E-01
        1   -1    0    0  501    0  0.00000000000E+00  0.00000000000E+00  0.83054534052E+03  0.83054534053E+03  0.50400001928E-02 0.  1.
       -1   -1    0    0    0  501  0.00000000000E+00  0.00000000000E+00 -0.11046109495E+04  0.11046109495E+04  0.50400001928E-02 0. -1.
    10030    2    1    2    0    0  0.00000000000E+00  0.00000000000E+00 -0.27406560896E+03  0.19351562900E+04  0.19156507795E+04 0.  0.
        4    1    3    3  502    0 -0.80580392321E+02  0.19980426694E+03 -0.10798163707E+04  0.11010994288E+04  0.12699999809E+01 0. -1.
       -4    1    3    3    0  502  0.80580392321E+02 -0.19980426694E+03  0.80575076178E+03  0.83405686121E+03  0.12699999809E+01 0.  1.
</event>
<event>
 5   0  0.6452182E-05  0.1908591E+04  0.7818609E-02  0.8650592E-01
       -2   -1    0    0    0  501  0.00000000000E+00  0.00000000000E+00  0.56771513615E+03  0.56771513615E+03  0.25500000920E-02 0.  1.
        2   -1    0    0  501    0  0.00000000000E+00  0.00000000000E+00 -0.16041148351E+04  0.16041148351E+04  0.25500000920E-02 0. -1.
    10030    2    1    2    0    0  0.00000000000E+00  0.00000000000E+00 -0.10363996989E+04  0.21718299713E+04  0.19085913884E+04 0.  0.
        3    1    3    3  502    0  0.42737397646E+03  0.16733947366E+03 -0.14702743960E+04  0.15402460274E+04  0.10100000352E+00 0. -1.
       -3    1    3    3    0  502 -0.42737397646E+03 -0.16733947366E+03  0.43387469704E+03  0.63158394386E+03  0.10100000352E+00 0.  1.
</event>
<event>
 5   0  0.6423388E-05  0.1909751E+04  0.7818609E-02  0.8650018E-01
        2   -1    0    0  501    0  0.00000000000E+00  0.00000000000E+00  0.11904129560E+04  0.11904129560E+04  0.25500000920E-02 0. -1.
       -2   -1    0    0    0  501  0.00000000000E+00  0.00000000000E+00 -0.76594222668E+03  0.76594222669E+03  0.25500000920E-02 0.  1.
    10030    2    1    2    0    0  0.00000000000E+00  0.00000000000E+00  0.42447072928E+03  0.19563551826E+04  0.19097513452E+04 0.  0.
        2    1    3    3  502    0  0.23608726019E+03 -0.34729944798E+03 -0.66626626185E+03  0.78756893837E+03  0.25500000920E-02 0.  1.
       -2    1    3    3    0  502 -0.23608726019E+03  0.34729944798E+03  0.10907369911E+04  0.11687862443E+04  0.25500000920E-02 0. -1.
</event>
<event>
 5   0  0.6395992E-05  0.1905202E+04  0.7818609E-02  0.8652271E-01
        2   -1    0    0  501    0  0.00000000000E+00  0.00000000000E+00  0.13601293936E+04  0.13601293936E+04  0.25500000920E-02 0.  1.
       -2   -1    0    0    0  501  0.00000000000E+00  0.00000000000E+00 -0.66717830334E+03  0.66717830334E+03  0.25500000920E-02 0. -1.
    10030    2    1    2    0    0  0.00000000000E+00  0.00000000000E+00  0.69295109027E+03  0.20273076970E+04  0.19052021637E+04 0.  0.
        4    1    3    3  502    0 -0.12059644835E+03  0.87778281137E+03  0.71875679116E+03  0.11409027588E+04  0.12699999809E+01 0.  1.
       -4    1    3    3    0  502  0.12059644835E+03 -0.87778281137E+03 -0.25805700894E+02  0.88640493816E+03  0.12699999809E+01 0. -1.
</event>
<event>
 5   0  0.6098377E-05  0.1975994E+04  0.7818609E-02  0.8617927E-01
       -2   -1    0    0    0  501  0.00000000000E+00  0.00000000000E+00  0.16258297315E+04  0.16258297315E+04  0.25500000920E-02 0.  1.
        2   -1    0    0  501    0  0.00000000000E+00  0.00000000000E+00 -0.60039387868E+03  0.60039387869E+03  0.25500000920E-02 0. -1.
    10030    2    1    2    0    0  0.00000000000E+00  0.00000000000E+00  0.10254358529E+04  0.22262236102E+04  0.19759941484E+04 0.  0.
        5    1    3    3  502    0 -0.37442915792E+03 -0.87156961788E+03  0.20154366998E+03  0.96977973480E+03  0.46999998093E+01 0. -1.
       -5    1    3    3    0  502  0.37442915792E+03  0.87156961788E+03  0.82389218289E+03  0.12564438754E+04  0.46999998093E+01 0.  1.
</event>
<event>
 5   0  0.6361762E-05  0.1899095E+04  0.7818609E-02  0.8655307E-01
       -2   -1    0    0    0  501  0.00000000000E+00  0.00000000000E+00  0.51855403965E+03  0.51855403966E+03  0.25500000920E-02 0.  1.
        2   -1    0    0  501    0  0.00000000000E+00  0.00000000000E+00 -0.17387591221E+04  0.17387591221E+04  0.25500000920E-02 0. -1.
    10030    2    1    2    0    0  0.00000000000E+00  0.00000000000E+00 -0.12202050824E+04  0.22573131617E+04  0.18990951179E+04 0.  0.
        1    1    3    3  502    0 -0.92508787694E+03 -0.18073694399E+03 -0.47360637091E+03  0.10548727021E+04  0.50400001928E-02 0.  1.
       -1    1    3    3    0  502  0.92508787694E+03  0.18073694399E+03 -0.74659871153E+03  0.12024404597E+04  0.50400001928E-02 0. -1.
</event>
<event>
 5   0  0.6361762E-05  0.1895636E+04  0.7818609E-02  0.8657032E-01
       -2   -1    0    0    0  501  0.00000000000E+00  0.00000000000E+00  0.35222035025E+03  0.35222035026E+03  0.25500000920E-02 0. -1.
        2   -1    0    0  501    0  0.00000000000E+00  0.00000000000E+00 -0.25505591741E+04  0.25505591741E+04  0.25500000920E-02 0.  1.
    10030    2    1    2    0    0  0.00000000000E+00  0.00000000000E+00 -0.21983388238E+04  0.29027795243E+04  0.18956358782E+04 0.  0.
        1    1    3    3  502    0 -0.79764444665E+03  0.40928673760E+03 -0.15701681364E+04  0.18080874629E+04  0.50400001928E-02 0.  1.
       -1    1    3    3    0  502  0.79764444665E+03 -0.40928673760E+03 -0.62817068742E+03  0.10946920615E+04  0.50400001928E-02 0. -1.
</event>
<event>
 5   0  0.3203527E-05  0.1895974E+04  0.7818609E-02  0.8656863E-01
        1   -1    0    0  501    0  0.00000000000E+00  0.00000000000E+00  0.86918291723E+03  0.86918291725E+03  0.50400001928E-02 0.  1.
       -1   -1    0    0    0  501  0.00000000000E+00  0.00000000000E+00 -0.10339355786E+04  0.10339355786E+04  0.50400001928E-02 0. -1.
    10030    2    1    2    0    0  0.00000000000E+00  0.00000000000E+00 -0.16475266132E+03  0.19031184958E+04  0.18959737787E+04 0.  0.
        1    1    3    3  502    0  0.84903557762E+03  0.23401013131E+03 -0.43449304854E+03  0.98204193540E+03  0.50400001928E-02 0. -1.
       -1    1    3    3    0  502 -0.84903557762E+03 -0.23401013131E+03  0.26974038722E+03  0.92107656042E+03  0.50400001928E-02 0.  1.
</event>
<event>
 5   0  0.3086139E-05  0.1860846E+04  0.7818609E-02  0.8674595E-01
       -1   -1    0    0    0  501  0.00000000000E+00  0.00000000000E+00  0.85031014245E+03  0.85031014247E+03  0.50400001928E-02 0.  1.
        1   -1    0    0  501    0  0.00000000000E+00  0.00000000000E+00 -0.10180836239E+04  0.10180836239E+04  0.50400001928E-02 0. -1.
    10030    2    1    2    0    0  0.00000000000E+00  0.00000000000E+00 -0.16777348146E+03  0.18683937664E+04  0.18608458628E+04 0.  0.
        2    1    3    3  502    0  0.54683328773E+03  0.43349186739E+03  0.53403212577E+03  0.87871050695E+03  0.25500000920E-02 0.  1.
       -2    1    3    3    0  502 -0.54683328773E+03 -0.43349186739E+03 -0.70180560724E+03  0.98968325944E+03  0.25500000920E-02 0. -1.
</event>
<event>
 5   0  0.6361762E-05  0.1905557E+04  0.7818609E-02  0.8652095E-01
        2   -1    0    0  501    0  0.00000000000E+00  0.00000000000E+00  0.82128508932E+03  0.82128508933E+03  0.25500000920E-02 0.  1.
       -2   -1    0    0    0  501  0.00000000000E+00  0.00000000000E+00 -0.11053251417E+04  0.11053251417E+04  0.25500000920E-02 0. -1.
    10030    2    1    2    0    0  0.00000000000E+00  0.00000000000E+00 -0.28404005239E+03  0.19266102310E+04  0.19055571970E+04 0.  0.
        1    1    3    3  502    0 -0.58245387717E+02  0.89269156737E+02  0.81523793387E+03  0.82217662116E+03  0.50400001928E-02 0.  1.
       -1    1    3    3    0  502  0.58245387717E+02 -0.89269156737E+02 -0.10992779863E+04  0.11044336099E+04  0.50400001928E-02 0. -1.
</event>
<event>
 5   0  0.3147063E-05  0.1903372E+04  0.7818609E-02  0.8653179E-01
       -1   -1    0    0    0  501  0.00000000000E+00  0.00000000000E+00  0.96124538191E+03  0.96124538192E+03  0.50400001928E-02 0.  1.
        1   -1    0    0  501    0  0.00000000000E+00  0.00000000000E+00 -0.94222216684E+03  0.94222216685E+03  0.50400001928E-02 0. -1.
    10030    2    1    2    0    0  0.00000000000E+00  0.00000000000E+00  0.19023215067E+02  0.19034675488E+04  0.19033724876E+04 0.  0.
        5    1    3    3  502    0 -0.55279810392E+03  0.34706927167E+03  0.70210795810E+03  0.95865556790E+03  0.46999998093E+01 0.  1.
       -5    1    3    3    0  502  0.55279810392E+03 -0.34706927167E+03 -0.68308474304E+03  0.94481198087E+03  0.46999998093E+01 0. -1.
</event>
<event>
 5   0  0.6098377E-05  0.1895320E+04  0.7818609E-02  0.8657189E-01
       -2   -1    0    0    0  501  0.00000000000E+00  0.00000000000E+00  0.60376202194E+03  0.60376202195E+03  0.25500000920E-02 0.  1.
        2   -1    0    0  501    0  0.00000000000E+00  0.00000000000E+00 -0.14874398016E+04  0.14874398016E+04  0.25500000920E-02 0. -1.
    10030    2    1    2    0    0  0.00000000000E+00  0.00000000000E+00 -0.88367777965E+03  0.20912018235E+04  0.18953201968E+04 0.  0.
        5    1    3    3  502    0 -0.42356407057E+02  0.79497376646E+03 -0.10090297873E+04  0.12852783964E+04  0.46999998093E+01 0.  1.
       -5    1    3    3    0  502  0.42356407057E+02 -0.79497376646E+03  0.12535200766E+03  0.80592342714E+03  0.46999998093E+01 0. -1.
</event>
<event>
 5   0  0.3083469E-05  0.1901597E+04  0.7818609E-02  0.8654062E-01
        1   -1    0    0  501    0  0.00000000000E+00  0.00000000000E+00  0.20511140753E+04  0.20511140753E+04  0.50400001928E-02 0.  1.
       -1   -1    0    0    0  501  0.00000000000E+00  0.00000000000E+00 -0.44074458063E+03  0.44074458066E+03  0.50400001928E-02 0. -1.
    10030    2    1    2    0    0  0.00000000000E+00  0.00000000000E+00  0.16103694946E+04  0.24918586559E+04  0.19015966060E+04 0.  0.
        3    1    3    3  502    0  0.54228667629E+03  0.60328302063E+03  0.15525615347E+03  0.82591145146E+03  0.10100000352E+00 0. -1.
       -3    1    3    3    0  502 -0.54228667629E+03 -0.60328302063E+03  0.14551133411E+04  0.16659472045E+04  0.10100000352E+00 0.  1.
</event>
<event>
 5   0  0.6423388E-05  0.1892074E+04  0.7818609E-02  0.8658812E-01
       -2   -1    0    0    0  501  0.00000000000E+00  0.00000000000E+00  0.72753332541E+03  0.72753332542E+03  0.25500000920E-02 0. -1.
        2   -1    0    0  501    0  0.00000000000E+00  0.00000000000E+00 -0.12301654786E+04  0.12301654786E+04  0.25500000920E-02 0.  1.
    10030    2    1    2    0    0  0.00000000000E+00  0.00000000000E+00 -0.50263215319E+03  0.19576988040E+04  0.18920743975E+04 0.  0.
        2    1    3    3  502    0  0.60527113483E+03 -0.13409044138E+03 -0.99070102467E+03  0.11686838381E+04  0.25500000920E-02 0.  1.
       -2    1    3    3    0  502 -0.60527113483E+03  0.13409044138E+03  0.48806887149E+03  0.78901496592E+03  0.25500000920E-02 0. -1.
</event>
<event>
 5   0  0.3144958E-05  0.1897191E+04  0.7818609E-02  0.8656256E-01
        1   -1    0    0  501    0  0.00000000000E+00  0.00000000000E+00  0.20863544823E+04  0.20863544823E+04  0.50400001928E-02 0. -1.
       -1   -1    0    0    0  501  0.00000000000E+00  0.00000000000E+00 -0.43129449227E+03  0.43129449230E+03  0.50400001928E-02 0.  1.
    10030    2    1    2    0    0  0.00000000000E+00  0.00000000000E+00  0.16550599900E+04  0.25176489746E+04  0.18971907623E+04 0.  0.
        4    1    3    3  502    0  0.11835118372E+01 -0.13576491812E+03 -0.41833282220E+03  0.43981527568E+03  0.12699999809E+01 0.  1.
       -4    1    3    3    0  502 -0.11835118372E+01  0.13576491812E+03  0.20733928122E+04  0.20778336989E+04  0.12699999809E+01 0. -1.
</event>
<event>
 5   0  0.3147063E-05  0.2021350E+04  0.7818609E-02  0.8596703E-01
       -1   -1    0    0    0  501  0.00000000000E+00  0.00000000000E+00  0.63400425132E+03  0.63400425134E+03  0.50400001928E-02 0.  1.
        1   -1    0    0  501    0  0.00000000000E+00  0.00000000000E+00 -0.16111315273E+04  0.16111315273E+04  0.50400001928E-02 0. -1.
    10030    2    1    2    0    0  0.00000000000E+00  0.00000000000E+00 -0.97712727597E+03  0.22451357786E+04  0.20213502792E+04 0.  0.
        5    1    3    3  502    0 -0.38735734659E+03  0.50030998655E+03 -0.13639041421E+04  0.15035333037E+04  0.46999998093E+01 0. -1.
       -5    1    3    3    0  502  0.38735734659E+03 -0.50030998655E+03  0.38677686614E+03  0.74160247490E+03  0.46999998093E+01 0.  1.
</event>
<event>
 5   0  0.3203527E-05  0.1897867E+04  0.7818609E-02  0.8655919E-01
        1   -1    0    0  501    0  0.00000000000E+00  0.00000000000E+00  0.12415499307E+04  0.12415499308E+04  0.50400001928E-02 0.  1.
       -1   -1    0    0    0  501  0.00000000000E+00  0.00000000000E+00 -0.72528272560E+03  0.72528272562E+03  0.50400001928E-02 0. -1.
    10030    2    1    2    0    0  0.00000000000E+00  0.00000000000E+00  0.51626720514E+03  0.19668326564E+04  0.18978669266E+04 0.  0.
        1    1    3    3  502    0  0.60713422407E+03 -0.33602743079E+03 -0.41264913593E+03  0.80734485177E+03  0.50400001928E-02 0. -1.
       -1    1    3    3    0  502 -0.60713422407E+03  0.33602743079E+03  0.92891634107E+03  0.11594878046E+04  0.50400001928E-02 0.  1.
</event>
<event>
 5   0  0.3086139E-05  0.1883438E+04  0.7818609E-02  0.8663145E-01
       -1   -1    0    0    0  501  0.00000000000E+00  0.00000000000E+00  0.61613515358E+03  0.61613515360E+03  0.50400001928E-02 0. -1.
        1   -1    0    0  501    0  0.00000000000E+00  0.00000000000E+00 -0.14393504385E+04  0.14393504385E+04  0.50400001928E-02 0.  1.
    10030    2    1    2    0    0  0.00000000000E+00  0.00000000000E+00 -0.82321528488E+03  0.20554855921E+04  0.18834377117E+04 0.  0.
        2    1    3    3  502    0 -0.53364002454E+03 -0.75173548853E+03 -0.62140909563E+03  0.11117675947E+04  0.25500000920E-02 0.  1.
       -2    1    3    3    0  502  0.53364002454E+03  0.75173548853E+03 -0.20180618924E+03  0.94371799735E+03  0.25500000920E-02 0. -1.
</event>
<event>
 5   0  0.6452182E-05  0.1885550E+04  0.7818609E-02  0.8662082E-01
       -2   -1    0    0    0  501  0.00000000000E+00  0.00000000000E+00  0.47260540803E+03  0.47260540804E+03  0.25500000920E-02 0. -1.
        2   -1    0    0  501    0  0.00000000000E+00  0.00000000000E+00 -0.18806918967E+04  0.18806918967E+04  0.25500000920E-02 0.  1.
    10030    2    1    2    0    0  0.00000000000E+00  0.00000000000E+00 -0.14080864887E+04  0.23532973047E+04  0.18855504886E+04 0.  0.
        3    1    3    3  502    0  0.77323988788E+03  0.72057753575E+02 -0.36900508786E+02  0.77746633484E+03  0.10100000352E+00 0. -1.
       -3    1    3    3    0  502 -0.77323988788E+03 -0.72057753575E+02 -0.13711859799E+04  0.15758309699E+04  0.10100000352E+00 0.  1.
</event>
<event>
 5   0  0.6361762E-05  0.1896913E+04  0.7818609E-02  0.8656394E-01
       -2   -1    0    0    0  501  0.00000000000E+00  0.00000000000E+00  0.49310374711E+03  0.49310374712E+03  0.25500000920E-02 0.  1.
        2   -1    0    0  501    0  0.00000000000E+00  0.00000000000E+00 -0.18243013068E+04  0.18243013068E+04  0.25500000920E-02 0. -1.
    10030    2    1    2    0    0  0.00000000000E+00  0.00000000000E+00 -0.13311975596E+04  0.23174050539E+04  0.18969130821E+04 0.  0.
        1    1    3    3  502    0  0.35876144075E+02  0.92742683584E+03 -0.90425408165E+03  0.12957943810E+04  0.50400001928E-02 0. -1.
       -1    1    3    3    0  502 -0.35876144075E+02 -0.92742683584E+03 -0.42694347799E+03  0.10216106729E+04  0.50400001928E-02 0.  1.
</event>
<event>
 5   0  0.3086139E-05  0.1903966E+04  0.7818609E-02  0.8652885E-01
       -1   -1    0    0    0  501  0.00000000000E+00  0.00000000000E+00  0.82420295826E+03  0.82420295828E+03  0.50400001928E-02 0. -1.
        1   -1    0    0  501    0  0.00000000000E+00  0.00000000000E+00 -0.10995733211E+04  0.10995733211E+04  0.50400001928E-02 0.  1.
    10030    2    1    2    0    0  0.00000000000E+00  0.00000000000E+00 -0.27537036280E+03  0.19237762794E+04  0.19039659494E+04 0.  0.
        2    1    3    3  502    0 -0.76144573287E+03  0.41726671894E+03  0.25670993928E+03  0.90543421173E+03  0.25500000920E-02 0. -1.
       -2    1    3    3    0  502  0.76144573287E+03 -0.41726671894E+03 -0.53208030207E+03  0.10183420676E+04  0.25500000920E-02 0.  1.
</event>
<event>
 5   0  0.3144958E-05  0.1901670E+04  0.7818609E-02  0.8654025E-01
       -1   -1    0    0    0  501  0.00000000000E+00  0.00000000000E+00  0.45504762579E+03  0.45504762582E+03  0.50400001928E-02 0.  1.
        1   -1    0    0  501    0  0.00000000000E+00  0.00000000000E+00 -0.19867978846E+04  0.19867978847E+04  0.50400001928E-02 0. -1.
    10030    2    1    2    0    0  0.00000000000E+00  0.00000000000E+00 -0.15317502589E+04  0.24418455105E+04  0.19016704871E+04 0.  0.
        4    1    3    3  502    0 -0.36586629592E+03  0.51736128129E+03  0.14441351689E+03  0.64990593060E+03  0.12699999809E+01 0.  1.
       -4    1    3    3    0  502  0.36586629592E+03 -0.51736128129E+03 -0.16761637757E+04  0.17919395799E+04  0.12699999809E+01 0. -1.
</event>
<event>
 5   0  0.3083469E-05  0.1890695E+04  0.7818609E-02  0.8659502E-01
       -1   -1    0    0    0  501  0.00000000000E+00  0.00000000000E+00  0.55433967485E+03  0.55433967487E+03  0.50400001928E-02 0.  1.
        1   -1    0    0  501    0  0.00000000000E+00  0.00000000000E+00 -0.16121556916E+04  0.16121556916E+04  0.50400001928E-02 0. -1.
    10030    2    1    2    0    0  0.00000000000E+00  0.00000000000E+00 -0.10578160168E+04  0.21664953665E+04  0.18906949642E+04 0.  0.
        3    1    3    3  502    0  0.38043394798E+02  0.54590023502E+03 -0.14122170276E+04  0.15145333637E+04  0.10100000352E+00 0. -1.
       -3    1    3    3    0  502 -0.38043394798E+02 -0.54590023502E+03  0.35440101080E+03  0.65196200284E+03  0.10100000352E+00 0.  1.
</event>
<event>
 5   0  0.3144958E-05  0.1903772E+04  0.7818609E-02  0.8652981E-01
        1   -1    0    0  501    0  0.00000000000E+00  0.00000000000E+00  0.14135211401E+04  0.14135211401E+04  0.50400001928E-02 0. -1.
       -1   -1    0    0    0  501  0.00000000000E+00  0.00000000000E+00 -0.64101438388E+03  0.64101438390E+03  0.50400001928E-02 0.  1.
    10030    2    1    2    0    0  0.00000000000E+00  0.00000000000E+00  0.77250675621E+03  0.20545355240E+04  0.19037724473E+04 0.  0.
        4    1    3    3  502    0  0.37063953584E+02  0.16021112863E+03  0.13980751737E+04  0.14077134462E+04  0.12699999809E+01 0. -1.
       -4    1    3    3    0  502 -0.37063953584E+02 -0.16021112863E+03 -0.62556841752E+03  0.64682207777E+03  0.12699999809E+01 0.  1.
</event>
<event>
 5   0  0.6423388E-05  0.1876551E+04  0.7818609E-02  0.8666617E-01
       -2   -1    0    0    0  501  0.00000000000E+00  0.00000000000E+00  0.10717592137E+04  0.10717592137E+04  0.25500000920E-02 0. -1.
        2   -1    0    0  501    0  0.00000000000E+00  0.00000000000E+00 -0.82141673762E+03  0.82141673762E+03  0.25500000920E-02 0.  1.
    10030    2    1    2    0    0  0.00000000000E+00  0.00000000000E+00  0.25034247607E+03  0.18931759513E+04  0.18765510457E+04 0.  0.
        2    1    3    3  502    0 -0.89014859756E+03 -0.22834328500E+03 -0.65862535766E+02  0.92132679065E+03  0.25500000920E-02 0.  1.
       -2    1    3    3    0  502  0.89014859756E+03  0.22834328500E+03  0.31620501183E+03  0.97184916065E+03  0.25500000920E-02 0. -1.
</event>
<event>
 5   0  0.6361762E-05  0.1902455E+04  0.7818609E-02  0.8653635E-01
        2   -1    0    0  501    0  0.00000000000E+00  0.00000000000E+00  0.23654366976E+04  0.23654366976E+04  0.25500000920E-02 0. -1.
       -2   -1    0    0    0  501  0.00000000000E+00  0.00000000000E+00 -0.38252283099E+03  0.38252283100E+03  0.25500000920E-02 0.  1.
    10030    2    1    2    0    0  0.00000000000E+00  0.00000000000E+00  0.19829138666E+04  0.27479595286E+04  0.19024547743E+04 0.  0.
        1    1    3    3  502    0  0.31767606033E+03 -0.57124271332E+03  0.19896783614E+04  0.20942913595E+04  0.50400001928E-02 0. -1.
       -1    1    3    3    0  502 -0.31767606033E+03  0.57124271332E+03 -0.67644947838E+01  0.65366816906E+03  0.50400001928E-02 0.  1.
</event>
<event>
 5   0  0.3203527E-05  0.1880869E+04  0.7818609E-02  0.8664438E-01
        1   -1    0    0  501    0  0.00000000000E+00  0.00000000000E+00  0.24798631406E+04  0.24798631406E+04  0.50400001928E-02 0.  1.
       -1   -1    0    0    0  501  0.00000000000E+00  0.00000000000E+00 -0.35663948796E+03  0.35663948800E+03  0.50400001928E-02 0. -1.
    10030    2    1    2    0    0  0.00000000000E+00  0.00000000000E+00  0.21232236526E+04  0.28365026286E+04  0.18808690765E+04 0.  0.
        1    1    3    3  502    0  0.71101156397E+03 -0.12543756869E+03  0.19704042842E+04  0.20985149680E+04  0.50400001928E-02 0. -1.
       -1    1    3    3    0  502 -0.71101156397E+03  0.12543756869E+03  0.15281936840E+03  0.73798766055E+03  0.50400001928E-02 0.  1.
</event>
<event>
 5   0  0.6423388E-05  0.1905055E+04  0.7818609E-02  0.8652344E-01
        2   -1    0    0  501    0  0.00000000000E+00  0.00000000000E+00  0.10944951046E+04  0.10944951046E+04  0.25500000920E-02 0.  1.
       -2   -1    0    0    0  501  0.00000000000E+00  0.00000000000E+00 -0.82897458297E+03  0.82897458297E+03  0.25500000920E-02 0. -1.
    10030    2    1    2    0    0  0.00000000000E+00  0.00000000000E+00  0.26552052159E+03  0.19234696875E+04  0.19050549838E+04 0.  0.
        2    1    3    3  502    0 -0.25799395419E+03  0.83978613006E+03 -0.23891075457E+03  0.91042845589E+03  0.25500000920E-02 0.  1.
       -2    1    3    3    0  502  0.25799395419E+03 -0.83978613006E+03  0.50443127615E+03  0.10130412316E+04  0.25500000920E-02 0. -1.
</event>
<event>
 5   0  0.3083469E-05  0.1906537E+04  0.7818609E-02  0.8651609E-01
        1   -1    0    0  501    0  0.00000000000E+00  0.00000000000E+00  0.65248363458E+03  0.65248363460E+03  0.50400001928E-02 0. -1.
       -1   -1    0    0    0  501  0.00000000000E+00  0.00000000000E+00 -0.13927111282E+04  0.13927111282E+04  0.50400001928E-02 0.  1.
    10030    2    1    2    0    0  0.00000000000E+00  0.00000000000E+00 -0.74022749365E+03  0.20451947628E+04  0.19065374047E+04 0.  0.
        3    1    3    3  502    0  0.28640935474E+03  0.37443407609E+03 -0.12589186740E+04  0.13442869611E+04  0.10100000352E+00 0.  1.
       -3    1    3    3    0  502 -0.28640935474E+03 -0.37443407609E+03  0.51869118033E+03  0.70090780177E+03  0.10100000352E+00 0. -1.
</event>
<event>
 5   0  0.6361762E-05  0.1902397E+04  0.7818609E-02  0.8653664E-01
        2   -1    0    0  501    0  0.00000000000E+00  0.00000000000E+00  0.80552418250E+03  0.80552418250E+03  0.25500000920E-02 0. -1.
       -2   -1    0    0    0  501  0.00000000000E+00  0.00000000000E+00 -0.11232173665E+04  0.11232173665E+04  0.25500000920E-02 0.  1.
    10030    2    1    2    0    0  0.00000000000E+00  0.00000000000E+00 -0.31769318396E+03  0.19287415490E+04  0.19023971729E+04 0.  0.
        1    1    3    3  502    0  0.77607849001E+02  0.16786672927E+03  0.78712114050E+03  0.80855544452E+03  0.50400001928E-02 0. -1.
       -1    1    3    3    0  502 -0.77607849001E+02 -0.16786672927E+03 -0.11048143245E+04  0.11201861044E+04  0.50400001928E-02 0.  1.
</event>
<event>
 5   0  0.3083469E-05  0.1898782E+04  0.7818609E-02  0.8655463E-01
       -1   -1    0    0    0  501  0.00000000000E+00  0.00000000000E+00  0.10829241356E+04  0.10829241356E+04  0.50400001928E-02 0.  1.
        1   -1    0    0  501    0  0.00000000000E+00  0.00000000000E+00 -0.83232390444E+03  0.83232390445E+03  0.50400001928E-02 0. -1.
    10030    2    1    2    0    0  0.00000000000E+00  0.00000000000E+00  0.25060023119E+03  0.19152480401E+04  0.18987823938E+04 0.  0.
        3    1    3    3  502    0  0.44252819635E+03 -0.14201033673E+03 -0.70973475432E+03  0.84836405628E+03  0.10100000352E+00 0. -1.
       -3    1    3    3    0  502 -0.44252819635E+03  0.14201033673E+03  0.96033498551E+03  0.10668839838E+04  0.10100000352E+00 0.  1.
</event>
<event>
 5   0  0.6098377E-05  0.1902308E+04  0.7818609E-02  0.8653708E-01
       -2   -1    0    0    0  501  0.00000000000E+00  0.00000000000E+00  0.34857369403E+03  0.34857369404E+03  0.25500000920E-02 0. -1.
        2   -1    0    0  501    0  0.00000000000E+00  0.00000000000E+00 -0.25954159690E+04  0.25954159690E+04  0.25500000920E-02 0.  1.
    10030    2    1    2    0    0  0.00000000000E+00  0.00000000000E+00 -0.22468422749E+04  0.29439896630E+04  0.19023077899E+04 0.  0.
        5    1    3    3  502    0  0.85129691133E+03 -0.19986640815E+03 -0.17025142580E+04  0.19139566090E+04  0.46999998093E+01 0.  1.
       -5    1    3    3    0  502 -0.85129691133E+03  0.19986640815E+03 -0.54432801691E+03  0.10300330540E+04  0.46999998093E+01 0. -1.
</event>
<event>
 5   0  0.6361762E-05  0.1884980E+04  0.7818609E-02  0.8662369E-01
        2   -1    0    0  501    0  0.00000000000E+00  0.00000000000E+00  0.10478210956E+04  0.10478210956E+04  0.25500000920E-02 0. -1.
       -2   -1    0    0    0  501  0.00000000000E+00  0.00000000000E+00 -0.84774706976E+03  0.84774706976E+03  0.25500000920E-02 0.  1.
    10030    2    1    2    0    0  0.00000000000E+00  0.00000000000E+00  0.20007402580E+03  0.18955681653E+04  0.18849798550E+04 0.  0.
        1    1    3    3  502    0 -0.37136934066E+03 -0.25253644803E+03 -0.73322920742E+03  0.85983423717E+03  0.50400001928E-02 0.  1.
       -1    1    3    3    0  502  0.37136934066E+03  0.25253644803E+03  0.93330323323E+03  0.10357339282E+04  0.50400001928E-02 0. -1.
</event>
<event>
 5   0  0.3086139E-05  0.1906161E+04  0.7818609E-02  0.8651796E-01
        1   -1    0    0  501    0  0.00000000000E+00  0.00000000000E+00  0.12244514451E+04  0.12244514452E+04  0.50400001928E-02 0. -1.
       -1   -1    0    0    0  501  0.00000000000E+00  0.00000000000E+00 -0.74185221011E+03  0.74185221012E+03  0.50400001928E-02 0.  1.
    10030    2    1    2    0    0  0.00000000000E+00  0.00000000000E+00  0.48259923504E+03  0.19663036553E+04  0.19061605502E+04 0.  0.
        2    1    3    3  502    0 -0.32109802614E+03  0.17188252809E+03 -0.66723620213E+03  0.76016557097E+03  0.25500000920E-02 0.  1.
       -2    1    3    3    0  502  0.32109802614E+03 -0.17188252809E+03  0.11498354372E+04  0.12061380843E+04  0.25500000920E-02 0. -1.
</event>
<event>
 5   0  0.6423388E-05  0.1901174E+04  0.7818609E-02  0.8654272E-01
       -2   -1    0    0    0  501  0.00000000000E+00  0.00000000000E+00  0.69546996190E+03  0.69546996191E+03  0.25500000920E-02 0.  1.
        2   -1    0    0  501    0  0.00000000000E+00  0.00000000000E+00 -0.12992877839E+04  0.12992877839E+04  0.25500000920E-02 0. -1.
    10030    2    1    2    0    0  0.00000000000E+00  0.00000000000E+00 -0.60381782198E+03  0.19947577458E+04  0.19011739800E+04 0.  0.
        2    1    3    3  502    0  0.86434755723E+03  0.75940103767E+02  0.10547125220E+03  0.87406394737E+03  0.25500000920E-02 0.  1.
       -2    1    3    3    0  502 -0.86434755723E+03 -0.75940103767E+02 -0.70928907418E+03  0.11206937984E+04  0.25500000920E-02 0. -1.
</event>
<event>
 5   0  0.6361762E-05  0.1904653E+04  0.7818609E-02  0.8652544E-01
        2   -1    0    0  501    0  0.00000000000E+00  0.00000000000E+00  0.17519000944E+04  0.17519000944E+04  0.25500000920E-02 0. -1.
       -2   -1    0    0    0  501  0.00000000000E+00  0.00000000000E+00 -0.51768123160E+03  0.51768123161E+03  0.25500000920E-02 0.  1.
    10030    2    1    2    0    0  0.00000000000E+00  0.00000000000E+00  0.12342188628E+04  0.22695813260E+04  0.19046530377E+04 0.  0.
        1    1    3    3  502    0  0.17100604245E+03 -0.43447937952E+03  0.16061434881E+04  0.16726363329E+04  0.50400001928E-02 0. -1.
       -1    1    3    3    0  502 -0.17100604245E+03  0.43447937952E+03 -0.37192462534E+03  0.59694499306E+03  0.50400001928E-02 0.  1.
</event>
<event>
 5   0  0.3086139E-05  0.1899605E+04  0.7818609E-02  0.8655053E-01
        1   -1    0    0  501    0  0.00000000000E+00  0.00000000000E+00  0.52468499305E+03  0.52468499308E+03  0.50400001928E-02 0. -1.
       -1   -1    0    0    0  501  0.00000000000E+00  0.00000000000E+00 -0.17193645011E+04  0.17193645012E+04  0.50400001928E-02 0.  1.
    10030    2    1    2    0    0  0.00000000000E+00  0.00000000000E+00 -0.11946795081E+04  0.22440494942E+04  0.18996049604E+04 0.  0.
        2    1    3    3  502    0 -0.67699930123E+03  0.58639671440E+02 -0.13812604394E+04  0.15393658000E+04  0.25500000920E-02 0.  1.
       -2    1    3    3    0  502  0.67699930123E+03 -0.58639671440E+02  0.18658093128E+03  0.70468369419E+03  0.25500000920E-02 0. -1.
</event>
<event>
 5   0  0.3144958E-05  0.1901702E+04  0.7818609E-02  0.8654010E-01
       -1   -1    0    0    0  501  0.00000000000E+00  0.00000000000E+00  0.45399777500E+03  0.45399777503E+03  0.50400001928E-02 0. -1.
        1   -1    0    0  501    0  0.00000000000E+00  0.00000000000E+00 -0.19914577515E+04  0.19914577515E+04  0.50400001928E-02 0.  1.
    10030    2    1    2    0    0  0.00000000000E+00  0.00000000000E+00 -0.15374599765E+04  0.24454555265E+04  0.19017017518E+04 0.  0.
        4    1    3    3  502    0 -0.46940127277E+03 -0.41868618833E+03  0.14823835221E+03  0.64622898507E+03  0.12699999809E+01 0. -1.
       -4    1    3    3    0  502  0.46940127277E+03  0.41868618833E+03 -0.16856983287E+04  0.17992265415E+04  0.12699999809E+01 0.  1.
</event>
<event>
 5   0  0.6098377E-05  0.1900668E+04  0.7818609E-02  0.8654524E-01
        2   -1    0    0  501    0  0.00000000000E+00  0.00000000000E+00  0.19117735262E+04  0.19117735262E+04  0.25500000920E-02 0.  1.
       -2   -1    0    0    0  501  0.00000000000E+00  0.00000000000E+00 -0.47240658074E+03  0.47240658074E+03  0.25500000920E-02 0. -1.
    10030    2    1    2    0    0  0.00000000000E+00  0.00000000000E+00  0.14393669455E+04  0.23841801070E+04  0.19006676666E+04 0.  0.
        5    1    3    3  502    0 -0.68072503695E+03 -0.62041002800E+03  0.42599222522E+03  0.10147840385E+04  0.46999998093E+01 0.  1.
       -5    1    3    3    0  502  0.68072503695E+03  0.62041002800E+03  0.10133747203E+04  0.13693960685E+04  0.46999998093E+01 0. -1.
</event>
<event>
 5   0  0.3147063E-05  0.1884821E+04  0.7818609E-02  0.8662449E-01
        1   -1    0    0  501    0  0.00000000000E+00  0.00000000000E+00  0.58195635816E+03  0.58195635818E+03  0.50400001928E-02 0. -1.
       -1   -1    0    0    0  501  0.00000000000E+00  0.00000000000E+00 -0.15261240385E+04  0.15261240385E+04  0.50400001928E-02 0.  1.
    10030    2    1    2    0    0  0.00000000000E+00  0.00000000000E+00 -0.94416768037E+03  0.21080803967E+04  0.18848210393E+04 0.  0.
        5    1    3    3  502    0 -0.66046142907E+03  0.27876206028E+03  0.21209199138E+03  0.74761132170E+03  0.46999998093E+01 0. -1.
       -5    1    3    3    0  502  0.66046142907E+03 -0.27876206028E+03 -0.11562596717E+04  0.13604690750E+04  0.46999998093E+01 0.  1.
</event>
<event>
 5   0  0.3083469E-05  0.1922058E+04  0.7818609E-02  0.8643954E-01
        1   -1    0    0  501    0  0.00000000000E+00  0.00000000000E+00  0.18868068817E+04  0.18868068818E+04  0.50400001928E-02 0. -1.
       -1   -1    0    0    0  501  0.00000000000E+00  0.00000000000E+00 -0.48949183067E+03  0.48949183070E+03  0.50400001928E-02 0.  1.
    10030    2    1    2    0    0  0.00000000000E+00  0.00000000000E+00  0.13973150511E+04  0.23762987125E+04  0.19220578084E+04 0.  0.
        3    1    3    3  502    0  0.15905419516E+03 -0.75664574414E+03  0.14043039552E+04  0.16030847226E+04  0.10100000352E+00 0. -1.
       -3    1    3    3    0  502 -0.15905419516E+03  0.75664574414E+03 -0.69889040956E+01  0.77321398985E+03  0.10100000352E+00 0.  1.
</event>
<event>
 5   0  0.6452182E-05  0.1900668E+04  0.7818609E-02  0.8654524E-01
        2   -1    0    0  501    0  0.00000000000E+00  0.00000000000E+00  0.14262531799E+04  0.14262531799E+04  0.25500000920E-02 0.  1.
       -2   -1    0    0    0  501  0.00000000000E+00  0.00000000000E+00 -0.63322160323E+03  0.63322160323E+03  0.25500000920E-02 0. -1.
    10030    2    1    2    0    0  0.00000000000E+00  0.00000000000E+00  0.79303157662E+03  0.20594747831E+04  0.19006675934E+04 0.  0.
        3    1    3    3  502    0  0.81276126809E+03 -0.48546923414E+03  0.30668497392E+03  0.99514669252E+03  0.10100000352E+00 0.  1.
       -3    1    3    3    0  502 -0.81276126809E+03  0.48546923414E+03  0.48634660270E+03  0.10643280906E+04  0.10100000352E+00 0. -1.
</event>
<event>
 5   0  0.6098377E-05  0.1911962E+04  0.7818609E-02  0.8648925E-01
        2   -1    0    0  501    0  0.00000000000E+00  0.00000000000E+00  0.14937253146E+04  0.14937253146E+04  0.25500000920E-02 0. -1.
       -2   -1    0    0    0  501  0.00000000000E+00  0.00000000000E+00 -0.61182551076E+03  0.61182551076E+03  0.25500000920E-02 0.  1.
    10030    2    1    2    0    0  0.00000000000E+00  0.00000000000E+00  0.88189980382E+03  0.21055508253E+04  0.19119615619E+04 0.  0.
        5    1    3    3  502    0  0.61234658913E+03  0.71872117535E+03  0.60558127942E+03  0.11217304708E+04  0.46999998093E+01 0.  1.
       -5    1    3    3    0  502 -0.61234658913E+03 -0.71872117535E+03  0.27631852440E+03  0.98382035456E+03  0.46999998093E+01 0. -1.
</event>
<event>
 5   0  0.3147063E-05  0.1902341E+04  0.7818609E-02  0.8653692E-01
        1   -1    0    0  501    0  0.00000000000E+00  0.00000000000E+00  0.92558972768E+03  0.92558972769E+03  0.50400001928E-02 0. -1.
       -1   -1    0    0    0  501  0.00000000000E+00  0.00000000000E+00 -0.97745803248E+03  0.97745803250E+03  0.50400001928E-02 0.  1.
    10030    2    1    2    0    0  0.00000000000E+00  0.00000000000E+00 -0.51868304802E+02  0.19030477602E+04  0.19023407835E+04 0.  0.
        5    1    3    3  502    0  0.14071197097E+03 -0.53775386195E+03 -0.79805254715E+03  0.97256826641E+03  0.46999998093E+01 0.  1.
       -5    1    3    3    0  502 -0.14071197097E+03  0.53775386195E+03  0.74618424235E+03  0.93047949378E+03  0.46999998093E+01 0. -1.
</event>
<event>
 5   0  0.3086139E-05  0.1895035E+04  0.7818609E-02  0.8657332E-01
       -1   -1    0    0    0  501  0.00000000000E+00  0.00000000000E+00  0.50390900354E+03  0.50390900357E+03  0.50400001928E-02 0.  1.
        1   -1    0    0  501    0  0.00000000000E+00  0.00000000000E+00 -0.17816506892E+04  0.17816506892E+04  0.50400001928E-02 0. -1.
    10030    2    1    2    0    0  0.00000000000E+00  0.00000000000E+00 -0.12777416857E+04  0.22855596928E+04  0.18950354334E+04 0.  0.
        2    1    3    3  502    0  0.51134873636E+03 -0.24452548958E+03 -0.15546320951E+04  0.16547359899E+04  0.25500000920E-02 0. -1.
       -2    1    3    3    0  502 -0.51134873636E+03  0.24452548958E+03  0.27689040944E+03  0.63082370285E+03  0.25500000920E-02 0.  1.
</event>
<event>
 5   0  0.6395992E-05  0.1913107E+04  0.7818609E-02  0.8648359E-01
        2   -1    0    0  501    0  0.00000000000E+00  0.00000000000E+00  0.91885500815E+03  0.91885500815E+03  0.25500000920E-02 0. -1.
       -2   -1    0    0    0  501  0.00000000000E+00  0.00000000000E+00 -0.99579882109E+03  0.99579882110E+03  0.25500000920E-02 0.  1.
    10030    2    1    2    0    0  0.00000000000E+00  0.00000000000E+00 -0.76943812945E+02  0.19146538292E+04  0.19131071417E+04 0.  0.
        4    1    3    3  502    0  0.56219403542E+03 -0.61958474708E+03  0.42563323767E+03  0.93867601343E+03  0.12699999809E+01 0. -1.
       -4    1    3    3    0  502 -0.56219403542E+03  0.61958474708E+03 -0.50257705062E+03  0.97597781582E+03  0.12699999809E+01 0.  1.
</event>
<event>
 5   0  0.6098377E-05  0.1903478E+04  0.7818609E-02  0.8653127E-01
        2   -1    0    0  501    0  0.00000000000E+00  0.00000000000E+00  0.13638060477E+04  0.13638060477E+04  0.25500000920E-02 0. -1.
       -2   -1    0    0    0  501  0.00000000000E+00  0.00000000000E+00 -0.66417625390E+03  0.66417625390E+03  0.25500000920E-02 0.  1.
    10030    2    1    2    0    0  0.00000000000E+00  0.00000000000E+00  0.69962979382E+03  0.20279823016E+04  0.19034784914E+04 0.  0.
        5    1    3    3  502    0  0.87435647858E+03  0.16672781062E+03  0.70872966230E+03  0.11378124796E+04  0.46999998093E+01 0. -1.
       -5    1    3    3    0  502 -0.87435647858E+03 -0.16672781062E+03 -0.90998684786E+01  0.89016982204E+03  0.46999998093E+01 0.  1.
</event>
<event>
 5   0  0.3203527E-05  0.1894987E+04  0.7818609E-02  0.8657356E-01
       -1   -1    0    0    0  501  0.00000000000E+00  0.00000000000E+00  0.53628984099E+03  0.53628984101E+03  0.50400001928E-02 0.  1.
        1   -1    0    0  501    0  0.00000000000E+00  0.00000000000E+00 -0.16739899267E+04  0.16739899267E+04  0.50400001928E-02 0. -1.
    10030    2    1    2    0    0  0.00000000000E+00  0.00000000000E+00 -0.11377000857E+04  0.22102797677E+04  0.18949868513E+04 0.  0.
        1    1    3    3  502    0 -0.90427957304E+03 -0.21910819249E+03 -0.36015604011E+03  0.99771855725E+03  0.50400001928E-02 0.  1.
       -1    1    3    3    0  502  0.90427957304E+03  0.21910819249E+03 -0.77754404558E+03  0.12125612104E+04  0.50400001928E-02 0. -1.
</event>
<event>
 5   0  0.6423388E-05  0.1897510E+04  0.7818609E-02  0.8656097E-01
       -2   -1    0    0    0  501  0.00000000000E+00  0.00000000000E+00  0.17571230493E+04  0.17571230493E+04  0.25500000920E-02 0. -1.
        2   -1    0    0  501    0  0.00000000000E+00  0.00000000000E+00 -0.51227846509E+03  0.51227846510E+03  0.25500000920E-02 0.  1.
    10030    2    1    2    0    0  0.00000000000E+00  0.00000000000E+00  0.12448445842E+04  0.22694015144E+04  0.18975102621E+04 0.  0.
        2    1    3    3  502    0  0.71026132458E+03  0.60781718829E+03  0.81609651929E+03  0.12409377149E+04  0.25500000920E-02 0. -1.
       -2    1    3    3    0  502 -0.71026132458E+03 -0.60781718829E+03  0.42874806488E+03  0.10284637994E+04  0.25500000920E-02 0.  1.
</event>
<event>
 5   0  0.3086139E-05  0.1904645E+04  0.7818609E-02  0.8652548E-01
       -1   -1    0    0    0  501  0.00000000000E+00  0.00000000000E+00  0.63841890010E+03  0.63841890012E+03  0.50400001928E-02 0.  1.
        1   -1    0    0  501    0  0.00000000000E+00  0.00000000000E+00 -0.14205685116E+04  0.14205685116E+04  0.50400001928E-02 0. -1.
    10030    2    1    2    0    0  0.00000000000E+00  0.00000000000E+00 -0.78214961149E+03  0.20589874117E+04  0.19046446248E+04 0.  0.
        2    1    3    3  502    0 -0.24200207657E+03  0.81234933433E+03  0.78200637630E+02  0.85122957290E+03  0.25500000920E-02 0.  1.
       -2    1    3    3    0  502  0.24200207657E+03 -0.81234933433E+03 -0.86035024912E+03  0.12077578388E+04  0.25500000920E-02 0. -1.
</event>
<event>
 5   0  0.6361762E-05  0.1900991E+04  0.7818609E-02  0.8654363E-01
        2   -1    0    0  501    0  0.00000000000E+00  0.00000000000E+00  0.12111700466E+04  0.12111700466E+04  0.25500000920E-02 0. -1.
       -2   -1    0    0    0  501  0.00000000000E+00  0.00000000000E+00 -0.74592465996E+03  0.74592465996E+03  0.25500000920E-02 0.  1.
    10030    2    1    2    0    0  0.00000000000E+00  0.00000000000E+00  0.46524538660E+03  0.19570947065E+04  0.19009909049E+04 0.  0.
        1    1    3    3  502    0  0.67589299298E+03  0.65126229083E+03  0.78306653430E+02  0.94186296318E+03  0.50400001928E-02 0.  1.
       -1    1    3    3    0  502 -0.67589299298E+03 -0.65126229083E+03  0.38693873317E+03  0.10152317433E+04  0.50400001928E-02 0. -1.
</event>
<event>
 5   0  0.3083469E-05  0.1901583E+04  0.7818609E-02  0.8654069E-01
       -1   -1    0    0    0  501  0.00000000000E+00  0.00000000000E+00  0.11816593819E+04  0.11816593819E+04  0.50400001928E-02 0. -1.
        1   -1    0    0  501    0  0.00000000000E+00  0.00000000000E+00 -0.76502926858E+03  0.76502926860E+03  0.50400001928E-02 0.  1.
    10030    2    1    2    0    0  0.00000000000E+00  0.00000000000E+00  0.41663011328E+03  0.19466886505E+04  0.19015825122E+04 0.  0.
        3    1    3    3  502    0  0.33967422448E+03  0.29630116583E+03 -0.64869908298E+03  0.78992624346E+03  0.10100000352E+00 0.  1.
       -3    1    3    3    0  502 -0.33967422448E+03 -0.29630116583E+03  0.10653291963E+04  0.11567624070E+04  0.10100000352E+00 0. -1.
</event>
<event>
 5   0  0.3083469E-05  0.1897765E+04  0.7818609E-02  0.8655970E-01
        1   -1    0    0  501    0  0.00000000000E+00  0.00000000000E+00  0.13052983727E+04  0.13052983727E+04  0.50400001928E-02 0.  1.
       -1   -1    0    0    0  501  0.00000000000E+00  0.00000000000E+00 -0.68978700342E+03  0.68978700344E+03  0.50400001928E-02 0. -1.
    10030    2    1    2    0    0  0.00000000000E+00  0.00000000000E+00  0.61551136932E+03  0.19950853762E+04  0.18977648465E+04 0.  0.
        3    1    3    3  502    0  0.83826040181E+03  0.44226826027E+03  0.25962434500E+03  0.98269350563E+03  0.10100000352E+00 0. -1.
       -3    1    3    3    0  502 -0.83826040181E+03 -0.44226826027E+03  0.35588702432E+03  0.10123918706E+04  0.10100000352E+00 0.  1.
</event>
<event>
 5   0  0.6395992E-05  0.1893818E+04  0.7818609E-02  0.8657940E-01
        2   -1    0    0  501    0  0.00000000000E+00  0.00000000000E+00  0.14239537190E+04  0.14239537190E+04  0.25500000920E-02 0.  1.
       -2   -1    0    0    0  501  0.00000000000E+00  0.00000000000E+00 -0.62968099567E+03  0.62968099567E+03  0.25500000920E-02 0. -1.
    10030    2    1    2    0    0  0.00000000000E+00  0.00000000000E+00  0.79427272333E+03  0.20536347147E+04  0.18938179380E+04 0.  0.
        4    1    3    3  502    0 -0.37725874295E+02 -0.50216444622E+03 -0.47243423655E+03  0.69049843838E+03  0.12699999809E+01 0. -1.
       -4    1    3    3    0  502  0.37725874295E+02  0.50216444622E+03  0.12667069599E+04  0.13631362763E+04  0.12699999809E+01 0.  1.
</event>
<event>
 5   0  0.6361762E-05  0.1903334E+04  0.7818609E-02  0.8653198E-01
        2   -1    0    0  501    0  0.00000000000E+00  0.00000000000E+00  0.15423598099E+04  0.15423598099E+04  0.25500000920E-02 0. -1.
       -2   -1    0    0    0  501  0.00000000000E+00  0.00000000000E+00 -0.58719791064E+03  0.58719791065E+03  0.25500000920E-02 0.  1.
    10030    2    1    2    0    0  0.00000000000E+00  0.00000000000E+00  0.95516189927E+03  0.21295577206E+04  0.19033343982E+04 0.  0.
        1    1    3    3  502    0  0.11785294037E+03 -0.57008322471E+03 -0.36475236170E+03  0.68697051177E+03  0.50400001928E-02 0.  1.
       -1    1    3    3    0  502 -0.11785294037E+03  0.57008322471E+03  0.13199142610E+04  0.14425872088E+04  0.50400001928E-02 0. -1.
</event>
<event>
 5   0  0.2279625E-05  0.1895390E+04  0.7818609E-02  0.8657155E-01
        4   -1    0    0  501    0  0.00000000000E+00  0.00000000000E+00  0.99375080089E+03  0.99375161241E+03  0.12699999809E+01 0. -1.
       -4   -1    0    0    0  501  0.00000000000E+00  0.00000000000E+00 -0.90377167418E+03  0.90377256650E+03  0.12699999809E+01 0.  1.
    10030    2    1    2    0    0  0.00000000000E+00  0.00000000000E+00  0.89979126708E+02  0.18975241789E+04  0.18953896080E+04 0.  0.
        3    1    3    3  502    0 -0.15977878929E+03 -0.66208281754E+03  0.70470248836E+03  0.98004516533E+03  0.10100000352E+00 0. -1.
       -3    1    3    3    0  502  0.15977878929E+03  0.66208281754E+03 -0.61472336165E+03  0.91747901357E+03  0.10100000352E+00 0.  1.
</event>
<event>
 5   0  0.3144958E-05  0.1899626E+04  0.7818609E-02  0.8655043E-01
       -1   -1    0    0    0  501  0.00000000000E+00  0.00000000000E+00  0.52197882714E+03  0.52197882717E+03  0.50400001928E-02 0.  1.
        1   -1    0    0  501    0  0.00000000000E+00  0.00000000000E+00 -0.17283162796E+04  0.17283162796E+04  0.50400001928E-02 0. -1.
    10030    2    1    2    0    0  0.00000000000E+00  0.00000000000E+00 -0.12063374524E+04  0.22502951068E+04  0.18996257574E+04 0.  0.
        4    1    3    3  502    0 -0.73970417455E+03 -0.59538522570E+03 -0.62957914818E+03  0.11393056436E+04  0.12699999809E+01 0.  1.
       -4    1    3    3    0  502  0.73970417455E+03  0.59538522570E+03 -0.57675830427E+03  0.11109894632E+04  0.12699999809E+01 0. -1.
</event>
<event>
 5   0  0.3147063E-05  0.1894675E+04  0.7818609E-02  0.8657511E-01
       -1   -1    0    0    0  501  0.00000000000E+00  0.00000000000E+00  0.46076431685E+03  0.46076431687E+03  0.50400001928E-02 0. -1.
        1   -1    0    0  501    0  0.00000000000E+00  0.00000000000E+00 -0.19477392886E+04  0.19477392886E+04  0.50400001928E-02 0.  1.
    10030    2    1    2    0    0  0.00000000000E+00  0.00000000000E+00 -0.14869749717E+04  0.24085036055E+04  0.18946754474E+04 0.  0.
        5    1    3    3  502    0  0.71710736920E+03 -0.19538890807E+02 -0.15299889408E+04  0.16898263213E+04  0.46999998093E+01 0.  1.
       -5    1    3    3    0  502 -0.71710736920E+03  0.19538890807E+02  0.43013969073E+02  0.71867728415E+03  0.46999998093E+01 0. -1.
</event>
<event>
 5   0  0.6423388E-05  0.1904482E+04  0.7818609E-02  0.8652629E-01
       -2   -1    0    0    0  501  0.00000000000E+00  0.00000000000E+00  0.10663524793E+04  0.10663524793E+04  0.25500000920E-02 0. -1.
        2   -1    0    0  501    0  0.00000000000E+00  0.00000000000E+00 -0.85034069096E+03  0.85034069096E+03  0.25500000920E-02 0.  1.
    10030    2    1    2    0    0  0.00000000000E+00  0.00000000000E+00  0.21601178836E+03  0.19166931703E+04  0.19044819811E+04 0.  0.
        2    1    3    3  502    0  0.41189195311E+03  0.23153032179E+03  0.94004838532E+03  0.10521179771E+04  0.25500000920E-02 0. -1.
       -2    1    3    3    0  502 -0.41189195311E+03 -0.23153032179E+03 -0.72403659696E+03  0.86457519320E+03  0.25500000920E-02 0.  1.
</event>
<event>
 5   0  0.3144958E-05  0.1895051E+04  0.7818609E-02  0.8657323E-01
        1   -1    0    0  501    0  0.00000000000E+00  0.00000000000E+00  0.95910532494E+03  0.95910532495E+03  0.50400001928E-02 0.  1.
       -1   -1    0    0    0  501  0.00000000000E+00  0.00000000000E+00 -0.93608597553E+03  0.93608597555E+03  0.50400001928E-02 0. -1.
    10030    2    1    2    0    0  0.00000000000E+00  0.00000000000E+00  0.23019349404E+02  0.18951913005E+04  0.18950514967E+04 0.  0.
        4    1    3    3  502    0  0.36268916215E+03  0.84225135936E+03 -0.22698779244E+03  0.94469881523E+03  0.12699999809E+01 0. -1.
       -4    1    3    3    0  502 -0.36268916215E+03 -0.84225135936E+03  0.25000714184E+03  0.95049248527E+03  0.12699999809E+01 0.  1.
</event>
<event>
 5   0  0.6098377E-05  0.1896718E+04  0.7818609E-02  0.8656492E-01
       -2   -1    0    0    0  501  0.00000000000E+00  0.00000000000E+00  0.81933439572E+03  0.81933439572E+03  0.25500000920E-02 0.  1.
        2   -1    0    0  501    0  0.00000000000E+00  0.00000000000E+00 -0.10977018021E+04  0.10977018021E+04  0.25500000920E-02 0. -1.
    10030    2    1    2    0    0  0.00000000000E+00  0.00000000000E+00 -0.27836740639E+03  0.19170361978E+04  0.18967180525E+04 0.  0.
        5    1    3    3  502    0  0.27694444712E+03  0.27676535156E+03  0.73381983639E+03  0.83175172311E+03  0.46999998093E+01 0.  1.
       -5    1    3    3    0  502 -0.27694444712E+03 -0.27676535156E+03 -0.10121872428E+04  0.10852844747E+04  0.46999998093E+01 0. -1.
</event>
<event>
 5   0  0.3147063E-05  0.1897609E+04  0.7818609E-02  0.8656047E-01
        1   -1    0    0  501    0  0.00000000000E+00  0.00000000000E+00  0.15342716756E+04  0.15342716756E+04  0.50400001928E-02 0.  1.
       -1   -1    0    0    0  501  0.00000000000E+00  0.00000000000E+00 -0.58674743901E+03  0.58674743903E+03  0.50400001928E-02 0. -1.
    10030    2    1    2    0    0  0.00000000000E+00  0.00000000000E+00  0.94752423662E+03  0.21210191147E+04  0.18976089971E+04 0.  0.
        5    1    3    3  502    0  0.20141822531E+03 -0.53948574627E+03 -0.36906573378E+03  0.68399252757E+03  0.46999998093E+01 0. -1.
       -5    1    3    3    0  502 -0.20141822531E+03  0.53948574627E+03  0.13165899704E+04  0.14370265871E+04  0.46999998093E+01 0.  1.
</event>
<event>
 5   0  0.3203527E-05  0.1910813E+04  0.7818609E-02  0.8649493E-01
        1   -1    0    0  501    0  0.00000000000E+00  0.00000000000E+00  0.83408049419E+03  0.83408049421E+03  0.50400001928E-02 0.  1.
       -1   -1    0    0    0  501  0.00000000000E+00  0.00000000000E+00 -0.10943805765E+04  0.10943805765E+04  0.50400001928E-02 0. -1.
    10030    2    1    2    0    0  0.00000000000E+00  0.00000000000E+00 -0.26030008227E+03  0.19284610707E+04  0.19108129077E+04 0.  0.
        1    1    3    3  502    0 -0.59028567047E+03 -0.36220435939E+03 -0.79438703467E+03  0.10538880071E+04  0.50400001928E-02 0. -1.
       -1    1    3    3    0  502  0.59028567047E+03  0.36220435939E+03  0.53408695240E+03  0.87457306354E+03  0.50400001928E-02 0.  1.
</event>
<event>
 5   0  0.6423388E-05  0.1891311E+04  0.7818609E-02  0.8659194E-01
        2   -1    0    0  501    0  0.00000000000E+00  0.00000000000E+00  0.17999661778E+04  0.17999661778E+04  0.25500000920E-02 0. -1.
       -2   -1    0    0    0  501  0.00000000000E+00  0.00000000000E+00 -0.49682289065E+03  0.49682289065E+03  0.25500000920E-02 0.  1.
    10030    2    1    2    0    0  0.00000000000E+00  0.00000000000E+00  0.13031432871E+04  0.22967890684E+04  0.18913110791E+04 0.  0.
        2    1    3    3  502    0 -0.66495169868E+03 -0.67053423561E+03  0.59100442012E+03  0.11140301375E+04  0.25500000920E-02 0. -1.
       -2    1    3    3    0  502  0.66495169868E+03  0.67053423561E+03  0.71213886699E+03  0.11827589309E+04  0.25500000920E-02 0.  1.
</event>
<event>
 5   0  0.3147063E-05  0.1933681E+04  0.7818609E-02  0.8638270E-01
        1   -1    0    0  501    0  0.00000000000E+00  0.00000000000E+00  0.16845556701E+04  0.16845556701E+04  0.50400001928E-02 0.  1.
       -1   -1    0    0    0  501  0.00000000000E+00  0.00000000000E+00 -0.55491233883E+03  0.55491233886E+03  0.50400001928E-02 0. -1.
    10030    2    1    2    0    0  0.00000000000E+00  0.00000000000E+00  0.11296433313E+04  0.22394680090E+04  0.19336811804E+04 0.  0.
        5    1    3    3  502    0 -0.62010038841E+03  0.45752359409E+02  0.14222662931E+04  0.15522503885E+04  0.46999998093E+01 0.  1.
       -5    1    3    3    0  502  0.62010038841E+03 -0.45752359409E+02 -0.29262296183E+03  0.68721762047E+03  0.46999998093E+01 0. -1.
</event>
<event>
 5   0  0.6361762E-05  0.1921701E+04  0.7818609E-02  0.8644129E-01
        2   -1    0    0  501    0  0.00000000000E+00  0.00000000000E+00  0.16073898222E+04  0.16073898222E+04  0.25500000920E-02 0.  1.
       -2   -1    0    0    0  501  0.00000000000E+00  0.00000000000E+00 -0.57436809951E+03  0.57436809951E+03  0.25500000920E-02 0. -1.
    10030    2    1    2    0    0  0.00000000000E+00  0.00000000000E+00  0.10330217227E+04  0.21817579217E+04  0.19217007440E+04 0.  0.
        1    1    3    3  502    0  0.35292308462E+03 -0.22081604646E+03  0.14996794253E+04  0.15563909563E+04  0.50400001928E-02 0.  1.
       -1    1    3    3    0  502 -0.35292308462E+03  0.22081604646E+03 -0.46665770262E+03  0.62536696544E+03  0.50400001928E-02 0. -1.
</event>
<event>
 5   0  0.3203527E-05  0.1895409E+04  0.7818609E-02  0.8657145E-01
        1   -1    0    0  501    0  0.00000000000E+00  0.00000000000E+00  0.99516088823E+03  0.99516088825E+03  0.50400001928E-02 0. -1.
       -1   -1    0    0    0  501  0.00000000000E+00  0.00000000000E+00 -0.90251123803E+03  0.90251123805E+03  0.50400001928E-02 0.  1.
    10030    2    1    2    0    0  0.00000000000E+00  0.00000000000E+00  0.92649650202E+02  0.18976721263E+04  0.18954090696E+04 0.  0.
        1    1    3    3  502    0 -0.53762644063E+03 -0.22341757064E+03  0.79500525246E+03  0.98538873141E+03  0.50400001928E-02 0. -1.
       -1    1    3    3    0  502  0.53762644063E+03  0.22341757064E+03 -0.70235560225E+03  0.91228339488E+03  0.50400001928E-02 0.  1.
</event>
<event>
 5   0  0.3086139E-05  0.1902077E+04  0.7818609E-02  0.8653823E-01
        1   -1    0    0  501    0  0.00000000000E+00  0.00000000000E+00  0.34489102324E+03  0.34489102327E+03  0.50400001928E-02 0. -1.
       -1   -1    0    0    0  501  0.00000000000E+00  0.00000000000E+00 -0.26224938742E+04  0.26224938742E+04  0.50400001928E-02 0.  1.
    10030    2    1    2    0    0  0.00000000000E+00  0.00000000000E+00 -0.22776028509E+04  0.29673848974E+04  0.19020773862E+04 0.  0.
        2    1    3    3  502    0  0.27187266961E+03  0.49339267167E+03 -0.23341936827E+04  0.24012103668E+04  0.25500000920E-02 0.  1.
       -2    1    3    3    0  502 -0.27187266961E+03 -0.49339267167E+03  0.56590831800E+02  0.56617453068E+03  0.25500000920E-02 0. -1.
</event>
<event>
 5   0  0.6395992E-05  0.2000523E+04  0.7818609E-02  0.8606376E-01
       -2   -1    0    0    0  501  0.00000000000E+00  0.00000000000E+00  0.43500544832E+03  0.43500544833E+03  0.25500000920E-02 0.  1.
        2   -1    0    0  501    0  0.00000000000E+00  0.00000000000E+00 -0.23000236929E+04  0.23000236929E+04  0.25500000920E-02 0. -1.
    10030    2    1    2    0    0  0.00000000000E+00  0.00000000000E+00 -0.18650182446E+04  0.27350291412E+04  0.20005227694E+04 0.  0.
        4    1    3    3  502    0 -0.62927983114E+03  0.61834548336E+03 -0.15769276093E+04  0.18069439783E+04  0.12699999809E+01 0. -1.
       -4    1    3    3    0  502  0.62927983114E+03 -0.61834548336E+03 -0.28809063523E+03  0.92808516294E+03  0.12699999809E+01 0.  1.
</event>
<event>
 5   0  0.6423388E-05  0.1902084E+04  0.7818609E-02  0.8653820E-01
       -2   -1    0    0    0  501  0.00000000000E+00  0.00000000000E+00  0.54713302184E+03  0.54713302185E+03  0.25500000920E-02 0.  1.
        2   -1    0    0  501    0  0.00000000000E+00  0.00000000000E+00 -0.16531283321E+04  0.16531283321E+04  0.25500000920E-02 0. -1.
    10030    2    1    2    0    0  0.00000000000E+00  0.00000000000E+00 -0.11059953103E+04  0.22002613540E+04  0.19020842251E+04 0.  0.
        2    1    3    3  502    0 -0.90008646415E+03  0.11567127309E+03 -0.22388757337E+03  0.93469841761E+03  0.25500000920E-02 0.  1.
       -2    1    3    3    0  502  0.90008646415E+03 -0.11567127309E+03 -0.88210773692E+03  0.12655629364E+04  0.25500000920E-02 0. -1.
</event>
<event>
 5   0  0.6395992E-05  0.1887033E+04  0.7818609E-02  0.8661338E-01
        2   -1    0    0  501    0  0.00000000000E+00  0.00000000000E+00  0.11732523490E+04  0.11732523490E+04  0.25500000920E-02 0.  1.
       -2   -1    0    0    0  501  0.00000000000E+00  0.00000000000E+00 -0.75876565721E+03  0.75876565721E+03  0.25500000920E-02 0. -1.
    10030    2    1    2    0    0  0.00000000000E+00  0.00000000000E+00  0.41448669180E+03  0.19320180062E+04  0.18870332161E+04 0.  0.
        4    1    3    3  502    0 -0.37313115681E+03 -0.64160080532E+03  0.80366225926E+03  0.10939621079E+04  0.12699999809E+01 0.  1.
       -4    1    3    3    0  502  0.37313115681E+03  0.64160080532E+03 -0.38917556746E+03  0.83805589836E+03  0.12699999809E+01 0. -1.
</event>
<event>
 5   0  0.3086139E-05  0.1898311E+04  0.7818609E-02  0.8655698E-01
       -1   -1    0    0    0  501  0.00000000000E+00  0.00000000000E+00  0.57414229374E+03  0.57414229376E+03  0.50400001928E-02 0.  1.
        1   -1    0    0  501    0  0.00000000000E+00  0.00000000000E+00 -0.15691158450E+04  0.15691158450E+04  0.50400001928E-02 0. -1.
    10030    2    1    2    0    0  0.00000000000E+00  0.00000000000E+00 -0.99497355129E+03  0.21432581388E+04  0.18983105862E+04 0.  0.
        2    1    3    3  502    0 -0.58089817338E+03  0.14367042758E+03  0.33433807041E+03  0.68546759583E+03  0.25500000920E-02 0.  1.
       -2    1    3    3    0  502  0.58089817338E+03 -0.14367042758E+03 -0.13293116217E+04  0.14577905430E+04  0.25500000920E-02 0. -1.
</event>
<event>
 5   0  0.6361762E-05  0.1890163E+04  0.7818609E-02  0.8659769E-01
        2   -1    0    0  501    0  0.00000000000E+00  0.00000000000E+00  0.30322011510E+04  0.30322011510E+04  0.25500000920E-02 0. -1.
       -2   -1    0    0    0  501  0.00000000000E+00  0.00000000000E+00 -0.29456443327E+03  0.29456443328E+03  0.25500000920E-02 0.  1.
    10030    2    1    2    0    0  0.00000000000E+00  0.00000000000E+00  0.27376367177E+04  0.33267655843E+04  0.18901625471E+04 0.  0.
        1    1    3    3  502    0 -0.28211717718E+03  0.87884269583E+03  0.10114646792E+04  0.13693120108E+04  0.50400001928E-02 0.  1.
       -1    1    3    3    0  502  0.28211717718E+03 -0.87884269583E+03  0.17261720385E+04  0.19574535734E+04  0.50400001928E-02 0. -1.
</event>
<event>
 5   0  0.3144958E-05  0.1901180E+04  0.7818609E-02  0.8654269E-01
        1   -1    0    0  501    0  0.00000000000E+00  0.00000000000E+00  0.13701207310E+04  0.13701207310E+04  0.50400001928E-02 0.  1.
       -1   -1    0    0    0  501  0.00000000000E+00  0.00000000000E+00 -0.65951931140E+03  0.65951931142E+03  0.50400001928E-02 0. -1.
    10030    2    1    2    0    0  0.00000000000E+00  0.00000000000E+00  0.71060141957E+03  0.20296400424E+04  0.19011797191E+04 0.  0.
        4    1    3    3  502    0 -0.57627163182E+03 -0.66962846882E+03  0.72990659344E+03  0.11459740520E+04  0.12699999809E+01 0.  1.
       -4    1    3    3    0  502  0.57627163182E+03  0.66962846882E+03 -0.19305173870E+02  0.88366599036E+03  0.12699999809E+01 0. -1.
</event>
<event>
 5   0  0.3086139E-05  0.1894587E+04  0.7818609E-02  0.8657556E-01
       -1   -1    0    0    0  501  0.00000000000E+00  0.00000000000E+00  0.46229067143E+03  0.46229067146E+03  0.50400001928E-02 0. -1.
        1   -1    0    0  501    0  0.00000000000E+00  0.00000000000E+00 -0.19411263820E+04  0.19411263820E+04  0.50400001928E-02 0.  1.
    10030    2    1    2    0    0  0.00000000000E+00  0.00000000000E+00 -0.14788357105E+04  0.24034170534E+04  0.18945866235E+04 0.  0.
        2    1    3    3  502    0 -0.26877347403E+03  0.47652329563E+03  0.24161550827E+03  0.59807331111E+03  0.25500000920E-02 0. -1.
       -2    1    3    3    0  502  0.26877347403E+03 -0.47652329563E+03 -0.17204512188E+04  0.18053437423E+04  0.25500000920E-02 0.  1.
</event>
<event>
 5   0  0.3203527E-05  0.1892743E+04  0.7818609E-02  0.8658477E-01
       -1   -1    0    0    0  501  0.00000000000E+00  0.00000000000E+00  0.14157518407E+04  0.14157518407E+04  0.50400001928E-02 0.  1.
        1   -1    0    0  501    0  0.00000000000E+00  0.00000000000E+00 -0.63261048694E+03  0.63261048696E+03  0.50400001928E-02 0. -1.
    10030    2    1    2    0    0  0.00000000000E+00  0.00000000000E+00  0.78314135371E+03  0.20483623276E+04  0.18927434706E+04 0.  0.
        1    1    3    3  502    0 -0.16759755310E+03 -0.87658226578E+03  0.50828060310E+02  0.89390653886E+03  0.50400001928E-02 0. -1.
       -1    1    3    3    0  502  0.16759755310E+03  0.87658226578E+03  0.73231329340E+03  0.11544557888E+04  0.50400001928E-02 0.  1.
</event>
<event>
 5   0  0.6361762E-05  0.1904452E+04  0.7818609E-02  0.8652644E-01
        2   -1    0    0  501    0  0.00000000000E+00  0.00000000000E+00  0.18882695791E+04  0.18882695791E+04  0.25500000920E-02 0. -1.
       -2   -1    0    0    0  501  0.00000000000E+00  0.00000000000E+00 -0.48019306910E+03  0.48019306910E+03  0.25500000920E-02 0.  1.
    10030    2    1    2    0    0  0.00000000000E+00  0.00000000000E+00  0.14080765100E+04  0.23684626482E+04  0.19044515898E+04 0.  0.
        1    1    3    3  502    0  0.32181883979E+03 -0.20493908675E+03 -0.38097852677E+03  0.53917718127E+03  0.50400001928E-02 0.  1.
       -1    1    3    3    0  502 -0.32181883979E+03  0.20493908675E+03  0.17890550368E+04  0.18292854670E+04  0.50400001928E-02 0. -1.
</event>
<event>
 5   0  0.3083469E-05  0.1901252E+04  0.7818609E-02  0.8654233E-01
       -1   -1    0    0    0  501  0.00000000000E+00  0.00000000000E+00  0.70709228790E+03  0.70709228791E+03  0.50400001928E-02 0.  1.
        1   -1    0    0  501    0  0.00000000000E+00  0.00000000000E+00 -0.12780365962E+04  0.12780365962E+04  0.50400001928E-02 0. -1.
    10030    2    1    2    0    0  0.00000000000E+00  0.00000000000E+00 -0.57094430834E+03  0.19851288842E+04  0.19012520305E+04 0.  0.
        3    1    3    3  502    0  0.41291136859E+03  0.30035925890E+03 -0.11227067873E+04  0.12333620811E+04  0.10100000352E+00 0. -1.
       -3    1    3    3    0  502 -0.41291136859E+03 -0.30035925890E+03  0.55176247897E+03  0.75176680302E+03  0.10100000352E+00 0.  1.
</event>
<event>
 5   0  0.3147063E-05  0.1890384E+04  0.7818609E-02  0.8659658E-01
        1   -1    0    0  501    0  0.00000000000E+00  0.00000000000E+00  0.72676770153E+03  0.72676770155E+03  0.50400001928E-02 0. -1.
       -1   -1    0    0    0  501  0.00000000000E+00  0.00000000000E+00 -0.12292616013E+04  0.12292616013E+04  0.50400001928E-02 0.  1.
    10030    2    1    2    0    0  0.00000000000E+00  0.00000000000E+00 -0.50249389979E+03  0.19560293029E+04  0.18903836950E+04 0.  0.
        5    1    3    3  502    0 -0.77848811456E+03 -0.37342373719E+03 -0.64914790809E+03  0.10802333677E+04  0.46999998093E+01 0. -1.
       -5    1    3    3    0  502  0.77848811456E+03  0.37342373719E+03  0.14665400830E+03  0.87579593523E+03  0.46999998093E+01 0.  1.
</event>
<event>
 5   0  0.3083469E-05  0.1901459E+04  0.7818609E-02  0.8654130E-01
       -1   -1    0    0    0  501  0.00000000000E+00  0.00000000000E+00  0.15389575593E+04  0.15389575593E+04  0.50400001928E-02 0. -1.
        1   -1    0    0  501    0  0.00000000000E+00  0.00000000000E+00 -0.58733691774E+03  0.58733691776E+03  0.50400001928E-02 0.  1.
    10030    2    1    2    0    0  0.00000000000E+00  0.00000000000E+00  0.95162064152E+03  0.21262944770E+04  0.19014590076E+04 0.  0.
        3    1    3    3  502    0 -0.48434720756E+03  0.26988993377E+03  0.13394346006E+04  0.14496612892E+04  0.10100000352E+00 0. -1.
       -3    1    3    3    0  502  0.48434720756E+03 -0.26988993377E+03 -0.38781395910E+03  0.67663318784E+03  0.10100000352E+00 0.  1.
</event>
<event>
 5   0  0.6423388E-05  0.1907683E+04  0.7818609E-02  0.8651042E-01
       -2   -1    0    0    0  501  0.00000000000E+00  0.00000000000E+00  0.46582296884E+03  0.46582296884E+03  0.25500000920E-02 0.  1.
        2   -1    0    0  501    0  0.00000000000E+00  0.00000000000E+00 -0.19531308984E+04  0.19531308984E+04  0.25500000920E-02 0. -1.
    10030    2    1    2    0    0  0.00000000000E+00  0.00000000000E+00 -0.14873079296E+04  0.24189538673E+04  0.19076826084E+04 0.  0.
        2    1    3    3  502    0  0.49325792386E+03  0.44303079610E+03 -0.16131713696E+04  0.17441047943E+04  0.25500000920E-02 0. -1.
       -2    1    3    3    0  502 -0.49325792386E+03 -0.44303079610E+03  0.12586344003E+03  0.67484907297E+03  0.25500000920E-02 0.  1.
</event>
<event>
 5   0  0.6423388E-05  0.1897462E+04  0.7818609E-02  0.8656121E-01
        2   -1    0    0  501    0  0.00000000000E+00  0.00000000000E+00  0.13854784659E+04  0.13854784659E+04  0.25500000920E-02 0.  1.
       -2   -1    0    0    0  501  0.00000000000E+00  0.00000000000E+00 -0.64966052967E+03  0.64966052967E+03  0.25500000920E-02 0. -1.
    10030    2    1    2    0    0  0.00000000000E+00  0.00000000000E+00  0.73581793623E+03  0.20351389956E+04  0.18974621725E+04 0.  0.
        2    1    3    3  502    0  0.24901801630E+03  0.10702126840E+03 -0.60725081449E+03  0.66499404211E+03  0.25500000920E-02 0. -1.
       -2    1    3    3    0  502 -0.24901801630E+03 -0.10702126840E+03  0.13430687507E+04  0.13701449535E+04  0.25500000920E-02 0.  1.
</event>
<event>
 5   0  0.6395992E-05  0.1899455E+04  0.7818609E-02  0.8655128E-01
       -2   -1    0    0    0  501  0.00000000000E+00  0.00000000000E+00  0.13168309412E+04  0.13168309412E+04  0.25500000920E-02 0. -1.
        2   -1    0    0  501    0  0.00000000000E+00  0.00000000000E+00 -0.68496407460E+03  0.68496407460E+03  0.25500000920E-02 0.  1.
    10030    2    1    2    0    0  0.00000000000E+00  0.00000000000E+00  0.63186686664E+03  0.20017950158E+04  0.18994545397E+04 0.  0.
        4    1    3    3  502    0 -0.90117714755E+03 -0.29095082139E+03  0.39198554523E+03  0.10249033673E+04  0.12699999809E+01 0.  1.
       -4    1    3    3    0  502  0.90117714755E+03  0.29095082139E+03  0.23988132141E+03  0.97689164854E+03  0.12699999809E+01 0. -1.
</event>
<event>
 5   0  0.2279625E-05  0.1907637E+04  0.7818609E-02  0.8651064E-01
       -3   -1    0    0    0  501  0.00000000000E+00  0.00000000000E+00  0.58124151644E+03  0.58124152522E+03  0.10100000352E+00 0. -1.
        3   -1    0    0  501    0  0.00000000000E+00  0.00000000000E+00 -0.15652174278E+04  0.15652174311E+04  0.10100000352E+00 0.  1.
    10030    2    1    2    0    0  0.00000000000E+00  0.00000000000E+00 -0.98397591136E+03  0.21464589563E+04  0.19076366155E+04 0.  0.
        3    1    3    3  502    0 -0.67346276792E+01  0.54169433863E+03  0.39133585406E+03  0.66829774247E+03  0.10100000352E+00 0.  1.
       -3    1    3    3    0  502  0.67346276792E+01 -0.54169433863E+03 -0.13753117654E+04  0.14781612138E+04  0.10100000352E+00 0. -1.
</event>
<event>
 5   0  0.3083469E-05  0.1896063E+04  0.7818609E-02  0.8656818E-01
       -1   -1    0    0    0  501  0.00000000000E+00  0.00000000000E+00  0.69250367730E+03  0.69250367732E+03  0.50400001928E-02 0. -1.
        1   -1    0    0  501    0  0.00000000000E+00  0.00000000000E+00 -0.12978474536E+04  0.12978474536E+04  0.50400001928E-02 0.  1.
    10030    2    1    2    0    0  0.00000000000E+00  0.00000000000E+00 -0.60534377632E+03  0.19903511310E+04  0.18960634317E+04 0.  0.
        3    1    3    3  502    0  0.10947109185E+03 -0.90754283301E+03 -0.56645712360E+03  0.10754029927E+04  0.10100000352E+00 0. -1.
       -3    1    3    3    0  502 -0.10947109185E+03  0.90754283301E+03 -0.38886652727E+02  0.91494813823E+03  0.10100000352E+00 0.  1.
</event>
<event>
 5   0  0.3144958E-05  0.1930772E+04  0.7818609E-02  0.8639689E-01
       -1   -1    0    0    0  501  0.00000000000E+00  0.00000000000E+00  0.82476928347E+03  0.82476928348E+03  0.50400001928E-02 0.  1.
        1   -1    0    0  501    0  0.00000000000E+00  0.00000000000E+00 -0.11299766329E+04  0.11299766330E+04  0.50400001928E-02 0. -1.
    10030    2    1    2    0    0  0.00000000000E+00  0.00000000000E+00 -0.30520734948E+03  0.19547459164E+04  0.19307718849E+04 0.  0.
        4    1    3    3  502    0 -0.80612716900E+02  0.10780570892E+03 -0.11204275091E+04  0.11284856654E+04  0.12699999809E+01 0. -1.
       -4    1    3    3    0  502  0.80612716900E+02 -0.10780570892E+03  0.81522015958E+03  0.82626025106E+03  0.12699999809E+01 0.  1.
</event>
<event>
 5   0  0.6098377E-05  0.1881812E+04  0.7818609E-02  0.8663963E-01
       -2   -1    0    0    0  501  0.00000000000E+00  0.00000000000E+00  0.62882621545E+03  0.62882621545E+03  0.25500000920E-02 0.  1.
        2   -1    0    0  501    0  0.00000000000E+00  0.00000000000E+00 -0.14078675485E+04  0.14078675485E+04  0.25500000920E-02 0. -1.
    10030    2    1    2    0    0  0.00000000000E+00  0.00000000000E+00 -0.77904133305E+03  0.20366937640E+04  0.18818119166E+04 0.  0.
        5    1    3    3  502    0 -0.71043340305E+03 -0.60881421533E+03 -0.28176984217E+03  0.97713187591E+03  0.46999998093E+01 0.  1.
       -5    1    3    3    0  502  0.71043340305E+03  0.60881421533E+03 -0.49727149089E+03  0.10595618880E+04  0.46999998093E+01 0. -1.
</event>
<event>
 5   0  0.3147063E-05  0.1905237E+04  0.7818609E-02  0.8652254E-01
       -1   -1    0    0    0  501  0.00000000000E+00  0.00000000000E+00  0.73856151587E+03  0.73856151588E+03  0.50400001928E-02 0. -1.
        1   -1    0    0  501    0  0.00000000000E+00  0.00000000000E+00 -0.12287151355E+04  0.12287151355E+04  0.50400001928E-02 0.  1.
    10030    2    1    2    0    0  0.00000000000E+00  0.00000000000E+00 -0.49015361964E+03  0.19672766514E+04  0.19052366919E+04 0.  0.
        5    1    3    3  502    0  0.38917975740E+03 -0.82682440648E+03  0.32680950171E+02  0.91443404203E+03  0.46999998093E+01 0. -1.
       -5    1    3    3    0  502 -0.38917975740E+03  0.82682440648E+03 -0.52283456982E+03  0.10528426094E+04  0.46999998093E+01 0.  1.
</event>
<event>
 5   0  0.3086139E-05  0.1901218E+04  0.7818609E-02  0.8654250E-01
        1   -1    0    0  501    0  0.00000000000E+00  0.00000000000E+00  0.87562359468E+03  0.87562359469E+03  0.50400001928E-02 0. -1.
       -1   -1    0    0    0  501  0.00000000000E+00  0.00000000000E+00 -0.10320164042E+04  0.10320164042E+04  0.50400001928E-02 0.  1.
    10030    2    1    2    0    0  0.00000000000E+00  0.00000000000E+00 -0.15639280953E+03  0.19076399989E+04  0.19012184658E+04 0.  0.
        2    1    3    3  502    0  0.93057629787E+03 -0.16969356762E+03 -0.17280038938E+03  0.96157585641E+03  0.25500000920E-02 0.  1.
       -2    1    3    3    0  502 -0.93057629787E+03  0.16969356762E+03  0.16407579850E+02  0.94606414250E+03  0.25500000920E-02 0. -1.
</event>
<event>
 5   0  0.6098377E-05  0.1903297E+04  0.7818609E-02  0.8653217E-01
        2   -1    0    0  501    0  0.00000000000E+00  0.00000000000E+00  0.19359062506E+04  0.19359062506E+04  0.25500000920E-02 0.  1.
       -2   -1    0    0    0  501  0.00000000000E+00  0.00000000000E+00 -0.46780916320E+03  0.46780916321E+03  0.25500000920E-02 0. -1.
    10030    2    1    2    0    0  0.00000000000E+00  0.00000000000E+00  0.14680970874E+04  0.24037154138E+04  0.19032968062E+04 0.  0.
        5    1    3    3  502    0  0.14553670371E+03 -0.77029226581E+03  0.14154198197E+04  0.16180131220E+04  0.46999998093E+01 0.  1.
       -5    1    3    3    0  502 -0.14553670371E+03  0.77029226581E+03  0.52677267724E+02  0.78570229186E+03  0.46999998093E+01 0. -1.
</event>
<event>
 5   0  0.3083469E-05  0.1898552E+04  0.7818609E-02  0.8655578E-01
       -1   -1    0    0    0  501  0.00000000000E+00  0.00000000000E+00  0.32703061666E+03  0.32703061670E+03  0.50400001928E-02 0.  1.
        1   -1    0    0  501    0  0.00000000000E+00  0.00000000000E+00 -0.27554751826E+04  0.27554751826E+04  0.50400001928E-02 0. -1.
    10030    2    1    2    0    0  0.00000000000E+00  0.00000000000E+00 -0.24284445659E+04  0.30825057993E+04  0.18985518146E+04 0.  0.
        3    1    3    3  502    0 -0.64164655338E+03 -0.68353852557E+03 -0.14560774819E+04  0.17317900736E+04  0.10100000352E+00 0. -1.
       -3    1    3    3    0  502  0.64164655338E+03  0.68353852557E+03 -0.97236708396E+03  0.13507157257E+04  0.10100000352E+00 0.  1.
</event>
<event>
 5   0  0.3083469E-05  0.1909265E+04  0.7818609E-02  0.8650258E-01
        1   -1    0    0  501    0  0.00000000000E+00  0.00000000000E+00  0.15615960988E+04  0.15615960988E+04  0.50400001928E-02 0.  1.
       -1   -1    0    0    0  501  0.00000000000E+00  0.00000000000E+00 -0.58358458499E+03  0.58358458501E+03  0.50400001928E-02 0. -1.
    10030    2    1    2    0    0  0.00000000000E+00  0.00000000000E+00  0.97801151378E+03  0.21451806838E+04  0.19092652108E+04 0.  0.
        3    1    3    3  502    0 -0.23290526655E+02 -0.60614994954E+03  0.13172200590E+04  0.14501823692E+04  0.10100000352E+00 0.  1.
       -3    1    3    3    0  502  0.23290526655E+02  0.60614994954E+03 -0.33920854519E+03  0.69499831459E+03  0.10100000352E+00 0. -1.
</event>
<event>
 5   0  0.3083469E-05  0.1892475E+04  0.7818609E-02  0.8658611E-01
        1   -1    0    0  501    0  0.00000000000E+00  0.00000000000E+00  0.18186397547E+04  0.18186397547E+04  0.50400001928E-02 0. -1.
       -1   -1    0    0    0  501  0.00000000000E+00  0.00000000000E+00 -0.49232679922E+03  0.49232679925E+03  0.50400001928E-02 0.  1.
    10030    2    1    2    0    0  0.00000000000E+00  0.00000000000E+00  0.13263129555E+04  0.23109665540E+04  0.18924746650E+04 0.  0.
        3    1    3    3  502    0 -0.34440117216E+03 -0.82497105504E+03  0.28445570046E+03  0.93813883022E+03  0.10100000352E+00 0.  1.
       -3    1    3    3    0  502  0.34440117216E+03  0.82497105504E+03  0.10418572550E+04  0.13728277237E+04  0.10100000352E+00 0. -1.
</event>
<event>
 5   0  0.2279625E-05  0.1901479E+04  0.7818609E-02  0.8654121E-01
       -4   -1    0    0    0  501  0.00000000000E+00  0.00000000000E+00  0.70165976374E+03  0.70166091309E+03  0.12699999809E+01 0. -1.
        4   -1    0    0  501    0  0.00000000000E+00  0.00000000000E+00 -0.12882365246E+04  0.12882371506E+04  0.12699999809E+01 0.  1.
    10030    2    1    2    0    0  0.00000000000E+00  0.00000000000E+00 -0.58657676083E+03  0.19898980637E+04  0.19014789001E+04 0.  0.
        5    1    3    3  502    0  0.54929939682E+03 -0.27238359058E+03 -0.10536849399E+04  0.12190966698E+04  0.46999998093E+01 0.  1.
       -5    1    3    3    0  502 -0.54929939682E+03  0.27238359058E+03  0.46710817909E+03  0.77080139384E+03  0.46999998093E+01 0. -1.
</event>
<event>
 5   0  0.3144958E-05  0.1895024E+04  0.7818609E-02  0.8657337E-01
       -1   -1    0    0    0  501  0.00000000000E+00  0.00000000000E+00  0.15736964265E+04  0.15736964265E+04  0.50400001928E-02 0.  1.
        1   -1    0    0  501    0  0.00000000000E+00  0.00000000000E+00 -0.57049066189E+03  0.57049066192E+03  0.50400001928E-02 0. -1.
    10030    2    1    2    0    0  0.00000000000E+00  0.00000000000E+00  0.10032057646E+04  0.21441870884E+04  0.18950241328E+04 0.  0.
        4    1    3    3  502    0 -0.61448680255E+03  0.72090647738E+03  0.52632321570E+03  0.10836595037E+04  0.12699999809E+01 0.  1.
       -4    1    3    3    0  502  0.61448680255E+03 -0.72090647738E+03  0.47688254889E+03  0.10605275847E+04  0.12699999809E+01 0. -1.
</event>
<event>
 5   0  0.3144958E-05  0.1877871E+04  0.7818609E-02  0.8665951E-01
       -1   -1    0    0    0  501  0.00000000000E+00  0.00000000000E+00  0.11650597403E+04  0.11650597403E+04  0.50400001928E-02 0. -1.
        1   -1    0    0  501    0  0.00000000000E+00  0.00000000000E+00 -0.75669900690E+03  0.75669900692E+03  0.50400001928E-02 0.  1.
    10030    2    1    2    0    0  0.00000000000E+00  0.00000000000E+00  0.40836073338E+03  0.19217587472E+04  0.18778706542E+04 0.  0.
        4    1    3    3  502    0 -0.91321565227E+03  0.21754861637E+03  0.18622880366E+03  0.95706478790E+03  0.12699999809E+01 0. -1.
       -4    1    3    3    0  502  0.91321565227E+03 -0.21754861637E+03  0.22213192972E+03  0.96469395931E+03  0.12699999809E+01 0.  1.
</event>
<event>
 5   0  0.6452182E-05  0.1896437E+04  0.7818609E-02  0.8656632E-01
        2   -1    0    0  501    0  0.00000000000E+00  0.00000000000E+00  0.17447559867E+04  0.17447559867E+04  0.25500000920E-02 0. -1.
       -2   -1    0    0    0  501  0.00000000000E+00  0.00000000000E+00 -0.51532611417E+03  0.51532611417E+03  0.25500000920E-02 0.  1.
    10030    2    1    2    0    0  0.00000000000E+00  0.00000000000E+00  0.12294298725E+04  0.22600821009E+04  0.18964369990E+04 0.  0.
        3    1    3    3  502    0  0.21187330736E+03  0.68708087602E+03 -0.12200347896E+03  0.72928409255E+03  0.10100000352E+00 0.  1.
       -3    1    3    3    0  502 -0.21187330736E+03 -0.68708087602E+03  0.13514333515E+04  0.15307980083E+04  0.10100000352E+00 0. -1.
</event>
<event>
 5   0  0.6395992E-05  0.1899937E+04  0.7818609E-02  0.8654888E-01
        2   -1    0    0  501    0  0.00000000000E+00  0.00000000000E+00  0.11038360003E+04  0.11038360003E+04  0.25500000920E-02 0. -1.
       -2   -1    0    0    0  501  0.00000000000E+00  0.00000000000E+00 -0.81754910231E+03  0.81754910231E+03  0.25500000920E-02 0.  1.
    10030    2    1    2    0    0  0.00000000000E+00  0.00000000000E+00  0.28628689799E+03  0.19213851026E+04  0.18999369791E+04 0.  0.
        4    1    3    3  502    0 -0.53259246160E+03  0.52790378685E+03  0.73290902612E+03  0.10485677812E+04  0.12699999809E+01 0. -1.
       -4    1    3    3    0  502  0.53259246160E+03 -0.52790378685E+03 -0.44662212812E+03  0.87281732141E+03  0.12699999809E+01 0.  1.
</event>
<event>
 5   0  0.6395992E-05  0.1898292E+04  0.7818609E-02  0.8655707E-01
       -2   -1    0    0    0  501  0.00000000000E+00  0.00000000000E+00  0.10192901174E+04  0.10192901174E+04  0.25500000920E-02 0.  1.
        2   -1    0    0  501    0  0.00000000000E+00  0.00000000000E+00 -0.88382888606E+03  0.88382888607E+03  0.25500000920E-02 0. -1.
    10030    2    1    2    0    0  0.00000000000E+00  0.00000000000E+00  0.13546123131E+03  0.19031190034E+04  0.18982919154E+04 0.  0.
        4    1    3    3  502    0 -0.72513930331E+03  0.23644446241E+03 -0.49863373710E+03  0.91124651422E+03  0.12699999809E+01 0. -1.
       -4    1    3    3    0  502  0.72513930331E+03 -0.23644446241E+03  0.63409496842E+03  0.99187248922E+03  0.12699999809E+01 0.  1.
</event>
<event>
 5   0  0.3147063E-05  0.1894826E+04  0.7818609E-02  0.8657436E-01
        1   -1    0    0  501    0  0.00000000000E+00  0.00000000000E+00  0.19085468677E+04  0.19085468677E+04  0.50400001928E-02 0.  1.
       -1   -1    0    0    0  501  0.00000000000E+00  0.00000000000E+00 -0.47030082255E+03  0.47030082257E+03  0.50400001928E-02 0. -1.
    10030    2    1    2    0    0  0.00000000000E+00  0.00000000000E+00  0.14382460452E+04  0.23788476903E+04  0.18948257564E+04 0.  0.
        5    1    3    3  502    0 -0.33927643833E+03 -0.53489386381E+03  0.16036090716E+04  0.17241821515E+04  0.46999998093E+01 0.  1.
       -5    1    3    3    0  502  0.33927643833E+03  0.53489386381E+03 -0.16536302642E+03  0.65466553877E+03  0.46999998093E+01 0. -1.
</event>
<event>
 5   0  0.3083469E-05  0.1896448E+04  0.7818609E-02  0.8656627E-01
       -1   -1    0    0    0  501  0.00000000000E+00  0.00000000000E+00  0.78939740358E+03  0.78939740359E+03  0.50400001928E-02 0.  1.
        1   -1    0    0  501    0  0.00000000000E+00  0.00000000000E+00 -0.11390060671E+04  0.11390060671E+04  0.50400001928E-02 0. -1.
    10030    2    1    2    0    0  0.00000000000E+00  0.00000000000E+00 -0.34960866354E+03  0.19284034707E+04  0.18964476603E+04 0.  0.
        3    1    3    3  502    0 -0.80250732037E+02 -0.19228283981E+02  0.78573907527E+03  0.79006063786E+03  0.10100000352E+00 0.  1.
       -3    1    3    3    0  502  0.80250732037E+02  0.19228283981E+02 -0.11353477388E+04  0.11383428329E+04  0.10100000352E+00 0. -1.
</event>
<event>
 5   0  0.6395992E-05  0.1898968E+04  0.7818609E-02  0.8655370E-01
       -2   -1    0    0    0  501  0.00000000000E+00  0.00000000000E+00  0.24003902566E+04  0.24003902566E+04  0.25500000920E-02 0. -1.
        2   -1    0    0  501    0  0.00000000000E+00  0.00000000000E+00 -0.37557232609E+03  0.37557232610E+03  0.25500000920E-02 0.  1.
    10030    2    1    2    0    0  0.00000000000E+00  0.00000000000E+00  0.20248179305E+04  0.27759625827E+04  0.18989683012E+04 0.  0.
        4    1    3    3  502    0  0.31283664874E+03  0.56879212731E+02 -0.29542892669E+03  0.43402981149E+03  0.12699999809E+01 0.  1.
       -4    1    3    3    0  502 -0.31283664874E+03 -0.56879212731E+02  0.23202468572E+04  0.23419327712E+04  0.12699999809E+01 0. -1.
</event>
<event>
 5   0  0.6098377E-05  0.1928248E+04  0.7818609E-02  0.8640922E-01
        2   -1    0    0  501    0  0.00000000000E+00  0.00000000000E+00  0.10936985384E+04  0.10936985384E+04  0.25500000920E-02 0.  1.
       -2   -1    0    0    0  501  0.00000000000E+00  0.00000000000E+00 -0.84990104516E+03  0.84990104517E+03  0.25500000920E-02 0. -1.
    10030    2    1    2    0    0  0.00000000000E+00  0.00000000000E+00  0.24379749325E+03  0.19435995836E+04  0.19282484600E+04 0.  0.
        5    1    3    3  502    0  0.24940075996E+03 -0.24190349431E+03  0.10283890039E+04  0.10855063671E+04  0.46999998093E+01 0.  1.
       -5    1    3    3    0  502 -0.24940075996E+03  0.24190349431E+03 -0.78459151065E+03  0.85809321650E+03  0.46999998093E+01 0. -1.
</event>
<event>
 5   0  0.3147063E-05  0.1903740E+04  0.7818609E-02  0.8652997E-01
       -1   -1    0    0    0  501  0.00000000000E+00  0.00000000000E+00  0.42434122385E+03  0.42434122388E+03  0.50400001928E-02 0.  1.
        1   -1    0    0  501    0  0.00000000000E+00  0.00000000000E+00 -0.21352067661E+04  0.21352067661E+04  0.50400001928E-02 0. -1.
    10030    2    1    2    0    0  0.00000000000E+00  0.00000000000E+00 -0.17108655423E+04  0.25595479900E+04  0.19037397431E+04 0.  0.
        5    1    3    3  502    0 -0.87047584225E+03 -0.27038091331E+03 -0.12241258645E+04  0.15262176294E+04  0.46999998093E+01 0. -1.
       -5    1    3    3    0  502  0.87047584225E+03  0.27038091331E+03 -0.48673967781E+03  0.10333303606E+04  0.46999998093E+01 0.  1.
</event>
<event>
 5   0  0.3083469E-05  0.1897455E+04  0.7818609E-02  0.8656124E-01
        1   -1    0    0  501    0  0.00000000000E+00  0.00000000000E+00  0.10810721971E+04  0.10810721971E+04  0.50400001928E-02 0. -1.
       -1   -1    0    0    0  501  0.00000000000E+00  0.00000000000E+00 -0.83258468298E+03  0.83258468300E+03  0.50400001928E-02 0.  1.
    10030    2    1    2    0    0  0.00000000000E+00  0.00000000000E+00  0.24848751408E+03  0.19136568801E+04  0.18974552985E+04 0.  0.
        3    1    3    3  502    0 -0.89710712620E+02 -0.31605153651E+01  0.10767795606E+04  0.10805148001E+04  0.10100000352E+00 0. -1.
       -3    1    3    3    0  502  0.89710712620E+02  0.31605153651E+01 -0.82829204656E+03  0.83314207997E+03  0.10100000352E+00 0.  1.
</event>
<event>
 5   0  0.6423388E-05  0.1908821E+04  0.7818609E-02  0.8650478E-01
       -2   -1    0    0    0  501  0.00000000000E+00  0.00000000000E+00  0.97089888043E+03  0.97089888044E+03  0.25500000920E-02 0.  1.
        2   -1    0    0  501    0  0.00000000000E+00  0.00000000000E+00 -0.93820184633E+03  0.93820184633E+03  0.25500000920E-02 0. -1.
    10030    2    1    2    0    0  0.00000000000E+00  0.00000000000E+00  0.32697034105E+02  0.19091007268E+04  0.19088207063E+04 0.  0.
        2    1    3    3  502    0 -0.24953077243E+03  0.26595258098E+03 -0.86576881698E+03  0.93944240174E+03  0.25500000920E-02 0. -1.
       -2    1    3    3    0  502  0.24953077243E+03 -0.26595258098E+03  0.89846585109E+03  0.96965832503E+03  0.25500000920E-02 0.  1.
</event>
<event>
 5   0  0.6098377E-05  0.1901369E+04  0.7818609E-02  0.8654175E-01
       -2   -1    0    0    0  501  0.00000000000E+00  0.00000000000E+00  0.17810073281E+04  0.17810073282E+04  0.25500000920E-02 0. -1.
        2   -1    0    0  501    0  0.00000000000E+00  0.00000000000E+00 -0.50746636139E+03  0.50746636140E+03  0.25500000920E-02 0.  1.
    10030    2    1    2    0    0  0.00000000000E+00  0.00000000000E+00  0.12735409668E+04  0.22884736895E+04  0.19013693049E+04 0.  0.
        5    1    3    3  502    0  0.19265107063E+02 -0.87894735319E+03  0.10721643230E+04  0.13865345360E+04  0.46999998093E+01 0. -1.
       -5    1    3    3    0  502 -0.19265107063E+02  0.87894735319E+03  0.20137664376E+03  0.90193915354E+03  0.46999998093E+01 0.  1.
</event>
<event>
 5   0  0.6361762E-05  0.1900116E+04  0.7818609E-02  0.8654799E-01
       -2   -1    0    0    0  501  0.00000000000E+00  0.00000000000E+00  0.41967693787E+03  0.41967693788E+03  0.25500000920E-02 0. -1.
        2   -1    0    0  501    0  0.00000000000E+00  0.00000000000E+00 -0.21507252179E+04  0.21507252179E+04  0.25500000920E-02 0.  1.
    10030    2    1    2    0    0  0.00000000000E+00  0.00000000000E+00 -0.17310482800E+04  0.25704021558E+04  0.19001155477E+04 0.  0.
        1    1    3    3  502    0  0.81223761574E+03  0.37717737840E+02 -0.15302478143E+04  0.17328620676E+04  0.50400001928E-02 0.  1.
       -1    1    3    3    0  502 -0.81223761574E+03 -0.37717737840E+02 -0.20080046570E+03  0.83754008813E+03  0.50400001928E-02 0. -1.
</event>
<event>
 5   0  0.6395992E-05  0.1909820E+04  0.7818609E-02  0.8649984E-01
       -2   -1    0    0    0  501  0.00000000000E+00  0.00000000000E+00  0.55762696491E+03  0.55762696491E+03  0.25500000920E-02 0. -1.
        2   -1    0    0  501    0  0.00000000000E+00  0.00000000000E+00 -0.16352387597E+04  0.16352387597E+04  0.25500000920E-02 0.  1.
    10030    2    1    2    0    0  0.00000000000E+00  0.00000000000E+00 -0.10776117948E+04  0.21928657247E+04  0.19098201240E+04 0.  0.
        4    1    3    3  502    0  0.51663974449E+03 -0.46324936464E+03  0.21441596343E+03  0.72628673243E+03  0.12699999809E+01 0. -1.
       -4    1    3    3    0  502 -0.51663974449E+03  0.46324936464E+03 -0.12920277583E+04  0.14665789922E+04  0.12699999809E+01 0.  1.
</event>
<event>
 5   0  0.6098377E-05  0.1904864E+04  0.7818609E-02  0.8652439E-01
        2   -1    0    0  501    0  0.00000000000E+00  0.00000000000E+00  0.21593058324E+04  0.21593058324E+04  0.25500000920E-02 0.  1.
       -2   -1    0    0    0  501  0.00000000000E+00  0.00000000000E+00 -0.42010096799E+03  0.42010096800E+03  0.25500000920E-02 0. -1.
    10030    2    1    2    0    0  0.00000000000E+00  0.00000000000E+00  0.17392048644E+04  0.25794068004E+04  0.19048637436E+04 0.  0.
        5    1    3    3  502    0 -0.17165541370E+03 -0.38812154956E+03  0.20241804064E+04  0.20681954274E+04  0.46999998093E+01 0.  1.
       -5    1    3    3    0  502  0.17165541370E+03  0.38812154956E+03 -0.28497554203E+03  0.51121137296E+03  0.46999998093E+01 0. -1.
</event>
<event>
 5   0  0.6452182E-05  0.1943620E+04  0.7818609E-02  0.8633444E-01
       -2   -1    0    0    0  501  0.00000000000E+00  0.00000000000E+00  0.58600581813E+03  0.58600581813E+03  0.25500000920E-02 0.  1.
        2   -1    0    0  501    0  0.00000000000E+00  0.00000000000E+00 -0.16116124351E+04  0.16116124351E+04  0.25500000920E-02 0. -1.
    10030    2    1    2    0    0  0.00000000000E+00  0.00000000000E+00 -0.10256066170E+04  0.21976182533E+04  0.19436195755E+04 0.  0.
        3    1    3    3  502    0  0.25215378253E+03 -0.69030993103E+03 -0.12317480369E+04  0.14343334924E+04  0.10100000352E+00 0. -1.
       -3    1    3    3    0  502 -0.25215378253E+03  0.69030993103E+03  0.20614141989E+03  0.76328476083E+03  0.10100000352E+00 0.  1.
</event>
<event>
 5   0  0.3144958E-05  0.1898361E+04  0.7818609E-02  0.8655672E-01
        1   -1    0    0  501    0  0.00000000000E+00  0.00000000000E+00  0.13833609832E+04  0.13833609832E+04  0.50400001928E-02 0.  1.
       -1   -1    0    0    0  501  0.00000000000E+00  0.00000000000E+00 -0.65127180408E+03  0.65127180410E+03  0.50400001928E-02 0. -1.
    10030    2    1    2    0    0  0.00000000000E+00  0.00000000000E+00  0.73208917911E+03  0.20346327873E+04  0.18983614021E+04 0.  0.
        4    1    3    3  502    0 -0.92424382943E+03 -0.10267711540E+03  0.16219949132E+03  0.94397009177E+03  0.12699999809E+01 0.  1.
       -4    1    3    3    0  502  0.92424382943E+03  0.10267711540E+03  0.56988968780E+03  0.10906626955E+04  0.12699999809E+01 0. -1.
</event>
<event>
 5   0  0.6098377E-05  0.1893757E+04  0.7818609E-02  0.8657970E-01
       -2   -1    0    0    0  501  0.00000000000E+00  0.00000000000E+00  0.56245861075E+03  0.56245861075E+03  0.25500000920E-02 0.  1.
        2   -1    0    0  501    0  0.00000000000E+00  0.00000000000E+00 -0.15940359631E+04  0.15940359631E+04  0.25500000920E-02 0. -1.
    10030    2    1    2    0    0  0.00000000000E+00  0.00000000000E+00 -0.10315773523E+04  0.21564945738E+04  0.18937573797E+04 0.  0.
        5    1    3    3  502    0 -0.13466313956E+03 -0.48940828813E+03 -0.14259981160E+04  0.15136536429E+04  0.46999998093E+01 0. -1.
       -5    1    3    3    0  502  0.13466313956E+03  0.48940828813E+03  0.39442076372E+03  0.64284093094E+03  0.46999998093E+01 0.  1.
</event>
<event>
 5   0  0.3147063E-05  0.1879632E+04  0.7818609E-02  0.8665062E-01
       -1   -1    0    0    0  501  0.00000000000E+00  0.00000000000E+00  0.63385588967E+03  0.63385588969E+03  0.50400001928E-02 0. -1.
        1   -1    0    0  501    0  0.00000000000E+00  0.00000000000E+00 -0.13934618121E+04  0.13934618121E+04  0.50400001928E-02 0.  1.
    10030    2    1    2    0    0  0.00000000000E+00  0.00000000000E+00 -0.75960592243E+03  0.20273177018E+04  0.18796318540E+04 0.  0.
        5    1    3    3  502    0  0.43875137371E+03  0.34746806973E+03  0.43449727677E+03  0.70855260985E+03  0.46999998093E+01 0. -1.
       -5    1    3    3    0  502 -0.43875137371E+03 -0.34746806973E+03 -0.11941031992E+04  0.13187650920E+04  0.46999998093E+01 0.  1.
</event>
<event>
 5   0  0.3147063E-05  0.1876247E+04  0.7818609E-02  0.8666771E-01
        1   -1    0    0  501    0  0.00000000000E+00  0.00000000000E+00  0.12157523980E+04  0.12157523980E+04  0.50400001928E-02 0. -1.
       -1   -1    0    0    0  501  0.00000000000E+00  0.00000000000E+00 -0.72389363338E+03  0.72389363340E+03  0.50400001928E-02 0.  1.
    10030    2    1    2    0    0  0.00000000000E+00  0.00000000000E+00  0.49185876459E+03  0.19396460314E+04  0.18762467009E+04 0.  0.
        5    1    3    3  502    0 -0.19869643877E+02 -0.92801916706E+03  0.38630790742E+03  0.10054204427E+04  0.46999998093E+01 0.  1.
       -5    1    3    3    0  502  0.19869643877E+02  0.92801916706E+03  0.10555085718E+03  0.93422558873E+03  0.46999998093E+01 0. -1.
</event>
<event>
 5   0  0.3147063E-05  0.1898773E+04  0.7818609E-02  0.8655467E-01
       -1   -1    0    0    0  501  0.00000000000E+00  0.00000000000E+00  0.74316088666E+03  0.74316088668E+03  0.50400001928E-02 0.  1.
        1   -1    0    0  501    0  0.00000000000E+00  0.00000000000E+00 -0.12128398018E+04  0.12128398018E+04  0.50400001928E-02 0. -1.
    10030    2    1    2    0    0  0.00000000000E+00  0.00000000000E+00 -0.46967891515E+03  0.19560006885E+04  0.18987733962E+04 0.  0.
        5    1    3    3  502    0  0.48650625410E+03  0.31319181802E+03  0.54053136325E+03  0.79181670531E+03  0.46999998093E+01 0.  1.
       -5    1    3    3    0  502 -0.48650625410E+03 -0.31319181802E+03 -0.10102102784E+04  0.11641839832E+04  0.46999998093E+01 0. -1.
</event>
<event>
 5   0  0.3203527E-05  0.1918537E+04  0.7818609E-02  0.8645684E-01
       -1   -1    0    0    0  501  0.00000000000E+00  0.00000000000E+00  0.33777467543E+03  0.33777467547E+03  0.50400001928E-02 0.  1.
        1   -1    0    0  501    0  0.00000000000E+00  0.00000000000E+00 -0.27242907470E+04  0.27242907470E+04  0.50400001928E-02 0. -1.
    10030    2    1    2    0    0  0.00000000000E+00  0.00000000000E+00 -0.23865160715E+04  0.30620654225E+04  0.19185373834E+04 0.  0.
        1    1    3    3  502    0 -0.44599572245E+03 -0.34710650124E+03  0.43855722178E+02  0.56684956738E+03  0.50400001928E-02 0.  1.
       -1    1    3    3    0  502  0.44599572245E+03  0.34710650124E+03 -0.24303717937E+04  0.24952158551E+04  0.50400001928E-02 0. -1.
</event>
<event>
 5   0  0.6452182E-05  0.1901127E+04  0.7818609E-02  0.8654295E-01
       -2   -1    0    0    0  501  0.00000000000E+00  0.00000000000E+00  0.84759225644E+03  0.84759225645E+03  0.25500000920E-02 0.  1.
        2   -1    0    0  501    0  0.00000000000E+00  0.00000000000E+00 -0.10660447723E+04  0.10660447723E+04  0.25500000920E-02 0. -1.
    10030    2    1    2    0    0  0.00000000000E+00  0.00000000000E+00 -0.21845251583E+03  0.19136370287E+04  0.19011273435E+04 0.  0.
        3    1    3    3  502    0 -0.27044057908E+02  0.22248119019E+03 -0.10390698964E+04  0.10629654373E+04  0.10100000352E+00 0. -1.
       -3    1    3    3    0  502  0.27044057908E+02 -0.22248119019E+03  0.82061738055E+03  0.85067159146E+03  0.10100000352E+00 0.  1.
</event>
<event>
 5   0  0.2279625E-05  0.1901339E+04  0.7818609E-02  0.8654190E-01
       -4   -1    0    0    0  501  0.00000000000E+00  0.00000000000E+00  0.80569075492E+03  0.80569175586E+03  0.12699999809E+01 0.  1.
        4   -1    0    0  501    0  0.00000000000E+00  0.00000000000E+00 -0.11217337288E+04  0.11217344477E+04  0.12699999809E+01 0. -1.
    10030    2    1    2    0    0  0.00000000000E+00  0.00000000000E+00 -0.31604297386E+03  0.19274262036E+04  0.19013386360E+04 0.  0.
        4    1    3    3  502    0 -0.85157228204E+03 -0.13246414111E+03 -0.56483610086E+03  0.10304191060E+04  0.12699999809E+01 0. -1.
       -4    1    3    3    0  502  0.85157228204E+03  0.13246414111E+03  0.24879312700E+03  0.89700709761E+03  0.12699999809E+01 0.  1.
</event>
<event>
 5   0  0.3144958E-05  0.1917860E+04  0.7818609E-02  0.8646017E-01
        1   -1    0    0  501    0  0.00000000000E+00  0.00000000000E+00  0.14876159772E+04  0.14876159772E+04  0.50400001928E-02 0.  1.
       -1   -1    0    0    0  501  0.00000000000E+00  0.00000000000E+00 -0.61813460894E+03  0.61813460896E+03  0.50400001928E-02 0. -1.
    10030    2    1    2    0    0  0.00000000000E+00  0.00000000000E+00  0.86948136822E+03  0.21057505861E+04  0.19178601829E+04 0.  0.
        4    1    3    3  502    0 -0.29146458905E+03  0.85471112155E+03  0.78893152183E+03  0.11991235412E+04  0.12699999809E+01 0.  1.
       -4    1    3    3    0  502  0.29146458905E+03 -0.85471112155E+03  0.80549846387E+02  0.90662704495E+03  0.12699999809E+01 0. -1.
</event>
<event>
 5   0  0.6395992E-05  0.1905381E+04  0.7818609E-02  0.8652182E-01
        2   -1    0    0  501    0  0.00000000000E+00  0.00000000000E+00  0.76780825056E+03  0.76780825056E+03  0.25500000920E-02 0.  1.
       -2   -1    0    0    0  501  0.00000000000E+00  0.00000000000E+00 -0.11820912465E+04  0.11820912465E+04  0.25500000920E-02 0. -1.
    10030    2    1    2    0    0  0.00000000000E+00  0.00000000000E+00 -0.41428299590E+03  0.19498994970E+04  0.19053812342E+04 0.  0.
        4    1    3    3  502    0 -0.39210083603E+03 -0.57808737946E+02  0.67943294133E+03  0.78658480183E+03  0.12699999809E+01 0.  1.
       -4    1    3    3    0  502  0.39210083603E+03  0.57808737946E+02 -0.10937159372E+04  0.11633146952E+04  0.12699999809E+01 0. -1.
</event>
<event>
 5   0  0.6423388E-05  0.1895582E+04  0.7818609E-02  0.8657059E-01
        2   -1    0    0  501    0  0.00000000000E+00  0.00000000000E+00  0.88939048231E+03  0.88939048231E+03  0.25500000920E-02 0. -1.
       -2   -1    0    0    0  501  0.00000000000E+00  0.00000000000E+00 -0.10100265173E+04  0.10100265173E+04  0.25500000920E-02 0.  1.
    10030    2    1    2    0    0  0.00000000000E+00  0.00000000000E+00 -0.12063603495E+03  0.18994169996E+04  0.18955822022E+04 0.  0.
        2    1    3    3  502    0 -0.36749427555E+03  0.72561490055E+03  0.42722456339E+03  0.91874362802E+03  0.25500000920E-02 0. -1.
       -2    1    3    3    0  502  0.36749427555E+03 -0.72561490055E+03 -0.54786059834E+03  0.98067337156E+03  0.25500000920E-02 0.  1.
</event>
<event>
 5   0  0.3203527E-05  0.1917713E+04  0.7818609E-02  0.8646090E-01
        1   -1    0    0  501    0  0.00000000000E+00  0.00000000000E+00  0.81837078746E+03  0.81837078748E+03  0.50400001928E-02 0.  1.
       -1   -1    0    0    0  501  0.00000000000E+00  0.00000000000E+00 -0.11234583996E+04  0.11234583996E+04  0.50400001928E-02 0. -1.
    10030    2    1    2    0    0  0.00000000000E+00  0.00000000000E+00 -0.30508761210E+03  0.19418291870E+04  0.19177127367E+04 0.  0.
        1    1    3    3  502    0  0.57625675837E+02  0.62231341572E+03  0.58379492032E+03  0.85522582686E+03  0.50400001928E-02 0.  1.
       -1    1    3    3    0  502 -0.57625675837E+02 -0.62231341572E+03 -0.88888253242E+03  0.10866033602E+04  0.50400001928E-02 0. -1.
</event>
<event>
 5   0  0.6098377E-05  0.1898991E+04  0.7818609E-02  0.8655359E-01
        2   -1    0    0  501    0  0.00000000000E+00  0.00000000000E+00  0.13281560631E+04  0.13281560631E+04  0.25500000920E-02 0.  1.
       -2   -1    0    0    0  501  0.00000000000E+00  0.00000000000E+00 -0.67879194906E+03  0.67879194906E+03  0.25500000920E-02 0. -1.
    10030    2    1    2    0    0  0.00000000000E+00  0.00000000000E+00  0.64936411405E+03  0.20069480122E+04  0.18989909349E+04 0.  0.
        5    1    3    3  502    0  0.58664716294E+03 -0.53504943840E+03  0.87494134586E+03  0.11815148090E+04  0.46999998093E+01 0.  1.
       -5    1    3    3    0  502 -0.58664716294E+03  0.53504943840E+03 -0.22557723181E+03  0.82543320312E+03  0.46999998093E+01 0. -1.
</event>
<event>
 5   0  0.3083469E-05  0.1896968E+04  0.7818609E-02  0.8656367E-01
        1   -1    0    0  501    0  0.00000000000E+00  0.00000000000E+00  0.18251600098E+04  0.18251600098E+04  0.50400001928E-02 0. -1.
       -1   -1    0    0    0  501  0.00000000000E+00  0.00000000000E+00 -0.49290034036E+03  0.49290034039E+03  0.50400001928E-02 0.  1.
    10030    2    1    2    0    0  0.00000000000E+00  0.00000000000E+00  0.13322596694E+04  0.23180603502E+04  0.18969680968E+04 0.  0.
        3    1    3    3  502    0  0.12534619433E+03  0.26598878861E+03 -0.43579707464E+03  0.52571932109E+03  0.10100000352E+00 0.  1.
       -3    1    3    3    0  502 -0.12534619433E+03 -0.26598878861E+03  0.17680567441E+04  0.17923410291E+04  0.10100000352E+00 0. -1.
</event>
<event>
 5   0  0.6395992E-05  0.1909389E+04  0.7818609E-02  0.8650197E-01
        2   -1    0    0  501    0  0.00000000000E+00  0.00000000000E+00  0.13959682200E+04  0.13959682201E+04  0.25500000920E-02 0.  1.
       -2   -1    0    0    0  501  0.00000000000E+00  0.00000000000E+00 -0.65290979815E+03  0.65290979815E+03  0.25500000920E-02 0. -1.
    10030    2    1    2    0    0  0.00000000000E+00  0.00000000000E+00  0.74305842190E+03  0.20488780182E+04  0.19093887281E+04 0.  0.
        4    1    3    3  502    0 -0.64420461631E+03  0.23049483173E+03  0.10859870736E+04  0.12835485936E+04  0.12699999809E+01 0.  1.
       -4    1    3    3    0  502  0.64420461631E+03 -0.23049483173E+03 -0.34292865172E+03  0.76532942462E+03  0.12699999809E+01 0. -1.
</event>
<event>
 5   0  0.2279625E-05  0.1902109E+04  0.7818609E-02  0.8653807E-01
       -4   -1    0    0    0  501  0.00000000000E+00  0.00000000000E+00  0.92833486639E+03  0.92833573509E+03  0.12699999809E+01 0. -1.
        4   -1    0    0  501    0  0.00000000000E+00  0.00000000000E+00 -0.97432873992E+03  0.97432956762E+03  0.12699999809E+01 0.  1.
    10030    2    1    2    0    0  0.00000000000E+00  0.00000000000E+00 -0.45993873528E+02  0.19026653027E+04  0.19021093075E+04 0.  0.
        1    1    3    3  502    0  0.55740235148E+03 -0.64009713995E+03  0.40617768603E+03  0.94095804511E+03  0.50400001928E-02 0. -1.
       -1    1    3    3    0  502 -0.55740235148E+03  0.64009713995E+03 -0.45217155956E+03  0.96170725759E+03  0.50400001928E-02 0.  1.
</event>
<event>
 5   0  0.3203527E-05  0.1895265E+04  0.7818609E-02  0.8657217E-01
        1   -1    0    0  501    0  0.00000000000E+00  0.00000000000E+00  0.11438955756E+04  0.11438955756E+04  0.50400001928E-02 0. -1.
       -1   -1    0    0    0  501  0.00000000000E+00  0.00000000000E+00 -0.78504306090E+03  0.78504306091E+03  0.50400001928E-02 0.  1.
    10030    2    1    2    0    0  0.00000000000E+00  0.00000000000E+00  0.35885251469E+03  0.19289386365E+04  0.18952649251E+04 0.  0.
        1    1    3    3  502    0  0.36625687346E+03 -0.82405211358E+03  0.47580683739E+03  0.10196068506E+04  0.50400001928E-02 0. -1.
       -1    1    3    3    0  502 -0.36625687346E+03  0.82405211358E+03 -0.11695432270E+03  0.90933178592E+03  0.50400001928E-02 0.  1.
</event>
<event>
 5   0  0.3203527E-05  0.1898437E+04  0.7818609E-02  0.8655635E-01
       -1   -1    0    0    0  501  0.00000000000E+00  0.00000000000E+00  0.72632396182E+03  0.72632396184E+03  0.50400001928E-02 0.  1.
        1   -1    0    0  501    0  0.00000000000E+00  0.00000000000E+00 -0.12405143998E+04  0.12405143998E+04  0.50400001928E-02 0. -1.
    10030    2    1    2    0    0  0.00000000000E+00  0.00000000000E+00 -0.51419043798E+03  0.19668383617E+04  0.18984365500E+04 0.  0.
        1    1    3    3  502    0  0.53996033311E+03 -0.12245249153E+03 -0.10558899701E+04  0.11922480460E+04  0.50400001928E-02 0. -1.
       -1    1    3    3    0  502 -0.53996033311E+03  0.12245249153E+03  0.54169953216E+03  0.77459031570E+03  0.50400001928E-02 0.  1.
</event>
<event>
 5   0  0.3083469E-05  0.1903539E+04  0.7818609E-02  0.8653097E-01
       -1   -1    0    0    0  501  0.00000000000E+00  0.00000000000E+00  0.48985845923E+03  0.48985845925E+03  0.50400001928E-02 0.  1.
        1   -1    0    0  501    0  0.00000000000E+00  0.00000000000E+00 -0.18492390147E+04  0.18492390147E+04  0.50400001928E-02 0. -1.
    10030    2    1    2    0    0  0.00000000000E+00  0.00000000000E+00 -0.13593805555E+04  0.23390974740E+04  0.19035392032E+04 0.  0.
        3    1    3    3  502    0  0.14190711717E+03 -0.92835849931E+03 -0.48980662793E+03  0.10591967127E+04  0.10100000352E+00 0. -1.
       -3    1    3    3    0  502 -0.14190711717E+03  0.92835849931E+03 -0.86957392757E+03  0.12799007613E+04  0.10100000352E+00 0.  1.
</event>
<event>
 5   0  0.6395992E-05  0.1898113E+04  0.7818609E-02  0.8655796E-01
       -2   -1    0    0    0  501  0.00000000000E+00  0.00000000000E+00  0.95346409929E+03  0.95346409930E+03  0.25500000920E-02 0.  1.
        2   -1    0    0  501    0  0.00000000000E+00  0.00000000000E+00 -0.94466968337E+03  0.94466968337E+03  0.25500000920E-02 0. -1.
    10030    2    1    2    0    0  0.00000000000E+00  0.00000000000E+00  0.87944159282E+01  0.18981337827E+04  0.18981134095E+04 0.  0.
        4    1    3    3  502    0  0.52890052743E+03  0.75829748730E+01 -0.78359205311E+03  0.94541598676E+03  0.12699999809E+01 0. -1.
       -4    1    3    3    0  502 -0.52890052743E+03 -0.75829748730E+01  0.79238646904E+03  0.95271779591E+03  0.12699999809E+01 0.  1.
</event>
<event>
 5   0  0.6361762E-05  0.1905168E+04  0.7818609E-02  0.8652288E-01
       -2   -1    0    0    0  501  0.00000000000E+00  0.00000000000E+00  0.94394478798E+03  0.94394478799E+03  0.25500000920E-02 0.  1.
        2   -1    0    0  501    0  0.00000000000E+00  0.00000000000E+00 -0.96130191134E+03  0.96130191135E+03  0.25500000920E-02 0. -1.
    10030    2    1    2    0    0  0.00000000000E+00  0.00000000000E+00 -0.17357123360E+02  0.19052466993E+04  0.19051676345E+04 0.  0.
        1    1    3    3  502    0  0.15743477835E+03  0.60923309852E+03  0.70651910596E+03  0.94610777656E+03  0.50400001928E-02 0.  1.
       -1    1    3    3    0  502 -0.15743477835E+03 -0.60923309852E+03 -0.72387622932E+03  0.95913892277E+03  0.50400001928E-02 0. -1.
</event>
<event>
 5   0  0.2279625E-05  0.1891073E+04  0.7818609E-02  0.8659313E-01
       -4   -1    0    0    0  501  0.00000000000E+00  0.00000000000E+00  0.82768193430E+03  0.82768290865E+03  0.12699999809E+01 0.  1.
        4   -1    0    0  501    0  0.00000000000E+00  0.00000000000E+00 -0.10801709095E+04  0.10801716561E+04  0.12699999809E+01 0. -1.
    10030    2    1    2    0    0  0.00000000000E+00  0.00000000000E+00 -0.25248897520E+03  0.19078545648E+04  0.18910733348E+04 0.  0.
        1    1    3    3  502    0  0.17415726250E+03  0.79354323347E+03 -0.61427046862E+03  0.10185135365E+04  0.50400001928E-02 0. -1.
       -1    1    3    3    0  502 -0.17415726250E+03 -0.79354323347E+03  0.36178149341E+03  0.88934102822E+03  0.50400001928E-02 0.  1.
</event>
<event>
 5   0  0.3086139E-05  0.1908638E+04  0.7818609E-02  0.8650569E-01
       -1   -1    0    0    0  501  0.00000000000E+00  0.00000000000E+00  0.82801455127E+03  0.82801455128E+03  0.50400001928E-02 0.  1.
        1   -1    0    0  501    0  0.00000000000E+00  0.00000000000E+00 -0.10998896290E+04  0.10998896291E+04  0.50400001928E-02 0. -1.
    10030    2    1    2    0    0  0.00000000000E+00  0.00000000000E+00 -0.27187507778E+03  0.19279041803E+04  0.19086378574E+04 0.  0.
        2    1    3    3  502    0  0.73292089324E+03  0.61106828789E+03 -0.14818967193E+03  0.96567989887E+03  0.25500000920E-02 0. -1.
       -2    1    3    3    0  502 -0.73292089324E+03 -0.61106828789E+03 -0.12368540584E+03  0.96222428147E+03  0.25500000920E-02 0.  1.
</event>
<event>
 5   0  0.2279625E-05  0.1900631E+04  0.7818609E-02  0.8654543E-01
       -3   -1    0    0    0  501  0.00000000000E+00  0.00000000000E+00  0.10611945183E+04  0.10611945231E+04  0.10100000352E+00 0.  1.
        3   -1    0    0  501    0  0.00000000000E+00  0.00000000000E+00 -0.85102140688E+03  0.85102141288E+03  0.10100000352E+00 0. -1.
    10030    2    1    2    0    0  0.00000000000E+00  0.00000000000E+00  0.21017311144E+03  0.19122159360E+04  0.19006306977E+04 0.  0.
        4    1    3    3  502    0  0.51221244542E+03  0.46424391195E+03 -0.55097228582E+03  0.88400004054E+03  0.12699999809E+01 0. -1.
       -4    1    3    3    0  502 -0.51221244542E+03 -0.46424391195E+03  0.76114539726E+03  0.10282158955E+04  0.12699999809E+01 0.  1.
</event>
<event>
 5   0  0.6395992E-05  0.1941546E+04  0.7818609E-02  0.8634448E-01
        2   -1    0    0  501    0  0.00000000000E+00  0.00000000000E+00  0.10635130852E+04  0.10635130852E+04  0.25500000920E-02 0. -1.
       -2   -1    0    0    0  501  0.00000000000E+00  0.00000000000E+00 -0.88611995825E+03  0.88611995825E+03  0.25500000920E-02 0.  1.
    10030    2    1    2    0    0  0.00000000000E+00  0.00000000000E+00  0.17739312698E+03  0.19496330435E+04  0.19415459517E+04 0.  0.
        4    1    3    3  502    0  0.19115626535E+03  0.39610914608E+03 -0.78033025045E+03  0.89574554761E+03  0.12699999809E+01 0.  1.
       -4    1    3    3    0  502 -0.19115626535E+03 -0.39610914608E+03  0.95772337743E+03  0.10538874959E+04  0.12699999809E+01 0. -1.
</event>
<event>
 5   0  0.3083469E-05  0.1898513E+04  0.7818609E-02  0.8655597E-01
        1   -1    0    0  501    0  0.00000000000E+00  0.00000000000E+00  0.13995569590E+04  0.13995569590E+04  0.50400001928E-02 0.  1.
       -1   -1    0    0    0  501  0.00000000000E+00  0.00000000000E+00 -0.64383767650E+03  0.64383767652E+03  0.50400001928E-02 0. -1.
    10030    2    1    2    0    0  0.00000000000E+00  0.00000000000E+00  0.75571928245E+03  0.20433946355E+04  0.18985125763E+04 0.  0.
        3    1    3    3  502    0 -0.27540468221E+03 -0.16114995047E+03  0.13401046068E+04  0.13775693859E+04  0.10100000352E+00 0.  1.
       -3    1    3    3    0  502  0.27540468221E+03  0.16114995047E+03 -0.58438532435E+03  0.66582524962E+03  0.10100000352E+00 0. -1.
</event>
<event>
 5   0  0.6395992E-05  0.1774599E+04  0.7818609E-02  0.8719925E-01
        2   -1    0    0  501    0  0.00000000000E+00  0.00000000000E+00  0.17393074538E+04  0.17393074538E+04  0.25500000920E-02 0. -1.
       -2   -1    0    0    0  501  0.00000000000E+00  0.00000000000E+00 -0.45265169951E+03  0.45265169952E+03  0.25500000920E-02 0.  1.
    10030    2    1    2    0    0  0.00000000000E+00  0.00000000000E+00  0.12866557543E+04  0.21919591533E+04  0.17745990814E+04 0.  0.
        4    1    3    3  502    0  0.51572597545E+03 -0.46426964659E+03  0.13263522925E+04  0.14969073462E+04  0.12699999809E+01 0. -1.
       -4    1    3    3    0  502 -0.51572597545E+03  0.46426964659E+03 -0.39696538199E+02  0.69505180709E+03  0.12699999809E+01 0.  1.
</event>
<event>
 5   0  0.3083469E-05  0.1884445E+04  0.7818609E-02  0.8662638E-01
       -1   -1    0    0    0  501  0.00000000000E+00  0.00000000000E+00  0.10425760862E+04  0.10425760862E+04  0.50400001928E-02 0.  1.
        1   -1    0    0  501    0  0.00000000000E+00  0.00000000000E+00 -0.85152881608E+03  0.85152881610E+03  0.50400001928E-02 0. -1.
    10030    2    1    2    0    0  0.00000000000E+00  0.00000000000E+00  0.19104727012E+03  0.18941049023E+04  0.18844453618E+04 0.  0.
        3    1    3    3  502    0  0.35893156824E+03 -0.85168005150E+03 -0.88699221306E+02  0.92847097039E+03  0.10100000352E+00 0.  1.
       -3    1    3    3    0  502 -0.35893156824E+03  0.85168005150E+03  0.27974649142E+03  0.96563393192E+03  0.10100000352E+00 0. -1.
</event>
<event>
 5   0  0.3083469E-05  0.1889739E+04  0.7818609E-02  0.8659981E-01
       -1   -1    0    0    0  501  0.00000000000E+00  0.00000000000E+00  0.11786689557E+04  0.11786689557E+04  0.50400001928E-02 0. -1.
        1   -1    0    0  501    0  0.00000000000E+00  0.00000000000E+00 -0.75744626596E+03  0.75744626597E+03  0.50400001928E-02 0.  1.
    10030    2    1    2    0    0  0.00000000000E+00  0.00000000000E+00  0.42122268976E+03  0.19361152217E+04  0.18897390289E+04 0.  0.
        3    1    3    3  502    0 -0.12505575387E+03  0.69257108424E+03 -0.43532481494E+03  0.82752725212E+03  0.10100000352E+00 0.  1.
       -3    1    3    3    0  502  0.12505575387E+03 -0.69257108424E+03  0.85654750470E+03  0.11085879696E+04  0.10100000352E+00 0. -1.
</event>
<event>
 5   0  0.6395992E-05  0.1890763E+04  0.7818609E-02  0.8659468E-01
        2   -1    0    0  501    0  0.00000000000E+00  0.00000000000E+00  0.11574522121E+04  0.11574522121E+04  0.25500000920E-02 0. -1.
       -2   -1    0    0    0  501  0.00000000000E+00  0.00000000000E+00 -0.77216648246E+03  0.77216648247E+03  0.25500000920E-02 0.  1.
    10030    2    1    2    0    0  0.00000000000E+00  0.00000000000E+00  0.38528572966E+03  0.19296186946E+04  0.18907626009E+04 0.  0.
        4    1    3    3  502    0  0.17724498389E+03 -0.88723341368E+03 -0.87116952467E+02  0.90894988364E+03  0.12699999809E+01 0.  1.
       -4    1    3    3    0  502 -0.17724498389E+03  0.88723341368E+03  0.47240268213E+03  0.10206688110E+04  0.12699999809E+01 0. -1.
</event>
<event>
 5   0  0.6361762E-05  0.1897951E+04  0.7818609E-02  0.8655877E-01
       -2   -1    0    0    0  501  0.00000000000E+00  0.00000000000E+00  0.80399397159E+03  0.80399397159E+03  0.25500000920E-02 0.  1.
        2   -1    0    0  501    0  0.00000000000E+00  0.00000000000E+00 -0.11201013770E+04  0.11201013770E+04  0.25500000920E-02 0. -1.
    10030    2    1    2    0    0  0.00000000000E+00  0.00000000000E+00 -0.31610740544E+03  0.19240953486E+04  0.18979512688E+04 0.  0.
        1    1    3    3  502    0  0.15094639355E+03  0.33943238730E+03  0.72721943898E+03  0.81660717100E+03  0.50400001928E-02 0.  1.
       -1    1    3    3    0  502 -0.15094639355E+03 -0.33943238730E+03 -0.10433268444E+04  0.11074881776E+04  0.50400001928E-02 0. -1.
</event>
<event>
 5   0  0.6395992E-05  0.1928304E+04  0.7818609E-02  0.8640894E-01
        2   -1    0    0  501    0  0.00000000000E+00  0.00000000000E+00  0.99325860722E+03  0.99325860722E+03  0.25500000920E-02 0.  1.
       -2   -1    0    0    0  501  0.00000000000E+00  0.00000000000E+00 -0.93589854127E+03  0.93589854127E+03  0.25500000920E-02 0. -1.
    10030    2    1    2    0    0  0.00000000000E+00  0.00000000000E+00  0.57360065951E+02  0.19291571485E+04  0.19283042100E+04 0.  0.
        4    1    3    3  502    0 -0.75388792732E+03 -0.52885736863E+03  0.31437690931E+03  0.97307326411E+03  0.12699999809E+01 0.  1.
       -4    1    3    3    0  502  0.75388792732E+03  0.52885736863E+03 -0.25701684336E+03  0.95608388438E+03  0.12699999809E+01 0. -1.
</event>
<event>
 5   0  0.6395992E-05  0.1892002E+04  0.7818609E-02  0.8658848E-01
       -2   -1    0    0    0  501  0.00000000000E+00  0.00000000000E+00  0.10361159289E+04  0.10361159289E+04  0.25500000920E-02 0.  1.
        2   -1    0    0  501    0  0.00000000000E+00  0.00000000000E+00 -0.86372345592E+03  0.86372345593E+03  0.25500000920E-02 0. -1.
    10030    2    1    2    0    0  0.00000000000E+00  0.00000000000E+00  0.17239247296E+03  0.18998393848E+04  0.18920017239E+04 0.  0.
        4    1    3    3  502    0 -0.85243569995E+03  0.38914749760E+03 -0.44085675936E+02  0.93809783987E+03  0.12699999809E+01 0. -1.
       -4    1    3    3    0  502  0.85243569995E+03 -0.38914749760E+03  0.21647814890E+03  0.96174154495E+03  0.12699999809E+01 0.  1.
</event>
<event>
 5   0  0.3203527E-05  0.1921626E+04  0.7818609E-02  0.8644166E-01
        1   -1    0    0  501    0  0.00000000000E+00  0.00000000000E+00  0.67645923598E+03  0.67645923600E+03  0.50400001928E-02 0. -1.
       -1   -1    0    0    0  501  0.00000000000E+00  0.00000000000E+00 -0.13646966271E+04  0.13646966271E+04  0.50400001928E-02 0.  1.
    10030    2    1    2    0    0  0.00000000000E+00  0.00000000000E+00 -0.68823739116E+03  0.20411558632E+04  0.19216260175E+04 0.  0.
        1    1    3    3  502    0  0.93897410754E+03  0.37085644610E+02 -0.13137591056E+03  0.94884527167E+03  0.50400001928E-02 0. -1.
       -1    1    3    3    0  502 -0.93897410754E+03 -0.37085644610E+02 -0.55686148060E+03  0.10923105915E+04  0.50400001928E-02 0.  1.
</event>
<event>
 5   0  0.3083469E-05  0.1904756E+04  0.7818609E-02  0.8652493E-01
       -1   -1    0    0    0  501  0.00000000000E+00  0.00000000000E+00  0.47165717390E+03  0.47165717393E+03  0.50400001928E-02 0. -1.
        1   -1    0    0  501    0  0.00000000000E+00  0.00000000000E+00 -0.19230566991E+04  0.19230566992E+04  0.50400001928E-02 0.  1.
    10030    2    1    2    0    0  0.00000000000E+00  0.00000000000E+00 -0.14513995252E+04  0.23947138731E+04  0.19047556148E+04 0.  0.
        3    1    3    3  502    0  0.10115012986E+03  0.89485681026E+03 -0.33611411549E+03  0.96123502250E+03  0.10100000352E+00 0.  1.
       -3    1    3    3    0  502 -0.10115012986E+03 -0.89485681026E+03 -0.11152854098E+04  0.14334788506E+04  0.10100000352E+00 0. -1.
</event>
<event>
 5   0  0.6423388E-05  0.1891689E+04  0.7818609E-02  0.8659004E-01
       -2   -1    0    0    0  501  0.00000000000E+00  0.00000000000E+00  0.38592005973E+03  0.38592005974E+03  0.25500000920E-02 0. -1.
        2   -1    0    0  501    0  0.00000000000E+00  0.00000000000E+00 -0.23181542770E+04  0.23181542770E+04  0.25500000920E-02 0.  1.
    10030    2    1    2    0    0  0.00000000000E+00  0.00000000000E+00 -0.19322342173E+04  0.27040743368E+04  0.18916894429E+04 0.  0.
        2    1    3    3  502    0 -0.28058574520E+03  0.54251062049E+03 -0.19984686940E+04  0.20897184630E+04  0.25500000920E-02 0.  1.
       -2    1    3    3    0  502  0.28058574520E+03 -0.54251062049E+03  0.66234476671E+02  0.61435587379E+03  0.25500000920E-02 0. -1.
</event>
<event>
 5   0  0.3086139E-05  0.1897185E+04  0.7818609E-02  0.8656259E-01
        1   -1    0    0  501    0  0.00000000000E+00  0.00000000000E+00  0.13264860095E+04  0.13264860095E+04  0.50400001928E-02 0. -1.
       -1   -1    0    0    0  501  0.00000000000E+00  0.00000000000E+00 -0.67835448049E+03  0.67835448051E+03  0.50400001928E-02 0.  1.
    10030    2    1    2    0    0  0.00000000000E+00  0.00000000000E+00  0.64813152903E+03  0.20048404900E+04  0.18971849967E+04 0.  0.
        2    1    3    3  502    0 -0.76614554780E+03  0.47394550577E+03  0.63794635664E+03  0.11038926111E+04  0.25500000920E-02 0. -1.
       -2    1    3    3    0  502  0.76614554780E+03 -0.47394550577E+03  0.10185172387E+02  0.90094787895E+03  0.25500000920E-02 0.  1.
</event>
<event>
 5   0  0.3144958E-05  0.1898084E+04  0.7818609E-02  0.8655811E-01
       -1   -1    0    0    0  501  0.00000000000E+00  0.00000000000E+00  0.76039199258E+03  0.76039199259E+03  0.50400001928E-02 0. -1.
        1   -1    0    0  501    0  0.00000000000E+00  0.00000000000E+00 -0.11844951980E+04  0.11844951980E+04  0.50400001928E-02 0.  1.
    10030    2    1    2    0    0  0.00000000000E+00  0.00000000000E+00 -0.42410320546E+03  0.19448871906E+04  0.18980839432E+04 0.  0.
        4    1    3    3  502    0 -0.44664885336E+03 -0.82148560021E+03 -0.45737048290E+02  0.93617694911E+03  0.12699999809E+01 0.  1.
       -4    1    3    3    0  502  0.44664885336E+03  0.82148560021E+03 -0.37836615717E+03  0.10087102415E+04  0.12699999809E+01 0. -1.
</event>
<event>
 5   0  0.3144958E-05  0.1904775E+04  0.7818609E-02  0.8652483E-01
       -1   -1    0    0    0  501  0.00000000000E+00  0.00000000000E+00  0.48595276089E+03  0.48595276091E+03  0.50400001928E-02 0. -1.
        1   -1    0    0  501    0  0.00000000000E+00  0.00000000000E+00 -0.18665227798E+04  0.18665227798E+04  0.50400001928E-02 0.  1.
    10030    2    1    2    0    0  0.00000000000E+00  0.00000000000E+00 -0.13805700190E+04  0.23524755408E+04  0.19047749454E+04 0.  0.
        4    1    3    3  502    0 -0.26277771106E+03 -0.47330333837E+03  0.27744847527E+03  0.60831525122E+03  0.12699999809E+01 0. -1.
       -4    1    3    3    0  502  0.26277771106E+03  0.47330333837E+03 -0.16580184942E+04  0.17441602895E+04  0.12699999809E+01 0.  1.
</event>
<event>
 5   0  0.6423388E-05  0.1900144E+04  0.7818609E-02  0.8654785E-01
        2   -1    0    0  501    0  0.00000000000E+00  0.00000000000E+00  0.63266386746E+03  0.63266386747E+03  0.25500000920E-02 0. -1.
       -2   -1    0    0    0  501  0.00000000000E+00  0.00000000000E+00 -0.14267240527E+04  0.14267240527E+04  0.25500000920E-02 0.  1.
    10030    2    1    2    0    0  0.00000000000E+00  0.00000000000E+00 -0.79406018528E+03  0.20593879202E+04  0.19001439493E+04 0.  0.
        2    1    3    3  502    0 -0.70666918539E+03 -0.11330401372E+03 -0.10742291777E+04  0.12908088407E+04  0.25500000920E-02 0.  1.
       -2    1    3    3    0  502  0.70666918539E+03  0.11330401372E+03  0.28016899241E+03  0.76857907948E+03  0.25500000920E-02 0. -1.
</event>
<event>
 5   0  0.3203527E-05  0.1905690E+04  0.7818609E-02  0.8652029E-01
       -1   -1    0    0    0  501  0.00000000000E+00  0.00000000000E+00  0.64215884751E+03  0.64215884753E+03  0.50400001928E-02 0.  1.
        1   -1    0    0  501    0  0.00000000000E+00  0.00000000000E+00 -0.14138455946E+04  0.14138455946E+04  0.50400001928E-02 0. -1.
    10030    2    1    2    0    0  0.00000000000E+00  0.00000000000E+00 -0.77168674712E+03  0.20560044422E+04  0.19056898569E+04 0.  0.
        1    1    3    3  502    0  0.83788114255E+03 -0.36894765985E+03 -0.10091721129E+03  0.92105996998E+03  0.50400001928E-02 0.  1.
       -1    1    3    3    0  502 -0.83788114255E+03  0.36894765985E+03 -0.67076953583E+03  0.11349444722E+04  0.50400001928E-02 0. -1.
</event>
<event>
 5   0  0.6423388E-05  0.1896448E+04  0.7818609E-02  0.8656626E-01
       -2   -1    0    0    0  501  0.00000000000E+00  0.00000000000E+00  0.57159146820E+03  0.57159146820E+03  0.25500000920E-02 0. -1.
        2   -1    0    0  501    0  0.00000000000E+00  0.00000000000E+00 -0.15730273462E+04  0.15730273463E+04  0.25500000920E-02 0.  1.
    10030    2    1    2    0    0  0.00000000000E+00  0.00000000000E+00 -0.10014358781E+04  0.21446188145E+04  0.18964482702E+04 0.  0.
        2    1    3    3  502    0  0.77136182936E+03 -0.47140440727E+03 -0.17707077686E+03  0.92118144088E+03  0.25500000920E-02 0.  1.
       -2    1    3    3    0  502 -0.77136182936E+03  0.47140440727E+03 -0.82436510119E+03  0.12234373736E+04  0.25500000920E-02 0. -1.
</event>
<event>
 5   0  0.6423388E-05  0.1779136E+04  0.7818609E-02  0.8717474E-01
        2   -1    0    0  501    0  0.00000000000E+00  0.00000000000E+00  0.12847740169E+04  0.12847740169E+04  0.25500000920E-02 0. -1.
       -2   -1    0    0    0  501  0.00000000000E+00  0.00000000000E+00 -0.61593002205E+03  0.61593002206E+03  0.25500000920E-02 0.  1.
    10030    2    1    2    0    0  0.00000000000E+00  0.00000000000E+00  0.66884399481E+03  0.19007040389E+04  0.17791356199E+04 0.  0.
        2    1    3    3  502    0 -0.13909372352E+03  0.80513256542E+03  0.71023338344E+03  0.10825973262E+04  0.25500000920E-02 0. -1.
       -2    1    3    3    0  502  0.13909372352E+03 -0.80513256542E+03 -0.41389388635E+02  0.81810671267E+03  0.25500000920E-02 0.  1.
</event>
<event>
 5   0  0.6423388E-05  0.1902401E+04  0.7818609E-02  0.8653662E-01
       -2   -1    0    0    0  501  0.00000000000E+00  0.00000000000E+00  0.98953676941E+03  0.98953676941E+03  0.25500000920E-02 0.  1.
        2   -1    0    0  501    0  0.00000000000E+00  0.00000000000E+00 -0.91434943469E+03  0.91434943469E+03  0.25500000920E-02 0. -1.
    10030    2    1    2    0    0  0.00000000000E+00  0.00000000000E+00  0.75187334724E+02  0.19038862041E+04  0.19024009942E+04 0.  0.
        2    1    3    3  502    0 -0.80069891024E+03  0.25259930673E+03 -0.40980929544E+03  0.93427448496E+03  0.25500000920E-02 0.  1.
       -2    1    3    3    0  502  0.80069891024E+03 -0.25259930673E+03  0.48499663016E+03  0.96961171914E+03  0.25500000920E-02 0. -1.
</event>
<event>
 5   0  0.6361762E-05  0.1898444E+04  0.7818609E-02  0.8655632E-01
        2   -1    0    0  501    0  0.00000000000E+00  0.00000000000E+00  0.11921319414E+04  0.11921319414E+04  0.25500000920E-02 0.  1.
       -2   -1    0    0    0  501  0.00000000000E+00  0.00000000000E+00 -0.75580722856E+03  0.75580722857E+03  0.25500000920E-02 0. -1.
    10030    2    1    2    0    0  0.00000000000E+00  0.00000000000E+00  0.43632471287E+03  0.19479391700E+04  0.18984435085E+04 0.  0.
        1    1    3    3  502    0 -0.10715038255E+03  0.42827375761E+03 -0.64405683008E+03  0.78083853410E+03  0.50400001928E-02 0. -1.
       -1    1    3    3    0  502  0.10715038255E+03 -0.42827375761E+03  0.10803815430E+04  0.11671006359E+04  0.50400001928E-02 0.  1.
</event>
<event>
 5   0  0.3086139E-05  0.1900837E+04  0.7818609E-02  0.8654440E-01
        1   -1    0    0  501    0  0.00000000000E+00  0.00000000000E+00  0.85249504873E+03  0.85249504875E+03  0.50400001928E-02 0.  1.
       -1   -1    0    0    0  501  0.00000000000E+00  0.00000000000E+00 -0.10595895563E+04  0.10595895563E+04  0.50400001928E-02 0. -1.
    10030    2    1    2    0    0  0.00000000000E+00  0.00000000000E+00 -0.20709450758E+03  0.19120846051E+04  0.19008365006E+04 0.  0.
        2    1    3    3  502    0 -0.13013879385E+03 -0.11831323419E+03 -0.10430766954E+04  0.10578010775E+04  0.25500000920E-02 0. -1.
       -2    1    3    3    0  502  0.13013879385E+03  0.11831323419E+03  0.83598218785E+03  0.85428352756E+03  0.25500000920E-02 0.  1.
</event>
<event>
 5   0  0.6395992E-05  0.1849763E+04  0.7818609E-02  0.8680275E-01
        2   -1    0    0  501    0  0.00000000000E+00  0.00000000000E+00  0.76856849513E+03  0.76856849513E+03  0.25500000920E-02 0. -1.
       -2   -1    0    0    0  501  0.00000000000E+00  0.00000000000E+00 -0.11129854836E+04  0.11129854836E+04  0.25500000920E-02 0.  1.
    10030    2    1    2    0    0  0.00000000000E+00  0.00000000000E+00 -0.34441698851E+03  0.18815539788E+04  0.18497627721E+04 0.  0.
        4    1    3    3  502    0 -0.80544810472E+03  0.42776427031E+03 -0.15697066197E+02  0.91212769453E+03  0.12699999809E+01 0. -1.
       -4    1    3    3    0  502  0.80544810472E+03 -0.42776427031E+03 -0.32871992231E+03  0.96942628423E+03  0.12699999809E+01 0.  1.
</event>
<event>
 5   0  0.6098377E-05  0.1910740E+04  0.7818609E-02  0.8649529E-01
        2   -1    0    0  501    0  0.00000000000E+00  0.00000000000E+00  0.17177090685E+04  0.17177090685E+04  0.25500000920E-02 0. -1.
       -2   -1    0    0    0  501  0.00000000000E+00  0.00000000000E+00 -0.53136569992E+03  0.53136569993E+03  0.25500000920E-02 0.  1.
    10030    2    1    2    0    0  0.00000000000E+00  0.00000000000E+00  0.11863433686E+04  0.22490747684E+04  0.19107398373E+04 0.  0.
        5    1    3    3  502    0  0.50096438984E+03 -0.45669513683E+03 -0.19921057409E+03  0.70657109389E+03  0.46999998093E+01 0.  1.
       -5    1    3    3    0  502 -0.50096438984E+03  0.45669513683E+03  0.13855539427E+04  0.15425036745E+04  0.46999998093E+01 0. -1.
</event>
<event>
 5   0  0.3083469E-05  0.1886854E+04  0.7818609E-02  0.8661428E-01
       -1   -1    0    0    0  501  0.00000000000E+00  0.00000000000E+00  0.68761252957E+03  0.68761252959E+03  0.50400001928E-02 0. -1.
        1   -1    0    0  501    0  0.00000000000E+00  0.00000000000E+00 -0.12944122814E+04  0.12944122814E+04  0.50400001928E-02 0.  1.
    10030    2    1    2    0    0  0.00000000000E+00  0.00000000000E+00 -0.60679975185E+03  0.19820248110E+04  0.18868535748E+04 0.  0.
        3    1    3    3  502    0  0.66023586975E+01 -0.37701784138E+03 -0.12118129529E+04  0.12691243780E+04  0.10100000352E+00 0.  1.
       -3    1    3    3    0  502 -0.66023586975E+01  0.37701784138E+03  0.60501320100E+03  0.71290043305E+03  0.10100000352E+00 0. -1.
</event>
<event>
 5   0  0.6098377E-05  0.1899843E+04  0.7818609E-02  0.8654935E-01
        2   -1    0    0  501    0  0.00000000000E+00  0.00000000000E+00  0.84139626667E+03  0.84139626668E+03  0.25500000920E-02 0.  1.
       -2   -1    0    0    0  501  0.00000000000E+00  0.00000000000E+00 -0.10724440941E+04  0.10724440941E+04  0.25500000920E-02 0. -1.
    10030    2    1    2    0    0  0.00000000000E+00  0.00000000000E+00 -0.23104782745E+03  0.19138403608E+04  0.18998425798E+04 0.  0.
        5    1    3    3  502    0  0.63168170795E+03  0.63867108634E+03  0.19563020206E+03  0.91935618921E+03  0.46999998093E+01 0.  1.
       -5    1    3    3    0  502 -0.63168170795E+03 -0.63867108634E+03 -0.42667802950E+03  0.99448417159E+03  0.46999998093E+01 0. -1.
</event>
<event>
 5   0  0.3147063E-05  0.1883974E+04  0.7818609E-02  0.8662875E-01
        1   -1    0    0  501    0  0.00000000000E+00  0.00000000000E+00  0.21966245963E+04  0.21966245963E+04  0.50400001928E-02 0.  1.
       -1   -1    0    0    0  501  0.00000000000E+00  0.00000000000E+00 -0.40395581611E+03  0.40395581615E+03  0.50400001928E-02 0. -1.
    10030    2    1    2    0    0  0.00000000000E+00  0.00000000000E+00  0.17926687801E+04  0.26005804124E+04  0.18839737594E+04 0.  0.
        5    1    3    3  502    0 -0.69319976332E+03  0.36597431067E+03  0.17529221762E+03  0.80325124307E+03  0.46999998093E+01 0.  1.
       -5    1    3    3    0  502  0.69319976332E+03 -0.36597431067E+03  0.16173765625E+04  0.17973291693E+04  0.46999998093E+01 0. -1.
</event>
<event>
 5   0  0.6098377E-05  0.1901799E+04  0.7818609E-02  0.8653961E-01
       -2   -1    0    0    0  501  0.00000000000E+00  0.00000000000E+00  0.11049912641E+04  0.11049912641E+04  0.25500000920E-02 0. -1.
        2   -1    0    0  501    0  0.00000000000E+00  0.00000000000E+00 -0.81829607673E+03  0.81829607674E+03  0.25500000920E-02 0.  1.
    10030    2    1    2    0    0  0.00000000000E+00  0.00000000000E+00  0.28669518734E+03  0.19232873408E+04  0.19017991652E+04 0.  0.
        5    1    3    3  502    0 -0.47903559294E+03 -0.82296021160E+02  0.96985796783E+03  0.10848475940E+04  0.46999998093E+01 0. -1.
       -5    1    3    3    0  502  0.47903559294E+03  0.82296021160E+02 -0.68316278050E+03  0.83843974683E+03  0.46999998093E+01 0.  1.
</event>
<event>
 5   0  0.6423388E-05  0.1886698E+04  0.7818609E-02  0.8661506E-01
        2   -1    0    0  501    0  0.00000000000E+00  0.00000000000E+00  0.14213962222E+04  0.14213962222E+04  0.25500000920E-02 0. -1.
       -2   -1    0    0    0  501  0.00000000000E+00  0.00000000000E+00 -0.62607949198E+03  0.62607949199E+03  0.25500000920E-02 0.  1.
    10030    2    1    2    0    0  0.00000000000E+00  0.00000000000E+00  0.79531673024E+03  0.20474757142E+04  0.18866976702E+04 0.  0.
        2    1    3    3  502    0  0.79347246893E+03 -0.27426769484E+03 -0.69219060768E+02  0.84238506977E+03  0.25500000920E-02 0. -1.
       -2    1    3    3    0  502 -0.79347246893E+03  0.27426769484E+03  0.86453579101E+03  0.12050906444E+04  0.25500000920E-02 0.  1.
</event>
<event>
 5   0  0.3203527E-05  0.1899007E+04  0.7818609E-02  0.8655351E-01
        1   -1    0    0  501    0  0.00000000000E+00  0.00000000000E+00  0.12949686955E+04  0.12949686955E+04  0.50400001928E-02 0.  1.
       -1   -1    0    0    0  501  0.00000000000E+00  0.00000000000E+00 -0.69620009283E+03  0.69620009285E+03  0.50400001928E-02 0. -1.
    10030    2    1    2    0    0  0.00000000000E+00  0.00000000000E+00  0.59876860266E+03  0.19911687884E+04  0.18990074524E+04 0.  0.
        1    1    3    3  502    0 -0.27448943036E+03  0.28533449137E+03  0.12042839038E+04  0.12676986789E+04  0.50400001928E-02 0.  1.
       -1    1    3    3    0  502  0.27448943036E+03 -0.28533449137E+03 -0.60551530117E+03  0.72347010949E+03  0.50400001928E-02 0. -1.
</event>
<event>
 5   0  0.3083469E-05  0.1905467E+04  0.7818609E-02  0.8652140E-01
       -1   -1    0    0    0  501  0.00000000000E+00  0.00000000000E+00  0.50998182704E+03  0.50998182706E+03  0.50400001928E-02 0. -1.
        1   -1    0    0  501    0  0.00000000000E+00  0.00000000000E+00 -0.17798704628E+04  0.17798704628E+04  0.50400001928E-02 0.  1.
    10030    2    1    2    0    0  0.00000000000E+00  0.00000000000E+00 -0.12698886358E+04  0.22898522899E+04  0.19054674918E+04 0.  0.
        3    1    3    3  502    0  0.85976163567E+03  0.24473033034E+02 -0.11273777645E+04  0.14180160907E+04  0.10100000352E+00 0.  1.
       -3    1    3    3    0  502 -0.85976163567E+03 -0.24473033034E+02 -0.14251087129E+03  0.87183619916E+03  0.10100000352E+00 0. -1.
</event>
<event>
 5   0  0.6395992E-05  0.1899729E+04  0.7818609E-02  0.8654991E-01
        2   -1    0    0  501    0  0.00000000000E+00  0.00000000000E+00  0.20661495755E+04  0.20661495755E+04  0.25500000920E-02 0.  1.
       -2   -1    0    0    0  501  0.00000000000E+00  0.00000000000E+00 -0.43667822086E+03  0.43667822087E+03  0.25500000920E-02 0. -1.
    10030    2    1    2    0    0  0.00000000000E+00  0.00000000000E+00  0.16294713547E+04  0.25028277964E+04  0.18997289498E+04 0.  0.
        4    1    3    3  502    0 -0.17015866337E+02 -0.90660161973E+03  0.44204217560E+03  0.10087710020E+04  0.12699999809E+01 0.  1.
       -4    1    3    3    0  502  0.17015866337E+02  0.90660161973E+03  0.11874291791E+04  0.14940567944E+04  0.12699999809E+01 0. -1.
</event>
<event>
 5   0  0.6395992E-05  0.1895534E+04  0.7818609E-02  0.8657083E-01
       -2   -1    0    0    0  501  0.00000000000E+00  0.00000000000E+00  0.12022752627E+04  0.12022752627E+04  0.25500000920E-02 0.  1.
        2   -1    0    0  501    0  0.00000000000E+00  0.00000000000E+00 -0.74713502265E+03  0.74713502266E+03  0.25500000920E-02 0. -1.
    10030    2    1    2    0    0  0.00000000000E+00  0.00000000000E+00  0.45514024000E+03  0.19494102853E+04  0.18955336511E+04 0.  0.
        4    1    3    3  502    0  0.24957401306E+03 -0.65267374445E+03 -0.43093394380E+03  0.82096034101E+03  0.12699999809E+01 0. -1.
       -4    1    3    3    0  502 -0.24957401306E+03  0.65267374445E+03  0.88607418380E+03  0.11284499443E+04  0.12699999809E+01 0.  1.
</event>
<event>
 5   0  0.6361762E-05  0.1895593E+04  0.7818609E-02  0.8657053E-01
       -2   -1    0    0    0  501  0.00000000000E+00  0.00000000000E+00  0.50911723676E+03  0.50911723676E+03  0.25500000920E-02 0. -1.
        2   -1    0    0  501    0  0.00000000000E+00  0.00000000000E+00 -0.17644624353E+04  0.17644624353E+04  0.25500000920E-02 0.  1.
    10030    2    1    2    0    0  0.00000000000E+00  0.00000000000E+00 -0.12553451985E+04  0.22735796721E+04  0.18955930359E+04 0.  0.
        1    1    3    3  502    0  0.12299859504E+03 -0.43255617425E+03  0.37300949767E+03  0.58426841746E+03  0.50400001928E-02 0. -1.
       -1    1    3    3    0  502 -0.12299859504E+03  0.43255617425E+03 -0.16283546962E+04  0.16893112546E+04  0.50400001928E-02 0.  1.
</event>
<event>
 5   0  0.6098377E-05  0.1881356E+04  0.7818609E-02  0.8664193E-01
        2   -1    0    0  501    0  0.00000000000E+00  0.00000000000E+00  0.68525214379E+03  0.68525214379E+03  0.25500000920E-02 0. -1.
       -2   -1    0    0    0  501  0.00000000000E+00  0.00000000000E+00 -0.12913129124E+04  0.12913129124E+04  0.25500000920E-02 0.  1.
    10030    2    1    2    0    0  0.00000000000E+00  0.00000000000E+00 -0.60606076862E+03  0.19765650562E+04  0.18813558319E+04 0.  0.
        5    1    3    3  502    0  0.53741118182E+03  0.47239777941E+03 -0.94457389787E+03  0.11849946746E+04  0.46999998093E+01 0.  1.
       -5    1    3    3    0  502 -0.53741118182E+03 -0.47239777941E+03  0.33851312925E+03  0.79157038159E+03  0.46999998093E+01 0. -1.
</event>
<event>
 5   0  0.3083469E-05  0.1893992E+04  0.7818609E-02  0.8657853E-01
        1   -1    0    0  501    0  0.00000000000E+00  0.00000000000E+00  0.13532251092E+04  0.13532251092E+04  0.50400001928E-02 0.  1.
       -1   -1    0    0    0  501  0.00000000000E+00  0.00000000000E+00 -0.66271406252E+03  0.66271406254E+03  0.50400001928E-02 0. -1.
    10030    2    1    2    0    0  0.00000000000E+00  0.00000000000E+00  0.69051104667E+03  0.20159391717E+04  0.18939918792E+04 0.  0.
        3    1    3    3  502    0 -0.37686702373E+03 -0.86435753642E+03  0.43840359444E+03  0.10398751974E+04  0.10100000352E+00 0.  1.
       -3    1    3    3    0  502  0.37686702373E+03  0.86435753642E+03  0.25210745224E+03  0.97606397435E+03  0.10100000352E+00 0. -1.
</event>
<event>
 5   0  0.3203527E-05  0.1919565E+04  0.7818609E-02  0.8645178E-01
       -1   -1    0    0    0  501  0.00000000000E+00  0.00000000000E+00  0.50385295380E+03  0.50385295382E+03  0.50400001928E-02 0.  1.
        1   -1    0    0  501    0  0.00000000000E+00  0.00000000000E+00 -0.18282770645E+04  0.18282770645E+04  0.50400001928E-02 0. -1.
    10030    2    1    2    0    0  0.00000000000E+00  0.00000000000E+00 -0.13244241107E+04  0.23321300183E+04  0.19195653668E+04 0.  0.
        1    1    3    3  502    0 -0.80232275405E+03  0.26335559685E+03 -0.10798090622E+03  0.85131536354E+03  0.50400001928E-02 0.  1.
       -1    1    3    3    0  502  0.80232275405E+03 -0.26335559685E+03 -0.12164432044E+04  0.14808146547E+04  0.50400001928E-02 0. -1.
</event>
<event>
 5   0  0.6423388E-05  0.1901188E+04  0.7818609E-02  0.8654265E-01
       -2   -1    0    0    0  501  0.00000000000E+00  0.00000000000E+00  0.67613036765E+03  0.67613036765E+03  0.25500000920E-02 0.  1.
        2   -1    0    0  501    0  0.00000000000E+00  0.00000000000E+00 -0.13364714094E+04  0.13364714094E+04  0.25500000920E-02 0. -1.
    10030    2    1    2    0    0  0.00000000000E+00  0.00000000000E+00 -0.66034104171E+03  0.20126017770E+04  0.19011879501E+04 0.  0.
        2    1    3    3  502    0 -0.38295435312E+03 -0.63750016435E+03 -0.95695637701E+03  0.12119513207E+04  0.25500000920E-02 0. -1.
       -2    1    3    3    0  502  0.38295435312E+03  0.63750016435E+03  0.29661533531E+03  0.80065045636E+03  0.25500000920E-02 0.  1.
</event>
<event>
 5   0  0.3147063E-05  0.1870455E+04  0.7818609E-02  0.8669704E-01
        1   -1    0    0  501    0  0.00000000000E+00  0.00000000000E+00  0.20699221505E+04  0.20699221505E+04  0.50400001928E-02 0. -1.
       -1   -1    0    0    0  501  0.00000000000E+00  0.00000000000E+00 -0.42255256169E+03  0.42255256172E+03  0.50400001928E-02 0.  1.
    10030    2    1    2    0    0  0.00000000000E+00  0.00000000000E+00  0.16473695888E+04  0.24924747123E+04  0.18704554603E+04 0.  0.
        5    1    3    3  502    0 -0.73821208943E+03  0.37993282155E+03  0.13973358435E+04  0.16253847506E+04  0.46999998093E+01 0. -1.
       -5    1    3    3    0  502  0.73821208943E+03 -0.37993282155E+03  0.25003374536E+03  0.86708996170E+03  0.46999998093E+01 0.  1.
</event>
<event>
 5   0  0.3083469E-05  0.1902594E+04  0.7818609E-02  0.8653566E-01
       -1   -1    0    0    0  501  0.00000000000E+00  0.00000000000E+00  0.10374383212E+04  0.10374383212E+04  0.50400001928E-02 0.  1.
        1   -1    0    0  501    0  0.00000000000E+00  0.00000000000E+00 -0.87230850814E+03  0.87230850816E+03  0.50400001928E-02 0. -1.
    10030    2    1    2    0    0  0.00000000000E+00  0.00000000000E+00  0.16512981305E+03  0.19097468294E+04  0.19025943070E+04 0.  0.
        3    1    3    3  502    0 -0.70383439671E+03 -0.34123628076E+03 -0.46089566410E+03  0.90788208523E+03  0.10100000352E+00 0. -1.
       -3    1    3    3    0  502  0.70383439671E+03  0.34123628076E+03  0.62602547715E+03  0.10018647441E+04  0.10100000352E+00 0.  1.
</event>
<event>
 5   0  0.3086139E-05  0.1847864E+04  0.7818609E-02  0.8681252E-01
        1   -1    0    0  501    0  0.00000000000E+00  0.00000000000E+00  0.18592265377E+04  0.18592265378E+04  0.50400001928E-02 0. -1.
       -1   -1    0    0    0  501  0.00000000000E+00  0.00000000000E+00 -0.45914271606E+03  0.45914271608E+03  0.50400001928E-02 0.  1.
    10030    2    1    2    0    0  0.00000000000E+00  0.00000000000E+00  0.14000838217E+04  0.23183692538E+04  0.18478639802E+04 0.  0.
        2    1    3    3  502    0 -0.73174841393E+03 -0.12446704447E+03  0.97693051816E+01  0.74232285818E+03  0.25500000920E-02 0.  1.
       -2    1    3    3    0  502  0.73174841393E+03  0.12446704447E+03  0.13903145165E+04  0.15760463957E+04  0.25500000920E-02 0. -1.
</event>
<event>
 5   0  0.6423388E-05  0.1898180E+04  0.7818609E-02  0.8655763E-01
        2   -1    0    0  501    0  0.00000000000E+00  0.00000000000E+00  0.15261938915E+04  0.15261938915E+04  0.25500000920E-02 0. -1.
       -2   -1    0    0    0  501  0.00000000000E+00  0.00000000000E+00 -0.59020803555E+03  0.59020803556E+03  0.25500000920E-02 0.  1.
    10030    2    1    2    0    0  0.00000000000E+00  0.00000000000E+00  0.93598585593E+03  0.21164019270E+04  0.18981800743E+04 0.  0.
        2    1    3    3  502    0  0.53559437042E+03  0.29214686610E+03 -0.34261006786E+03  0.69970906783E+03  0.25500000920E-02 0.  1.
       -2    1    3    3    0  502 -0.53559437042E+03 -0.29214686610E+03  0.12785959238E+04  0.14166928592E+04  0.25500000920E-02 0. -1.
</event>
<event>
 5   0  0.6452182E-05  0.1901970E+04  0.7818609E-02  0.8653876E-01
        2   -1    0    0  501    0  0.00000000000E+00  0.00000000000E+00  0.27562506898E+04  0.27562506898E+04  0.25500000920E-02 0.  1.
       -2   -1    0    0    0  501  0.00000000000E+00  0.00000000000E+00 -0.32811699686E+03  0.32811699687E+03  0.25500000920E-02 0. -1.
    10030    2    1    2    0    0  0.00000000000E+00  0.00000000000E+00  0.24281336929E+04  0.30843676866E+04  0.19019702405E+04 0.  0.
        3    1    3    3  502    0 -0.98561053759E+02  0.41074163866E+02  0.27464987419E+04  0.27485735787E+04  0.10100000352E+00 0.  1.
       -3    1    3    3    0  502  0.98561053759E+02 -0.41074163866E+02 -0.31836504901E+03  0.33579410788E+03  0.10100000352E+00 0. -1.
</event>
<event>
 5   0  0.3147063E-05  0.1908183E+04  0.7818609E-02  0.8650794E-01
        1   -1    0    0  501    0  0.00000000000E+00  0.00000000000E+00  0.83994748804E+03  0.83994748806E+03  0.50400001928E-02 0.  1.
       -1   -1    0    0    0  501  0.00000000000E+00  0.00000000000E+00 -0.10837465132E+04  0.10837465133E+04  0.50400001928E-02 0. -1.
    10030    2    1    2    0    0  0.00000000000E+00  0.00000000000E+00 -0.24379902521E+03  0.19236940013E+04  0.19081825505E+04 0.  0.
        5    1    3    3  502    0 -0.72210857354E+03 -0.62211114635E+03 -0.79068848483E+02  0.95641886388E+03  0.46999998093E+01 0. -1.
       -5    1    3    3    0  502  0.72210857354E+03  0.62211114635E+03 -0.16473017672E+03  0.96727513744E+03  0.46999998093E+01 0.  1.
</event>
<event>
 5   0  0.3203527E-05  0.1902588E+04  0.7818609E-02  0.8653569E-01
       -1   -1    0    0    0  501  0.00000000000E+00  0.00000000000E+00  0.45233766710E+03  0.45233766713E+03  0.50400001928E-02 0. -1.
        1   -1    0    0  501    0  0.00000000000E+00  0.00000000000E+00 -0.20006297350E+04  0.20006297350E+04  0.50400001928E-02 0.  1.
    10030    2    1    2    0    0  0.00000000000E+00  0.00000000000E+00 -0.15482920679E+04  0.24529674021E+04  0.19025879082E+04 0.  0.
        1    1    3    3  502    0 -0.87264859986E+03  0.75594456327E+02 -0.29566860637E+03  0.92447283653E+03  0.50400001928E-02 0. -1.
       -1    1    3    3    0  502  0.87264859986E+03 -0.75594456327E+02 -0.12526234615E+04  0.15284945656E+04  0.50400001928E-02 0.  1.
</event>
<event>
 5   0  0.3147063E-05  0.1898619E+04  0.7818609E-02  0.8655544E-01
        1   -1    0    0  501    0  0.00000000000E+00  0.00000000000E+00  0.92746883946E+03  0.92746883948E+03  0.50400001928E-02 0. -1.
       -1   -1    0    0    0  501  0.00000000000E+00  0.00000000000E+00 -0.97166440509E+03  0.97166440510E+03  0.50400001928E-02 0.  1.
    10030    2    1    2    0    0  0.00000000000E+00  0.00000000000E+00 -0.44195565623E+02  0.18991332446E+04  0.18986189277E+04 0.  0.
        5    1    3    3  502    0 -0.80877604901E+03 -0.59433955883E+02 -0.51570412917E+03  0.96105355283E+03  0.46999998093E+01 0.  1.
       -5    1    3    3    0  502  0.80877604901E+03  0.59433955883E+02  0.47150856355E+03  0.93807969174E+03  0.46999998093E+01 0. -1.
</event>
<event>
 5   0  0.6098377E-05  0.1896416E+04  0.7818609E-02  0.8656642E-01
        2   -1    0    0  501    0  0.00000000000E+00  0.00000000000E+00  0.22119682729E+04  0.22119682729E+04  0.25500000920E-02 0. -1.
       -2   -1    0    0    0  501  0.00000000000E+00  0.00000000000E+00 -0.40646999398E+03  0.40646999399E+03  0.25500000920E-02 0.  1.
    10030    2    1    2    0    0  0.00000000000E+00  0.00000000000E+00  0.18054982789E+04  0.26184382669E+04  0.18964163368E+04 0.  0.
        5    1    3    3  502    0  0.69783385134E+03 -0.72091105782E+02  0.21991414804E+02  0.70190805946E+03  0.46999998093E+01 0.  1.
       -5    1    3    3    0  502 -0.69783385134E+03  0.72091105782E+02  0.17835068641E+04  0.19165302074E+04  0.46999998093E+01 0. -1.
</event>
<event>
 5   0  0.2279625E-05  0.1898529E+04  0.7818609E-02  0.8655589E-01
       -3   -1    0    0    0  501  0.00000000000E+00  0.00000000000E+00  0.63738337918E+03  0.63738338718E+03  0.10100000352E+00 0. -1.
        3   -1    0    0  501    0  0.00000000000E+00  0.00000000000E+00 -0.14137537617E+04  0.14137537653E+04  0.10100000352E+00 0.  1.
    10030    2    1    2    0    0  0.00000000000E+00  0.00000000000E+00 -0.77637038250E+03  0.20511371525E+04  0.18985290747E+04 0.  0.
        3    1    3    3  502    0 -0.61963152017E+03  0.71902736110E+03 -0.40183332552E+03  0.10307344947E+04  0.10100000352E+00 0. -1.
       -3    1    3    3    0  502  0.61963152017E+03 -0.71902736110E+03 -0.37453705697E+03  0.10204026578E+04  0.10100000352E+00 0.  1.
</event>
<event>
 5   0  0.6423388E-05  0.1900251E+04  0.7818609E-02  0.8654731E-01
       -2   -1    0    0    0  501  0.00000000000E+00  0.00000000000E+00  0.62365921155E+03  0.62365921156E+03  0.25500000920E-02 0.  1.
        2   -1    0    0  501    0  0.00000000000E+00  0.00000000000E+00 -0.14474870336E+04  0.14474870336E+04  0.25500000920E-02 0. -1.
    10030    2    1    2    0    0  0.00000000000E+00  0.00000000000E+00 -0.82382782206E+03  0.20711462452E+04  0.19002511646E+04 0.  0.
        2    1    3    3  502    0  0.76004287728E+03  0.81211663151E+02  0.20317734586E+03  0.79091184301E+03  0.25500000920E-02 0.  1.
       -2    1    3    3    0  502 -0.76004287728E+03 -0.81211663151E+02 -0.10270051679E+04  0.12802344022E+04  0.25500000920E-02 0. -1.
</event>
<event>
 5   0  0.6423388E-05  0.1890233E+04  0.7818609E-02  0.8659733E-01
        2   -1    0    0  501    0  0.00000000000E+00  0.00000000000E+00  0.10413499085E+04  0.10413499085E+04  0.25500000920E-02 0.  1.
       -2   -1    0    0    0  501  0.00000000000E+00  0.00000000000E+00 -0.85777600040E+03  0.85777600040E+03  0.25500000920E-02 0. -1.
    10030    2    1    2    0    0  0.00000000000E+00  0.00000000000E+00  0.18357390812E+03  0.18991259089E+04  0.18902327471E+04 0.  0.
        2    1    3    3  502    0 -0.24293386425E+03  0.33428782926E+03 -0.76220015237E+03  0.86701458320E+03  0.25500000920E-02 0. -1.
       -2    1    3    3    0  502  0.24293386425E+03 -0.33428782926E+03  0.94577406049E+03  0.10321113257E+04  0.25500000920E-02 0.  1.
</event>
<event>
 5   0  0.6098377E-05  0.1893460E+04  0.7818609E-02  0.8658119E-01
       -2   -1    0    0    0  501  0.00000000000E+00  0.00000000000E+00  0.71492897427E+03  0.71492897428E+03  0.25500000920E-02 0.  1.
        2   -1    0    0  501    0  0.00000000000E+00  0.00000000000E+00 -0.12536877598E+04  0.12536877598E+04  0.25500000920E-02 0. -1.
    10030    2    1    2    0    0  0.00000000000E+00  0.00000000000E+00 -0.53875878553E+03  0.19686167341E+04  0.18934600119E+04 0.  0.
        5    1    3    3  502    0  0.12373039260E+03  0.47070483437E+03 -0.11136479468E+04  0.12153625347E+04  0.46999998093E+01 0. -1.
       -5    1    3    3    0  502 -0.12373039260E+03 -0.47070483437E+03  0.57488916131E+03  0.75325419942E+03  0.46999998093E+01 0.  1.
</event>
<event>
 5   0  0.6361762E-05  0.1908097E+04  0.7818609E-02  0.8650837E-01
       -2   -1    0    0    0  501  0.00000000000E+00  0.00000000000E+00  0.99180910544E+03  0.99180910545E+03  0.25500000920E-02 0. -1.
        2   -1    0    0  501    0  0.00000000000E+00  0.00000000000E+00 -0.91772522852E+03  0.91772522853E+03  0.25500000920E-02 0.  1.
    10030    2    1    2    0    0  0.00000000000E+00  0.00000000000E+00  0.74083876920E+02  0.19095343340E+04  0.19080966830E+04 0.  0.
        1    1    3    3  502    0  0.84285072301E+03  0.43950646695E+03 -0.44536117313E+02  0.95160219711E+03  0.50400001928E-02 0.  1.
       -1    1    3    3    0  502 -0.84285072301E+03 -0.43950646695E+03  0.11861999423E+03  0.95793213686E+03  0.50400001928E-02 0. -1.
</event>
<event>
 5   0  0.6423388E-05  0.1887269E+04  0.7818609E-02  0.8661219E-01
        2   -1    0    0  501    0  0.00000000000E+00  0.00000000000E+00  0.74803222150E+03  0.74803222151E+03  0.25500000920E-02 0. -1.
       -2   -1    0    0    0  501  0.00000000000E+00  0.00000000000E+00 -0.11903852587E+04  0.11903852587E+04  0.25500000920E-02 0.  1.
    10030    2    1    2    0    0  0.00000000000E+00  0.00000000000E+00 -0.44235303715E+03  0.19384174802E+04  0.18872694874E+04 0.  0.
        2    1    3    3  502    0  0.17991790483E+03  0.97448555675E+02 -0.11673260052E+04  0.11851230637E+04  0.25500000920E-02 0.  1.
       -2    1    3    3    0  502 -0.17991790483E+03 -0.97448555675E+02  0.72497296809E+03  0.75329441651E+03  0.25500000920E-02 0. -1.
</event>
<event>
 5   0  0.6361762E-05  0.1899700E+04  0.7818609E-02  0.8655006E-01
       -2   -1    0    0    0  501  0.00000000000E+00  0.00000000000E+00  0.33684139771E+03  0.33684139772E+03  0.25500000920E-02 0.  1.
        2   -1    0    0  501    0  0.00000000000E+00  0.00000000000E+00 -0.26784570637E+04  0.26784570638E+04  0.25500000920E-02 0. -1.
    10030    2    1    2    0    0  0.00000000000E+00  0.00000000000E+00 -0.23416156660E+04  0.30152984615E+04  0.18997002091E+04 0.  0.
        1    1    3    3  502    0 -0.71517498372E+02  0.93982157015E+03 -0.13575097184E+04  0.16526378829E+04  0.50400001928E-02 0. -1.
       -1    1    3    3    0  502  0.71517498372E+02 -0.93982157015E+03 -0.98410594764E+03  0.13626605786E+04  0.50400001928E-02 0.  1.
</event>
<event>
 5   0  0.3144958E-05  0.1896629E+04  0.7818609E-02  0.8656536E-01
        1   -1    0    0  501    0  0.00000000000E+00  0.00000000000E+00  0.77913513071E+03  0.77913513073E+03  0.50400001928E-02 0.  1.
       -1   -1    0    0    0  501  0.00000000000E+00  0.00000000000E+00 -0.11542294987E+04  0.11542294987E+04  0.50400001928E-02 0. -1.
    10030    2    1    2    0    0  0.00000000000E+00  0.00000000000E+00 -0.37509436798E+03  0.19333646294E+04  0.18966293801E+04 0.  0.
        4    1    3    3  502    0 -0.41803095244E+03 -0.48985605015E+03 -0.89715543825E+03  0.11043542549E+04  0.12699999809E+01 0. -1.
       -4    1    3    3    0  502  0.41803095244E+03  0.48985605015E+03  0.52206107027E+03  0.82901037452E+03  0.12699999809E+01 0.  1.
</event>
<event>
 5   0  0.3144958E-05  0.1896356E+04  0.7818609E-02  0.8656672E-01
        1   -1    0    0  501    0  0.00000000000E+00  0.00000000000E+00  0.75687365728E+03  0.75687365730E+03  0.50400001928E-02 0. -1.
       -1   -1    0    0    0  501  0.00000000000E+00  0.00000000000E+00 -0.11878356975E+04  0.11878356975E+04  0.50400001928E-02 0.  1.
    10030    2    1    2    0    0  0.00000000000E+00  0.00000000000E+00 -0.43096204023E+03  0.19447093548E+04  0.18963560305E+04 0.  0.
        4    1    3    3  502    0  0.33656558465E+03  0.55256052077E+02 -0.11227485202E+04  0.11734118955E+04  0.12699999809E+01 0.  1.
       -4    1    3    3    0  502 -0.33656558465E+03 -0.55256052077E+02  0.69178647993E+03  0.77129745933E+03  0.12699999809E+01 0. -1.
</event>
<event>
 5   0  0.3144958E-05  0.1902989E+04  0.7818609E-02  0.8653370E-01
       -1   -1    0    0    0  501  0.00000000000E+00  0.00000000000E+00  0.13827670832E+04  0.13827670832E+04  0.50400001928E-02 0. -1.
        1   -1    0    0  501    0  0.00000000000E+00  0.00000000000E+00 -0.65473215247E+03  0.65473215249E+03  0.50400001928E-02 0.  1.
    10030    2    1    2    0    0  0.00000000000E+00  0.00000000000E+00  0.72803493076E+03  0.20374992357E+04  0.19029892998E+04 0.  0.
        4    1    3    3  502    0  0.67399893769E+03  0.41474282474E+03  0.92961232008E+03  0.12208467788E+04  0.12699999809E+01 0. -1.
       -4    1    3    3    0  502 -0.67399893769E+03 -0.41474282474E+03 -0.20157738931E+03  0.81665245696E+03  0.12699999809E+01 0.  1.
</event>
<event>
 5   0  0.6395992E-05  0.1896310E+04  0.7818609E-02  0.8656696E-01
       -2   -1    0    0    0  501  0.00000000000E+00  0.00000000000E+00  0.65831923046E+03  0.65831923047E+03  0.25500000920E-02 0. -1.
        2   -1    0    0  501    0  0.00000000000E+00  0.00000000000E+00 -0.13655950210E+04  0.13655950210E+04  0.25500000920E-02 0.  1.
    10030    2    1    2    0    0  0.00000000000E+00  0.00000000000E+00 -0.70727579051E+03  0.20239142514E+04  0.18963095352E+04 0.  0.
        4    1    3    3  502    0  0.14262366943E+02  0.92898795712E+03 -0.55550496685E+03  0.10825014645E+04  0.12699999809E+01 0.  1.
       -4    1    3    3    0  502 -0.14262366943E+02 -0.92898795712E+03 -0.15177082366E+03  0.94141278693E+03  0.12699999809E+01 0. -1.
</event>
<event>
 5   0  0.3147063E-05  0.1893179E+04  0.7818609E-02  0.8658259E-01
       -1   -1    0    0    0  501  0.00000000000E+00  0.00000000000E+00  0.77768133469E+03  0.77768133471E+03  0.50400001928E-02 0.  1.
        1   -1    0    0  501    0  0.00000000000E+00  0.00000000000E+00 -0.11521832727E+04  0.11521832727E+04  0.50400001928E-02 0. -1.
    10030    2    1    2    0    0  0.00000000000E+00  0.00000000000E+00 -0.37450193804E+03  0.19298646075E+04  0.18931787294E+04 0.  0.
        5    1    3    3  502    0 -0.50288924805E+03 -0.70348446209E+03 -0.57970664009E+03  0.10410907082E+04  0.46999998093E+01 0. -1.
       -5    1    3    3    0  502  0.50288924805E+03  0.70348446209E+03  0.20520470204E+03  0.88877389923E+03  0.46999998093E+01 0.  1.
</event>
<event>
 5   0  0.3086139E-05  0.1864320E+04  0.7818609E-02  0.8672823E-01
       -1   -1    0    0    0  501  0.00000000000E+00  0.00000000000E+00  0.60028527981E+03  0.60028527983E+03  0.50400001928E-02 0.  1.
        1   -1    0    0  501    0  0.00000000000E+00  0.00000000000E+00 -0.14475158905E+04  0.14475158905E+04  0.50400001928E-02 0. -1.
    10030    2    1    2    0    0  0.00000000000E+00  0.00000000000E+00 -0.84723061070E+03  0.20478011703E+04  0.18643202315E+04 0.  0.
        2    1    3    3  502    0 -0.46064828755E+03 -0.76642638122E+03 -0.13442430820E+03  0.90425446490E+03  0.25500000920E-02 0.  1.
       -2    1    3    3    0  502  0.46064828755E+03  0.76642638122E+03 -0.71280630250E+03  0.11435467054E+04  0.25500000920E-02 0. -1.
</event>
<event>
 5   0  0.3144958E-05  0.1892662E+04  0.7818609E-02  0.8658518E-01
        1   -1    0    0  501    0  0.00000000000E+00  0.00000000000E+00  0.11553657116E+04  0.11553657116E+04  0.50400001928E-02 0.  1.
       -1   -1    0    0    0  501  0.00000000000E+00  0.00000000000E+00 -0.77511577068E+03  0.77511577070E+03  0.50400001928E-02 0. -1.
    10030    2    1    2    0    0  0.00000000000E+00  0.00000000000E+00  0.38024994089E+03  0.19304814823E+04  0.18926618123E+04 0.  0.
        4    1    3    3  502    0  0.91709690089E+03 -0.10891365536E+03  0.40067574955E+03  0.10067132557E+04  0.12699999809E+01 0.  1.
       -4    1    3    3    0  502 -0.91709690089E+03  0.10891365536E+03 -0.20425808664E+02  0.92376822661E+03  0.12699999809E+01 0. -1.
</event>
<event>
 5   0  0.3144958E-05  0.1907149E+04  0.7818609E-02  0.8651306E-01
       -1   -1    0    0    0  501  0.00000000000E+00  0.00000000000E+00  0.52256789837E+03  0.52256789840E+03  0.50400001928E-02 0.  1.
        1   -1    0    0  501    0  0.00000000000E+00  0.00000000000E+00 -0.17400696315E+04  0.17400696315E+04  0.50400001928E-02 0. -1.
    10030    2    1    2    0    0  0.00000000000E+00  0.00000000000E+00 -0.12175017331E+04  0.22626375299E+04  0.19071492132E+04 0.  0.
        4    1    3    3  502    0 -0.55808996320E+03  0.15040243195E+03  0.29104999221E+03  0.64714527691E+03  0.12699999809E+01 0.  1.
       -4    1    3    3    0  502  0.55808996320E+03 -0.15040243195E+03 -0.15085517253E+04  0.16154922530E+04  0.12699999809E+01 0. -1.
</event>
<event>
 5   0  0.6452182E-05  0.1836082E+04  0.7818609E-02  0.8687343E-01
        2   -1    0    0  501    0  0.00000000000E+00  0.00000000000E+00  0.15169980035E+04  0.15169980035E+04  0.25500000920E-02 0.  1.
       -2   -1    0    0    0  501  0.00000000000E+00  0.00000000000E+00 -0.55557070238E+03  0.55557070238E+03  0.25500000920E-02 0. -1.
    10030    2    1    2    0    0  0.00000000000E+00  0.00000000000E+00  0.96142730115E+03  0.20725687059E+04  0.18360824016E+04 0.  0.
        3    1    3    3  502    0 -0.83040912487E+03  0.22931429401E+03  0.83880340021E+03  0.12023957396E+04  0.10100000352E+00 0. -1.
       -3    1    3    3    0  502  0.83040912487E+03 -0.22931429401E+03  0.12262390094E+03  0.87017296636E+03  0.10100000352E+00 0.  1.
</event>
<event>
 5   0  0.3086139E-05  0.1857701E+04  0.7818609E-02  0.8676202E-01
        1   -1    0    0  501    0  0.00000000000E+00  0.00000000000E+00  0.19019857604E+04  0.19019857604E+04  0.50400001928E-02 0. -1.
       -1   -1    0    0    0  501  0.00000000000E+00  0.00000000000E+00 -0.45361206516E+03  0.45361206519E+03  0.50400001928E-02 0.  1.
    10030    2    1    2    0    0  0.00000000000E+00  0.00000000000E+00  0.14483736952E+04  0.23555978255E+04  0.18577014708E+04 0.  0.
        2    1    3    3  502    0 -0.32146681942E+03 -0.12852908004E+03 -0.36874049198E+03  0.50579659037E+03  0.25500000920E-02 0.  1.
       -2    1    3    3    0  502  0.32146681942E+03  0.12852908004E+03  0.18171141872E+04  0.18498012352E+04  0.25500000920E-02 0. -1.
</event>
<event>
 5   0  0.6452182E-05  0.1895579E+04  0.7818609E-02  0.8657060E-01
        2   -1    0    0  501    0  0.00000000000E+00  0.00000000000E+00  0.80925966947E+03  0.80925966947E+03  0.25500000920E-02 0.  1.
       -2   -1    0    0    0  501  0.00000000000E+00  0.00000000000E+00 -0.11100329298E+04  0.11100329298E+04  0.25500000920E-02 0. -1.
    10030    2    1    2    0    0  0.00000000000E+00  0.00000000000E+00 -0.30077326035E+03  0.19192925993E+04  0.18955789426E+04 0.  0.
        3    1    3    3  502    0  0.74412194158E+03  0.56293426845E+03  0.18105548395E+02  0.93324180983E+03  0.10100000352E+00 0.  1.
       -3    1    3    3    0  502 -0.74412194158E+03 -0.56293426845E+03 -0.31887880875E+03  0.98605078946E+03  0.10100000352E+00 0. -1.
</event>
<event>
 5   0  0.3147063E-05  0.1894750E+04  0.7818609E-02  0.8657474E-01
       -1   -1    0    0    0  501  0.00000000000E+00  0.00000000000E+00  0.77171266656E+03  0.77171266658E+03  0.50400001928E-02 0. -1.
        1   -1    0    0  501    0  0.00000000000E+00  0.00000000000E+00 -0.11630224559E+04  0.11630224559E+04  0.50400001928E-02 0.  1.
    10030    2    1    2    0    0  0.00000000000E+00  0.00000000000E+00 -0.39130978937E+03  0.19347351225E+04  0.18947497574E+04 0.  0.
        5    1    3    3  502    0 -0.24085749993E+03  0.55499310066E+03 -0.94005764355E+03  0.11179267151E+04  0.46999998093E+01 0.  1.
       -5    1    3    3    0  502  0.24085749993E+03 -0.55499310066E+03  0.54874785417E+03  0.81680840747E+03  0.46999998093E+01 0. -1.
</event>
<event>
 5   0  0.6452182E-05  0.1903811E+04  0.7818609E-02  0.8652962E-01
        2   -1    0    0  501    0  0.00000000000E+00  0.00000000000E+00  0.62806270432E+03  0.62806270433E+03  0.25500000920E-02 0.  1.
       -2   -1    0    0    0  501  0.00000000000E+00  0.00000000000E+00 -0.14427280739E+04  0.14427280739E+04  0.25500000920E-02 0. -1.
    10030    2    1    2    0    0  0.00000000000E+00  0.00000000000E+00 -0.81466536958E+03  0.20707907782E+04  0.19038105953E+04 0.  0.
        3    1    3    3  502    0 -0.73508295699E+03  0.53112986766E+03 -0.72197533973E+03  0.11591782828E+04  0.10100000352E+00 0. -1.
       -3    1    3    3    0  502  0.73508295699E+03 -0.53112986766E+03 -0.92690029850E+02  0.91161249542E+03  0.10100000352E+00 0.  1.
</event>
<event>
 5   0  0.3083469E-05  0.1913439E+04  0.7818609E-02  0.8648196E-01
       -1   -1    0    0    0  501  0.00000000000E+00  0.00000000000E+00  0.67899897524E+03  0.67899897526E+03  0.50400001928E-02 0.  1.
        1   -1    0    0  501    0  0.00000000000E+00  0.00000000000E+00 -0.13480317936E+04  0.13480317936E+04  0.50400001928E-02 0. -1.
    10030    2    1    2    0    0  0.00000000000E+00  0.00000000000E+00 -0.66903281835E+03  0.20270307689E+04  0.19134390050E+04 0.  0.
        3    1    3    3  502    0 -0.55876346506E+03 -0.44681181372E+03  0.33837216826E+03  0.79142475398E+03  0.10100000352E+00 0.  1.
       -3    1    3    3    0  502  0.55876346506E+03  0.44681181372E+03 -0.10074049866E+04  0.12356060149E+04  0.10100000352E+00 0. -1.
</event>
<event>
 5   0  0.3147063E-05  0.1909036E+04  0.7818609E-02  0.8650372E-01
       -1   -1    0    0    0  501  0.00000000000E+00  0.00000000000E+00  0.60464870669E+03  0.60464870671E+03  0.50400001928E-02 0. -1.
        1   -1    0    0  501    0  0.00000000000E+00  0.00000000000E+00 -0.15068330524E+04  0.15068330524E+04  0.50400001928E-02 0.  1.
    10030    2    1    2    0    0  0.00000000000E+00  0.00000000000E+00 -0.90218434571E+03  0.21114817591E+04  0.19090360461E+04 0.  0.
        5    1    3    3  502    0 -0.92024121242E+03 -0.18711329336E+03 -0.26200263507E+03  0.97494755980E+03  0.46999998093E+01 0. -1.
       -5    1    3    3    0  502  0.92024121242E+03  0.18711329336E+03 -0.64018171064E+03  0.11365341993E+04  0.46999998093E+01 0.  1.
</event>
<event>
 5   0  0.6098377E-05  0.1901965E+04  0.7818609E-02  0.8653879E-01
       -2   -1    0    0    0  501  0.00000000000E+00  0.00000000000E+00  0.63646241768E+03  0.63646241769E+03  0.25500000920E-02 0. -1.
        2   -1    0    0  501    0  0.00000000000E+00  0.00000000000E+00 -0.14209285590E+04  0.14209285590E+04  0.25500000920E-02 0.  1.
    10030    2    1    2    0    0  0.00000000000E+00  0.00000000000E+00 -0.78446614133E+03  0.20573909767E+04  0.19019649061E+04 0.  0.
        5    1    3    3  502    0 -0.41269024255E+03  0.17141124455E+03 -0.13002651861E+04  0.13749206142E+04  0.46999998093E+01 0.  1.
       -5    1    3    3    0  502  0.41269024255E+03 -0.17141124455E+03  0.51579904482E+03  0.68247036250E+03  0.46999998093E+01 0. -1.
</event>
<event>
 5   0  0.3083469E-05  0.1900481E+04  0.7818609E-02  0.8654617E-01
        1   -1    0    0  501    0  0.00000000000E+00  0.00000000000E+00  0.11340962363E+04  0.11340962363E+04  0.50400001928E-02 0.  1.
       -1   -1    0    0    0  501  0.00000000000E+00  0.00000000000E+00 -0.79619067103E+03  0.79619067104E+03  0.50400001928E-02 0. -1.
    10030    2    1    2    0    0  0.00000000000E+00  0.00000000000E+00  0.33790556529E+03  0.19302869074E+04  0.19004808270E+04 0.  0.
        3    1    3    3  502    0 -0.81030653761E+03 -0.47591085192E+03  0.25784610732E+02  0.94008120937E+03  0.10100000352E+00 0. -1.
       -3    1    3    3    0  502  0.81030653761E+03  0.47591085192E+03  0.31212095455E+03  0.99020569799E+03  0.10100000352E+00 0.  1.
</event>
<event>
 5   0  0.3086139E-05  0.1897457E+04  0.7818609E-02  0.8656123E-01
        1   -1    0    0  501    0  0.00000000000E+00  0.00000000000E+00  0.20704047340E+04  0.20704047340E+04  0.50400001928E-02 0. -1.
       -1   -1    0    0    0  501  0.00000000000E+00  0.00000000000E+00 -0.43473915414E+03  0.43473915416E+03  0.50400001928E-02 0.  1.
    10030    2    1    2    0    0  0.00000000000E+00  0.00000000000E+00  0.16356655798E+04  0.25051438881E+04  0.18974572489E+04 0.  0.
        2    1    3    3  502    0  0.65951607672E+03 -0.37685969681E+03  0.15682970934E+04  0.17425672038E+04  0.25500000920E-02 0. -1.
       -2    1    3    3    0  502 -0.65951607672E+03  0.37685969681E+03  0.67368486414E+02  0.76257668434E+03  0.25500000920E-02 0.  1.
</event>
<event>
 5   0  0.6423388E-05  0.1907380E+04  0.7818609E-02  0.8651192E-01
       -2   -1    0    0    0  501  0.00000000000E+00  0.00000000000E+00  0.12472730137E+04  0.12472730137E+04  0.25500000920E-02 0. -1.
        2   -1    0    0  501    0  0.00000000000E+00  0.00000000000E+00 -0.72921052302E+03  0.72921052302E+03  0.25500000920E-02 0.  1.
    10030    2    1    2    0    0  0.00000000000E+00  0.00000000000E+00  0.51806249063E+03  0.19764835367E+04  0.19073799901E+04 0.  0.
        2    1    3    3  502    0 -0.93465816018E+02  0.49700782863E+03  0.10968867474E+04  0.12078547831E+04  0.25500000920E-02 0. -1.
       -2    1    3    3    0  502  0.93465816018E+02 -0.49700782863E+03 -0.57882425680E+03  0.76862875353E+03  0.25500000920E-02 0.  1.
</event>
<event>
 5   0  0.6423388E-05  0.1899019E+04  0.7818609E-02  0.8655345E-01
       -2   -1    0    0    0  501  0.00000000000E+00  0.00000000000E+00  0.45321382656E+03  0.45321382657E+03  0.25500000920E-02 0. -1.
        2   -1    0    0  501    0  0.00000000000E+00  0.00000000000E+00 -0.19892789916E+04  0.19892789916E+04  0.25500000920E-02 0.  1.
    10030    2    1    2    0    0  0.00000000000E+00  0.00000000000E+00 -0.15360651651E+04  0.24424928182E+04  0.18990194774E+04 0.  0.
        2    1    3    3  502    0 -0.19572460642E+03  0.91096593586E+03 -0.53296752762E+03  0.10734157831E+04  0.25500000920E-02 0. -1.
       -2    1    3    3    0  502  0.19572460642E+03 -0.91096593586E+03 -0.10030976375E+04  0.13690770351E+04  0.25500000920E-02 0.  1.
</event>
<event>
 5   0  0.6395992E-05  0.1901327E+04  0.7818609E-02  0.8654196E-01
       -2   -1    0    0    0  501  0.00000000000E+00  0.00000000000E+00  0.50225642729E+03  0.50225642730E+03  0.25500000920E-02 0.  1.
        2   -1    0    0  501    0  0.00000000000E+00  0.00000000000E+00 -0.17994018433E+04  0.17994018433E+04  0.25500000920E-02 0. -1.
    10030    2    1    2    0    0  0.00000000000E+00  0.00000000000E+00 -0.12971454160E+04  0.23016582706E+04  0.19013270535E+04 0.  0.
        4    1    3    3  502    0 -0.89367162035E+02 -0.76776084071E+03 -0.13185638969E+04  0.15284160302E+04  0.12699999809E+01 0. -1.
       -4    1    3    3    0  502  0.89367162035E+02  0.76776084071E+03  0.21418480891E+02  0.77324224044E+03  0.12699999809E+01 0.  1.
</event>
<event>
 5   0  0.6361762E-05  0.1894875E+04  0.7818609E-02  0.8657412E-01
        2   -1    0    0  501    0  0.00000000000E+00  0.00000000000E+00  0.12984748439E+04  0.12984748439E+04  0.25500000920E-02 0. -1.
       -2   -1    0    0    0  501  0.00000000000E+00  0.00000000000E+00 -0.69130152560E+03  0.69130152561E+03  0.25500000920E-02 0.  1.
    10030    2    1    2    0    0  0.00000000000E+00  0.00000000000E+00  0.60717331828E+03  0.19897763695E+04  0.18948748144E+04 0.  0.
        1    1    3    3  502    0  0.17752610404E+02 -0.21664941850E+03 -0.66476181475E+03  0.69940002580E+03  0.50400001928E-02 0.  1.
       -1    1    3    3    0  502 -0.17752610404E+02  0.21664941850E+03  0.12719351330E+04  0.12903763437E+04  0.50400001928E-02 0. -1.
</event>
<event>
 5   0  0.2279625E-05  0.1897177E+04  0.7818609E-02  0.8656263E-01
       -4   -1    0    0    0  501  0.00000000000E+00  0.00000000000E+00  0.77962929497E+03  0.77963032937E+03  0.12699999809E+01 0. -1.
        4   -1    0    0  501    0  0.00000000000E+00  0.00000000000E+00 -0.11541625436E+04  0.11541632423E+04  0.12699999809E+01 0.  1.
    10030    2    1    2    0    0  0.00000000000E+00  0.00000000000E+00 -0.37453324864E+03  0.19337935717E+04  0.18971774887E+04 0.  0.
        1    1    3    3  502    0  0.29605852721E+03 -0.88461255916E+03 -0.36272422475E+03  0.10008790609E+04  0.50400001928E-02 0. -1.
       -1    1    3    3    0  502 -0.29605852721E+03  0.88461255916E+03 -0.11809023893E+02  0.93291451078E+03  0.50400001928E-02 0.  1.
</event>
<event>
 5   0  0.6395992E-05  0.1918816E+04  0.7818609E-02  0.8645547E-01
        2   -1    0    0  501    0  0.00000000000E+00  0.00000000000E+00  0.16133903060E+04  0.16133903060E+04  0.25500000920E-02 0. -1.
       -2   -1    0    0    0  501  0.00000000000E+00  0.00000000000E+00 -0.57051492966E+03  0.57051492967E+03  0.25500000920E-02 0.  1.
    10030    2    1    2    0    0  0.00000000000E+00  0.00000000000E+00  0.10428753763E+04  0.21839052356E+04  0.19188155273E+04 0.  0.
        4    1    3    3  502    0  0.56590069369E+03  0.68985204353E+03  0.12013236471E+03  0.90031818544E+03  0.12699999809E+01 0.  1.
       -4    1    3    3    0  502 -0.56590069369E+03 -0.68985204353E+03  0.92274301159E+03  0.12835870502E+04  0.12699999809E+01 0. -1.
</event>
<event>
 5   0  0.6452182E-05  0.1889099E+04  0.7818609E-02  0.8660302E-01
       -2   -1    0    0    0  501  0.00000000000E+00  0.00000000000E+00  0.64508349409E+03  0.64508349409E+03  0.25500000920E-02 0.  1.
        2   -1    0    0  501    0  0.00000000000E+00  0.00000000000E+00 -0.13830353950E+04  0.13830353950E+04  0.25500000920E-02 0. -1.
    10030    2    1    2    0    0  0.00000000000E+00  0.00000000000E+00 -0.73795190089E+03  0.20281188891E+04  0.18890985205E+04 0.  0.
        3    1    3    3  502    0  0.11449366060E+03  0.90010847189E+03 -0.65071784623E+03  0.11165741288E+04  0.10100000352E+00 0.  1.
       -3    1    3    3    0  502 -0.11449366060E+03 -0.90010847189E+03 -0.87234054660E+02  0.91154476027E+03  0.10100000352E+00 0. -1.
</event>
<event>
 5   0  0.2279625E-05  0.1904490E+04  0.7818609E-02  0.8652624E-01
       -3   -1    0    0    0  501  0.00000000000E+00  0.00000000000E+00  0.68336222481E+03  0.68336223227E+03  0.10100000352E+00 0.  1.
        3   -1    0    0  501    0  0.00000000000E+00  0.00000000000E+00 -0.13269255827E+04  0.13269255865E+04  0.10100000352E+00 0. -1.
    10030    2    1    2    0    0  0.00000000000E+00  0.00000000000E+00 -0.64356335789E+03  0.20102878188E+04  0.19044903042E+04 0.  0.
        5    1    3    3  502    0  0.18093227698E+03 -0.72823608645E+03  0.29703130658E+03  0.80704025522E+03  0.46999998093E+01 0.  1.
       -5    1    3    3    0  502 -0.18093227698E+03  0.72823608645E+03 -0.94059466447E+03  0.12032475636E+04  0.46999998093E+01 0. -1.
</event>
<event>
 5   0  0.3083469E-05  0.1895410E+04  0.7818609E-02  0.8657145E-01
       -1   -1    0    0    0  501  0.00000000000E+00  0.00000000000E+00  0.81124299226E+03  0.81124299228E+03  0.50400001928E-02 0. -1.
        1   -1    0    0  501    0  0.00000000000E+00  0.00000000000E+00 -0.11071214561E+04  0.11071214561E+04  0.50400001928E-02 0.  1.
    10030    2    1    2    0    0  0.00000000000E+00  0.00000000000E+00 -0.29587846379E+03  0.19183644483E+04  0.18954097423E+04 0.  0.
        3    1    3    3  502    0  0.17046693677E+03 -0.74452118567E+03 -0.71578089769E+03  0.10467631423E+04  0.10100000352E+00 0.  1.
       -3    1    3    3    0  502 -0.17046693677E+03  0.74452118567E+03  0.41990243390E+03  0.87160130601E+03  0.10100000352E+00 0. -1.
</event>
<event>
 5   0  0.6098377E-05  0.1897859E+04  0.7818609E-02  0.8655923E-01
       -2   -1    0    0    0  501  0.00000000000E+00  0.00000000000E+00  0.13704643919E+04  0.13704643919E+04  0.25500000920E-02 0.  1.
        2   -1    0    0  501    0  0.00000000000E+00  0.00000000000E+00 -0.65705231822E+03  0.65705231822E+03  0.25500000920E-02 0. -1.
    10030    2    1    2    0    0  0.00000000000E+00  0.00000000000E+00  0.71341207370E+03  0.20275167101E+04  0.18978585888E+04 0.  0.
        5    1    3    3  502    0  0.54580857387E+02  0.22284017135E+03 -0.62696372906E+03  0.66763943826E+03  0.46999998093E+01 0. -1.
       -5    1    3    3    0  502 -0.54580857387E+02 -0.22284017135E+03  0.13403758028E+04  0.13598772719E+04  0.46999998093E+01 0.  1.
</event>
<event>
 5   0  0.3144958E-05  0.1868877E+04  0.7818609E-02  0.8670505E-01
       -1   -1    0    0    0  501  0.00000000000E+00  0.00000000000E+00  0.12052655151E+04  0.12052655151E+04  0.50400001928E-02 0.  1.
        1   -1    0    0  501    0  0.00000000000E+00  0.00000000000E+00 -0.72446739682E+03  0.72446739684E+03  0.50400001928E-02 0. -1.
    10030    2    1    2    0    0  0.00000000000E+00  0.00000000000E+00  0.48079811826E+03  0.19297329119E+04  0.18688772782E+04 0.  0.
        4    1    3    3  502    0 -0.91630338558E+03 -0.85502014123E+02  0.73100106864E+02  0.92318347438E+03  0.12699999809E+01 0. -1.
       -4    1    3    3    0  502  0.91630338558E+03  0.85502014123E+02  0.40769801140E+03  0.10065494376E+04  0.12699999809E+01 0.  1.
</event>
<event>
 5   0  0.6361762E-05  0.1900392E+04  0.7818609E-02  0.8654662E-01
       -2   -1    0    0    0  501  0.00000000000E+00  0.00000000000E+00  0.89304579199E+03  0.89304579199E+03  0.25500000920E-02 0.  1.
        2   -1    0    0  501    0  0.00000000000E+00  0.00000000000E+00 -0.10110029950E+04  0.10110029950E+04  0.25500000920E-02 0. -1.
    10030    2    1    2    0    0  0.00000000000E+00  0.00000000000E+00 -0.11795720299E+03  0.19040487870E+04  0.19003915074E+04 0.  0.
        1    1    3    3  502    0  0.72840853791E+03 -0.36385434205E+03  0.43176293852E+03  0.92162259925E+03  0.50400001928E-02 0.  1.
       -1    1    3    3    0  502 -0.72840853791E+03  0.36385434205E+03 -0.54972014151E+03  0.98242618774E+03  0.50400001928E-02 0. -1.
</event>
<event>
 5   0  0.6423388E-05  0.1872782E+04  0.7818609E-02  0.8668524E-01
        2   -1    0    0  501    0  0.00000000000E+00  0.00000000000E+00  0.14869952495E+04  0.14869952495E+04  0.25500000920E-02 0.  1.
       -2   -1    0    0    0  501  0.00000000000E+00  0.00000000000E+00 -0.58966422388E+03  0.58966422389E+03  0.25500000920E-02 0. -1.
    10030    2    1    2    0    0  0.00000000000E+00  0.00000000000E+00  0.89733102560E+03  0.20766594734E+04  0.18727817809E+04 0.  0.
        2    1    3    3  502    0  0.31087227313E+03 -0.80243759752E+03  0.39315749763E+02  0.86144842927E+03  0.25500000920E-02 0. -1.
       -2    1    3    3    0  502 -0.31087227313E+03  0.80243759752E+03  0.85801527584E+03  0.12152110441E+04  0.25500000920E-02 0.  1.
</event>
<event>
 5   0  0.3147063E-05  0.1921476E+04  0.7818609E-02  0.8644240E-01
       -1   -1    0    0    0  501  0.00000000000E+00  0.00000000000E+00  0.99865200619E+03  0.99865200620E+03  0.50400001928E-02 0. -1.
        1   -1    0    0  501    0  0.00000000000E+00  0.00000000000E+00 -0.92426305305E+03  0.92426305306E+03  0.50400001928E-02 0.  1.
    10030    2    1    2    0    0  0.00000000000E+00  0.00000000000E+00  0.74388953145E+02  0.19229150593E+04  0.19214756332E+04 0.  0.
        5    1    3    3  502    0 -0.57301461840E+03 -0.20646009090E+03  0.78073393054E+03  0.99022173392E+03  0.46999998093E+01 0. -1.
       -5    1    3    3    0  502  0.57301461840E+03  0.20646009090E+03 -0.70634497740E+03  0.93269332534E+03  0.46999998093E+01 0.  1.
</event>
<event>
 5   0  0.6395992E-05  0.1888427E+04  0.7818609E-02  0.8660639E-01
        2   -1    0    0  501    0  0.00000000000E+00  0.00000000000E+00  0.14784307968E+04  0.14784307968E+04  0.25500000920E-02 0. -1.
       -2   -1    0    0    0  501  0.00000000000E+00  0.00000000000E+00 -0.60303060384E+03  0.60303060385E+03  0.25500000920E-02 0.  1.
    10030    2    1    2    0    0  0.00000000000E+00  0.00000000000E+00  0.87540019292E+03  0.20814614006E+04  0.18884268756E+04 0.  0.
        4    1    3    3  502    0  0.47335589097E+03 -0.72638983697E+03  0.84986162236E+03  0.12140734676E+04  0.12699999809E+01 0. -1.
       -4    1    3    3    0  502 -0.47335589097E+03  0.72638983697E+03  0.25538570556E+02  0.86738793296E+03  0.12699999809E+01 0.  1.
</event>
<event>
 5   0  0.6098377E-05  0.1906982E+04  0.7818609E-02  0.8651389E-01
       -2   -1    0    0    0  501  0.00000000000E+00  0.00000000000E+00  0.47456903985E+03  0.47456903986E+03  0.25500000920E-02 0.  1.
        2   -1    0    0  501    0  0.00000000000E+00  0.00000000000E+00 -0.19157270463E+04  0.19157270463E+04  0.25500000920E-02 0. -1.
    10030    2    1    2    0    0  0.00000000000E+00  0.00000000000E+00 -0.14411580065E+04  0.23902960862E+04  0.19069816412E+04 0.  0.
        5    1    3    3  502    0  0.39245894682E+03 -0.54706792391E+03  0.12567287506E+03  0.68492561628E+03  0.46999998093E+01 0.  1.
       -5    1    3    3    0  502 -0.39245894682E+03  0.54706792391E+03 -0.15668308815E+04  0.17053704699E+04  0.46999998093E+01 0. -1.
</event>
<event>
 5   0  0.3144958E-05  0.1910194E+04  0.7818609E-02  0.8649799E-01
       -1   -1    0    0    0  501  0.00000000000E+00  0.00000000000E+00  0.88141525977E+03  0.88141525978E+03  0.50400001928E-02 0. -1.
        1   -1    0    0  501    0  0.00000000000E+00  0.00000000000E+00 -0.10349381025E+04  0.10349381025E+04  0.50400001928E-02 0.  1.
    10030    2    1    2    0    0  0.00000000000E+00  0.00000000000E+00 -0.15352284271E+03  0.19163533623E+04  0.19101939550E+04 0.  0.
        4    1    3    3  502    0 -0.32121305429E+02 -0.34771007516E+03 -0.96860178564E+03  0.10296237695E+04  0.12699999809E+01 0.  1.
       -4    1    3    3    0  502  0.32121305429E+02  0.34771007516E+03  0.81507894293E+03  0.88672959279E+03  0.12699999809E+01 0. -1.
</event>
<event>
 5   0  0.6452182E-05  0.1899888E+04  0.7818609E-02  0.8654912E-01
       -2   -1    0    0    0  501  0.00000000000E+00  0.00000000000E+00  0.18953369799E+04  0.18953369799E+04  0.25500000920E-02 0.  1.
        2   -1    0    0  501    0  0.00000000000E+00  0.00000000000E+00 -0.47611230039E+03  0.47611230039E+03  0.25500000920E-02 0. -1.
    10030    2    1    2    0    0  0.00000000000E+00  0.00000000000E+00  0.14192246795E+04  0.23714492803E+04  0.18998876278E+04 0.  0.
        3    1    3    3  502    0  0.47398702162E+03 -0.62091960408E+03  0.13843227362E+04  0.15895138564E+04  0.10100000352E+00 0.  1.
       -3    1    3    3    0  502 -0.47398702162E+03  0.62091960408E+03  0.34901943337E+02  0.78193542396E+03  0.10100000352E+00 0. -1.
</event>
<event>
 5   0  0.2279625E-05  0.1913830E+04  0.7818609E-02  0.8648003E-01
        3   -1    0    0  501    0  0.00000000000E+00  0.00000000000E+00  0.23568060710E+04  0.23568060732E+04  0.10100000352E+00 0. -1.
       -3   -1    0    0    0  501  0.00000000000E+00  0.00000000000E+00 -0.38852835331E+03  0.38852836644E+03  0.10100000352E+00 0.  1.
    10030    2    1    2    0    0  0.00000000000E+00  0.00000000000E+00  0.19682777177E+04  0.27453344396E+04  0.19138296715E+04 0.  0.
        2    1    3    3  502    0 -0.16723930834E+03  0.54286483024E+03  0.20887889640E+04  0.21646502133E+04  0.25500000920E-02 0. -1.
       -2    1    3    3    0  502  0.16723930834E+03 -0.54286483024E+03 -0.12051124625E+03  0.58068422628E+03  0.25500000920E-02 0.  1.
</event>
<event>
 5   0  0.3083469E-05  0.1906283E+04  0.7818609E-02  0.8651735E-01
        1   -1    0    0  501    0  0.00000000000E+00  0.00000000000E+00  0.82643103415E+03  0.82643103417E+03  0.50400001928E-02 0. -1.
       -1   -1    0    0    0  501  0.00000000000E+00  0.00000000000E+00 -0.10992795517E+04  0.10992795517E+04  0.50400001928E-02 0.  1.
    10030    2    1    2    0    0  0.00000000000E+00  0.00000000000E+00 -0.27284851754E+03  0.19257105859E+04  0.19062830186E+04 0.  0.
        3    1    3    3  502    0 -0.91581277896E+03  0.17396620907E+02  0.12982016794E+03  0.92513186883E+03  0.10100000352E+00 0.  1.
       -3    1    3    3    0  502  0.91581277896E+03 -0.17396620907E+02 -0.40266868548E+03  0.10005787170E+04  0.10100000352E+00 0. -1.
</event>
<event>
 5   0  0.3083469E-05  0.1925668E+04  0.7818609E-02  0.8642184E-01
        1   -1    0    0  501    0  0.00000000000E+00  0.00000000000E+00  0.13103085621E+04  0.13103085622E+04  0.50400001928E-02 0. -1.
       -1   -1    0    0    0  501  0.00000000000E+00  0.00000000000E+00 -0.70750493988E+03  0.70750493990E+03  0.50400001928E-02 0.  1.
    10030    2    1    2    0    0  0.00000000000E+00  0.00000000000E+00  0.60280362226E+03  0.20178135021E+04  0.19256684871E+04 0.  0.
        3    1    3    3  502    0 -0.18894101545E+03  0.71508806998E+03 -0.34453697719E+03  0.81593835184E+03  0.10100000352E+00 0.  1.
       -3    1    3    3    0  502  0.18894101545E+03 -0.71508806998E+03  0.94734059945E+03  0.12018751502E+04  0.10100000352E+00 0. -1.
</event>
<event>
 5   0  0.3203527E-05  0.1901978E+04  0.7818609E-02  0.8653873E-01
       -1   -1    0    0    0  501  0.00000000000E+00  0.00000000000E+00  0.55955647932E+03  0.55955647934E+03  0.50400001928E-02 0. -1.
        1   -1    0    0  501    0  0.00000000000E+00  0.00000000000E+00 -0.16162440870E+04  0.16162440870E+04  0.50400001928E-02 0.  1.
    10030    2    1    2    0    0  0.00000000000E+00  0.00000000000E+00 -0.10566876077E+04  0.21758005663E+04  0.19019777612E+04 0.  0.
        1    1    3    3  502    0 -0.56750175173E+03 -0.82382601960E+02  0.33951568214E+03  0.66642031013E+03  0.50400001928E-02 0. -1.
       -1    1    3    3    0  502  0.56750175173E+03  0.82382601960E+02 -0.13962032898E+04  0.15093802562E+04  0.50400001928E-02 0.  1.
</event>
<event>
 5   0  0.6452182E-05  0.1902220E+04  0.7818609E-02  0.8653752E-01
        2   -1    0    0  501    0  0.00000000000E+00  0.00000000000E+00  0.12266455167E+04  0.12266455167E+04  0.25500000920E-02 0. -1.
       -2   -1    0    0    0  501  0.00000000000E+00  0.00000000000E+00 -0.73746708504E+03  0.73746708505E+03  0.25500000920E-02 0.  1.
    10030    2    1    2    0    0  0.00000000000E+00  0.00000000000E+00  0.48917843168E+03  0.19641126018E+04  0.19022204852E+04 0.  0.
        3    1    3    3  502    0 -0.34758300751E+03  0.72356149038E+03  0.77134036390E+03  0.11132480158E+04  0.10100000352E+00 0. -1.
       -3    1    3    3    0  502  0.34758300751E+03 -0.72356149038E+03 -0.28216193222E+03  0.85086458598E+03  0.10100000352E+00 0.  1.
</event>
<event>
 5   0  0.2279625E-05  0.1874381E+04  0.7818609E-02  0.8667715E-01
        3   -1    0    0  501    0  0.00000000000E+00  0.00000000000E+00  0.94305196403E+03  0.94305196943E+03  0.10100000352E+00 0.  1.
       -3   -1    0    0    0  501  0.00000000000E+00  0.00000000000E+00 -0.93136504024E+03  0.93136504572E+03  0.10100000352E+00 0. -1.
    10030    2    1    2    0    0  0.00000000000E+00  0.00000000000E+00  0.11686923782E+02  0.18744170152E+04  0.18743805810E+04 0.  0.
        3    1    3    3  502    0 -0.76800957089E+03 -0.39204913969E+03  0.37298054997E+03  0.93949759433E+03  0.10100000352E+00 0.  1.
       -3    1    3    3    0  502  0.76800957089E+03  0.39204913969E+03 -0.36129362618E+03  0.93491942082E+03  0.10100000352E+00 0. -1.
</event>
<event>
 5   0  0.6452182E-05  0.1896168E+04  0.7818609E-02  0.8656766E-01
       -2   -1    0    0    0  501  0.00000000000E+00  0.00000000000E+00  0.53902294807E+03  0.53902294808E+03  0.25500000920E-02 0.  1.
        2   -1    0    0  501    0  0.00000000000E+00  0.00000000000E+00 -0.16675782484E+04  0.16675782484E+04  0.25500000920E-02 0. -1.
    10030    2    1    2    0    0  0.00000000000E+00  0.00000000000E+00 -0.11285553003E+04  0.22066011965E+04  0.18961676546E+04 0.  0.
        3    1    3    3  502    0  0.40923422520E+03  0.24380460138E+03  0.38965006048E+03  0.61541897482E+03  0.10100000352E+00 0.  1.
       -3    1    3    3    0  502 -0.40923422520E+03 -0.24380460138E+03 -0.15182053608E+04  0.15911822217E+04  0.10100000352E+00 0. -1.
</event>
<event>
 5   0  0.6098377E-05  0.1904209E+04  0.7818609E-02  0.8652764E-01
       -2   -1    0    0    0  501  0.00000000000E+00  0.00000000000E+00  0.52089771334E+03  0.52089771335E+03  0.25500000920E-02 0. -1.
        2   -1    0    0  501    0  0.00000000000E+00  0.00000000000E+00 -0.17402710520E+04  0.17402710521E+04  0.25500000920E-02 0.  1.
    10030    2    1    2    0    0  0.00000000000E+00  0.00000000000E+00 -0.12193733387E+04  0.22611687654E+04  0.19042092444E+04 0.  0.
        5    1    3    3  502    0 -0.67788995238E+03 -0.16232043282E+03  0.16042219504E+03  0.71529020762E+03  0.46999998093E+01 0. -1.
       -5    1    3    3    0  502  0.67788995238E+03  0.16232043282E+03 -0.13797955338E+04  0.15458785578E+04  0.46999998093E+01 0.  1.
</event>
<event>
 5   0  0.3086139E-05  0.1896971E+04  0.7818609E-02  0.8656365E-01
        1   -1    0    0  501    0  0.00000000000E+00  0.00000000000E+00  0.99889960375E+03  0.99889960376E+03  0.50400001928E-02 0. -1.
       -1   -1    0    0    0  501  0.00000000000E+00  0.00000000000E+00 -0.90061606289E+03  0.90061606291E+03  0.50400001928E-02 0.  1.
    10030    2    1    2    0    0  0.00000000000E+00  0.00000000000E+00  0.98283540853E+02  0.18995156667E+04  0.18969713001E+04 0.  0.
        2    1    3    3  502    0 -0.61473869558E+03  0.35944803938E+03 -0.57821150383E+03  0.91729771613E+03  0.25500000920E-02 0.  1.
       -2    1    3    3    0  502  0.61473869558E+03 -0.35944803938E+03  0.67649504468E+03  0.98221795053E+03  0.25500000920E-02 0. -1.
</event>
<event>
 5   0  0.3144958E-05  0.1896458E+04  0.7818609E-02  0.8656621E-01
        1   -1    0    0  501    0  0.00000000000E+00  0.00000000000E+00  0.74968482188E+03  0.74968482190E+03  0.50400001928E-02 0.  1.
       -1   -1    0    0    0  501  0.00000000000E+00  0.00000000000E+00 -0.11993556043E+04  0.11993556044E+04  0.50400001928E-02 0. -1.
    10030    2    1    2    0    0  0.00000000000E+00  0.00000000000E+00 -0.44967078247E+03  0.19490404263E+04  0.18964584811E+04 0.  0.
        4    1    3    3  502    0  0.43085337328E+03 -0.60203857103E+03  0.38408881638E+03  0.83403291424E+03  0.12699999809E+01 0.  1.
       -4    1    3    3    0  502 -0.43085337328E+03  0.60203857103E+03 -0.83375959885E+03  0.11150075120E+04  0.12699999809E+01 0. -1.
</event>
<event>
 5   0  0.6423388E-05  0.1849290E+04  0.7818609E-02  0.8680518E-01
        2   -1    0    0  501    0  0.00000000000E+00  0.00000000000E+00  0.22830784398E+04  0.22830784398E+04  0.25500000920E-02 0.  1.
       -2   -1    0    0    0  501  0.00000000000E+00  0.00000000000E+00 -0.37448044883E+03  0.37448044884E+03  0.25500000920E-02 0. -1.
    10030    2    1    2    0    0  0.00000000000E+00  0.00000000000E+00  0.19085979910E+04  0.26575588887E+04  0.18492898517E+04 0.  0.
        2    1    3    3  502    0  0.15236161130E+03 -0.86702580358E+03  0.54778232287E+03  0.10368284708E+04  0.25500000920E-02 0. -1.
       -2    1    3    3    0  502 -0.15236161130E+03  0.86702580358E+03  0.13608156681E+04  0.16207304178E+04  0.25500000920E-02 0.  1.
</event>
<event>
 5   0  0.6452182E-05  0.1815421E+04  0.7818609E-02  0.8698141E-01
        2   -1    0    0  501    0  0.00000000000E+00  0.00000000000E+00  0.14410093775E+04  0.14410093775E+04  0.25500000920E-02 0.  1.
       -2   -1    0    0    0  501  0.00000000000E+00  0.00000000000E+00 -0.57177877756E+03  0.57177877756E+03  0.25500000920E-02 0. -1.
    10030    2    1    2    0    0  0.00000000000E+00  0.00000000000E+00  0.86923059994E+03  0.20127881551E+04  0.18154212517E+04 0.  0.
        3    1    3    3  502    0  0.53910336612E+03  0.48693022872E+03 -0.16880081793E+03  0.74580641814E+03  0.10100000352E+00 0. -1.
       -3    1    3    3    0  502 -0.53910336612E+03 -0.48693022872E+03  0.10380314179E+04  0.12669817369E+04  0.10100000352E+00 0.  1.
</event>
<event>
 5   0  0.3203527E-05  0.1901165E+04  0.7818609E-02  0.8654277E-01
        1   -1    0    0  501    0  0.00000000000E+00  0.00000000000E+00  0.12100880299E+04  0.12100880299E+04  0.50400001928E-02 0.  1.
       -1   -1    0    0    0  501  0.00000000000E+00  0.00000000000E+00 -0.74672833945E+03  0.74672833947E+03  0.50400001928E-02 0. -1.
    10030    2    1    2    0    0  0.00000000000E+00  0.00000000000E+00  0.46335969042E+03  0.19568163694E+04  0.19011649325E+04 0.  0.
        1    1    3    3  502    0 -0.91624937359E+03 -0.16143568907E+03  0.30951617439E+02  0.93087722013E+03  0.50400001928E-02 0.  1.
       -1    1    3    3    0  502  0.91624937359E+03  0.16143568907E+03  0.43240807298E+03  0.10259391492E+04  0.50400001928E-02 0. -1.
</event>
<event>
 5   0  0.6098377E-05  0.1897583E+04  0.7818609E-02  0.8656060E-01
       -2   -1    0    0    0  501  0.00000000000E+00  0.00000000000E+00  0.64862437384E+03  0.64862437385E+03  0.25500000920E-02 0.  1.
        2   -1    0    0  501    0  0.00000000000E+00  0.00000000000E+00 -0.13878682213E+04  0.13878682213E+04  0.25500000920E-02 0. -1.
    10030    2    1    2    0    0  0.00000000000E+00  0.00000000000E+00 -0.73924384741E+03  0.20364925951E+04  0.18975828372E+04 0.  0.
        5    1    3    3  502    0 -0.59827137625E+03 -0.30175015451E+03  0.35126516720E+03  0.75656533298E+03  0.46999998093E+01 0.  1.
       -5    1    3    3    0  502  0.59827137625E+03  0.30175015451E+03 -0.10905090146E+04  0.12799272621E+04  0.46999998093E+01 0. -1.
</event>
<event>
 5   0  0.3144958E-05  0.1898999E+04  0.7818609E-02  0.8655355E-01
       -1   -1    0    0    0  501  0.00000000000E+00  0.00000000000E+00  0.39486447587E+03  0.39486447590E+03  0.50400001928E-02 0.  1.
        1   -1    0    0  501    0  0.00000000000E+00  0.00000000000E+00 -0.22831876777E+04  0.22831876777E+04  0.50400001928E-02 0. -1.
    10030    2    1    2    0    0  0.00000000000E+00  0.00000000000E+00 -0.18883232019E+04  0.26780521536E+04  0.18989994268E+04 0.  0.
        4    1    3    3  502    0  0.40171466451E+03  0.10727946351E+03 -0.21479717870E+04  0.21878455078E+04  0.12699999809E+01 0. -1.
       -4    1    3    3    0  502 -0.40171466451E+03 -0.10727946351E+03  0.25964858519E+03  0.49020664588E+03  0.12699999809E+01 0.  1.
</event>
<event>
 5   0  0.3147063E-05  0.1901386E+04  0.7818609E-02  0.8654167E-01
       -1   -1    0    0    0  501  0.00000000000E+00  0.00000000000E+00  0.17854183006E+04  0.17854183006E+04  0.50400001928E-02 0. -1.
        1   -1    0    0  501    0  0.00000000000E+00  0.00000000000E+00 -0.50622133323E+03  0.50622133326E+03  0.50400001928E-02 0.  1.
    10030    2    1    2    0    0  0.00000000000E+00  0.00000000000E+00  0.12791969674E+04  0.22916396339E+04  0.19013856343E+04 0.  0.
        5    1    3    3  502    0 -0.62225460729E+03  0.16742914274E+02 -0.22643145867E+03  0.66240049588E+03  0.46999998093E+01 0. -1.
       -5    1    3    3    0  502  0.62225460729E+03 -0.16742914274E+02  0.15056284261E+04  0.16292391380E+04  0.46999998093E+01 0.  1.
</event>
<event>
 5   0  0.6423388E-05  0.1892840E+04  0.7818609E-02  0.8658429E-01
       -2   -1    0    0    0  501  0.00000000000E+00  0.00000000000E+00  0.41893196599E+03  0.41893196600E+03  0.25500000920E-02 0.  1.
        2   -1    0    0  501    0  0.00000000000E+00  0.00000000000E+00 -0.21380815420E+04  0.21380815420E+04  0.25500000920E-02 0. -1.
    10030    2    1    2    0    0  0.00000000000E+00  0.00000000000E+00 -0.17191495760E+04  0.25570135080E+04  0.18928398811E+04 0.  0.
        2    1    3    3  502    0 -0.47170764014E+03 -0.27266831470E+03  0.18581881478E+03  0.57566026399E+03  0.25500000920E-02 0.  1.
       -2    1    3    3    0  502  0.47170764014E+03  0.27266831470E+03 -0.19049683908E+04  0.19813532440E+04  0.25500000920E-02 0. -1.
</event>
<event>
 5   0  0.3203527E-05  0.1930627E+04  0.7818609E-02  0.8639760E-01
        1   -1    0    0  501    0  0.00000000000E+00  0.00000000000E+00  0.52947379952E+03  0.52947379954E+03  0.50400001928E-02 0.  1.
       -1   -1    0    0    0  501  0.00000000000E+00  0.00000000000E+00 -0.17599175672E+04  0.17599175672E+04  0.50400001928E-02 0. -1.
    10030    2    1    2    0    0  0.00000000000E+00  0.00000000000E+00 -0.12304437676E+04  0.22893913667E+04  0.19306270910E+04 0.  0.
        1    1    3    3  502    0 -0.68910425218E+03  0.46918382327E+03 -0.38134024827E+02  0.83453719765E+03  0.50400001928E-02 0.  1.
       -1    1    3    3    0  502  0.68910425218E+03 -0.46918382327E+03 -0.11923097428E+04  0.14548541690E+04  0.50400001928E-02 0. -1.
</event>
<event>
 5   0  0.3086139E-05  0.1845223E+04  0.7818609E-02  0.8682613E-01
        1   -1    0    0  501    0  0.00000000000E+00  0.00000000000E+00  0.45337572584E+03  0.45337572587E+03  0.50400001928E-02 0.  1.
       -1   -1    0    0    0  501  0.00000000000E+00  0.00000000000E+00 -0.18774989093E+04  0.18774989093E+04  0.50400001928E-02 0. -1.
    10030    2    1    2    0    0  0.00000000000E+00  0.00000000000E+00 -0.14241231835E+04  0.23308746352E+04  0.18452234887E+04 0.  0.
        2    1    3    3  502    0  0.24888525131E+03 -0.34038158561E+02 -0.18334688205E+04  0.18505973037E+04  0.25500000920E-02 0. -1.
       -2    1    3    3    0  502 -0.24888525131E+03  0.34038158561E+02  0.40934563706E+03  0.48027733149E+03  0.25500000920E-02 0.  1.
</event>
<event>
 5   0  0.6098377E-05  0.1898680E+04  0.7818609E-02  0.8655514E-01
        2   -1    0    0  501    0  0.00000000000E+00  0.00000000000E+00  0.96505991350E+03  0.96505991350E+03  0.25500000920E-02 0. -1.
       -2   -1    0    0    0  501  0.00000000000E+00  0.00000000000E+00 -0.93387615347E+03  0.93387615347E+03  0.25500000920E-02 0.  1.
    10030    2    1    2    0    0  0.00000000000E+00  0.00000000000E+00  0.31183760032E+02  0.18989360670E+04  0.18986800045E+04 0.  0.
        5    1    3    3  502    0  0.44843733746E+03  0.58326852709E+03  0.61561122791E+03  0.95932137172E+03  0.46999998093E+01 0. -1.
       -5    1    3    3    0  502 -0.44843733746E+03 -0.58326852709E+03 -0.58442746788E+03  0.93961469525E+03  0.46999998093E+01 0.  1.
</event>
<event>
 5   0  0.6395992E-05  0.1903478E+04  0.7818609E-02  0.8653127E-01
       -2   -1    0    0    0  501  0.00000000000E+00  0.00000000000E+00  0.70694873529E+03  0.70694873529E+03  0.25500000920E-02 0.  1.
        2   -1    0    0  501    0  0.00000000000E+00  0.00000000000E+00 -0.12812909699E+04  0.12812909699E+04  0.25500000920E-02 0. -1.
    10030    2    1    2    0    0  0.00000000000E+00  0.00000000000E+00 -0.57434223457E+03  0.19882397051E+04  0.19034779018E+04 0.  0.
        4    1    3    3  502    0 -0.47655711571E+03  0.77189804964E+03  0.13523161366E+02  0.90725838236E+03  0.12699999809E+01 0.  1.
       -4    1    3    3    0  502  0.47655711571E+03 -0.77189804964E+03 -0.58786539593E+03  0.10809813228E+04  0.12699999809E+01 0. -1.
</event>
<event>
 5   0  0.3086139E-05  0.1877898E+04  0.7818609E-02  0.8665937E-01
       -1   -1    0    0    0  501  0.00000000000E+00  0.00000000000E+00  0.47148716059E+03  0.47148716062E+03  0.50400001928E-02 0.  1.
        1   -1    0    0  501    0  0.00000000000E+00  0.00000000000E+00 -0.18698807850E+04  0.18698807850E+04  0.50400001928E-02 0. -1.
    10030    2    1    2    0    0  0.00000000000E+00  0.00000000000E+00 -0.13983936244E+04  0.23413679456E+04  0.18778975286E+04 0.  0.
        2    1    3    3  502    0  0.80071472319E+03  0.38456399215E+03 -0.10785840796E+04  0.13972749010E+04  0.25500000920E-02 0.  1.
       -2    1    3    3    0  502 -0.80071472319E+03 -0.38456399215E+03 -0.31980954472E+03  0.94409304461E+03  0.25500000920E-02 0. -1.
</event>
<event>
 5   0  0.3083469E-05  0.1920009E+04  0.7818609E-02  0.8644960E-01
       -1   -1    0    0    0  501  0.00000000000E+00  0.00000000000E+00  0.43830612878E+03  0.43830612881E+03  0.50400001928E-02 0. -1.
        1   -1    0    0  501    0  0.00000000000E+00  0.00000000000E+00 -0.21026587073E+04  0.21026587073E+04  0.50400001928E-02 0.  1.
    10030    2    1    2    0    0  0.00000000000E+00  0.00000000000E+00 -0.16643525785E+04  0.25409648361E+04  0.19200085398E+04 0.  0.
        3    1    3    3  502    0 -0.95646919352E+03 -0.45648126442E+02 -0.74153341019E+03  0.12111105970E+04  0.10100000352E+00 0.  1.
       -3    1    3    3    0  502  0.95646919352E+03  0.45648126442E+02 -0.92281916835E+03  0.13298542391E+04  0.10100000352E+00 0. -1.
</event>
<event>
 5   0  0.3086139E-05  0.1895216E+04  0.7818609E-02  0.8657241E-01
        1   -1    0    0  501    0  0.00000000000E+00  0.00000000000E+00  0.13424866668E+04  0.13424866668E+04  0.50400001928E-02 0.  1.
       -1   -1    0    0    0  501  0.00000000000E+00  0.00000000000E+00 -0.66887911487E+03  0.66887911489E+03  0.50400001928E-02 0. -1.
    10030    2    1    2    0    0  0.00000000000E+00  0.00000000000E+00  0.67360755191E+03  0.20113657817E+04  0.18952163923E+04 0.  0.
        2    1    3    3  502    0  0.79057362530E+02 -0.82857765253E+03 -0.14391324616E+03  0.84469048489E+03  0.25500000920E-02 0. -1.
       -2    1    3    3    0  502 -0.79057362530E+02  0.82857765253E+03  0.81752079807E+03  0.11666752968E+04  0.25500000920E-02 0.  1.
</event>
<event>
 5   0  0.6452182E-05  0.1938740E+04  0.7818609E-02  0.8635810E-01
        2   -1    0    0  501    0  0.00000000000E+00  0.00000000000E+00  0.15397646462E+04  0.15397646462E+04  0.25500000920E-02 0.  1.
       -2   -1    0    0    0  501  0.00000000000E+00  0.00000000000E+00 -0.61027413127E+03  0.61027413127E+03  0.25500000920E-02 0. -1.
    10030    2    1    2    0    0  0.00000000000E+00  0.00000000000E+00  0.92949051493E+03  0.21500387775E+04  0.19387403455E+04 0.  0.
        3    1    3    3  502    0  0.53099353975E+03 -0.92802577345E+01 -0.43458701888E+03  0.68622601934E+03  0.10100000352E+00 0. -1.
       -3    1    3    3    0  502 -0.53099353975E+03  0.92802577345E+01  0.13640775338E+04  0.14638127581E+04  0.10100000352E+00 0.  1.
</event>
<event>
 5   0  0.2279625E-05  0.1900570E+04  0.7818609E-02  0.8654573E-01
        3   -1    0    0  501    0  0.00000000000E+00  0.00000000000E+00  0.12018834767E+04  0.12018834810E+04  0.10100000352E+00 0.  1.
       -3   -1    0    0    0  501  0.00000000000E+00  0.00000000000E+00 -0.75135517513E+03  0.75135518192E+03  0.10100000352E+00 0. -1.
    10030    2    1    2    0    0  0.00000000000E+00  0.00000000000E+00  0.45052830159E+03  0.19532386629E+04  0.19005697892E+04 0.  0.
        4    1    3    3  502    0 -0.26746281904E+03  0.49644591838E+03 -0.56081463176E+03  0.79530470484E+03  0.12699999809E+01 0. -1.
       -4    1    3    3    0  502  0.26746281904E+03 -0.49644591838E+03  0.10113429334E+04  0.11579339580E+04  0.12699999809E+01 0.  1.
</event>
<event>
 5   0  0.3144958E-05  0.1912212E+04  0.7818609E-02  0.8648802E-01
       -1   -1    0    0    0  501  0.00000000000E+00  0.00000000000E+00  0.75975768797E+03  0.75975768799E+03  0.50400001928E-02 0.  1.
        1   -1    0    0  501    0  0.00000000000E+00  0.00000000000E+00 -0.12031973955E+04  0.12031973956E+04  0.50400001928E-02 0. -1.
    10030    2    1    2    0    0  0.00000000000E+00  0.00000000000E+00 -0.44343970758E+03  0.19629550835E+04  0.19122117785E+04 0.  0.
        4    1    3    3  502    0 -0.59609300167E+03  0.49151451151E+03  0.35645211693E+03  0.85086609183E+03  0.12699999809E+01 0.  1.
       -4    1    3    3    0  502  0.59609300167E+03 -0.49151451151E+03 -0.79989182451E+03  0.11120889917E+04  0.12699999809E+01 0. -1.
</event>
<event>
 5   0  0.3083469E-05  0.1903088E+04  0.7818609E-02  0.8653321E-01
       -1   -1    0    0    0  501  0.00000000000E+00  0.00000000000E+00  0.81260588660E+03  0.81260588662E+03  0.50400001928E-02 0.  1.
        1   -1    0    0  501    0  0.00000000000E+00  0.00000000000E+00 -0.11142372988E+04  0.11142372988E+04  0.50400001928E-02 0. -1.
    10030    2    1    2    0    0  0.00000000000E+00  0.00000000000E+00 -0.30163141221E+03  0.19268431854E+04  0.19030877942E+04 0.  0.
        3    1    3    3  502    0  0.91653013009E+03 -0.43196988365E+02  0.10440686353E+03  0.92346860397E+03  0.10100000352E+00 0.  1.
       -3    1    3    3    0  502 -0.91653013009E+03  0.43196988365E+02 -0.40603827574E+03  0.10033745815E+04  0.10100000352E+00 0. -1.
</event>
<event>
 5   0  0.6361762E-05  0.1882476E+04  0.7818609E-02  0.8663629E-01
        2   -1    0    0  501    0  0.00000000000E+00  0.00000000000E+00  0.13369355213E+04  0.13369355214E+04  0.25500000920E-02 0.  1.
       -2   -1    0    0    0  501  0.00000000000E+00  0.00000000000E+00 -0.66265640411E+03  0.66265640412E+03  0.25500000920E-02 0. -1.
    10030    2    1    2    0    0  0.00000000000E+00  0.00000000000E+00  0.67427911724E+03  0.19995919255E+04  0.18824759070E+04 0.  0.
        1    1    3    3  502    0  0.61715932046E+03 -0.42476649612E+03 -0.26805827539E+03  0.79571819263E+03  0.50400001928E-02 0. -1.
       -1    1    3    3    0  502 -0.61715932046E+03  0.42476649612E+03  0.94233739262E+03  0.12038737328E+04  0.50400001928E-02 0.  1.
</event>
<event>
 5   0  0.3203527E-05  0.1801942E+04  0.7818609E-02  0.8705268E-01
        1   -1    0    0  501    0  0.00000000000E+00  0.00000000000E+00  0.66675740537E+03  0.66675740539E+03  0.50400001928E-02 0. -1.
       -1   -1    0    0    0  501  0.00000000000E+00  0.00000000000E+00 -0.12174571288E+04  0.12174571289E+04  0.50400001928E-02 0.  1.
    10030    2    1    2    0    0  0.00000000000E+00  0.00000000000E+00 -0.55069972348E+03  0.18842145342E+04  0.18019417931E+04 0.  0.
        1    1    3    3  502    0 -0.37640330557E+03 -0.35106188489E+03 -0.10485886605E+04  0.11681019110E+04  0.50400001928E-02 0.  1.
       -1    1    3    3    0  502  0.37640330557E+03  0.35106188489E+03  0.49788893707E+03  0.71611262323E+03  0.50400001928E-02 0. -1.
</event>
<event>
 5   0  0.6452182E-05  0.1896900E+04  0.7818609E-02  0.8656401E-01
        2   -1    0    0  501    0  0.00000000000E+00  0.00000000000E+00  0.68529578795E+03  0.68529578796E+03  0.25500000920E-02 0. -1.
       -2   -1    0    0    0  501  0.00000000000E+00  0.00000000000E+00 -0.13126563554E+04  0.13126563554E+04  0.25500000920E-02 0.  1.
    10030    2    1    2    0    0  0.00000000000E+00  0.00000000000E+00 -0.62736056740E+03  0.19979521433E+04  0.18969004943E+04 0.  0.
        3    1    3    3  502    0 -0.63796288351E+03  0.54322784718E+03  0.15436222198E+03  0.85200988284E+03  0.10100000352E+00 0. -1.
       -3    1    3    3    0  502  0.63796288351E+03 -0.54322784718E+03 -0.78172278938E+03  0.11459422605E+04  0.10100000352E+00 0.  1.
</event>
<event>
 5   0  0.6452182E-05  0.1917055E+04  0.7818609E-02  0.8646413E-01
        2   -1    0    0  501    0  0.00000000000E+00  0.00000000000E+00  0.14015075538E+04  0.14015075538E+04  0.25500000920E-02 0.  1.
       -2   -1    0    0    0  501  0.00000000000E+00  0.00000000000E+00 -0.65556202985E+03  0.65556202986E+03  0.25500000920E-02 0. -1.
    10030    2    1    2    0    0  0.00000000000E+00  0.00000000000E+00  0.74594552397E+03  0.20570695837E+04  0.19170551759E+04 0.  0.
        3    1    3    3  502    0  0.89971902085E+03  0.21522689436E+03  0.10373219216E+03  0.93090134301E+03  0.10100000352E+00 0. -1.
       -3    1    3    3    0  502 -0.89971902085E+03 -0.21522689436E+03  0.64221333181E+03  0.11261682407E+04  0.10100000352E+00 0.  1.
</event>
<event>
 5   0  0.6395992E-05  0.1909642E+04  0.7818609E-02  0.8650072E-01
        2   -1    0    0  501    0  0.00000000000E+00  0.00000000000E+00  0.18066676067E+04  0.18066676067E+04  0.25500000920E-02 0.  1.
       -2   -1    0    0    0  501  0.00000000000E+00  0.00000000000E+00 -0.50462146011E+03  0.50462146012E+03  0.25500000920E-02 0. -1.
    10030    2    1    2    0    0  0.00000000000E+00  0.00000000000E+00  0.13020461466E+04  0.23112890668E+04  0.19096421085E+04 0.  0.
        4    1    3    3  502    0  0.60854683998E+03 -0.63969166073E+03  0.21104517242E+03  0.90778651398E+03  0.12699999809E+01 0. -1.
       -4    1    3    3    0  502 -0.60854683998E+03  0.63969166073E+03  0.10910009741E+04  0.14035025528E+04  0.12699999809E+01 0.  1.
</event>
<event>
 5   0  0.3083469E-05  0.1892659E+04  0.7818609E-02  0.8658519E-01
        1   -1    0    0  501    0  0.00000000000E+00  0.00000000000E+00  0.59366275269E+03  0.59366275271E+03  0.50400001928E-02 0. -1.
       -1   -1    0    0    0  501  0.00000000000E+00  0.00000000000E+00 -0.15084984337E+04  0.15084984337E+04  0.50400001928E-02 0.  1.
    10030    2    1    2    0    0  0.00000000000E+00  0.00000000000E+00 -0.91483568101E+03  0.21021611864E+04  0.18926587993E+04 0.  0.
        3    1    3    3  502    0  0.75843502491E+03 -0.16808074488E+02  0.17091701284E+03  0.77763669786E+03  0.10100000352E+00 0. -1.
       -3    1    3    3    0  502 -0.75843502491E+03  0.16808074488E+02 -0.10857526938E+04  0.13245244886E+04  0.10100000352E+00 0.  1.
</event>
<event>
 5   0  0.6395992E-05  0.1902911E+04  0.7818609E-02  0.8653409E-01
        2   -1    0    0  501    0  0.00000000000E+00  0.00000000000E+00  0.98624006846E+03  0.98624006847E+03  0.25500000920E-02 0. -1.
       -2   -1    0    0    0  501  0.00000000000E+00  0.00000000000E+00 -0.91789791765E+03  0.91789791766E+03  0.25500000920E-02 0.  1.
    10030    2    1    2    0    0  0.00000000000E+00  0.00000000000E+00  0.68342150811E+02  0.19041379861E+04  0.19029111436E+04 0.  0.
        4    1    3    3  502    0  0.16014120836E+03  0.40071434870E+03 -0.81434313418E+03  0.92161464233E+03  0.12699999809E+01 0.  1.
       -4    1    3    3    0  502 -0.16014120836E+03 -0.40071434870E+03  0.88268528499E+03  0.98252334380E+03  0.12699999809E+01 0. -1.
</event>
<event>
 5   0  0.3147063E-05  0.1910909E+04  0.7818609E-02  0.8649445E-01
       -1   -1    0    0    0  501  0.00000000000E+00  0.00000000000E+00  0.15052843680E+04  0.15052843680E+04  0.50400001928E-02 0. -1.
        1   -1    0    0  501    0  0.00000000000E+00  0.00000000000E+00 -0.60645891739E+03  0.60645891741E+03  0.50400001928E-02 0.  1.
    10030    2    1    2    0    0  0.00000000000E+00  0.00000000000E+00  0.89882545065E+03  0.21117432855E+04  0.19109088186E+04 0.  0.
        5    1    3    3  502    0 -0.56798979721E+03  0.65484299928E+03  0.53894292892E+01  0.86688113337E+03  0.46999998093E+01 0.  1.
       -5    1    3    3    0  502  0.56798979721E+03 -0.65484299928E+03  0.89343602136E+03  0.12448621521E+04  0.46999998093E+01 0. -1.
</event>
<event>
 5   0  0.6361762E-05  0.1897358E+04  0.7818609E-02  0.8656172E-01
        2   -1    0    0  501    0  0.00000000000E+00  0.00000000000E+00  0.40830658229E+03  0.40830658230E+03  0.25500000920E-02 0. -1.
       -2   -1    0    0    0  501  0.00000000000E+00  0.00000000000E+00 -0.22042070507E+04  0.22042070507E+04  0.25500000920E-02 0.  1.
    10030    2    1    2    0    0  0.00000000000E+00  0.00000000000E+00 -0.17959004684E+04  0.26125136330E+04  0.18973584243E+04 0.  0.
        1    1    3    3  502    0 -0.53847847372E+03 -0.29798751568E+02 -0.19726065717E+04  0.20449996868E+04  0.50400001928E-02 0.  1.
       -1    1    3    3    0  502  0.53847847372E+03  0.29798751568E+02  0.17670610324E+03  0.56751394626E+03  0.50400001928E-02 0. -1.
</event>
<event>
 5   0  0.3086139E-05  0.1904108E+04  0.7818609E-02  0.8652814E-01
        1   -1    0    0  501    0  0.00000000000E+00  0.00000000000E+00  0.10582503861E+04  0.10582503861E+04  0.50400001928E-02 0. -1.
       -1   -1    0    0    0  501  0.00000000000E+00  0.00000000000E+00 -0.85651424211E+03  0.85651424212E+03  0.50400001928E-02 0.  1.
    10030    2    1    2    0    0  0.00000000000E+00  0.00000000000E+00  0.20173614394E+03  0.19147646282E+04  0.19041076938E+04 0.  0.
        2    1    3    3  502    0  0.59616040812E+03  0.21061290684E+03 -0.61490320724E+03  0.88196994451E+03  0.25500000920E-02 0.  1.
       -2    1    3    3    0  502 -0.59616040812E+03 -0.21061290684E+03  0.81663935118E+03  0.10327946837E+04  0.25500000920E-02 0. -1.
</event>
<event>
 5   0  0.6098377E-05  0.1899980E+04  0.7818609E-02  0.8654866E-01
        2   -1    0    0  501    0  0.00000000000E+00  0.00000000000E+00  0.96871166862E+03  0.96871166862E+03  0.25500000920E-02 0. -1.
       -2   -1    0    0    0  501  0.00000000000E+00  0.00000000000E+00 -0.93162989626E+03  0.93162989626E+03  0.25500000920E-02 0.  1.
    10030    2    1    2    0    0  0.00000000000E+00  0.00000000000E+00  0.37081772360E+02  0.19003415649E+04  0.18999797381E+04 0.  0.
        5    1    3    3  502    0  0.30454556760E+03 -0.61275496503E+03 -0.64055502399E+03  0.93730970265E+03  0.46999998093E+01 0.  1.
       -5    1    3    3    0  502 -0.30454556760E+03  0.61275496503E+03  0.67763679635E+03  0.96303186224E+03  0.46999998093E+01 0. -1.
</event>
<event>
 5   0  0.3083469E-05  0.1897504E+04  0.7818609E-02  0.8656100E-01
        1   -1    0    0  501    0  0.00000000000E+00  0.00000000000E+00  0.72821535126E+03  0.72821535128E+03  0.50400001928E-02 0.  1.
       -1   -1    0    0    0  501  0.00000000000E+00  0.00000000000E+00 -0.12360774850E+04  0.12360774850E+04  0.50400001928E-02 0. -1.
    10030    2    1    2    0    0  0.00000000000E+00  0.00000000000E+00 -0.50786213375E+03  0.19642928363E+04  0.18975042556E+04 0.  0.
        3    1    3    3  502    0 -0.19814138416E+03  0.17952141491E+03 -0.11962699548E+04  0.12257853652E+04  0.10100000352E+00 0. -1.
       -3    1    3    3    0  502  0.19814138416E+03 -0.17952141491E+03  0.68840782108E+03  0.73850747109E+03  0.10100000352E+00 0.  1.
</event>
<event>
 5   0  0.3083469E-05  0.1896974E+04  0.7818609E-02  0.8656364E-01
       -1   -1    0    0    0  501  0.00000000000E+00  0.00000000000E+00  0.11640609766E+04  0.11640609766E+04  0.50400001928E-02 0. -1.
        1   -1    0    0  501    0  0.00000000000E+00  0.00000000000E+00 -0.77283543923E+03  0.77283543925E+03  0.50400001928E-02 0.  1.
    10030    2    1    2    0    0  0.00000000000E+00  0.00000000000E+00  0.39122553735E+03  0.19368964158E+04  0.18969739863E+04 0.  0.
        3    1    3    3  502    0 -0.45731991365E+03 -0.40029813239E+03 -0.54789296457E+03  0.81827062091E+03  0.10100000352E+00 0.  1.
       -3    1    3    3    0  502  0.45731991365E+03  0.40029813239E+03  0.93911850192E+03  0.11186257949E+04  0.10100000352E+00 0. -1.
</event>
<event>
 5   0  0.2279625E-05  0.1895815E+04  0.7818609E-02  0.8656942E-01
        3   -1    0    0  501    0  0.00000000000E+00  0.00000000000E+00  0.11799883190E+04  0.11799883234E+04  0.10100000352E+00 0. -1.
       -3   -1    0    0    0  501  0.00000000000E+00  0.00000000000E+00 -0.76147220058E+03  0.76147220728E+03  0.10100000352E+00 0.  1.
    10030    2    1    2    0    0  0.00000000000E+00  0.00000000000E+00  0.41851611846E+03  0.19414605306E+04  0.18958146667E+04 0.  0.
        5    1    3    3  502    0 -0.10827510481E+03 -0.78512691829E+03 -0.32322115357E+03  0.85594496334E+03  0.46999998093E+01 0.  1.
       -5    1    3    3    0  502  0.10827510481E+03  0.78512691829E+03  0.74173727203E+03  0.10855155673E+04  0.46999998093E+01 0. -1.
</event>
<event>
 5   0  0.3083469E-05  0.1901016E+04  0.7818609E-02  0.8654351E-01
        1   -1    0    0  501    0  0.00000000000E+00  0.00000000000E+00  0.91545549781E+03  0.91545549783E+03  0.50400001928E-02 0. -1.
       -1   -1    0    0    0  501  0.00000000000E+00  0.00000000000E+00 -0.98690308605E+03  0.98690308606E+03  0.50400001928E-02 0.  1.
    10030    2    1    2    0    0  0.00000000000E+00  0.00000000000E+00 -0.71447588239E+02  0.19023585839E+04  0.19010164186E+04 0.  0.
        3    1    3    3  502    0 -0.24074913052E+03  0.84695744802E+03  0.32253564789E+03  0.93772400895E+03  0.10100000352E+00 0. -1.
       -3    1    3    3    0  502  0.24074913052E+03 -0.84695744802E+03 -0.39398323613E+03  0.96463457493E+03  0.10100000352E+00 0.  1.
</event>
<event>
 5   0  0.3086139E-05  0.1896089E+04  0.7818609E-02  0.8656806E-01
        1   -1    0    0  501    0  0.00000000000E+00  0.00000000000E+00  0.10498870505E+04  0.10498870505E+04  0.50400001928E-02 0.  1.
       -1   -1    0    0    0  501  0.00000000000E+00  0.00000000000E+00 -0.85608094522E+03  0.85608094523E+03  0.50400001928E-02 0. -1.
    10030    2    1    2    0    0  0.00000000000E+00  0.00000000000E+00  0.19380610530E+03  0.19059679958E+04  0.18960889205E+04 0.  0.
        2    1    3    3  502    0  0.83948396411E+03  0.15319160963E+03 -0.31827104968E+03  0.91076750948E+03  0.25500000920E-02 0. -1.
       -2    1    3    3    0  502 -0.83948396411E+03 -0.15319160963E+03  0.51207715498E+03  0.99520048629E+03  0.25500000920E-02 0.  1.
</event>
<event>
 5   0  0.3147063E-05  0.1909472E+04  0.7818609E-02  0.8650156E-01
       -1   -1    0    0    0  501  0.00000000000E+00  0.00000000000E+00  0.12299039781E+04  0.12299039781E+04  0.50400001928E-02 0.  1.
        1   -1    0    0  501    0  0.00000000000E+00  0.00000000000E+00 -0.74113198028E+03  0.74113198030E+03  0.50400001928E-02 0. -1.
    10030    2    1    2    0    0  0.00000000000E+00  0.00000000000E+00  0.48877199777E+03  0.19710359584E+04  0.19094723573E+04 0.  0.
        5    1    3    3  502    0  0.28561479885E+02 -0.91791344733E+03  0.51379545556E+03  0.10523253846E+04  0.46999998093E+01 0.  1.
       -5    1    3    3    0  502 -0.28561479885E+02  0.91791344733E+03 -0.25023457789E+02  0.91871057377E+03  0.46999998093E+01 0. -1.
</event>
<event>
 5   0  0.6098377E-05  0.1913153E+04  0.7818609E-02  0.8648337E-01
       -2   -1    0    0    0  501  0.00000000000E+00  0.00000000000E+00  0.53992208855E+03  0.53992208855E+03  0.25500000920E-02 0. -1.
        2   -1    0    0  501    0  0.00000000000E+00  0.00000000000E+00 -0.16947610826E+04  0.16947610826E+04  0.25500000920E-02 0.  1.
    10030    2    1    2    0    0  0.00000000000E+00  0.00000000000E+00 -0.11548389941E+04  0.22346831712E+04  0.19131533586E+04 0.  0.
        5    1    3    3  502    0  0.79642501232E+03 -0.51155958033E+03 -0.41628250441E+03  0.10340692520E+04  0.46999998093E+01 0.  1.
       -5    1    3    3    0  502 -0.79642501232E+03  0.51155958033E+03 -0.73855648968E+03  0.12006139192E+04  0.46999998093E+01 0. -1.
</event>
<event>
 5   0  0.2279625E-05  0.1893245E+04  0.7818609E-02  0.8658226E-01
        3   -1    0    0  501    0  0.00000000000E+00  0.00000000000E+00  0.53849691654E+03  0.53849692601E+03  0.10100000352E+00 0. -1.
       -3   -1    0    0    0  501  0.00000000000E+00  0.00000000000E+00 -0.16640654952E+04  0.16640654983E+04  0.10100000352E+00 0.  1.
    10030    2    1    2    0    0  0.00000000000E+00  0.00000000000E+00 -0.11255685786E+04  0.22025624243E+04  0.18932449941E+04 0.  0.
        2    1    3    3  502    0 -0.41757752763E+03 -0.65616633114E+03  0.64976096030E+02  0.78047878815E+03  0.25500000920E-02 0. -1.
       -2    1    3    3    0  502  0.41757752763E+03  0.65616633114E+03 -0.11905446747E+04  0.14220836361E+04  0.25500000920E-02 0.  1.
</event>
<event>
 5   0  0.6361762E-05  0.1897172E+04  0.7818609E-02  0.8656265E-01
       -2   -1    0    0    0  501  0.00000000000E+00  0.00000000000E+00  0.66282133874E+03  0.66282133874E+03  0.25500000920E-02 0. -1.
        2   -1    0    0  501    0  0.00000000000E+00  0.00000000000E+00 -0.13575532853E+04  0.13575532853E+04  0.25500000920E-02 0.  1.
    10030    2    1    2    0    0  0.00000000000E+00  0.00000000000E+00 -0.69473194660E+03  0.20203746241E+04  0.18971718805E+04 0.  0.
        1    1    3    3  502    0 -0.18970844135E+03  0.45880028882E+03 -0.12081435749E+04  0.13061768239E+04  0.50400001928E-02 0.  1.
       -1    1    3    3    0  502  0.18970844135E+03 -0.45880028882E+03  0.51341162827E+03  0.71419780020E+03  0.50400001928E-02 0. -1.
</event>
<event>
 5   0  0.3203527E-05  0.1899536E+04  0.7818609E-02  0.8655087E-01
       -1   -1    0    0    0  501  0.00000000000E+00  0.00000000000E+00  0.61747450209E+03  0.61747450211E+03  0.50400001928E-02 0.  1.
        1   -1    0    0  501    0  0.00000000000E+00  0.00000000000E+00 -0.14608856445E+04  0.14608856445E+04  0.50400001928E-02 0. -1.
    10030    2    1    2    0    0  0.00000000000E+00  0.00000000000E+00 -0.84341114239E+03  0.20783601466E+04  0.18995364023E+04 0.  0.
        1    1    3    3  502    0 -0.15407903136E+03  0.39193231843E+03  0.50973428347E+03  0.66119613573E+03  0.50400001928E-02 0.  1.
       -1    1    3    3    0  502  0.15407903136E+03 -0.39193231843E+03 -0.13531454259E+04  0.14171640109E+04  0.50400001928E-02 0. -1.
</event>
<event>
 5   0  0.6395992E-05  0.1901711E+04  0.7818609E-02  0.8654005E-01
       -2   -1    0    0    0  501  0.00000000000E+00  0.00000000000E+00  0.90942003158E+03  0.90942003158E+03  0.25500000920E-02 0. -1.
        2   -1    0    0  501    0  0.00000000000E+00  0.00000000000E+00 -0.99417917215E+03  0.99417917215E+03  0.25500000920E-02 0.  1.
    10030    2    1    2    0    0  0.00000000000E+00  0.00000000000E+00 -0.84759140571E+02  0.19035992037E+04  0.19017112863E+04 0.  0.
        4    1    3    3  502    0 -0.45095863083E+03  0.28570319826E+03  0.74525279015E+03  0.91672969754E+03  0.12699999809E+01 0. -1.
       -4    1    3    3    0  502  0.45095863083E+03 -0.28570319826E+03 -0.83001193072E+03  0.98686950620E+03  0.12699999809E+01 0.  1.
</event>
<event>
 5   0  0.6452182E-05  0.1908441E+04  0.7818609E-02  0.8650666E-01
        2   -1    0    0  501    0  0.00000000000E+00  0.00000000000E+00  0.16337467802E+04  0.16337467802E+04  0.25500000920E-02 0.  1.
       -2   -1    0    0    0  501  0.00000000000E+00  0.00000000000E+00 -0.55733047197E+03  0.55733047197E+03  0.25500000920E-02 0. -1.
    10030    2    1    2    0    0  0.00000000000E+00  0.00000000000E+00  0.10764163082E+04  0.21910772521E+04  0.19084411063E+04 0.  0.
        3    1    3    3  502    0  0.74404817393E+03 -0.57881001839E+03  0.36827363930E+03  0.10120544482E+04  0.10100000352E+00 0. -1.
       -3    1    3    3    0  502 -0.74404817393E+03  0.57881001839E+03  0.70814266890E+03  0.11790228039E+04  0.10100000352E+00 0.  1.
</event>
<event>
 5   0  0.3083469E-05  0.1905487E+04  0.7818609E-02  0.8652130E-01
       -1   -1    0    0    0  501  0.00000000000E+00  0.00000000000E+00  0.17597739241E+04  0.17597739242E+04  0.50400001928E-02 0.  1.
        1   -1    0    0  501    0  0.00000000000E+00  0.00000000000E+00 -0.51581620204E+03  0.51581620206E+03  0.50400001928E-02 0. -1.
    10030    2    1    2    0    0  0.00000000000E+00  0.00000000000E+00  0.12439577221E+04  0.22755901262E+04  0.19054867116E+04 0.  0.
        3    1    3    3  502    0 -0.71351100254E+03  0.39035936157E+03  0.29369170403E+02  0.81384331433E+03  0.10100000352E+00 0. -1.
       -3    1    3    3    0  502  0.71351100254E+03 -0.39035936157E+03  0.12145885517E+04  0.14617468119E+04  0.10100000352E+00 0.  1.
</event>
<event>
 5   0  0.3147063E-05  0.1900630E+04  0.7818609E-02  0.8654543E-01
        1   -1    0    0  501    0  0.00000000000E+00  0.00000000000E+00  0.18219390354E+04  0.18219390354E+04  0.50400001928E-02 0.  1.
       -1   -1    0    0    0  501  0.00000000000E+00  0.00000000000E+00 -0.49567987574E+03  0.49567987576E+03  0.50400001928E-02 0. -1.
    10030    2    1    2    0    0  0.00000000000E+00  0.00000000000E+00  0.13262591596E+04  0.23176189111E+04  0.19006299110E+04 0.  0.
        5    1    3    3  502    0 -0.29837859516E+02 -0.64755466143E+03  0.15104636533E+04  0.16436970144E+04  0.46999998093E+01 0.  1.
       -5    1    3    3    0  502  0.29837859516E+02  0.64755466143E+03 -0.18420449364E+03  0.67392189671E+03  0.46999998093E+01 0. -1.
</event>
<event>
 5   0  0.3144958E-05  0.1898423E+04  0.7818609E-02  0.8655642E-01
        1   -1    0    0  501    0  0.00000000000E+00  0.00000000000E+00  0.10843836656E+04  0.10843836656E+04  0.50400001928E-02 0. -1.
       -1   -1    0    0    0  501  0.00000000000E+00  0.00000000000E+00 -0.83088917467E+03  0.83088917468E+03  0.50400001928E-02 0.  1.
    10030    2    1    2    0    0  0.00000000000E+00  0.00000000000E+00  0.25349449095E+03  0.19152728403E+04  0.18984231867E+04 0.  0.
        4    1    3    3  502    0  0.93138725039E+03  0.17889333146E+03  0.87465797771E+02  0.95243735380E+03  0.12699999809E+01 0.  1.
       -4    1    3    3    0  502 -0.93138725039E+03 -0.17889333146E+03  0.16602869318E+03  0.96283548651E+03  0.12699999809E+01 0. -1.
</event>
<event>
 5   0  0.6098377E-05  0.1878944E+04  0.7818609E-02  0.8665409E-01
        2   -1    0    0  501    0  0.00000000000E+00  0.00000000000E+00  0.74198777352E+03  0.74198777352E+03  0.25500000920E-02 0.  1.
       -2   -1    0    0    0  501  0.00000000000E+00  0.00000000000E+00 -0.11895173636E+04  0.11895173636E+04  0.25500000920E-02 0. -1.
    10030    2    1    2    0    0  0.00000000000E+00  0.00000000000E+00 -0.44752959003E+03  0.19315051371E+04  0.18789436821E+04 0.  0.
        5    1    3    3  502    0  0.66650831310E+03  0.65658577233E+03 -0.31127576592E+03  0.98602885369E+03  0.46999998093E+01 0. -1.
       -5    1    3    3    0  502 -0.66650831310E+03 -0.65658577233E+03 -0.13625382412E+03  0.94547628339E+03  0.46999998093E+01 0.  1.
</event>
<event>
 5   0  0.6423388E-05  0.1901770E+04  0.7818609E-02  0.8653976E-01
        2   -1    0    0  501    0  0.00000000000E+00  0.00000000000E+00  0.17785365462E+04  0.17785365462E+04  0.25500000920E-02 0.  1.
       -2   -1    0    0    0  501  0.00000000000E+00  0.00000000000E+00 -0.50838563490E+03  0.50838563491E+03  0.25500000920E-02 0. -1.
    10030    2    1    2    0    0  0.00000000000E+00  0.00000000000E+00  0.12701509113E+04  0.22869221811E+04  0.19017701557E+04 0.  0.
        2    1    3    3  502    0 -0.80855405734E+03 -0.29202518867E+02  0.34331331682E+02  0.80980929303E+03  0.25500000920E-02 0. -1.
       -2    1    3    3    0  502  0.80855405734E+03  0.29202518867E+02  0.12358195796E+04  0.14771128881E+04  0.25500000920E-02 0.  1.
</event>
<event>
 5   0  0.6452182E-05  0.1906011E+04  0.7818609E-02  0.8651870E-01
       -2   -1    0    0    0  501  0.00000000000E+00  0.00000000000E+00  0.11109490796E+04  0.11109490796E+04  0.25500000920E-02 0.  1.
        2   -1    0    0  501    0  0.00000000000E+00  0.00000000000E+00 -0.81751714279E+03  0.81751714279E+03  0.25500000920E-02 0. -1.
    10030    2    1    2    0    0  0.00000000000E+00  0.00000000000E+00  0.29343193680E+03  0.19284662224E+04  0.19060114557E+04 0.  0.
        3    1    3    3  502    0 -0.11910818758E+03  0.68877676776E+03  0.80212809128E+03  0.10639594359E+04  0.10100000352E+00 0.  1.
       -3    1    3    3    0  502  0.11910818758E+03 -0.68877676776E+03 -0.50869615448E+03  0.86450678652E+03  0.10100000352E+00 0. -1.
</event>
<event>
 5   0  0.6423388E-05  0.1901999E+04  0.7818609E-02  0.8653862E-01
       -2   -1    0    0    0  501  0.00000000000E+00  0.00000000000E+00  0.85177774794E+03  0.85177774795E+03  0.25500000920E-02 0.  1.
        2   -1    0    0  501    0  0.00000000000E+00  0.00000000000E+00 -0.10617788474E+04  0.10617788474E+04  0.25500000920E-02 0. -1.
    10030    2    1    2    0    0  0.00000000000E+00  0.00000000000E+00 -0.21000109943E+03  0.19135565953E+04  0.19019985231E+04 0.  0.
        2    1    3    3  502    0 -0.63144514514E+03  0.68038557562E+02  0.60714790018E+03  0.87862437329E+03  0.25500000920E-02 0.  1.
       -2    1    3    3    0  502  0.63144514514E+03 -0.68038557562E+02 -0.81714899961E+03  0.10349322220E+04  0.25500000920E-02 0. -1.
</event>
<event>
 5   0  0.6452182E-05  0.1892973E+04  0.7818609E-02  0.8658362E-01
        2   -1    0    0  501    0  0.00000000000E+00  0.00000000000E+00  0.13952162950E+04  0.13952162950E+04  0.25500000920E-02 0. -1.
       -2   -1    0    0    0  501  0.00000000000E+00  0.00000000000E+00 -0.64207755297E+03  0.64207755298E+03  0.25500000920E-02 0.  1.
    10030    2    1    2    0    0  0.00000000000E+00  0.00000000000E+00  0.75313874202E+03  0.20372938480E+04  0.18929733908E+04 0.  0.
        3    1    3    3  502    0  0.34622248890E+03  0.64741272728E+03 -0.26631974514E+03  0.78098621506E+03  0.10100000352E+00 0.  1.
       -3    1    3    3    0  502 -0.34622248890E+03 -0.64741272728E+03  0.10194584872E+04  0.12563076329E+04  0.10100000352E+00 0. -1.
</event>
<event>
 5   0  0.6098377E-05  0.1895331E+04  0.7818609E-02  0.8657184E-01
       -2   -1    0    0    0  501  0.00000000000E+00  0.00000000000E+00  0.97119038879E+03  0.97119038879E+03  0.25500000920E-02 0. -1.
        2   -1    0    0  501    0  0.00000000000E+00  0.00000000000E+00 -0.92471026298E+03  0.92471026298E+03  0.25500000920E-02 0.  1.
    10030    2    1    2    0    0  0.00000000000E+00  0.00000000000E+00  0.46480125813E+02  0.18959006518E+04  0.18953308100E+04 0.  0.
        5    1    3    3  502    0  0.80900922516E+03 -0.22720075066E+03  0.46147168004E+03  0.95869406432E+03  0.46999998093E+01 0. -1.
       -5    1    3    3    0  502 -0.80900922516E+03  0.22720075066E+03 -0.41499155422E+03  0.93720658745E+03  0.46999998093E+01 0.  1.
</event>
<event>
 5   0  0.6395992E-05  0.1907586E+04  0.7818609E-02  0.8651089E-01
        2   -1    0    0  501    0  0.00000000000E+00  0.00000000000E+00  0.84347534649E+03  0.84347534649E+03  0.25500000920E-02 0. -1.
       -2   -1    0    0    0  501  0.00000000000E+00  0.00000000000E+00 -0.10785395278E+04  0.10785395278E+04  0.25500000920E-02 0.  1.
    10030    2    1    2    0    0  0.00000000000E+00  0.00000000000E+00 -0.23506418128E+03  0.19220148743E+04  0.19075864352E+04 0.  0.
        4    1    3    3  502    0  0.92656829112E+03 -0.13535080053E+03 -0.30020773153E+03  0.98334883550E+03  0.12699999809E+01 0.  1.
       -4    1    3    3    0  502 -0.92656829112E+03  0.13535080053E+03  0.65143550245E+02  0.93866603877E+03  0.12699999809E+01 0. -1.
</event>
<event>
 5   0  0.6395992E-05  0.1903683E+04  0.7818609E-02  0.8653026E-01
       -2   -1    0    0    0  501  0.00000000000E+00  0.00000000000E+00  0.52295542507E+03  0.52295542508E+03  0.25500000920E-02 0. -1.
        2   -1    0    0  501    0  0.00000000000E+00  0.00000000000E+00 -0.17324646504E+04  0.17324646504E+04  0.25500000920E-02 0.  1.
    10030    2    1    2    0    0  0.00000000000E+00  0.00000000000E+00 -0.12095092253E+04  0.22554200755E+04  0.19036825236E+04 0.  0.
        4    1    3    3  502    0  0.31703879135E+03 -0.42258943147E+03 -0.15428212701E+04  0.16307650067E+04  0.12699999809E+01 0.  1.
       -4    1    3    3    0  502 -0.31703879135E+03  0.42258943147E+03  0.33331204477E+03  0.62465506874E+03  0.12699999809E+01 0. -1.
</event>
<event>
 5   0  0.3203527E-05  0.1926643E+04  0.7818609E-02  0.8641707E-01
       -1   -1    0    0    0  501  0.00000000000E+00  0.00000000000E+00  0.97862694802E+03  0.97862694804E+03  0.50400001928E-02 0.  1.
        1   -1    0    0  501    0  0.00000000000E+00  0.00000000000E+00 -0.94825504374E+03  0.94825504375E+03  0.50400001928E-02 0. -1.
    10030    2    1    2    0    0  0.00000000000E+00  0.00000000000E+00  0.30371904283E+02  0.19268819918E+04  0.19266426129E+04 0.  0.
        1    1    3    3  502    0 -0.71382668428E+03 -0.48148119992E+03  0.44722950765E+03  0.97025095394E+03  0.50400001928E-02 0.  1.
       -1    1    3    3    0  502  0.71382668428E+03  0.48148119992E+03 -0.41685760337E+03  0.95663103785E+03  0.50400001928E-02 0. -1.
</event>
<event>
 5   0  0.6423388E-05  0.1892343E+04  0.7818609E-02  0.8658677E-01
        2   -1    0    0  501    0  0.00000000000E+00  0.00000000000E+00  0.17584390625E+04  0.17584390626E+04  0.25500000920E-02 0. -1.
       -2   -1    0    0    0  501  0.00000000000E+00  0.00000000000E+00 -0.50911065914E+03  0.50911065915E+03  0.25500000920E-02 0.  1.
    10030    2    1    2    0    0  0.00000000000E+00  0.00000000000E+00  0.12493284034E+04  0.22675497217E+04  0.18923425379E+04 0.  0.
        2    1    3    3  502    0  0.45904932040E+02  0.80777426958E+03  0.36856673322E+02  0.80991663013E+03  0.25500000920E-02 0.  1.
       -2    1    3    3    0  502 -0.45904932040E+02 -0.80777426958E+03  0.12124717301E+04  0.14576330916E+04  0.25500000920E-02 0. -1.
</event>
<event>
 5   0  0.3147063E-05  0.1904820E+04  0.7818609E-02  0.8652461E-01
       -1   -1    0    0    0  501  0.00000000000E+00  0.00000000000E+00  0.49099636635E+03  0.49099636638E+03  0.50400001928E-02 0. -1.
        1   -1    0    0  501    0  0.00000000000E+00  0.00000000000E+00 -0.18474364690E+04  0.18474364690E+04  0.50400001928E-02 0.  1.
    10030    2    1    2    0    0  0.00000000000E+00  0.00000000000E+00 -0.13564401027E+04  0.23384328354E+04  0.19048197746E+04 0.  0.
        5    1    3    3  502    0  0.48692218112E+03 -0.21005120611E+03  0.29297255829E+03  0.60586279764E+03  0.46999998093E+01 0. -1.
       -5    1    3    3    0  502 -0.48692218112E+03  0.21005120611E+03 -0.16494126610E+04  0.17325700378E+04  0.46999998093E+01 0.  1.
</event>
<event>
 5   0  0.3144958E-05  0.1916587E+04  0.7818609E-02  0.8646644E-01
       -1   -1    0    0    0  501  0.00000000000E+00  0.00000000000E+00  0.55374899353E+03  0.55374899355E+03  0.50400001928E-02 0.  1.
        1   -1    0    0  501    0  0.00000000000E+00  0.00000000000E+00 -0.16583796898E+04  0.16583796898E+04  0.50400001928E-02 0. -1.
    10030    2    1    2    0    0  0.00000000000E+00  0.00000000000E+00 -0.11046306963E+04  0.22121286834E+04  0.19165866369E+04 0.  0.
        4    1    3    3  502    0  0.14149784276E+03  0.36663983265E+03 -0.15610895122E+04  0.16097976532E+04  0.12699999809E+01 0. -1.
       -4    1    3    3    0  502 -0.14149784276E+03 -0.36663983265E+03  0.45645881589E+03  0.60233103016E+03  0.12699999809E+01 0.  1.
</event>
<event>
 5   0  0.3147063E-05  0.1903064E+04  0.7818609E-02  0.8653333E-01
        1   -1    0    0  501    0  0.00000000000E+00  0.00000000000E+00  0.55787456791E+03  0.55787456793E+03  0.50400001928E-02 0. -1.
       -1   -1    0    0    0  501  0.00000000000E+00  0.00000000000E+00 -0.16229682728E+04  0.16229682728E+04  0.50400001928E-02 0.  1.
    10030    2    1    2    0    0  0.00000000000E+00  0.00000000000E+00 -0.10650937049E+04  0.21808428408E+04  0.19030635554E+04 0.  0.
        5    1    3    3  502    0 -0.16100577847E+03 -0.47869996121E+03  0.39158229764E+03  0.63908942988E+03  0.46999998093E+01 0. -1.
       -5    1    3    3    0  502  0.16100577847E+03  0.47869996121E+03 -0.14566760026E+04  0.15417534109E+04  0.46999998093E+01 0.  1.
</event>
<event>
 5   0  0.6361762E-05  0.1909796E+04  0.7818609E-02  0.8649996E-01
       -2   -1    0    0    0  501  0.00000000000E+00  0.00000000000E+00  0.94167301289E+03  0.94167301290E+03  0.25500000920E-02 0. -1.
        2   -1    0    0  501    0  0.00000000000E+00  0.00000000000E+00 -0.96830891742E+03  0.96830891743E+03  0.25500000920E-02 0.  1.
    10030    2    1    2    0    0  0.00000000000E+00  0.00000000000E+00 -0.26635904528E+02  0.19099819303E+04  0.19097961940E+04 0.  0.
        1    1    3    3  502    0 -0.66074540409E+03 -0.18726496741E+03 -0.67684138162E+03  0.96424421852E+03  0.50400001928E-02 0.  1.
       -1    1    3    3    0  502  0.66074540409E+03  0.18726496741E+03  0.65020547710E+03  0.94573771180E+03  0.50400001928E-02 0. -1.
</event>
<event>
 5   0  0.6452182E-05  0.1896945E+04  0.7818609E-02  0.8656378E-01
       -2   -1    0    0    0  501  0.00000000000E+00  0.00000000000E+00  0.12782922073E+04  0.12782922073E+04  0.25500000920E-02 0.  1.
        2   -1    0    0  501    0  0.00000000000E+00  0.00000000000E+00 -0.70375163518E+03  0.70375163518E+03  0.25500000920E-02 0. -1.
    10030    2    1    2    0    0  0.00000000000E+00  0.00000000000E+00  0.57454057215E+03  0.19820438425E+04  0.18969451559E+04 0.  0.
        3    1    3    3  502    0 -0.86116460496E+03  0.30574784600E+03  0.21879731013E+02  0.91409242148E+03  0.10100000352E+00 0. -1.
       -3    1    3    3    0  502  0.86116460496E+03 -0.30574784600E+03  0.55266084113E+03  0.10679514210E+04  0.10100000352E+00 0.  1.
</event>
<event>
 5   0  0.6098377E-05  0.1906200E+04  0.7818609E-02  0.8651776E-01
       -2   -1    0    0    0  501  0.00000000000E+00  0.00000000000E+00  0.88627689341E+03  0.88627689342E+03  0.25500000920E-02 0.  1.
        2   -1    0    0  501    0  0.00000000000E+00  0.00000000000E+00 -0.10249618415E+04  0.10249618415E+04  0.25500000920E-02 0. -1.
    10030    2    1    2    0    0  0.00000000000E+00  0.00000000000E+00 -0.13868494808E+03  0.19112387349E+04  0.19062004058E+04 0.  0.
        5    1    3    3  502    0 -0.93290515145E+03 -0.15660491238E+02  0.12564682782E+03  0.94147038611E+03  0.46999998093E+01 0. -1.
       -5    1    3    3    0  502  0.93290515145E+03  0.15660491238E+02 -0.26433177590E+03  0.96976834880E+03  0.46999998093E+01 0.  1.
</event>
<event>
 5   0  0.3147063E-05  0.1903636E+04  0.7818609E-02  0.8653049E-01
        1   -1    0    0  501    0  0.00000000000E+00  0.00000000000E+00  0.15319996059E+04  0.15319996059E+04  0.50400001928E-02 0. -1.
       -1   -1    0    0    0  501  0.00000000000E+00  0.00000000000E+00 -0.59135626581E+03  0.59135626583E+03  0.50400001928E-02 0.  1.
    10030    2    1    2    0    0  0.00000000000E+00  0.00000000000E+00  0.94064334006E+03  0.21233558717E+04  0.19036360642E+04 0.  0.
        5    1    3    3  502    0  0.13646895151E+03 -0.54248239190E+03  0.13292861439E+04  0.14421978583E+04  0.46999998093E+01 0. -1.
       -5    1    3    3    0  502 -0.13646895151E+03  0.54248239190E+03 -0.38864280382E+03  0.68115801339E+03  0.46999998093E+01 0.  1.
</event>
<event>
 5   0  0.6452182E-05  0.1908277E+04  0.7818609E-02  0.8650747E-01
        2   -1    0    0  501    0  0.00000000000E+00  0.00000000000E+00  0.14889649645E+04  0.14889649645E+04  0.25500000920E-02 0.  1.
       -2   -1    0    0    0  501  0.00000000000E+00  0.00000000000E+00 -0.61141820155E+03  0.61141820156E+03  0.25500000920E-02 0. -1.
    10030    2    1    2    0    0  0.00000000000E+00  0.00000000000E+00  0.87754676293E+03  0.21003831660E+04  0.19082770038E+04 0.  0.
        3    1    3    3  502    0 -0.41463946695E+02 -0.76583930472E+03 -0.18594886184E+03  0.78918064406E+03  0.10100000352E+00 0. -1.
       -3    1    3    3    0  502  0.41463946695E+02  0.76583930472E+03  0.10634956248E+04  0.13112025220E+04  0.10100000352E+00 0.  1.
</event>
<event>
 5   0  0.6395992E-05  0.1919898E+04  0.7818609E-02  0.8645015E-01
        2   -1    0    0  501    0  0.00000000000E+00  0.00000000000E+00  0.13075848185E+04  0.13075848185E+04  0.25500000920E-02 0. -1.
       -2   -1    0    0    0  501  0.00000000000E+00  0.00000000000E+00 -0.70473573786E+03  0.70473573787E+03  0.25500000920E-02 0.  1.
    10030    2    1    2    0    0  0.00000000000E+00  0.00000000000E+00  0.60284908060E+03  0.20123205563E+04  0.19198976555E+04 0.  0.
        4    1    3    3  502    0 -0.78508050967E+02 -0.92023017052E+03  0.57577504407E+03  0.10883499415E+04  0.12699999809E+01 0. -1.
       -4    1    3    3    0  502  0.78508050967E+02  0.92023017052E+03  0.27074036524E+02  0.92397061487E+03  0.12699999809E+01 0.  1.
</event>
<event>
 5   0  0.6098377E-05  0.1897004E+04  0.7818609E-02  0.8656349E-01
       -2   -1    0    0    0  501  0.00000000000E+00  0.00000000000E+00  0.34929304786E+03  0.34929304787E+03  0.25500000920E-02 0. -1.
        2   -1    0    0  501    0  0.00000000000E+00  0.00000000000E+00 -0.25756473464E+04  0.25756473464E+04  0.25500000920E-02 0.  1.
    10030    2    1    2    0    0  0.00000000000E+00  0.00000000000E+00 -0.22263542985E+04  0.29249403942E+04  0.18970036498E+04 0.  0.
        5    1    3    3  502    0  0.32073549478E+03  0.36712713205E+02 -0.24883130387E+04  0.25091717657E+04  0.46999998093E+01 0.  1.
       -5    1    3    3    0  502 -0.32073549478E+03 -0.36712713205E+02  0.26195874023E+03  0.41576862857E+03  0.46999998093E+01 0. -1.
</event>
<event>
 5   0  0.3147063E-05  0.1909486E+04  0.7818609E-02  0.8650149E-01
        1   -1    0    0  501    0  0.00000000000E+00  0.00000000000E+00  0.92468586414E+03  0.92468586416E+03  0.50400001928E-02 0. -1.
       -1   -1    0    0    0  501  0.00000000000E+00  0.00000000000E+00 -0.98577756574E+03  0.98577756575E+03  0.50400001928E-02 0.  1.
    10030    2    1    2    0    0  0.00000000000E+00  0.00000000000E+00 -0.61091701597E+02  0.19104634299E+04  0.19094864024E+04 0.  0.
        5    1    3    3  502    0  0.43826515481E+03 -0.60589449003E+03 -0.62442181014E+03  0.97422233908E+03  0.46999998093E+01 0.  1.
       -5    1    3    3    0  502 -0.43826515481E+03  0.60589449003E+03  0.56333010855E+03  0.93624109083E+03  0.46999998093E+01 0. -1.
</event>
<event>
 5   0  0.6452182E-05  0.1902672E+04  0.7818609E-02  0.8653528E-01
        2   -1    0    0  501    0  0.00000000000E+00  0.00000000000E+00  0.54335279445E+03  0.54335279446E+03  0.25500000920E-02 0.  1.
       -2   -1    0    0    0  501  0.00000000000E+00  0.00000000000E+00 -0.16656581007E+04  0.16656581007E+04  0.25500000920E-02 0. -1.
    10030    2    1    2    0    0  0.00000000000E+00  0.00000000000E+00 -0.11223053063E+04  0.22090108952E+04  0.19026717885E+04 0.  0.
        3    1    3    3  502    0 -0.14902105811E+03 -0.48046352654E+03  0.37630921798E+03  0.62822059329E+03  0.10100000352E+00 0.  1.
       -3    1    3    3    0  502  0.14902105811E+03  0.48046352654E+03 -0.14986145243E+04  0.15807903019E+04  0.10100000352E+00 0. -1.
</event>
<event>
 5   0  0.6361762E-05  0.1911999E+04  0.7818609E-02  0.8648906E-01
        2   -1    0    0  501    0  0.00000000000E+00  0.00000000000E+00  0.14241267264E+04  0.14241267264E+04  0.25500000920E-02 0. -1.
       -2   -1    0    0    0  501  0.00000000000E+00  0.00000000000E+00 -0.64175150630E+03  0.64175150631E+03  0.25500000920E-02 0.  1.
    10030    2    1    2    0    0  0.00000000000E+00  0.00000000000E+00  0.78237522012E+03  0.20658782327E+04  0.19119994475E+04 0.  0.
        1    1    3    3  502    0  0.38395946025E+03  0.77726282898E+03  0.82657314643E+03  0.11978253374E+04  0.50400001928E-02 0. -1.
       -1    1    3    3    0  502 -0.38395946025E+03 -0.77726282898E+03 -0.44197926305E+02  0.86805289536E+03  0.50400001928E-02 0.  1.
</event>
<event>
 5   0  0.6395992E-05  0.1895250E+04  0.7818609E-02  0.8657224E-01
        2   -1    0    0  501    0  0.00000000000E+00  0.00000000000E+00  0.13307698223E+04  0.13307698223E+04  0.25500000920E-02 0. -1.
       -2   -1    0    0    0  501  0.00000000000E+00  0.00000000000E+00 -0.67479218756E+03  0.67479218757E+03  0.25500000920E-02 0.  1.
    10030    2    1    2    0    0  0.00000000000E+00  0.00000000000E+00  0.65597763470E+03  0.20055620098E+04  0.18952499355E+04 0.  0.
        4    1    3    3  502    0 -0.74777625881E+03  0.34572185925E+02 -0.28688800512E+03  0.80166758052E+03  0.12699999809E+01 0.  1.
       -4    1    3    3    0  502  0.74777625881E+03 -0.34572185925E+02  0.94286563982E+03  0.12038944293E+04  0.12699999809E+01 0. -1.
</event>
<event>
 5   0  0.6361762E-05  0.1897946E+04  0.7818609E-02  0.8655879E-01
        2   -1    0    0  501    0  0.00000000000E+00  0.00000000000E+00  0.16548228164E+04  0.16548228164E+04  0.25500000920E-02 0.  1.
       -2   -1    0    0    0  501  0.00000000000E+00  0.00000000000E+00 -0.54419728933E+03  0.54419728933E+03  0.25500000920E-02 0. -1.
    10030    2    1    2    0    0  0.00000000000E+00  0.00000000000E+00  0.11106255270E+04  0.21990201057E+04  0.18979463543E+04 0.  0.
        1    1    3    3  502    0  0.10311090102E+02  0.64434663984E+03 -0.25179782018E+03  0.69187502711E+03  0.50400001928E-02 0. -1.
       -1    1    3    3    0  502 -0.10311090102E+02 -0.64434663984E+03  0.13624233472E+04  0.15071450786E+04  0.50400001928E-02 0.  1.
</event>
<event>
 5   0  0.6452182E-05  0.1896272E+04  0.7818609E-02  0.8656714E-01
       -2   -1    0    0    0  501  0.00000000000E+00  0.00000000000E+00  0.85471199718E+03  0.85471199719E+03  0.25500000920E-02 0. -1.
        2   -1    0    0  501    0  0.00000000000E+00  0.00000000000E+00 -0.10517720597E+04  0.10517720597E+04  0.25500000920E-02 0.  1.
    10030    2    1    2    0    0  0.00000000000E+00  0.00000000000E+00 -0.19706006255E+03  0.19064840569E+04  0.18962723410E+04 0.  0.
        3    1    3    3  502    0  0.29460960146E+02  0.64076887862E+03 -0.80050883954E+03  0.10258007196E+04  0.10100000352E+00 0.  1.
       -3    1    3    3    0  502 -0.29460960146E+02 -0.64076887862E+03  0.60344877698E+03  0.88068333731E+03  0.10100000352E+00 0. -1.
</event>
<event>
 5   0  0.6423388E-05  0.1927214E+04  0.7818609E-02  0.8641427E-01
        2   -1    0    0  501    0  0.00000000000E+00  0.00000000000E+00  0.16643200559E+04  0.16643200559E+04  0.25500000920E-02 0. -1.
       -2   -1    0    0    0  501  0.00000000000E+00  0.00000000000E+00 -0.55790876209E+03  0.55790876209E+03  0.25500000920E-02 0.  1.
    10030    2    1    2    0    0  0.00000000000E+00  0.00000000000E+00  0.11064112938E+04  0.22222288180E+04  0.19272143027E+04 0.  0.
        2    1    3    3  502    0  0.68530767108E+03  0.52446293106E+03  0.10475935899E+04  0.13572620601E+04  0.25500000920E-02 0. -1.
       -2    1    3    3    0  502 -0.68530767108E+03 -0.52446293106E+03  0.58817703964E+02  0.86496675797E+03  0.25500000920E-02 0.  1.
</event>
<event>
 5   0  0.6361762E-05  0.1899203E+04  0.7818609E-02  0.8655253E-01
        2   -1    0    0  501    0  0.00000000000E+00  0.00000000000E+00  0.49475910672E+03  0.49475910673E+03  0.25500000920E-02 0.  1.
       -2   -1    0    0    0  501  0.00000000000E+00  0.00000000000E+00 -0.18225898176E+04  0.18225898176E+04  0.25500000920E-02 0. -1.
    10030    2    1    2    0    0  0.00000000000E+00  0.00000000000E+00 -0.13278307108E+04  0.23173489243E+04  0.18992028960E+04 0.  0.
        1    1    3    3  502    0  0.38129518487E+03  0.65750550076E+03  0.30663666948E+02  0.76068374640E+03  0.50400001928E-02 0.  1.
       -1    1    3    3    0  502 -0.38129518487E+03 -0.65750550076E+03 -0.13584943778E+04  0.15566651779E+04  0.50400001928E-02 0. -1.
</event>
<event>
 5   0  0.6423388E-05  0.1903149E+04  0.7818609E-02  0.8653290E-01
       -2   -1    0    0    0  501  0.00000000000E+00  0.00000000000E+00  0.69102925579E+03  0.69102925580E+03  0.25500000920E-02 0.  1.
        2   -1    0    0  501    0  0.00000000000E+00  0.00000000000E+00 -0.13103560776E+04  0.13103560776E+04  0.25500000920E-02 0. -1.
    10030    2    1    2    0    0  0.00000000000E+00  0.00000000000E+00 -0.61932682183E+03  0.20013853334E+04  0.19031493742E+04 0.  0.
        2    1    3    3  502    0  0.69177567825E+03  0.27744697088E+03 -0.93177673999E+03  0.11932050552E+04  0.25500000920E-02 0. -1.
       -2    1    3    3    0  502 -0.69177567825E+03 -0.27744697088E+03  0.31244991816E+03  0.80818027818E+03  0.25500000920E-02 0.  1.
</event>
<event>
 5   0  0.3203527E-05  0.1891688E+04  0.7818609E-02  0.8659005E-01
        1   -1    0    0  501    0  0.00000000000E+00  0.00000000000E+00  0.12065717071E+04  0.12065717071E+04  0.50400001928E-02 0.  1.
       -1   -1    0    0    0  501  0.00000000000E+00  0.00000000000E+00 -0.74145671479E+03  0.74145671481E+03  0.50400001928E-02 0. -1.
    10030    2    1    2    0    0  0.00000000000E+00  0.00000000000E+00  0.46511499227E+03  0.19480284219E+04  0.18916878116E+04 0.  0.
        1    1    3    3  502    0 -0.77002042136E+03  0.52189806869E+03  0.56251955232E+02  0.93191916275E+03  0.50400001928E-02 0. -1.
       -1    1    3    3    0  502  0.77002042136E+03 -0.52189806869E+03  0.40886303704E+03  0.10161092591E+04  0.50400001928E-02 0.  1.
</event>
<event>
 5   0  0.3086139E-05  0.1899289E+04  0.7818609E-02  0.8655210E-01
       -1   -1    0    0    0  501  0.00000000000E+00  0.00000000000E+00  0.53866115207E+03  0.53866115209E+03  0.50400001928E-02 0.  1.
        1   -1    0    0  501    0  0.00000000000E+00  0.00000000000E+00 -0.16741962253E+04  0.16741962253E+04  0.50400001928E-02 0. -1.
    10030    2    1    2    0    0  0.00000000000E+00  0.00000000000E+00 -0.11355350732E+04  0.22128573774E+04  0.18992887801E+04 0.  0.
        2    1    3    3  502    0  0.12642936539E+03 -0.58989168840E+03 -0.14222442386E+04  0.15449062310E+04  0.25500000920E-02 0. -1.
       -2    1    3    3    0  502 -0.12642936539E+03  0.58989168840E+03  0.28670916534E+03  0.66795114639E+03  0.25500000920E-02 0.  1.
</event>
<event>
 5   0  0.3144958E-05  0.1919017E+04  0.7818609E-02  0.8645448E-01
        1   -1    0    0  501    0  0.00000000000E+00  0.00000000000E+00  0.10665697957E+04  0.10665697958E+04  0.50400001928E-02 0. -1.
       -1   -1    0    0    0  501  0.00000000000E+00  0.00000000000E+00 -0.86319372399E+03  0.86319372401E+03  0.50400001928E-02 0.  1.
    10030    2    1    2    0    0  0.00000000000E+00  0.00000000000E+00  0.20337607175E+03  0.19297635198E+04  0.19190167836E+04 0.  0.
        4    1    3    3  502    0 -0.66570661256E+02  0.84010587615E+03  0.56300012569E+03  0.10134990333E+04  0.12699999809E+01 0. -1.
       -4    1    3    3    0  502  0.66570661256E+02 -0.84010587615E+03 -0.35962405394E+03  0.91626448646E+03  0.12699999809E+01 0.  1.
</event>
<event>
 5   0  0.3147063E-05  0.1940435E+04  0.7818609E-02  0.8634987E-01
       -1   -1    0    0    0  501  0.00000000000E+00  0.00000000000E+00  0.60014448333E+03  0.60014448336E+03  0.50400001928E-02 0. -1.
        1   -1    0    0  501    0  0.00000000000E+00  0.00000000000E+00 -0.15684921318E+04  0.15684921318E+04  0.50400001928E-02 0.  1.
    10030    2    1    2    0    0  0.00000000000E+00  0.00000000000E+00 -0.96834764843E+03  0.21686366151E+04  0.19404348998E+04 0.  0.
        5    1    3    3  502    0 -0.40043563212E+03 -0.21584962295E+03 -0.14419019285E+04  0.15119666056E+04  0.46999998093E+01 0.  1.
       -5    1    3    3    0  502  0.40043563212E+03  0.21584962295E+03  0.47355428006E+03  0.65667000949E+03  0.46999998093E+01 0. -1.
</event>
<event>
 5   0  0.6452182E-05  0.1907106E+04  0.7818609E-02  0.8651327E-01
       -2   -1    0    0    0  501  0.00000000000E+00  0.00000000000E+00  0.10589400031E+04  0.10589400031E+04  0.25500000920E-02 0.  1.
        2   -1    0    0  501    0  0.00000000000E+00  0.00000000000E+00 -0.85865460144E+03  0.85865460144E+03  0.25500000920E-02 0. -1.
    10030    2    1    2    0    0  0.00000000000E+00  0.00000000000E+00  0.20028540168E+03  0.19175946046E+04  0.19071064012E+04 0.  0.
        3    1    3    3  502    0 -0.24109603748E+03 -0.34344516136E+03 -0.76082670337E+03  0.86887235019E+03  0.10100000352E+00 0. -1.
       -3    1    3    3    0  502  0.24109603748E+03  0.34344516136E+03  0.96111210506E+03  0.10487222544E+04  0.10100000352E+00 0.  1.
</event>
<event>
 5   0  0.6452182E-05  0.1902995E+04  0.7818609E-02  0.8653367E-01
       -2   -1    0    0    0  501  0.00000000000E+00  0.00000000000E+00  0.60765181053E+03  0.60765181053E+03  0.25500000920E-02 0. -1.
        2   -1    0    0  501    0  0.00000000000E+00  0.00000000000E+00 -0.14899119846E+04  0.14899119846E+04  0.25500000920E-02 0.  1.
    10030    2    1    2    0    0  0.00000000000E+00  0.00000000000E+00 -0.88226017404E+03  0.20975637951E+04  0.19029952338E+04 0.  0.
        3    1    3    3  502    0 -0.67194647189E+02 -0.68603481765E+03  0.28181786869E+03  0.74470142538E+03  0.10100000352E+00 0. -1.
       -3    1    3    3    0  502  0.67194647189E+02  0.68603481765E+03 -0.11640780427E+04  0.13528623697E+04  0.10100000352E+00 0.  1.
</event>
<event>
 5   0  0.3083469E-05  0.1905770E+04  0.7818609E-02  0.8651989E-01
       -1   -1    0    0    0  501  0.00000000000E+00  0.00000000000E+00  0.59631529047E+03  0.59631529049E+03  0.50400001928E-02 0.  1.
        1   -1    0    0  501    0  0.00000000000E+00  0.00000000000E+00 -0.15226677579E+04  0.15226677579E+04  0.50400001928E-02 0. -1.
    10030    2    1    2    0    0  0.00000000000E+00  0.00000000000E+00 -0.92635246743E+03  0.21189830484E+04  0.19057702552E+04 0.  0.
        3    1    3    3  502    0  0.23687211368E+03 -0.70987045057E+03  0.19270483363E+03  0.77276103547E+03  0.10100000352E+00 0.  1.
       -3    1    3    3    0  502 -0.23687211368E+03  0.70987045057E+03 -0.11190573011E+04  0.13462220129E+04  0.10100000352E+00 0. -1.
</event>
<event>
 5   0  0.3144958E-05  0.1899929E+04  0.7818609E-02  0.8654892E-01
        1   -1    0    0  501    0  0.00000000000E+00  0.00000000000E+00  0.16492500261E+04  0.16492500261E+04  0.50400001928E-02 0.  1.
       -1   -1    0    0    0  501  0.00000000000E+00  0.00000000000E+00 -0.54717725108E+03  0.54717725110E+03  0.50400001928E-02 0. -1.
    10030    2    1    2    0    0  0.00000000000E+00  0.00000000000E+00  0.11020727751E+04  0.21964272773E+04  0.18999285204E+04 0.  0.
        4    1    3    3  502    0 -0.63279366917E+03  0.58513778354E+03  0.89167868176E+02  0.86646787308E+03  0.12699999809E+01 0. -1.
       -4    1    3    3    0  502  0.63279366917E+03 -0.58513778354E+03  0.10129049069E+04  0.13299594042E+04  0.12699999809E+01 0.  1.
</event>
<event>
 5   0  0.3147063E-05  0.1911158E+04  0.7818609E-02  0.8649322E-01
        1   -1    0    0  501    0  0.00000000000E+00  0.00000000000E+00  0.85578350203E+03  0.85578350205E+03  0.50400001928E-02 0.  1.
       -1   -1    0    0    0  501  0.00000000000E+00  0.00000000000E+00 -0.10670119290E+04  0.10670119290E+04  0.50400001928E-02 0. -1.
    10030    2    1    2    0    0  0.00000000000E+00  0.00000000000E+00 -0.21122842694E+03  0.19227954310E+04  0.19111579791E+04 0.  0.
        5    1    3    3  502    0 -0.31938988506E+03  0.85190375192E+03  0.18832782217E+03  0.92910675372E+03  0.46999998093E+01 0.  1.
       -5    1    3    3    0  502  0.31938988506E+03 -0.85190375192E+03 -0.39955624911E+03  0.99368867731E+03  0.46999998093E+01 0. -1.
</event>
<event>
 5   0  0.6395992E-05  0.1901543E+04  0.7818609E-02  0.8654089E-01
        2   -1    0    0  501    0  0.00000000000E+00  0.00000000000E+00  0.87367350525E+03  0.87367350525E+03  0.25500000920E-02 0. -1.
       -2   -1    0    0    0  501  0.00000000000E+00  0.00000000000E+00 -0.10346730103E+04  0.10346730103E+04  0.25500000920E-02 0.  1.
    10030    2    1    2    0    0  0.00000000000E+00  0.00000000000E+00 -0.16099950501E+03  0.19083465155E+04  0.19015429479E+04 0.  0.
        4    1    3    3  502    0  0.31252317737E+03  0.67660375812E+02  0.81808988387E+03  0.87836287139E+03  0.12699999809E+01 0. -1.
       -4    1    3    3    0  502 -0.31252317737E+03 -0.67660375812E+02 -0.97908938888E+03  0.10299836441E+04  0.12699999809E+01 0.  1.
</event>
<event>
 5   0  0.6395992E-05  0.1901117E+04  0.7818609E-02  0.8654300E-01
       -2   -1    0    0    0  501  0.00000000000E+00  0.00000000000E+00  0.84531683027E+03  0.84531683027E+03  0.25500000920E-02 0.  1.
        2   -1    0    0  501    0  0.00000000000E+00  0.00000000000E+00 -0.10689030168E+04  0.10689030168E+04  0.25500000920E-02 0. -1.
    10030    2    1    2    0    0  0.00000000000E+00  0.00000000000E+00 -0.22358618652E+03  0.19142198471E+04  0.19011172610E+04 0.  0.
        4    1    3    3  502    0  0.78977740483E+03  0.29367721963E+00 -0.64441106335E+03  0.10193211795E+04  0.12699999809E+01 0. -1.
       -4    1    3    3    0  502 -0.78977740483E+03 -0.29367721963E+00  0.42082487683E+03  0.89489866761E+03  0.12699999809E+01 0.  1.
</event>
<event>
 5   0  0.6452182E-05  0.1892420E+04  0.7818609E-02  0.8658639E-01
        2   -1    0    0  501    0  0.00000000000E+00  0.00000000000E+00  0.72925092446E+03  0.72925092446E+03  0.25500000920E-02 0.  1.
       -2   -1    0    0    0  501  0.00000000000E+00  0.00000000000E+00 -0.12277162393E+04  0.12277162393E+04  0.25500000920E-02 0. -1.
    10030    2    1    2    0    0  0.00000000000E+00  0.00000000000E+00 -0.49846531487E+03  0.19569671638E+04  0.18924198292E+04 0.  0.
        3    1    3    3  502    0  0.26841303339E+03  0.90176722167E+03 -0.35307440676E+03  0.10049334433E+04  0.10100000352E+00 0. -1.
       -3    1    3    3    0  502 -0.26841303339E+03 -0.90176722167E+03 -0.14539090811E+03  0.95203372048E+03  0.10100000352E+00 0.  1.
</event>
<event>
 5   0  0.3203527E-05  0.1889884E+04  0.7818609E-02  0.8659908E-01
        1   -1    0    0  501    0  0.00000000000E+00  0.00000000000E+00  0.95392641599E+03  0.95392641601E+03  0.50400001928E-02 0. -1.
       -1   -1    0    0    0  501  0.00000000000E+00  0.00000000000E+00 -0.93604230536E+03  0.93604230538E+03  0.50400001928E-02 0.  1.
    10030    2    1    2    0    0  0.00000000000E+00  0.00000000000E+00  0.17884110632E+02  0.18899687214E+04  0.18898841040E+04 0.  0.
        1    1    3    3  502    0 -0.51210833535E+03 -0.22731150764E+03 -0.75200594642E+03  0.93778377684E+03  0.50400001928E-02 0.  1.
       -1    1    3    3    0  502  0.51210833535E+03  0.22731150764E+03  0.76989005705E+03  0.95218494454E+03  0.50400001928E-02 0. -1.
</event>
<event>
 5   0  0.6395992E-05  0.1898605E+04  0.7818609E-02  0.8655551E-01
       -2   -1    0    0    0  501  0.00000000000E+00  0.00000000000E+00  0.13672503738E+04  0.13672503738E+04  0.25500000920E-02 0.  1.
        2   -1    0    0  501    0  0.00000000000E+00  0.00000000000E+00 -0.65911489046E+03  0.65911489047E+03  0.25500000920E-02 0. -1.
    10030    2    1    2    0    0  0.00000000000E+00  0.00000000000E+00  0.70813548334E+03  0.20263652643E+04  0.18986048355E+04 0.  0.
        4    1    3    3  502    0  0.91412790974E+03  0.62942125464E+02  0.89211772350E+02  0.92062581962E+03  0.12699999809E+01 0. -1.
       -4    1    3    3    0  502 -0.91412790974E+03 -0.62942125464E+02  0.61892371099E+03  0.11057394446E+04  0.12699999809E+01 0.  1.
</event>
<event>
 5   0  0.3144958E-05  0.1902113E+04  0.7818609E-02  0.8653805E-01
       -1   -1    0    0    0  501  0.00000000000E+00  0.00000000000E+00  0.62570828511E+03  0.62570828513E+03  0.50400001928E-02 0.  1.
        1   -1    0    0  501    0  0.00000000000E+00  0.00000000000E+00 -0.14455751716E+04  0.14455751716E+04  0.50400001928E-02 0. -1.
    10030    2    1    2    0    0  0.00000000000E+00  0.00000000000E+00 -0.81986688651E+03  0.20712834568E+04  0.19021128901E+04 0.  0.
        4    1    3    3  502    0 -0.45513651604E+03 -0.74065475654E+02  0.49583266108E+03  0.67711637375E+03  0.12699999809E+01 0.  1.
       -4    1    3    3    0  502  0.45513651604E+03  0.74065475654E+02 -0.13156995476E+04  0.13941670830E+04  0.12699999809E+01 0. -1.
</event>
<event>
 5   0  0.6361762E-05  0.1914230E+04  0.7818609E-02  0.8647805E-01
       -2   -1    0    0    0  501  0.00000000000E+00  0.00000000000E+00  0.74180278837E+03  0.74180278837E+03  0.25500000920E-02 0. -1.
        2   -1    0    0  501    0  0.00000000000E+00  0.00000000000E+00 -0.12349229124E+04  0.12349229124E+04  0.25500000920E-02 0.  1.
    10030    2    1    2    0    0  0.00000000000E+00  0.00000000000E+00 -0.49312012404E+03  0.19767257008E+04  0.19142301427E+04 0.  0.
        1    1    3    3  502    0 -0.11888030048E+03 -0.74430879982E+03 -0.85568327750E+03  0.11403166169E+04  0.50400001928E-02 0.  1.
       -1    1    3    3    0  502  0.11888030048E+03  0.74430879982E+03  0.36256315346E+03  0.83640908389E+03  0.50400001928E-02 0. -1.
</event>
<event>
 5   0  0.6098377E-05  0.1901990E+04  0.7818609E-02  0.8653867E-01
        2   -1    0    0  501    0  0.00000000000E+00  0.00000000000E+00  0.14607874357E+04  0.14607874357E+04  0.25500000920E-02 0.  1.
       -2   -1    0    0    0  501  0.00000000000E+00  0.00000000000E+00 -0.61911212144E+03  0.61911212145E+03  0.25500000920E-02 0. -1.
    10030    2    1    2    0    0  0.00000000000E+00  0.00000000000E+00  0.84167531422E+03  0.20798995571E+04  0.19019897037E+04 0.  0.
        5    1    3    3  502    0  0.59653369407E+03 -0.27207998736E+03  0.11741018861E+04  0.13447740689E+04  0.46999998093E+01 0.  1.
       -5    1    3    3    0  502 -0.59653369407E+03  0.27207998736E+03 -0.33242657184E+03  0.73512548816E+03  0.46999998093E+01 0. -1.
</event>
<event>
 5   0  0.3203527E-05  0.1909667E+04  0.7818609E-02  0.8650060E-01
       -1   -1    0    0    0  501  0.00000000000E+00  0.00000000000E+00  0.11665602056E+04  0.11665602056E+04  0.50400001928E-02 0.  1.
        1   -1    0    0  501    0  0.00000000000E+00  0.00000000000E+00 -0.78153407217E+03  0.78153407219E+03  0.50400001928E-02 0. -1.
    10030    2    1    2    0    0  0.00000000000E+00  0.00000000000E+00  0.38502613339E+03  0.19480942778E+04  0.19096665132E+04 0.  0.
        1    1    3    3  502    0  0.76981176429E+02 -0.45872861303E+03 -0.65814240715E+03  0.80592150365E+03  0.50400001928E-02 0. -1.
       -1    1    3    3    0  502 -0.76981176429E+02  0.45872861303E+03  0.10431685405E+04  0.11421727741E+04  0.50400001928E-02 0.  1.
</event>
<event>
 5   0  0.3203527E-05  0.1896512E+04  0.7818609E-02  0.8656594E-01
       -1   -1    0    0    0  501  0.00000000000E+00  0.00000000000E+00  0.99295407219E+03  0.99295407221E+03  0.50400001928E-02 0. -1.
        1   -1    0    0  501    0  0.00000000000E+00  0.00000000000E+00 -0.90557048992E+03  0.90557048993E+03  0.50400001928E-02 0.  1.
    10030    2    1    2    0    0  0.00000000000E+00  0.00000000000E+00  0.87383582277E+02  0.18985245621E+04  0.18965124894E+04 0.  0.
        1    1    3    3  502    0 -0.73781750287E+03  0.12864573670E+03  0.62591481314E+03  0.97606031906E+03  0.50400001928E-02 0. -1.
       -1    1    3    3    0  502  0.73781750287E+03 -0.12864573670E+03 -0.53853123087E+03  0.92246424307E+03  0.50400001928E-02 0.  1.
</event>
<event>
 5   0  0.3144958E-05  0.1896518E+04  0.7818609E-02  0.8656592E-01
       -1   -1    0    0    0  501  0.00000000000E+00  0.00000000000E+00  0.37699980145E+03  0.37699980148E+03  0.50400001928E-02 0. -1.
        1   -1    0    0  501    0  0.00000000000E+00  0.00000000000E+00 -0.23851336810E+04  0.23851336810E+04  0.50400001928E-02 0.  1.
    10030    2    1    2    0    0  0.00000000000E+00  0.00000000000E+00 -0.20081338796E+04  0.27621334825E+04  0.18965177819E+04 0.  0.
        4    1    3    3  502    0  0.10184947488E+03  0.43768399755E+03  0.21207103573E+03  0.49690676624E+03  0.12699999809E+01 0. -1.
       -4    1    3    3    0  502 -0.10184947488E+03 -0.43768399755E+03 -0.22202049153E+04  0.22652267162E+04  0.12699999809E+01 0.  1.
</event>
<event>
 5   0  0.6395992E-05  0.1896300E+04  0.7818609E-02  0.8656701E-01
       -2   -1    0    0    0  501  0.00000000000E+00  0.00000000000E+00  0.73711604600E+03  0.73711604600E+03  0.25500000920E-02 0. -1.
        2   -1    0    0  501    0  0.00000000000E+00  0.00000000000E+00 -0.12196017090E+04  0.12196017090E+04  0.25500000920E-02 0.  1.
    10030    2    1    2    0    0  0.00000000000E+00  0.00000000000E+00 -0.48248566304E+03  0.19567177550E+04  0.18962995433E+04 0.  0.
        4    1    3    3  502    0 -0.17315108663E+03  0.90374433589E+03 -0.47711114430E+03  0.10365190690E+04  0.12699999809E+01 0. -1.
       -4    1    3    3    0  502  0.17315108663E+03 -0.90374433589E+03 -0.53745187401E+01  0.92019868605E+03  0.12699999809E+01 0.  1.
</event>
<event>
 5   0  0.3203527E-05  0.1911866E+04  0.7818609E-02  0.8648972E-01
        1   -1    0    0  501    0  0.00000000000E+00  0.00000000000E+00  0.16362573261E+04  0.16362573261E+04  0.50400001928E-02 0.  1.
       -1   -1    0    0    0  501  0.00000000000E+00  0.00000000000E+00 -0.55847446547E+03  0.55847446549E+03  0.50400001928E-02 0. -1.
    10030    2    1    2    0    0  0.00000000000E+00  0.00000000000E+00  0.10777828606E+04  0.21947317916E+04  0.19118660367E+04 0.  0.
        1    1    3    3  502    0  0.49234245596E+03 -0.73694032692E+03  0.95011782300E+03  0.12993098233E+04  0.50400001928E-02 0.  1.
       -1    1    3    3    0  502 -0.49234245596E+03  0.73694032692E+03  0.12766503760E+03  0.89542196825E+03  0.50400001928E-02 0. -1.
</event>
<event>
 5   0  0.6361762E-05  0.1903089E+04  0.7818609E-02  0.8653320E-01
        2   -1    0    0  501    0  0.00000000000E+00  0.00000000000E+00  0.16125329807E+04  0.16125329807E+04  0.25500000920E-02 0. -1.
       -2   -1    0    0    0  501  0.00000000000E+00  0.00000000000E+00 -0.56149982689E+03  0.56149982690E+03  0.25500000920E-02 0.  1.
    10030    2    1    2    0    0  0.00000000000E+00  0.00000000000E+00  0.10510331538E+04  0.21740328076E+04  0.19030890568E+04 0.  0.
        1    1    3    3  502    0  0.26717959151E+02  0.68074760147E+03  0.12844030654E+04  0.14538990270E+04  0.50400001928E-02 0. -1.
       -1    1    3    3    0  502 -0.26717959151E+02 -0.68074760147E+03 -0.23336991163E+03  0.72013378057E+03  0.50400001928E-02 0.  1.
</event>
<event>
 5   0  0.2279625E-05  0.1893850E+04  0.7818609E-02  0.8657924E-01
        3   -1    0    0  501    0  0.00000000000E+00  0.00000000000E+00  0.98731990500E+03  0.98731991017E+03  0.10100000352E+00 0. -1.
       -3   -1    0    0    0  501  0.00000000000E+00  0.00000000000E+00 -0.90818309038E+03  0.90818309600E+03  0.10100000352E+00 0.  1.
    10030    2    1    2    0    0  0.00000000000E+00  0.00000000000E+00  0.79136814618E+02  0.18955030062E+04  0.18938503138E+04 0.  0.
        2    1    3    3  502    0  0.24134240481E+03 -0.39801710623E+03 -0.78577444546E+03  0.91329362877E+03  0.25500000920E-02 0.  1.
       -2    1    3    3    0  502 -0.24134240481E+03  0.39801710623E+03  0.86491126008E+03  0.98220937739E+03  0.25500000920E-02 0. -1.
</event>
<event>
 5   0  0.6452182E-05  0.1900784E+04  0.7818609E-02  0.8654466E-01
       -2   -1    0    0    0  501  0.00000000000E+00  0.00000000000E+00  0.64765286863E+03  0.64765286864E+03  0.25500000920E-02 0.  1.
        2   -1    0    0  501    0  0.00000000000E+00  0.00000000000E+00 -0.13946431214E+04  0.13946431214E+04  0.25500000920E-02 0. -1.
    10030    2    1    2    0    0  0.00000000000E+00  0.00000000000E+00 -0.74699025278E+03  0.20422959901E+04  0.19007836471E+04 0.  0.
        3    1    3    3  502    0 -0.46343324624E+03  0.39803937959E+03  0.40874459312E+03  0.73503596785E+03  0.10100000352E+00 0.  1.
       -3    1    3    3    0  502  0.46343324624E+03 -0.39803937959E+03 -0.11557348459E+04  0.13072600222E+04  0.10100000352E+00 0. -1.
</event>
<event>
 5   0  0.3203527E-05  0.1926827E+04  0.7818609E-02  0.8641617E-01
        1   -1    0    0  501    0  0.00000000000E+00  0.00000000000E+00  0.14133833389E+04  0.14133833389E+04  0.50400001928E-02 0.  1.
       -1   -1    0    0    0  501  0.00000000000E+00  0.00000000000E+00 -0.65669756660E+03  0.65669756662E+03  0.50400001928E-02 0. -1.
    10030    2    1    2    0    0  0.00000000000E+00  0.00000000000E+00  0.75668577231E+03  0.20700809055E+04  0.19268268208E+04 0.  0.
        1    1    3    3  502    0  0.20410519631E+03  0.33661692059E+03  0.13230328470E+04  0.13803571265E+04  0.50400001928E-02 0.  1.
       -1    1    3    3    0  502 -0.20410519631E+03 -0.33661692059E+03 -0.56634707468E+03  0.68972377906E+03  0.50400001928E-02 0. -1.
</event>
<event>
 5   0  0.2279625E-05  0.1901422E+04  0.7818609E-02  0.8654149E-01
       -3   -1    0    0    0  501  0.00000000000E+00  0.00000000000E+00  0.46661111872E+03  0.46661112965E+03  0.10100000352E+00 0. -1.
        3   -1    0    0  501    0  0.00000000000E+00  0.00000000000E+00 -0.19370559116E+04  0.19370559142E+04  0.10100000352E+00 0.  1.
    10030    2    1    2    0    0  0.00000000000E+00  0.00000000000E+00 -0.14704447928E+04  0.24036670439E+04  0.19014224593E+04 0.  0.
        2    1    3    3  502    0  0.77385076297E+03 -0.32159807202E+03 -0.13027945061E+04  0.15490461092E+04  0.25500000920E-02 0.  1.
       -2    1    3    3    0  502 -0.77385076297E+03  0.32159807202E+03 -0.16765028672E+03  0.85462093464E+03  0.25500000920E-02 0. -1.
</event>
<event>
 5   0  0.6098377E-05  0.1899137E+04  0.7818609E-02  0.8655286E-01
        2   -1    0    0  501    0  0.00000000000E+00  0.00000000000E+00  0.68726478848E+03  0.68726478848E+03  0.25500000920E-02 0. -1.
       -2   -1    0    0    0  501  0.00000000000E+00  0.00000000000E+00 -0.13119839163E+04  0.13119839163E+04  0.25500000920E-02 0.  1.
    10030    2    1    2    0    0  0.00000000000E+00  0.00000000000E+00 -0.62471912782E+03  0.19992487048E+04  0.18991370132E+04 0.  0.
        5    1    3    3  502    0  0.84395056602E+03  0.38654962023E+03 -0.10185594096E+03  0.93384682336E+03  0.46999998093E+01 0. -1.
       -5    1    3    3    0  502 -0.84395056602E+03 -0.38654962023E+03 -0.52286318686E+03  0.10654018814E+04  0.46999998093E+01 0.  1.
</event>
<event>
 5   0  0.3203527E-05  0.1904674E+04  0.7818609E-02  0.8652534E-01
       -1   -1    0    0    0  501  0.00000000000E+00  0.00000000000E+00  0.52774121750E+03  0.52774121752E+03  0.50400001928E-02 0. -1.
        1   -1    0    0  501    0  0.00000000000E+00  0.00000000000E+00 -0.17185418613E+04  0.17185418613E+04  0.50400001928E-02 0.  1.
    10030    2    1    2    0    0  0.00000000000E+00  0.00000000000E+00 -0.11908006438E+04  0.22462830788E+04  0.19046735933E+04 0.  0.
        1    1    3    3  502    0 -0.11388665137E+03 -0.32703085623E+03 -0.16416575502E+04  0.16777839141E+04  0.50400001928E-02 0.  1.
       -1    1    3    3    0  502  0.11388665137E+03  0.32703085623E+03  0.45085690636E+03  0.56849916476E+03  0.50400001928E-02 0. -1.
</event>
<event>
 5   0  0.3147063E-05  0.1930176E+04  0.7818609E-02  0.8639980E-01
       -1   -1    0    0    0  501  0.00000000000E+00  0.00000000000E+00  0.58978356269E+03  0.58978356272E+03  0.50400001928E-02 0.  1.
        1   -1    0    0  501    0  0.00000000000E+00  0.00000000000E+00 -0.15792143188E+04  0.15792143188E+04  0.50400001928E-02 0. -1.
    10030    2    1    2    0    0  0.00000000000E+00  0.00000000000E+00 -0.98943075611E+03  0.21689978815E+04  0.19301757922E+04 0.  0.
        5    1    3    3  502    0 -0.72302491832E+03  0.62097984530E+03 -0.32432445735E+03  0.10067717936E+04  0.46999998093E+01 0.  1.
       -5    1    3    3    0  502  0.72302491832E+03 -0.62097984530E+03 -0.66510629876E+03  0.11622260879E+04  0.46999998093E+01 0. -1.
</event>
<event>
 5   0  0.3083469E-05  0.1903010E+04  0.7818609E-02  0.8653359E-01
       -1   -1    0    0    0  501  0.00000000000E+00  0.00000000000E+00  0.63104092771E+03  0.63104092773E+03  0.50400001928E-02 0.  1.
        1   -1    0    0  501    0  0.00000000000E+00  0.00000000000E+00 -0.14347123169E+04  0.14347123169E+04  0.50400001928E-02 0. -1.
    10030    2    1    2    0    0  0.00000000000E+00  0.00000000000E+00 -0.80367138915E+03  0.20657532446E+04  0.19030104482E+04 0.  0.
        3    1    3    3  502    0 -0.84921332222E+03  0.18985077351E+03 -0.81966250570E+03  0.11954301386E+04  0.10100000352E+00 0. -1.
       -3    1    3    3    0  502  0.84921332222E+03 -0.18985077351E+03  0.15991116546E+02  0.87032310600E+03  0.10100000352E+00 0.  1.
</event>
<event>
 5   0  0.6395992E-05  0.1923003E+04  0.7818609E-02  0.8643490E-01
        2   -1    0    0  501    0  0.00000000000E+00  0.00000000000E+00  0.14755937059E+04  0.14755937059E+04  0.25500000920E-02 0. -1.
       -2   -1    0    0    0  501  0.00000000000E+00  0.00000000000E+00 -0.62651772192E+03  0.62651772193E+03  0.25500000920E-02 0.  1.
    10030    2    1    2    0    0  0.00000000000E+00  0.00000000000E+00  0.84907598401E+03  0.21021114279E+04  0.19230034916E+04 0.  0.
        4    1    3    3  502    0 -0.94211667730E+03  0.29285699864E+02  0.63206908074E+03  0.11348807962E+04  0.12699999809E+01 0. -1.
       -4    1    3    3    0  502  0.94211667730E+03 -0.29285699864E+02  0.21700690327E+03  0.96723063166E+03  0.12699999809E+01 0.  1.
</event>
<event>
 5   0  0.3086139E-05  0.1907353E+04  0.7818609E-02  0.8651205E-01
       -1   -1    0    0    0  501  0.00000000000E+00  0.00000000000E+00  0.13239657096E+04  0.13239657096E+04  0.50400001928E-02 0. -1.
        1   -1    0    0  501    0  0.00000000000E+00  0.00000000000E+00 -0.68695071092E+03  0.68695071094E+03  0.50400001928E-02 0.  1.
    10030    2    1    2    0    0  0.00000000000E+00  0.00000000000E+00  0.63701499871E+03  0.20109164206E+04  0.19073533343E+04 0.  0.
        2    1    3    3  502    0 -0.90438683736E+03  0.26228738638E+03  0.47766427368E+03  0.10558756475E+04  0.25500000920E-02 0. -1.
       -2    1    3    3    0  502  0.90438683736E+03 -0.26228738638E+03  0.15935072502E+03  0.95504077307E+03  0.25500000920E-02 0.  1.
</event>
<event>
 5   0  0.2279625E-05  0.1901331E+04  0.7818609E-02  0.8654194E-01
        3   -1    0    0  501    0  0.00000000000E+00  0.00000000000E+00  0.33589518834E+03  0.33589520353E+03  0.10100000352E+00 0. -1.
       -3   -1    0    0    0  501  0.00000000000E+00  0.00000000000E+00 -0.26906162999E+04  0.26906163018E+04  0.10100000352E+00 0.  1.
    10030    2    1    2    0    0  0.00000000000E+00  0.00000000000E+00 -0.23547211116E+04  0.30265115053E+04  0.19013312122E+04 0.  0.
        3    1    3    3  502    0  0.85452745611E+03 -0.18561290062E+03 -0.17710256318E+04  0.19751458480E+04  0.10100000352E+00 0.  1.
       -3    1    3    3    0  502 -0.85452745611E+03  0.18561290062E+03 -0.58369547975E+03  0.10513656573E+04  0.10100000352E+00 0. -1.
</event>
<event>
 5   0  0.6361762E-05  0.1905013E+04  0.7818609E-02  0.8652365E-01
       -2   -1    0    0    0  501  0.00000000000E+00  0.00000000000E+00  0.28531567035E+04  0.28531567035E+04  0.25500000920E-02 0. -1.
        2   -1    0    0  501    0  0.00000000000E+00  0.00000000000E+00 -0.31798763345E+03  0.31798763346E+03  0.25500000920E-02 0.  1.
    10030    2    1    2    0    0  0.00000000000E+00  0.00000000000E+00  0.25351690701E+04  0.31711443370E+04  0.19050129113E+04 0.  0.
        1    1    3    3  502    0 -0.71791265589E+02  0.53479278764E+03 -0.39030499121E+02  0.54099971480E+03  0.50400001928E-02 0.  1.
       -1    1    3    3    0  502  0.71791265589E+02 -0.53479278764E+03  0.25741995692E+04  0.26301446222E+04  0.50400001928E-02 0. -1.
</event>
<event>
 5   0  0.6395992E-05  0.1893372E+04  0.7818609E-02  0.8658163E-01
       -2   -1    0    0    0  501  0.00000000000E+00  0.00000000000E+00  0.54316789990E+03  0.54316789991E+03  0.25500000920E-02 0.  1.
        2   -1    0    0  501    0  0.00000000000E+00  0.00000000000E+00 -0.16499765414E+04  0.16499765414E+04  0.25500000920E-02 0. -1.
    10030    2    1    2    0    0  0.00000000000E+00  0.00000000000E+00 -0.11068086415E+04  0.21931444414E+04  0.18933719053E+04 0.  0.
        4    1    3    3  502    0  0.74237450223E+03 -0.50015281216E+03 -0.19649672562E+03  0.91645257006E+03  0.12699999809E+01 0. -1.
       -4    1    3    3    0  502 -0.74237450223E+03  0.50015281216E+03 -0.91031191592E+03  0.12766918713E+04  0.12699999809E+01 0.  1.
</event>
<event>
 5   0  0.6395992E-05  0.1899445E+04  0.7818609E-02  0.8655132E-01
       -2   -1    0    0    0  501  0.00000000000E+00  0.00000000000E+00  0.75707247443E+03  0.75707247444E+03  0.25500000920E-02 0. -1.
        2   -1    0    0  501    0  0.00000000000E+00  0.00000000000E+00 -0.11913962018E+04  0.11913962018E+04  0.25500000920E-02 0.  1.
    10030    2    1    2    0    0  0.00000000000E+00  0.00000000000E+00 -0.43432372732E+03  0.19484686762E+04  0.18994454670E+04 0.  0.
        4    1    3    3  502    0  0.62532811383E+03 -0.37125508939E+03  0.40942711847E+03  0.83456441908E+03  0.12699999809E+01 0. -1.
       -4    1    3    3    0  502 -0.62532811383E+03  0.37125508939E+03 -0.84375084579E+03  0.11139042571E+04  0.12699999809E+01 0.  1.
</event>
<event>
 5   0  0.6423388E-05  0.1900849E+04  0.7818609E-02  0.8654434E-01
        2   -1    0    0  501    0  0.00000000000E+00  0.00000000000E+00  0.17127774066E+04  0.17127774066E+04  0.25500000920E-02 0.  1.
       -2   -1    0    0    0  501  0.00000000000E+00  0.00000000000E+00 -0.52739314347E+03  0.52739314348E+03  0.25500000920E-02 0. -1.
    10030    2    1    2    0    0  0.00000000000E+00  0.00000000000E+00  0.11853842631E+04  0.22401705500E+04  0.19008493476E+04 0.  0.
        2    1    3    3  502    0 -0.13236284150E+03  0.72724736587E+03 -0.11136141510E+03  0.74753596419E+03  0.25500000920E-02 0. -1.
       -2    1    3    3    0  502  0.13236284150E+03 -0.72724736587E+03  0.12967456782E+04  0.14926345858E+04  0.25500000920E-02 0.  1.
</event>
<event>
 5   0  0.6452182E-05  0.1898237E+04  0.7818609E-02  0.8655735E-01
       -2   -1    0    0    0  501  0.00000000000E+00  0.00000000000E+00  0.13256224330E+04  0.13256224330E+04  0.25500000920E-02 0. -1.
        2   -1    0    0  501    0  0.00000000000E+00  0.00000000000E+00 -0.67954918431E+03  0.67954918431E+03  0.25500000920E-02 0.  1.
    10030    2    1    2    0    0  0.00000000000E+00  0.00000000000E+00  0.64607324872E+03  0.20051716173E+04  0.18982367008E+04 0.  0.
        3    1    3    3  502    0 -0.70480247044E+03 -0.40227029842E+03 -0.19688752911E+03  0.83506444341E+03  0.10100000352E+00 0.  1.
       -3    1    3    3    0  502  0.70480247044E+03  0.40227029842E+03  0.84296077783E+03  0.11701071739E+04  0.10100000352E+00 0. -1.
</event>
<event>
 5   0  0.3083469E-05  0.1898761E+04  0.7818609E-02  0.8655473E-01
        1   -1    0    0  501    0  0.00000000000E+00  0.00000000000E+00  0.10847248292E+04  0.10847248293E+04  0.50400001928E-02 0. -1.
       -1   -1    0    0    0  501  0.00000000000E+00  0.00000000000E+00 -0.83092376203E+03  0.83092376204E+03  0.50400001928E-02 0.  1.
    10030    2    1    2    0    0  0.00000000000E+00  0.00000000000E+00  0.25380106722E+03  0.19156485913E+04  0.18987613182E+04 0.  0.
        3    1    3    3  502    0 -0.46049009607E+03  0.63842455805E+03 -0.40856133356E+03  0.88688185142E+03  0.10100000352E+00 0.  1.
       -3    1    3    3    0  502  0.46049009607E+03 -0.63842455805E+03  0.66236240078E+03  0.10287667399E+04  0.10100000352E+00 0. -1.
</event>
<event>
 5   0  0.3144958E-05  0.1898490E+04  0.7818609E-02  0.8655609E-01
       -1   -1    0    0    0  501  0.00000000000E+00  0.00000000000E+00  0.13842707399E+04  0.13842707399E+04  0.50400001928E-02 0.  1.
        1   -1    0    0  501    0  0.00000000000E+00  0.00000000000E+00 -0.65093167621E+03  0.65093167623E+03  0.50400001928E-02 0. -1.
    10030    2    1    2    0    0  0.00000000000E+00  0.00000000000E+00  0.73333906372E+03  0.20352024162E+04  0.18984895819E+04 0.  0.
        4    1    3    3  502    0 -0.68874647376E+03  0.36001715381E+03 -0.21763075818E+03  0.80706184147E+03  0.12699999809E+01 0. -1.
       -4    1    3    3    0  502  0.68874647376E+03 -0.36001715381E+03  0.95096982190E+03  0.12281405747E+04  0.12699999809E+01 0.  1.
</event>
<event>
 5   0  0.6452182E-05  0.1876621E+04  0.7818609E-02  0.8666582E-01
       -2   -1    0    0    0  501  0.00000000000E+00  0.00000000000E+00  0.92817217212E+03  0.92817217212E+03  0.25500000920E-02 0. -1.
        2   -1    0    0  501    0  0.00000000000E+00  0.00000000000E+00 -0.94855913684E+03  0.94855913685E+03  0.25500000920E-02 0.  1.
    10030    2    1    2    0    0  0.00000000000E+00  0.00000000000E+00 -0.20386964722E+02  0.18767313090E+04  0.18766205737E+04 0.  0.
        3    1    3    3  502    0  0.57160539854E+03 -0.48504299443E+03 -0.57451991854E+03  0.94449594234E+03  0.10100000352E+00 0.  1.
       -3    1    3    3    0  502 -0.57160539854E+03  0.48504299443E+03  0.55413295382E+03  0.93223536663E+03  0.10100000352E+00 0. -1.
</event>
<event>
 5   0  0.6423388E-05  0.1935249E+04  0.7818609E-02  0.8637507E-01
       -2   -1    0    0    0  501  0.00000000000E+00  0.00000000000E+00  0.39536451651E+03  0.39536451652E+03  0.25500000920E-02 0. -1.
        2   -1    0    0  501    0  0.00000000000E+00  0.00000000000E+00 -0.23681863909E+04  0.23681863909E+04  0.25500000920E-02 0.  1.
    10030    2    1    2    0    0  0.00000000000E+00  0.00000000000E+00 -0.19728218743E+04  0.27635509074E+04  0.19352486842E+04 0.  0.
        2    1    3    3  502    0  0.85628830309E+03 -0.40829866549E+03 -0.71411629430E+03  0.11873919067E+04  0.25500000920E-02 0. -1.
       -2    1    3    3    0  502 -0.85628830309E+03  0.40829866549E+03 -0.12587055800E+04  0.15761590007E+04  0.25500000920E-02 0.  1.
</event>
<event>
 5   0  0.3203527E-05  0.1898741E+04  0.7818609E-02  0.8655483E-01
        1   -1    0    0  501    0  0.00000000000E+00  0.00000000000E+00  0.13515410447E+04  0.13515410447E+04  0.50400001928E-02 0.  1.
       -1   -1    0    0    0  501  0.00000000000E+00  0.00000000000E+00 -0.66687161734E+03  0.66687161736E+03  0.50400001928E-02 0. -1.
    10030    2    1    2    0    0  0.00000000000E+00  0.00000000000E+00  0.68466942735E+03  0.20184126621E+04  0.18987410170E+04 0.  0.
        1    1    3    3  502    0  0.75505666971E+03 -0.35923558038E+03  0.82027563047E+03  0.11713295380E+04  0.50400001928E-02 0.  1.
       -1    1    3    3    0  502 -0.75505666971E+03  0.35923558038E+03 -0.13560620312E+03  0.84708312404E+03  0.50400001928E-02 0. -1.
</event>
<event>
 5   0  0.6361762E-05  0.1904508E+04  0.7818609E-02  0.8652616E-01
        2   -1    0    0  501    0  0.00000000000E+00  0.00000000000E+00  0.12849796362E+04  0.12849796362E+04  0.25500000920E-02 0. -1.
       -2   -1    0    0    0  501  0.00000000000E+00  0.00000000000E+00 -0.70568259819E+03  0.70568259819E+03  0.25500000920E-02 0.  1.
    10030    2    1    2    0    0  0.00000000000E+00  0.00000000000E+00  0.57929703802E+03  0.19906622344E+04  0.19045080922E+04 0.  0.
        1    1    3    3  502    0  0.35180233846E+03  0.16991891891E+03  0.11973514767E+04  0.12594792111E+04  0.50400001928E-02 0. -1.
       -1    1    3    3    0  502 -0.35180233846E+03 -0.16991891891E+03 -0.61805443870E+03  0.73118302331E+03  0.50400001928E-02 0.  1.
</event>
<event>
 5   0  0.3086139E-05  0.1897300E+04  0.7818609E-02  0.8656201E-01
       -1   -1    0    0    0  501  0.00000000000E+00  0.00000000000E+00  0.67321839013E+03  0.67321839014E+03  0.50400001928E-02 0. -1.
        1   -1    0    0  501    0  0.00000000000E+00  0.00000000000E+00 -0.13367681511E+04  0.13367681511E+04  0.50400001928E-02 0.  1.
    10030    2    1    2    0    0  0.00000000000E+00  0.00000000000E+00 -0.66354976097E+03  0.20099865413E+04  0.18973000845E+04 0.  0.
        2    1    3    3  502    0 -0.23041275557E+02  0.36184613545E+03 -0.12604665212E+04  0.13115789634E+04  0.25500000920E-02 0.  1.
       -2    1    3    3    0  502  0.23041275557E+02 -0.36184613545E+03  0.59691676025E+03  0.69840757785E+03  0.25500000920E-02 0. -1.
</event>
<event>
 5   0  0.6098377E-05  0.1902937E+04  0.7818609E-02  0.8653396E-01
        2   -1    0    0  501    0  0.00000000000E+00  0.00000000000E+00  0.16858871278E+04  0.16858871278E+04  0.25500000920E-02 0.  1.
       -2   -1    0    0    0  501  0.00000000000E+00  0.00000000000E+00 -0.53698278737E+03  0.53698278738E+03  0.25500000920E-02 0. -1.
    10030    2    1    2    0    0  0.00000000000E+00  0.00000000000E+00  0.11489043404E+04  0.22228699151E+04  0.19029370658E+04 0.  0.
        5    1    3    3  502    0 -0.49585218552E+03  0.15163327898E+03  0.15063268657E+04  0.15930802734E+04  0.46999998093E+01 0.  1.
       -5    1    3    3    0  502  0.49585218552E+03 -0.15163327898E+03 -0.35742252534E+03  0.62978964171E+03  0.46999998093E+01 0. -1.
</event>
<event>
 5   0  0.3086139E-05  0.1899592E+04  0.7818609E-02  0.8655059E-01
        1   -1    0    0  501    0  0.00000000000E+00  0.00000000000E+00  0.86108468824E+03  0.86108468825E+03  0.50400001928E-02 0.  1.
       -1   -1    0    0    0  501  0.00000000000E+00  0.00000000000E+00 -0.10476469132E+04  0.10476469132E+04  0.50400001928E-02 0. -1.
    10030    2    1    2    0    0  0.00000000000E+00  0.00000000000E+00 -0.18656222496E+03  0.19087316015E+04  0.18995922885E+04 0.  0.
        2    1    3    3  502    0  0.61371507454E+02 -0.25301831963E+03 -0.10110912939E+04  0.10440739134E+04  0.25500000920E-02 0. -1.
       -2    1    3    3    0  502 -0.61371507454E+02  0.25301831963E+03  0.82452906894E+03  0.86465768807E+03  0.25500000920E-02 0.  1.
</event>
<event>
 5   0  0.3083469E-05  0.1901714E+04  0.7818609E-02  0.8654004E-01
        1   -1    0    0  501    0  0.00000000000E+00  0.00000000000E+00  0.11993075407E+04  0.11993075407E+04  0.50400001928E-02 0.  1.
       -1   -1    0    0    0  501  0.00000000000E+00  0.00000000000E+00 -0.75387577266E+03  0.75387577267E+03  0.50400001928E-02 0. -1.
    10030    2    1    2    0    0  0.00000000000E+00  0.00000000000E+00  0.44543176807E+03  0.19531833134E+04  0.19017138575E+04 0.  0.
        3    1    3    3  502    0  0.25925940559E+03  0.13149244774E+03  0.11525488765E+04  0.11886440283E+04  0.10100000352E+00 0.  1.
       -3    1    3    3    0  502 -0.25925940559E+03 -0.13149244774E+03 -0.70711710842E+03  0.76453928507E+03  0.10100000352E+00 0. -1.
</event>
<event>
 5   0  0.3147063E-05  0.1946186E+04  0.7818609E-02  0.8632202E-01
       -1   -1    0    0    0  501  0.00000000000E+00  0.00000000000E+00  0.69177118584E+03  0.69177118586E+03  0.50400001928E-02 0. -1.
        1   -1    0    0  501    0  0.00000000000E+00  0.00000000000E+00 -0.13688189898E+04  0.13688189898E+04  0.50400001928E-02 0.  1.
    10030    2    1    2    0    0  0.00000000000E+00  0.00000000000E+00 -0.67704780397E+03  0.20605901757E+04  0.19461855367E+04 0.  0.
        5    1    3    3  502    0  0.60760714929E+03  0.49068484051E+02  0.46454357019E+03  0.76643132934E+03  0.46999998093E+01 0. -1.
       -5    1    3    3    0  502 -0.60760714929E+03 -0.49068484051E+02 -0.11415913742E+04  0.12941588463E+04  0.46999998093E+01 0.  1.
</event>
<event>
 5   0  0.6361762E-05  0.1896467E+04  0.7818609E-02  0.8656617E-01
       -2   -1    0    0    0  501  0.00000000000E+00  0.00000000000E+00  0.52257282152E+03  0.52257282152E+03  0.25500000920E-02 0. -1.
        2   -1    0    0  501    0  0.00000000000E+00  0.00000000000E+00 -0.17206158796E+04  0.17206158796E+04  0.25500000920E-02 0.  1.
    10030    2    1    2    0    0  0.00000000000E+00  0.00000000000E+00 -0.11980430581E+04  0.22431887011E+04  0.18964673421E+04 0.  0.
        1    1    3    3  502    0  0.87333639043E+02 -0.90584621886E+03 -0.28393120120E+03  0.95331079075E+03  0.50400001928E-02 0. -1.
       -1    1    3    3    0  502 -0.87333639043E+02  0.90584621886E+03 -0.91411185685E+03  0.12898779103E+04  0.50400001928E-02 0.  1.
</event>
<event>
 5   0  0.3083469E-05  0.1909010E+04  0.7818609E-02  0.8650385E-01
        1   -1    0    0  501    0  0.00000000000E+00  0.00000000000E+00  0.87472295305E+03  0.87472295307E+03  0.50400001928E-02 0. -1.
       -1   -1    0    0    0  501  0.00000000000E+00  0.00000000000E+00 -0.10415633184E+04  0.10415633184E+04  0.50400001928E-02 0.  1.
    10030    2    1    2    0    0  0.00000000000E+00  0.00000000000E+00 -0.16684036538E+03  0.19162862715E+04  0.19090095251E+04 0.  0.
        3    1    3    3  502    0  0.72995849175E+03  0.61398642547E+03 -0.47779899426E+02  0.95504013493E+03  0.10100000352E+00 0. -1.
       -3    1    3    3    0  502 -0.72995849175E+03 -0.61398642547E+03 -0.11906046595E+03  0.96124613658E+03  0.10100000352E+00 0.  1.
</event>
<event>
 5   0  0.6423388E-05  0.1898872E+04  0.7818609E-02  0.8655418E-01
        2   -1    0    0  501    0  0.00000000000E+00  0.00000000000E+00  0.21700520833E+04  0.21700520833E+04  0.25500000920E-02 0. -1.
       -2   -1    0    0    0  501  0.00000000000E+00  0.00000000000E+00 -0.41539486250E+03  0.41539486251E+03  0.25500000920E-02 0.  1.
    10030    2    1    2    0    0  0.00000000000E+00  0.00000000000E+00  0.17546572208E+04  0.25854469458E+04  0.18988717564E+04 0.  0.
        2    1    3    3  502    0  0.38834692496E+03 -0.37948922640E+03  0.19377837490E+04  0.20124192568E+04  0.25500000920E-02 0. -1.
       -2    1    3    3    0  502 -0.38834692496E+03  0.37948922640E+03 -0.18312652821E+03  0.57302768905E+03  0.25500000920E-02 0.  1.
</event>
<event>
 5   0  0.3144958E-05  0.1896972E+04  0.7818609E-02  0.8656365E-01
        1   -1    0    0  501    0  0.00000000000E+00  0.00000000000E+00  0.19154628704E+04  0.19154628704E+04  0.50400001928E-02 0.  1.
       -1   -1    0    0    0  501  0.00000000000E+00  0.00000000000E+00 -0.46966475168E+03  0.46966475170E+03  0.50400001928E-02 0. -1.
    10030    2    1    2    0    0  0.00000000000E+00  0.00000000000E+00  0.14457981187E+04  0.23851276221E+04  0.18969716850E+04 0.  0.
        4    1    3    3  502    0 -0.18634917432E+03  0.72874814358E+03 -0.35572376874E+01  0.75220618076E+03  0.12699999809E+01 0. -1.
       -4    1    3    3    0  502  0.18634917432E+03 -0.72874814358E+03  0.14493553564E+04  0.16329214413E+04  0.12699999809E+01 0.  1.
</event>
<event>
 5   0  0.3147063E-05  0.1924846E+04  0.7818609E-02  0.8642587E-01
        1   -1    0    0  501    0  0.00000000000E+00  0.00000000000E+00  0.15321148912E+04  0.15321148912E+04  0.50400001928E-02 0.  1.
       -1   -1    0    0    0  501  0.00000000000E+00  0.00000000000E+00 -0.60456199756E+03  0.60456199758E+03  0.50400001928E-02 0. -1.
    10030    2    1    2    0    0  0.00000000000E+00  0.00000000000E+00  0.92755289366E+03  0.21366768888E+04  0.19248464242E+04 0.  0.
        5    1    3    3  502    0 -0.72185775091E+03  0.37547490889E+03  0.10343212037E+04  0.13160176527E+04  0.46999998093E+01 0.  1.
       -5    1    3    3    0  502  0.72185775091E+03 -0.37547490889E+03 -0.10676831007E+03  0.82065923610E+03  0.46999998093E+01 0. -1.
</event>
<event>
 5   0  0.6098377E-05  0.1923973E+04  0.7818609E-02  0.8643015E-01
       -2   -1    0    0    0  501  0.00000000000E+00  0.00000000000E+00  0.96737963990E+03  0.96737963991E+03  0.25500000920E-02 0. -1.
        2   -1    0    0  501    0  0.00000000000E+00  0.00000000000E+00 -0.95662373560E+03  0.95662373560E+03  0.25500000920E-02 0.  1.
    10030    2    1    2    0    0  0.00000000000E+00  0.00000000000E+00  0.10755904303E+02  0.19240033755E+04  0.19239733105E+04 0.  0.
        5    1    3    3  502    0 -0.11310628671E+03 -0.60359475929E+03  0.74584652325E+03  0.96614118626E+03  0.46999998093E+01 0. -1.
       -5    1    3    3    0  502  0.11310628671E+03  0.60359475929E+03 -0.73509061895E+03  0.95786218925E+03  0.46999998093E+01 0.  1.
</event>
<event>
 5   0  0.3147063E-05  0.1820776E+04  0.7818609E-02  0.8695328E-01
       -1   -1    0    0    0  501  0.00000000000E+00  0.00000000000E+00  0.76204648412E+03  0.76204648414E+03  0.50400001928E-02 0. -1.
        1   -1    0    0  501    0  0.00000000000E+00  0.00000000000E+00 -0.10876058174E+04  0.10876058174E+04  0.50400001928E-02 0.  1.
    10030    2    1    2    0    0  0.00000000000E+00  0.00000000000E+00 -0.32555933325E+03  0.18496523015E+04  0.18207758668E+04 0.  0.
        5    1    3    3  502    0  0.16715484676E+03 -0.50134772889E+03  0.59025507226E+03  0.79228367924E+03  0.46999998093E+01 0. -1.
       -5    1    3    3    0  502 -0.16715484676E+03  0.50134772889E+03 -0.91581440551E+03  0.10573686223E+04  0.46999998093E+01 0.  1.
</event>
<event>
 5   0  0.3086139E-05  0.1890376E+04  0.7818609E-02  0.8659662E-01
        1   -1    0    0  501    0  0.00000000000E+00  0.00000000000E+00  0.92303526280E+03  0.92303526281E+03  0.50400001928E-02 0.  1.
       -1   -1    0    0    0  501  0.00000000000E+00  0.00000000000E+00 -0.96787201094E+03  0.96787201095E+03  0.50400001928E-02 0. -1.
    10030    2    1    2    0    0  0.00000000000E+00  0.00000000000E+00 -0.44836748139E+02  0.18909072738E+04  0.18903756198E+04 0.  0.
        2    1    3    3  502    0 -0.76210964444E+03 -0.19776983479E+01 -0.58165071610E+03  0.95871402253E+03  0.25500000920E-02 0. -1.
       -2    1    3    3    0  502  0.76210964444E+03  0.19776983479E+01  0.53681396796E+03  0.93219325124E+03  0.25500000920E-02 0.  1.
</event>
<event>
 5   0  0.6361762E-05  0.1900089E+04  0.7818609E-02  0.8654812E-01
       -2   -1    0    0    0  501  0.00000000000E+00  0.00000000000E+00  0.11809073114E+04  0.11809073114E+04  0.25500000920E-02 0. -1.
        2   -1    0    0  501    0  0.00000000000E+00  0.00000000000E+00 -0.76431459021E+03  0.76431459022E+03  0.25500000920E-02 0.  1.
    10030    2    1    2    0    0  0.00000000000E+00  0.00000000000E+00  0.41659272119E+03  0.19452219016E+04  0.19000891430E+04 0.  0.
        1    1    3    3  502    0 -0.42108162234E+03 -0.82336751907E+03  0.43104412517E+03  0.10203150700E+04  0.50400001928E-02 0. -1.
       -1    1    3    3    0  502  0.42108162234E+03  0.82336751907E+03 -0.14451403980E+02  0.92490683165E+03  0.50400001928E-02 0.  1.
</event>
<event>
 5   0  0.3144958E-05  0.1883012E+04  0.7818609E-02  0.8663359E-01
        1   -1    0    0  501    0  0.00000000000E+00  0.00000000000E+00  0.25344614570E+04  0.25344614570E+04  0.50400001928E-02 0.  1.
       -1   -1    0    0    0  501  0.00000000000E+00  0.00000000000E+00 -0.34975234635E+03  0.34975234638E+03  0.50400001928E-02 0. -1.
    10030    2    1    2    0    0  0.00000000000E+00  0.00000000000E+00  0.21847091106E+04  0.28842138034E+04  0.18830123115E+04 0.  0.
        4    1    3    3  502    0 -0.73173357040E+03  0.19439320828E+03  0.19495734760E+04  0.20914256116E+04  0.12699999809E+01 0.  1.
       -4    1    3    3    0  502  0.73173357040E+03 -0.19439320828E+03  0.23513563462E+03  0.79278819179E+03  0.12699999809E+01 0. -1.
</event>
<event>
 5   0  0.6361762E-05  0.1897947E+04  0.7818609E-02  0.8655879E-01
        2   -1    0    0  501    0  0.00000000000E+00  0.00000000000E+00  0.93432019706E+03  0.93432019707E+03  0.25500000920E-02 0.  1.
       -2   -1    0    0    0  501  0.00000000000E+00  0.00000000000E+00 -0.96385647737E+03  0.96385647737E+03  0.25500000920E-02 0. -1.
    10030    2    1    2    0    0  0.00000000000E+00  0.00000000000E+00 -0.29536280306E+02  0.18981766744E+04  0.18979468632E+04 0.  0.
        1    1    3    3  502    0  0.40475904064E+03  0.42466692983E+03 -0.76076642233E+03  0.96069632644E+03  0.50400001928E-02 0. -1.
       -1    1    3    3    0  502 -0.40475904064E+03 -0.42466692983E+03  0.73123014202E+03  0.93748034800E+03  0.50400001928E-02 0.  1.
</event>
<event>
 5   0  0.6361762E-05  0.1902709E+04  0.7818609E-02  0.8653509E-01
        2   -1    0    0  501    0  0.00000000000E+00  0.00000000000E+00  0.16034955689E+04  0.16034955689E+04  0.25500000920E-02 0. -1.
       -2   -1    0    0    0  501  0.00000000000E+00  0.00000000000E+00 -0.56443883109E+03  0.56443883110E+03  0.25500000920E-02 0.  1.
    10030    2    1    2    0    0  0.00000000000E+00  0.00000000000E+00  0.10390567378E+04  0.21679344000E+04  0.19027087687E+04 0.  0.
        1    1    3    3  502    0  0.10865710399E+03  0.60905746459E+03  0.13429859487E+04  0.14786374200E+04  0.50400001928E-02 0. -1.
       -1    1    3    3    0  502 -0.10865710399E+03 -0.60905746459E+03 -0.30392921087E+03  0.68929698002E+03  0.50400001928E-02 0.  1.
</event>
<event>
 5   0  0.3144958E-05  0.1893362E+04  0.7818609E-02  0.8658168E-01
       -1   -1    0    0    0  501  0.00000000000E+00  0.00000000000E+00  0.46812252321E+03  0.46812252324E+03  0.50400001928E-02 0. -1.
        1   -1    0    0  501    0  0.00000000000E+00  0.00000000000E+00 -0.19144657212E+04  0.19144657212E+04  0.50400001928E-02 0.  1.
    10030    2    1    2    0    0  0.00000000000E+00  0.00000000000E+00 -0.14463431979E+04  0.23825882444E+04  0.18933615862E+04 0.  0.
        4    1    3    3  502    0 -0.11806651832E+03 -0.53713215350E+03 -0.16928284498E+04  0.17799214664E+04  0.12699999809E+01 0.  1.
       -4    1    3    3    0  502  0.11806651832E+03  0.53713215350E+03  0.24648525185E+03  0.60266677804E+03  0.12699999809E+01 0. -1.
</event>
<event>
 5   0  0.3083469E-05  0.1892665E+04  0.7818609E-02  0.8658516E-01
       -1   -1    0    0    0  501  0.00000000000E+00  0.00000000000E+00  0.51426727300E+03  0.51426727302E+03  0.50400001928E-02 0.  1.
        1   -1    0    0  501    0  0.00000000000E+00  0.00000000000E+00 -0.17414012299E+04  0.17414012299E+04  0.50400001928E-02 0. -1.
    10030    2    1    2    0    0  0.00000000000E+00  0.00000000000E+00 -0.12271339569E+04  0.22556685029E+04  0.18926654873E+04 0.  0.
        3    1    3    3  502    0 -0.11232880705E+03  0.39263418578E+03  0.40384196113E+03  0.57434110467E+03  0.10100000352E+00 0.  1.
       -3    1    3    3    0  502  0.11232880705E+03 -0.39263418578E+03 -0.16309759180E+04  0.16813273982E+04  0.10100000352E+00 0. -1.
</event>
<event>
 5   0  0.6395992E-05  0.1904503E+04  0.7818609E-02  0.8652618E-01
        2   -1    0    0  501    0  0.00000000000E+00  0.00000000000E+00  0.98899373099E+03  0.98899373099E+03  0.25500000920E-02 0.  1.
       -2   -1    0    0    0  501  0.00000000000E+00  0.00000000000E+00 -0.91687384394E+03  0.91687384394E+03  0.25500000920E-02 0. -1.
    10030    2    1    2    0    0  0.00000000000E+00  0.00000000000E+00  0.72119887052E+02  0.19058675749E+04  0.19045025427E+04 0.  0.
        4    1    3    3  502    0  0.26694442523E+03 -0.58914585810E+03  0.73543759960E+03  0.97939891979E+03  0.12699999809E+01 0.  1.
       -4    1    3    3    0  502 -0.26694442523E+03  0.58914585810E+03 -0.66331771255E+03  0.92646865514E+03  0.12699999809E+01 0. -1.
</event>
<event>
 5   0  0.3144958E-05  0.1867976E+04  0.7818609E-02  0.8670963E-01
        1   -1    0    0  501    0  0.00000000000E+00  0.00000000000E+00  0.93763255264E+03  0.93763255265E+03  0.50400001928E-02 0.  1.
       -1   -1    0    0    0  501  0.00000000000E+00  0.00000000000E+00 -0.93035765157E+03  0.93035765158E+03  0.50400001928E-02 0. -1.
    10030    2    1    2    0    0  0.00000000000E+00  0.00000000000E+00  0.72749010704E+01  0.18679902042E+04  0.18679760381E+04 0.  0.
        4    1    3    3  502    0  0.83309455556E+03  0.40875041976E+03  0.10950875303E+03  0.93440741866E+03  0.12699999809E+01 0.  1.
       -4    1    3    3    0  502 -0.83309455556E+03 -0.40875041976E+03 -0.10223385196E+03  0.93358278558E+03  0.12699999809E+01 0. -1.
</event>
<event>
 5   0  0.3203527E-05  0.1908333E+04  0.7818609E-02  0.8650720E-01
       -1   -1    0    0    0  501  0.00000000000E+00  0.00000000000E+00  0.11209568965E+04  0.11209568965E+04  0.50400001928E-02 0.  1.
        1   -1    0    0  501    0  0.00000000000E+00  0.00000000000E+00 -0.81219321669E+03  0.81219321671E+03  0.50400001928E-02 0. -1.
    10030    2    1    2    0    0  0.00000000000E+00  0.00000000000E+00  0.30876367981E+03  0.19331501132E+04  0.19083328720E+04 0.  0.
        1    1    3    3  502    0 -0.27234592156E+03  0.34740833657E+03  0.10112956187E+04  0.11034417437E+04  0.50400001928E-02 0.  1.
       -1    1    3    3    0  502  0.27234592156E+03 -0.34740833657E+03 -0.70253193887E+03  0.82970836953E+03  0.50400001928E-02 0. -1.
</event>
<event>
 5   0  0.3147063E-05  0.1892000E+04  0.7818609E-02  0.8658849E-01
        1   -1    0    0  501    0  0.00000000000E+00  0.00000000000E+00  0.10459318374E+04  0.10459318375E+04  0.50400001928E-02 0. -1.
       -1   -1    0    0    0  501  0.00000000000E+00  0.00000000000E+00 -0.85561625871E+03  0.85561625872E+03  0.50400001928E-02 0.  1.
    10030    2    1    2    0    0  0.00000000000E+00  0.00000000000E+00  0.19031557874E+03  0.19015480962E+04  0.18920003019E+04 0.  0.
        5    1    3    3  502    0  0.93321618102E+03 -0.61034689343E+02 -0.47956448735E+02  0.93645052448E+03  0.46999998093E+01 0.  1.
       -5    1    3    3    0  502 -0.93321618102E+03  0.61034689343E+02  0.23827202747E+03  0.96509757170E+03  0.46999998093E+01 0. -1.
</event>
<event>
 5   0  0.6395992E-05  0.1897600E+04  0.7818609E-02  0.8656052E-01
       -2   -1    0    0    0  501  0.00000000000E+00  0.00000000000E+00  0.58105502547E+03  0.58105502548E+03  0.25500000920E-02 0. -1.
        2   -1    0    0  501    0  0.00000000000E+00  0.00000000000E+00 -0.15492882851E+04  0.15492882852E+04  0.25500000920E-02 0.  1.
    10030    2    1    2    0    0  0.00000000000E+00  0.00000000000E+00 -0.96823325967E+03  0.21303433106E+04  0.18976003204E+04 0.  0.
        4    1    3    3  502    0  0.13350470019E+03  0.89858601906E+03 -0.79144389755E+03  0.12048507769E+04  0.12699999809E+01 0.  1.
       -4    1    3    3    0  502 -0.13350470019E+03 -0.89858601906E+03 -0.17678936213E+03  0.92549253378E+03  0.12699999809E+01 0. -1.
</event>
<event>
 5   0  0.6423388E-05  0.1895684E+04  0.7818609E-02  0.8657008E-01
       -2   -1    0    0    0  501  0.00000000000E+00  0.00000000000E+00  0.10731656710E+04  0.10731656710E+04  0.25500000920E-02 0.  1.
        2   -1    0    0  501    0  0.00000000000E+00  0.00000000000E+00 -0.83715345907E+03  0.83715345908E+03  0.25500000920E-02 0. -1.
    10030    2    1    2    0    0  0.00000000000E+00  0.00000000000E+00  0.23601221194E+03  0.19103191301E+04  0.18956838910E+04 0.  0.
        2    1    3    3  502    0  0.27551102695E+03 -0.87595385751E+03 -0.11876070398E+03  0.92590798208E+03  0.25500000920E-02 0. -1.
       -2    1    3    3    0  502 -0.27551102695E+03  0.87595385751E+03  0.35477291593E+03  0.98441114802E+03  0.25500000920E-02 0.  1.
</event>
<event>
 5   0  0.3147063E-05  0.1902878E+04  0.7818609E-02  0.8653425E-01
        1   -1    0    0  501    0  0.00000000000E+00  0.00000000000E+00  0.11458723837E+04  0.11458723837E+04  0.50400001928E-02 0.  1.
       -1   -1    0    0    0  501  0.00000000000E+00  0.00000000000E+00 -0.78999700758E+03  0.78999700759E+03  0.50400001928E-02 0. -1.
    10030    2    1    2    0    0  0.00000000000E+00  0.00000000000E+00  0.35587537614E+03  0.19358693913E+04  0.19028775623E+04 0.  0.
        5    1    3    3  502    0  0.63518426740E+03  0.27009040331E+03 -0.48824834873E+03  0.84546816590E+03  0.46999998093E+01 0. -1.
       -5    1    3    3    0  502 -0.63518426740E+03 -0.27009040331E+03  0.84412372487E+03  0.10904012254E+04  0.46999998093E+01 0.  1.
</event>
<event>
 5   0  0.3203527E-05  0.1898920E+04  0.7818609E-02  0.8655394E-01
        1   -1    0    0  501    0  0.00000000000E+00  0.00000000000E+00  0.62039982092E+03  0.62039982094E+03  0.50400001928E-02 0. -1.
       -1   -1    0    0    0  501  0.00000000000E+00  0.00000000000E+00 -0.14530540424E+04  0.14530540425E+04  0.50400001928E-02 0.  1.
    10030    2    1    2    0    0  0.00000000000E+00  0.00000000000E+00 -0.83265422153E+03  0.20734538634E+04  0.18989201855E+04 0.  0.
        1    1    3    3  502    0 -0.22634564980E+03  0.92198173379E+03 -0.40120513044E+03  0.10306542715E+04  0.50400001928E-02 0. -1.
       -1    1    3    3    0  502  0.22634564980E+03 -0.92198173379E+03 -0.43144909109E+03  0.10427995919E+04  0.50400001928E-02 0.  1.
</event>
<event>
 5   0  0.6452182E-05  0.1899860E+04  0.7818609E-02  0.8654926E-01
        2   -1    0    0  501    0  0.00000000000E+00  0.00000000000E+00  0.17280977662E+04  0.17280977662E+04  0.25500000920E-02 0.  1.
       -2   -1    0    0    0  501  0.00000000000E+00  0.00000000000E+00 -0.52217362234E+03  0.52217362235E+03  0.25500000920E-02 0. -1.
    10030    2    1    2    0    0  0.00000000000E+00  0.00000000000E+00  0.12059241439E+04  0.22502713886E+04  0.18998600689E+04 0.  0.
        3    1    3    3  502    0 -0.77252334424E+03 -0.50288899315E+02 -0.49067654842E+02  0.77571188965E+03  0.10100000352E+00 0. -1.
       -3    1    3    3    0  502  0.77252334424E+03  0.50288899315E+02  0.12549917987E+04  0.14745594989E+04  0.10100000352E+00 0.  1.
</event>
<event>
 5   0  0.6395992E-05  0.1847555E+04  0.7818609E-02  0.8681411E-01
       -2   -1    0    0    0  501  0.00000000000E+00  0.00000000000E+00  0.14168882252E+04  0.14168882252E+04  0.25500000920E-02 0.  1.
        2   -1    0    0  501    0  0.00000000000E+00  0.00000000000E+00 -0.60228118107E+03  0.60228118107E+03  0.25500000920E-02 0. -1.
    10030    2    1    2    0    0  0.00000000000E+00  0.00000000000E+00  0.81460704416E+03  0.20191694063E+04  0.18475552644E+04 0.  0.
        4    1    3    3  502    0 -0.86645346270E+03  0.16501007358E+03  0.10721976857E+03  0.88851990359E+03  0.12699999809E+01 0.  1.
       -4    1    3    3    0  502  0.86645346270E+03 -0.16501007358E+03  0.70738727559E+03  0.11306495027E+04  0.12699999809E+01 0. -1.
</event>
<event>
 5   0  0.6395992E-05  0.1904971E+04  0.7818609E-02  0.8652386E-01
       -2   -1    0    0    0  501  0.00000000000E+00  0.00000000000E+00  0.43183274935E+03  0.43183274936E+03  0.25500000920E-02 0. -1.
        2   -1    0    0  501    0  0.00000000000E+00  0.00000000000E+00 -0.21008802618E+04  0.21008802618E+04  0.25500000920E-02 0.  1.
    10030    2    1    2    0    0  0.00000000000E+00  0.00000000000E+00 -0.16690475124E+04  0.25327130111E+04  0.19049712854E+04 0.  0.
        4    1    3    3  502    0  0.69488008093E+03  0.55610001676E+03 -0.12856272633E+04  0.15636318711E+04  0.12699999809E+01 0.  1.
       -4    1    3    3    0  502 -0.69488008093E+03 -0.55610001676E+03 -0.38342024917E+03  0.96908113999E+03  0.12699999809E+01 0. -1.
</event>
<event>
 5   0  0.3083469E-05  0.1907807E+04  0.7818609E-02  0.8650980E-01
       -1   -1    0    0    0  501  0.00000000000E+00  0.00000000000E+00  0.14307411572E+04  0.14307411572E+04  0.50400001928E-02 0.  1.
        1   -1    0    0  501    0  0.00000000000E+00  0.00000000000E+00 -0.63598670795E+03  0.63598670797E+03  0.50400001928E-02 0. -1.
    10030    2    1    2    0    0  0.00000000000E+00  0.00000000000E+00  0.79475444926E+03  0.20667278652E+04  0.19078074940E+04 0.  0.
        3    1    3    3  502    0  0.15592062522E+03 -0.80770490792E+03  0.92054931934E+03  0.12345483057E+04  0.10100000352E+00 0.  1.
       -3    1    3    3    0  502 -0.15592062522E+03  0.80770490792E+03 -0.12579487008E+03  0.83217955946E+03  0.10100000352E+00 0. -1.
</event>
<event>
 5   0  0.3083469E-05  0.1899889E+04  0.7818609E-02  0.8654912E-01
       -1   -1    0    0    0  501  0.00000000000E+00  0.00000000000E+00  0.74527906309E+03  0.74527906311E+03  0.50400001928E-02 0.  1.
        1   -1    0    0  501    0  0.00000000000E+00  0.00000000000E+00 -0.12108138386E+04  0.12108138386E+04  0.50400001928E-02 0. -1.
    10030    2    1    2    0    0  0.00000000000E+00  0.00000000000E+00 -0.46553477547E+03  0.19560929017E+04  0.18998886317E+04 0.  0.
        3    1    3    3  502    0  0.60594345659E+03 -0.72470045160E+03 -0.33591071506E+03  0.10025937541E+04  0.10100000352E+00 0.  1.
       -3    1    3    3    0  502 -0.60594345659E+03  0.72470045160E+03 -0.12962406041E+03  0.95349914754E+03  0.10100000352E+00 0. -1.
</event>
<event>
 5   0  0.3083469E-05  0.1898163E+04  0.7818609E-02  0.8655772E-01
       -1   -1    0    0    0  501  0.00000000000E+00  0.00000000000E+00  0.87962395853E+03  0.87962395854E+03  0.50400001928E-02 0. -1.
        1   -1    0    0  501    0  0.00000000000E+00  0.00000000000E+00 -0.10240231841E+04  0.10240231841E+04  0.50400001928E-02 0.  1.
    10030    2    1    2    0    0  0.00000000000E+00  0.00000000000E+00 -0.14439922554E+03  0.19036471426E+04  0.18981626135E+04 0.  0.
        3    1    3    3  502    0 -0.66543842866E+03 -0.58726693983E+03 -0.40942190509E+03  0.97740322667E+03  0.10100000352E+00 0.  1.
       -3    1    3    3    0  502  0.66543842866E+03  0.58726693983E+03  0.26502267955E+03  0.92624391594E+03  0.10100000352E+00 0. -1.
</event>
<event>
 5   0  0.3086139E-05  0.1792546E+04  0.7818609E-02  0.8710274E-01
        1   -1    0    0  501    0  0.00000000000E+00  0.00000000000E+00  0.18018747813E+04  0.18018747813E+04  0.50400001928E-02 0. -1.
       -1   -1    0    0    0  501  0.00000000000E+00  0.00000000000E+00 -0.44581623564E+03  0.44581623567E+03  0.50400001928E-02 0.  1.
    10030    2    1    2    0    0  0.00000000000E+00  0.00000000000E+00  0.13560585457E+04  0.22476910170E+04  0.17925457117E+04 0.  0.
        2    1    3    3  502    0  0.13218412549E+03 -0.62707644834E+02 -0.43074212959E+03  0.45491062195E+03  0.25500000920E-02 0.  1.
       -2    1    3    3    0  502 -0.13218412549E+03  0.62707644834E+02  0.17868006753E+04  0.17927803951E+04  0.25500000920E-02 0. -1.
</event>
<event>
 5   0  0.6452182E-05  0.1902931E+04  0.7818609E-02  0.8653399E-01
       -2   -1    0    0    0  501  0.00000000000E+00  0.00000000000E+00  0.95715851722E+03  0.95715851722E+03  0.25500000920E-02 0. -1.
        2   -1    0    0  501    0  0.00000000000E+00  0.00000000000E+00 -0.94580676327E+03  0.94580676327E+03  0.25500000920E-02 0.  1.
    10030    2    1    2    0    0  0.00000000000E+00  0.00000000000E+00  0.11351753947E+02  0.19029652805E+04  0.19029314219E+04 0.  0.
        3    1    3    3  502    0  0.12061181081E+03  0.20418811764E+03  0.92712973195E+03  0.95697938659E+03  0.10100000352E+00 0. -1.
       -3    1    3    3    0  502 -0.12061181081E+03 -0.20418811764E+03 -0.91577797800E+03  0.94598589391E+03  0.10100000352E+00 0.  1.
</event>
<event>
 5   0  0.6452182E-05  0.1853202E+04  0.7818609E-02  0.8678508E-01
        2   -1    0    0  501    0  0.00000000000E+00  0.00000000000E+00  0.74746230113E+03  0.74746230114E+03  0.25500000920E-02 0. -1.
       -2   -1    0    0    0  501  0.00000000000E+00  0.00000000000E+00 -0.11486727773E+04  0.11486727773E+04  0.25500000920E-02 0.  1.
    10030    2    1    2    0    0  0.00000000000E+00  0.00000000000E+00 -0.40121047620E+03  0.18961350785E+04  0.18532021988E+04 0.  0.
        3    1    3    3  502    0  0.14465491093E+02  0.80292805341E+02 -0.11449906917E+04  0.11478936708E+04  0.10100000352E+00 0.  1.
       -3    1    3    3    0  502 -0.14465491093E+02 -0.80292805341E+02  0.74378021552E+03  0.74824140772E+03  0.10100000352E+00 0. -1.
</event>
<event>
 5   0  0.3083469E-05  0.1907603E+04  0.7818609E-02  0.8651081E-01
       -1   -1    0    0    0  501  0.00000000000E+00  0.00000000000E+00  0.13066127971E+04  0.13066127971E+04  0.50400001928E-02 0.  1.
        1   -1    0    0  501    0  0.00000000000E+00  0.00000000000E+00 -0.69625605163E+03  0.69625605165E+03  0.50400001928E-02 0. -1.
    10030    2    1    2    0    0  0.00000000000E+00  0.00000000000E+00  0.61035674546E+03  0.20028688487E+04  0.19076027544E+04 0.  0.
        3    1    3    3  502    0 -0.70846451456E+03  0.15762244824E+03 -0.34457282917E+03  0.80342843451E+03  0.10100000352E+00 0. -1.
       -3    1    3    3    0  502  0.70846451456E+03 -0.15762244824E+03  0.95492957464E+03  0.11994404142E+04  0.10100000352E+00 0.  1.
</event>
<event>
 5   0  0.6423388E-05  0.1897449E+04  0.7818609E-02  0.8656127E-01
        2   -1    0    0  501    0  0.00000000000E+00  0.00000000000E+00  0.80210094376E+03  0.80210094376E+03  0.25500000920E-02 0.  1.
       -2   -1    0    0    0  501  0.00000000000E+00  0.00000000000E+00 -0.11221506277E+04  0.11221506277E+04  0.25500000920E-02 0. -1.
    10030    2    1    2    0    0  0.00000000000E+00  0.00000000000E+00 -0.32004968394E+03  0.19242515715E+04  0.18974488953E+04 0.  0.
        2    1    3    3  502    0 -0.57114907330E+03 -0.55370962443E+03 -0.68431157978E+03  0.10493273800E+04  0.25500000920E-02 0. -1.
       -2    1    3    3    0  502  0.57114907330E+03  0.55370962443E+03  0.36426189584E+03  0.87492419150E+03  0.25500000920E-02 0.  1.
</event>
<event>
 5   0  0.6361762E-05  0.1889241E+04  0.7818609E-02  0.8660230E-01
       -2   -1    0    0    0  501  0.00000000000E+00  0.00000000000E+00  0.87897600498E+03  0.87897600498E+03  0.25500000920E-02 0. -1.
        2   -1    0    0  501    0  0.00000000000E+00  0.00000000000E+00 -0.10151676228E+04  0.10151676229E+04  0.25500000920E-02 0.  1.
    10030    2    1    2    0    0  0.00000000000E+00  0.00000000000E+00 -0.13619161787E+03  0.18941436278E+04  0.18892410979E+04 0.  0.
        1    1    3    3  502    0 -0.11302176394E+03 -0.10647209419E+03  0.86609341258E+03  0.87990228168E+03  0.50400001928E-02 0. -1.
       -1    1    3    3    0  502  0.11302176394E+03  0.10647209419E+03 -0.10022850304E+04  0.10142413462E+04  0.50400001928E-02 0.  1.
</event>
<event>
 5   0  0.6395992E-05  0.1897149E+04  0.7818609E-02  0.8656277E-01
       -2   -1    0    0    0  501  0.00000000000E+00  0.00000000000E+00  0.40636433921E+03  0.40636433922E+03  0.25500000920E-02 0. -1.
        2   -1    0    0  501    0  0.00000000000E+00  0.00000000000E+00 -0.22142531299E+04  0.22142531299E+04  0.25500000920E-02 0.  1.
    10030    2    1    2    0    0  0.00000000000E+00  0.00000000000E+00 -0.18078887907E+04  0.26206174692E+04  0.18971489241E+04 0.  0.
        4    1    3    3  502    0  0.33854244490E+03  0.20465145089E+02 -0.21276338427E+04  0.21544969693E+04  0.12699999809E+01 0.  1.
       -4    1    3    3    0  502 -0.33854244490E+03 -0.20465145089E+02  0.31974505203E+03  0.46612049982E+03  0.12699999809E+01 0. -1.
</event>
<event>
 5   0  0.3147063E-05  0.1900329E+04  0.7818609E-02  0.8654692E-01
       -1   -1    0    0    0  501  0.00000000000E+00  0.00000000000E+00  0.76294861832E+03  0.76294861834E+03  0.50400001928E-02 0.  1.
        1   -1    0    0  501    0  0.00000000000E+00  0.00000000000E+00 -0.11833206771E+04  0.11833206771E+04  0.50400001928E-02 0. -1.
    10030    2    1    2    0    0  0.00000000000E+00  0.00000000000E+00 -0.42037205877E+03  0.19462692954E+04  0.19003293142E+04 0.  0.
        5    1    3    3  502    0  0.68165245270E+03 -0.61720983905E+02  0.46478416753E+03  0.82734875265E+03  0.46999998093E+01 0.  1.
       -5    1    3    3    0  502 -0.68165245270E+03  0.61720983905E+02 -0.88515622630E+03  0.11189205428E+04  0.46999998093E+01 0. -1.
</event>
<event>
 5   0  0.6361762E-05  0.1902569E+04  0.7818609E-02  0.8653579E-01
       -2   -1    0    0    0  501  0.00000000000E+00  0.00000000000E+00  0.17829660286E+04  0.17829660286E+04  0.25500000920E-02 0.  1.
        2   -1    0    0  501    0  0.00000000000E+00  0.00000000000E+00 -0.50754862954E+03  0.50754862955E+03  0.25500000920E-02 0. -1.
    10030    2    1    2    0    0  0.00000000000E+00  0.00000000000E+00  0.12754173991E+04  0.22905146581E+04  0.19025687523E+04 0.  0.
        1    1    3    3  502    0  0.21219924800E+03 -0.52589704064E+03 -0.28179976897E+03  0.63325139402E+03  0.50400001928E-02 0. -1.
       -1    1    3    3    0  502 -0.21219924800E+03  0.52589704064E+03  0.15572171680E+04  0.16572632641E+04  0.50400001928E-02 0.  1.
</event>
<event>
 5   0  0.6452182E-05  0.1905749E+04  0.7818609E-02  0.8652000E-01
       -2   -1    0    0    0  501  0.00000000000E+00  0.00000000000E+00  0.48959470793E+03  0.48959470794E+03  0.25500000920E-02 0. -1.
        2   -1    0    0  501    0  0.00000000000E+00  0.00000000000E+00 -0.18545329493E+04  0.18545329493E+04  0.25500000920E-02 0.  1.
    10030    2    1    2    0    0  0.00000000000E+00  0.00000000000E+00 -0.13649382414E+04  0.23441276573E+04  0.19057486903E+04 0.  0.
        3    1    3    3  502    0  0.28780803385E+03  0.90836730268E+03 -0.68518817293E+03  0.11736470779E+04  0.10100000352E+00 0.  1.
       -3    1    3    3    0  502 -0.28780803385E+03 -0.90836730268E+03 -0.67975006848E+03  0.11704805794E+04  0.10100000352E+00 0. -1.
</event>
<event>
 5   0  0.3144958E-05  0.1898503E+04  0.7818609E-02  0.8655602E-01
        1   -1    0    0  501    0  0.00000000000E+00  0.00000000000E+00  0.96268674308E+03  0.96268674309E+03  0.50400001928E-02 0.  1.
       -1   -1    0    0    0  501  0.00000000000E+00  0.00000000000E+00 -0.93600422458E+03  0.93600422460E+03  0.50400001928E-02 0. -1.
    10030    2    1    2    0    0  0.00000000000E+00  0.00000000000E+00  0.26682518493E+02  0.18986909677E+04  0.18985034722E+04 0.  0.
        4    1    3    3  502    0  0.66962315482E+02  0.23023190007E+03  0.93190165405E+03  0.96225411676E+03  0.12699999809E+01 0.  1.
       -4    1    3    3    0  502 -0.66962315482E+02 -0.23023190007E+03 -0.90521913555E+03  0.93643685093E+03  0.12699999809E+01 0. -1.
</event>
<event>
 5   0  0.6098377E-05  0.1917803E+04  0.7818609E-02  0.8646045E-01
        2   -1    0    0  501    0  0.00000000000E+00  0.00000000000E+00  0.18815695189E+04  0.18815695189E+04  0.25500000920E-02 0.  1.
       -2   -1    0    0    0  501  0.00000000000E+00  0.00000000000E+00 -0.48868358118E+03  0.48868358119E+03  0.25500000920E-02 0. -1.
    10030    2    1    2    0    0  0.00000000000E+00  0.00000000000E+00  0.13928859377E+04  0.23702531000E+04  0.19178030459E+04 0.  0.
        5    1    3    3  502    0  0.63822233694E+03  0.24503407841E+03 -0.13457086976E+03  0.69677891754E+03  0.46999998093E+01 0. -1.
       -5    1    3    3    0  502 -0.63822233694E+03 -0.24503407841E+03  0.15274568074E+04  0.16734741825E+04  0.46999998093E+01 0.  1.
</event>
<event>
 5   0  0.6423388E-05  0.1899897E+04  0.7818609E-02  0.8654908E-01
       -2   -1    0    0    0  501  0.00000000000E+00  0.00000000000E+00  0.11081378998E+04  0.11081378998E+04  0.25500000920E-02 0. -1.
        2   -1    0    0  501    0  0.00000000000E+00  0.00000000000E+00 -0.81434092547E+03  0.81434092547E+03  0.25500000920E-02 0.  1.
    10030    2    1    2    0    0  0.00000000000E+00  0.00000000000E+00  0.29379697433E+03  0.19224788253E+04  0.18998968844E+04 0.  0.
        2    1    3    3  502    0  0.82607429590E+02  0.94542102669E+03  0.10448202554E+03  0.95475724601E+03  0.25500000920E-02 0. -1.
       -2    1    3    3    0  502 -0.82607429590E+02 -0.94542102669E+03  0.18931494879E+03  0.96772157927E+03  0.25500000920E-02 0.  1.
</event>
<event>
 5   0  0.6423388E-05  0.1900083E+04  0.7818609E-02  0.8654815E-01
       -2   -1    0    0    0  501  0.00000000000E+00  0.00000000000E+00  0.69950919116E+03  0.69950919116E+03  0.25500000920E-02 0.  1.
        2   -1    0    0  501    0  0.00000000000E+00  0.00000000000E+00 -0.12903031694E+04  0.12903031694E+04  0.25500000920E-02 0. -1.
    10030    2    1    2    0    0  0.00000000000E+00  0.00000000000E+00 -0.59079397821E+03  0.19898123605E+04  0.19000830786E+04 0.  0.
        2    1    3    3  502    0  0.13107827036E+03 -0.81572040666E+03  0.19579190267E+03  0.84906758504E+03  0.25500000920E-02 0.  1.
       -2    1    3    3    0  502 -0.13107827036E+03  0.81572040666E+03 -0.78658588088E+03  0.11407447755E+04  0.25500000920E-02 0. -1.
</event>
<event>
 5   0  0.3083469E-05  0.1899001E+04  0.7818609E-02  0.8655354E-01
        1   -1    0    0  501    0  0.00000000000E+00  0.00000000000E+00  0.10298654876E+04  0.10298654876E+04  0.50400001928E-02 0. -1.
       -1   -1    0    0    0  501  0.00000000000E+00  0.00000000000E+00 -0.87540671371E+03  0.87540671373E+03  0.50400001928E-02 0.  1.
    10030    2    1    2    0    0  0.00000000000E+00  0.00000000000E+00  0.15445877390E+03  0.19052722013E+04  0.18990009606E+04 0.  0.
        3    1    3    3  502    0 -0.19482805708E+03  0.44226494242E+03  0.89723801155E+03  0.10191134925E+04  0.10100000352E+00 0. -1.
       -3    1    3    3    0  502  0.19482805708E+03 -0.44226494242E+03 -0.74277923765E+03  0.88615870881E+03  0.10100000352E+00 0.  1.
</event>
<event>
 5   0  0.3086139E-05  0.1908484E+04  0.7818609E-02  0.8650645E-01
       -1   -1    0    0    0  501  0.00000000000E+00  0.00000000000E+00  0.54006217226E+03  0.54006217228E+03  0.50400001928E-02 0.  1.
        1   -1    0    0  501    0  0.00000000000E+00  0.00000000000E+00 -0.16860601690E+04  0.16860601690E+04  0.50400001928E-02 0. -1.
    10030    2    1    2    0    0  0.00000000000E+00  0.00000000000E+00 -0.11459979968E+04  0.22261223413E+04  0.19084835000E+04 0.  0.
        2    1    3    3  502    0  0.71401314213E+03  0.60720793917E+03 -0.36414171848E+03  0.10055423610E+04  0.25500000920E-02 0.  1.
       -2    1    3    3    0  502 -0.71401314213E+03 -0.60720793917E+03 -0.78185627827E+03  0.12205799803E+04  0.25500000920E-02 0. -1.
</event>
<event>
 5   0  0.6361762E-05  0.1897028E+04  0.7818609E-02  0.8656337E-01
       -2   -1    0    0    0  501  0.00000000000E+00  0.00000000000E+00  0.75794325857E+03  0.75794325857E+03  0.25500000920E-02 0. -1.
        2   -1    0    0  501    0  0.00000000000E+00  0.00000000000E+00 -0.11870001608E+04  0.11870001608E+04  0.25500000920E-02 0.  1.
    10030    2    1    2    0    0  0.00000000000E+00  0.00000000000E+00 -0.42905690221E+03  0.19449434193E+04  0.18970279595E+04 0.  0.
        1    1    3    3  502    0  0.88830444970E+03 -0.17251166886E+03  0.76965444967E+02  0.90816779892E+03  0.50400001928E-02 0. -1.
       -1    1    3    3    0  502 -0.88830444970E+03  0.17251166886E+03 -0.50602234718E+03  0.10367756204E+04  0.50400001928E-02 0.  1.
</event>
<event>
 5   0  0.3086139E-05  0.1896610E+04  0.7818609E-02  0.8656546E-01
        1   -1    0    0  501    0  0.00000000000E+00  0.00000000000E+00  0.99465896265E+03  0.99465896266E+03  0.50400001928E-02 0.  1.
       -1   -1    0    0    0  501  0.00000000000E+00  0.00000000000E+00 -0.90411084095E+03  0.90411084097E+03  0.50400001928E-02 0. -1.
    10030    2    1    2    0    0  0.00000000000E+00  0.00000000000E+00  0.90548121696E+02  0.18987698036E+04  0.18966095552E+04 0.  0.
        2    1    3    3  502    0 -0.86099289332E+03 -0.84836286505E+02  0.43401518073E+03  0.96792310385E+03  0.25500000920E-02 0.  1.
       -2    1    3    3    0  502  0.86099289332E+03  0.84836286505E+02 -0.34346705903E+03  0.93084669978E+03  0.25500000920E-02 0. -1.
</event>
<event>
 5   0  0.3147063E-05  0.1887723E+04  0.7818609E-02  0.8660992E-01
       -1   -1    0    0    0  501  0.00000000000E+00  0.00000000000E+00  0.89862605810E+03  0.89862605811E+03  0.50400001928E-02 0. -1.
        1   -1    0    0  501    0  0.00000000000E+00  0.00000000000E+00 -0.99137393645E+03  0.99137393646E+03  0.50400001928E-02 0.  1.
    10030    2    1    2    0    0  0.00000000000E+00  0.00000000000E+00 -0.92747878355E+02  0.18899999946E+04  0.18877229168E+04 0.  0.
        5    1    3    3  502    0  0.80774696294E+03 -0.43753213931E+03  0.17059656650E+03  0.93435261415E+03  0.46999998093E+01 0. -1.
       -5    1    3    3    0  502 -0.80774696294E+03  0.43753213931E+03 -0.26334444486E+03  0.95564738042E+03  0.46999998093E+01 0.  1.
</event>
<event>
 5   0  0.6098377E-05  0.1895439E+04  0.7818609E-02  0.8657130E-01
        2   -1    0    0  501    0  0.00000000000E+00  0.00000000000E+00  0.11064012854E+04  0.11064012854E+04  0.25500000920E-02 0. -1.
       -2   -1    0    0    0  501  0.00000000000E+00  0.00000000000E+00 -0.81179597043E+03  0.81179597043E+03  0.25500000920E-02 0.  1.
    10030    2    1    2    0    0  0.00000000000E+00  0.00000000000E+00  0.29460531498E+03  0.19181972558E+04  0.18954388465E+04 0.  0.
        5    1    3    3  502    0  0.51144271519E+03 -0.77039785797E+03  0.35731178665E+03  0.99135276938E+03  0.46999998093E+01 0. -1.
       -5    1    3    3    0  502 -0.51144271519E+03  0.77039785797E+03 -0.62706471667E+02  0.92684448646E+03  0.46999998093E+01 0.  1.
</event>
<event>
 5   0  0.3086139E-05  0.1906569E+04  0.7818609E-02  0.8651593E-01
        1   -1    0    0  501    0  0.00000000000E+00  0.00000000000E+00  0.19419745219E+04  0.19419745219E+04  0.50400001928E-02 0. -1.
       -1   -1    0    0    0  501  0.00000000000E+00  0.00000000000E+00 -0.46795236194E+03  0.46795236197E+03  0.50400001928E-02 0.  1.
    10030    2    1    2    0    0  0.00000000000E+00  0.00000000000E+00  0.14740221599E+04  0.24099268838E+04  0.19065692375E+04 0.  0.
        2    1    3    3  502    0  0.32555748645E+02 -0.70172790270E+02 -0.46397848813E+03  0.47038296602E+03  0.25500000920E-02 0.  1.
       -2    1    3    3    0  502 -0.32555748645E+02  0.70172790270E+02  0.19380006481E+04  0.19395439178E+04  0.25500000920E-02 0. -1.
</event>
<event>
 5   0  0.3083469E-05  0.1906837E+04  0.7818609E-02  0.8651461E-01
       -1   -1    0    0    0  501  0.00000000000E+00  0.00000000000E+00  0.41633625341E+03  0.41633625344E+03  0.50400001928E-02 0.  1.
        1   -1    0    0  501    0  0.00000000000E+00  0.00000000000E+00 -0.21833478749E+04  0.21833478749E+04  0.50400001928E-02 0. -1.
    10030    2    1    2    0    0  0.00000000000E+00  0.00000000000E+00 -0.17670116215E+04  0.25996841283E+04  0.19068370399E+04 0.  0.
        3    1    3    3  502    0 -0.53858015515E+03  0.78641630956E+03 -0.85339868088E+03  0.12793781748E+04  0.10100000352E+00 0. -1.
       -3    1    3    3    0  502  0.53858015515E+03 -0.78641630956E+03 -0.91361294061E+03  0.13203059535E+04  0.10100000352E+00 0.  1.
</event>
<event>
 5   0  0.3147063E-05  0.1897751E+04  0.7818609E-02  0.8655976E-01
       -1   -1    0    0    0  501  0.00000000000E+00  0.00000000000E+00  0.15941269384E+04  0.15941269384E+04  0.50400001928E-02 0. -1.
        1   -1    0    0  501    0  0.00000000000E+00  0.00000000000E+00 -0.56480140963E+03  0.56480140965E+03  0.50400001928E-02 0.  1.
    10030    2    1    2    0    0  0.00000000000E+00  0.00000000000E+00  0.10293255287E+04  0.21589283480E+04  0.18977514505E+04 0.  0.
        5    1    3    3  502    0  0.18256623374E+03 -0.88448668145E+03  0.18358487791E+03  0.92161413659E+03  0.46999998093E+01 0.  1.
       -5    1    3    3    0  502 -0.18256623374E+03  0.88448668145E+03  0.84574065084E+03  0.12373142114E+04  0.46999998093E+01 0. -1.
</event>
<event>
 5   0  0.6423388E-05  0.1897769E+04  0.7818609E-02  0.8655968E-01
       -2   -1    0    0    0  501  0.00000000000E+00  0.00000000000E+00  0.96529581333E+03  0.96529581333E+03  0.25500000920E-02 0. -1.
        2   -1    0    0  501    0  0.00000000000E+00  0.00000000000E+00 -0.93275218256E+03  0.93275218256E+03  0.25500000920E-02 0.  1.
    10030    2    1    2    0    0  0.00000000000E+00  0.00000000000E+00  0.32543630768E+02  0.18980479959E+04  0.18977689814E+04 0.  0.
        2    1    3    3  502    0  0.80483768099E+03 -0.32110012841E+03 -0.37045387316E+03  0.94239326045E+03  0.25500000920E-02 0. -1.
       -2    1    3    3    0  502 -0.80483768099E+03  0.32110012841E+03  0.40299750393E+03  0.95565473544E+03  0.25500000920E-02 0.  1.
</event>
<event>
 5   0  0.6452182E-05  0.1901350E+04  0.7818609E-02  0.8654185E-01
        2   -1    0    0  501    0  0.00000000000E+00  0.00000000000E+00  0.83645778643E+03  0.83645778644E+03  0.25500000920E-02 0.  1.
       -2   -1    0    0    0  501  0.00000000000E+00  0.00000000000E+00 -0.10804879768E+04  0.10804879768E+04  0.25500000920E-02 0. -1.
    10030    2    1    2    0    0  0.00000000000E+00  0.00000000000E+00 -0.24403019038E+03  0.19169457632E+04  0.19013496063E+04 0.  0.
        3    1    3    3  502    0  0.79502613678E+03  0.52106413827E+03 -0.10746841108E+03  0.95662106601E+03  0.10100000352E+00 0.  1.
       -3    1    3    3    0  502 -0.79502613678E+03 -0.52106413827E+03 -0.13656177930E+03  0.96032469724E+03  0.10100000352E+00 0. -1.
</event>
<event>
 5   0  0.3083469E-05  0.1902265E+04  0.7818609E-02  0.8653730E-01
        1   -1    0    0  501    0  0.00000000000E+00  0.00000000000E+00  0.11205432133E+04  0.11205432133E+04  0.50400001928E-02 0.  1.
       -1   -1    0    0    0  501  0.00000000000E+00  0.00000000000E+00 -0.80733452648E+03  0.80733452649E+03  0.50400001928E-02 0. -1.
    10030    2    1    2    0    0  0.00000000000E+00  0.00000000000E+00  0.31320868685E+03  0.19278777398E+04  0.19022652019E+04 0.  0.
        3    1    3    3  502    0 -0.44397711352E+03 -0.63240011603E+03 -0.40548710414E+03  0.87261984042E+03  0.10100000352E+00 0. -1.
       -3    1    3    3    0  502  0.44397711352E+03  0.63240011603E+03  0.71869579099E+03  0.10552578994E+04  0.10100000352E+00 0.  1.
</event>
<event>
 5   0  0.6361762E-05  0.1919387E+04  0.7818609E-02  0.8645266E-01
        2   -1    0    0  501    0  0.00000000000E+00  0.00000000000E+00  0.13918898032E+04  0.13918898032E+04  0.25500000920E-02 0.  1.
       -2   -1    0    0    0  501  0.00000000000E+00  0.00000000000E+00 -0.66169890018E+03  0.66169890019E+03  0.25500000920E-02 0. -1.
    10030    2    1    2    0    0  0.00000000000E+00  0.00000000000E+00  0.73019090301E+03  0.20535887034E+04  0.19193873522E+04 0.  0.
        1    1    3    3  502    0  0.56740570576E+03 -0.14811284974E+03 -0.44770866580E+03  0.73778702933E+03  0.50400001928E-02 0. -1.
       -1    1    3    3    0  502 -0.56740570576E+03  0.14811284974E+03  0.11778995688E+04  0.13158016740E+04  0.50400001928E-02 0.  1.
</event>
<event>
 5   0  0.6361762E-05  0.1899339E+04  0.7818609E-02  0.8655185E-01
        2   -1    0    0  501    0  0.00000000000E+00  0.00000000000E+00  0.14198495347E+04  0.14198495347E+04  0.25500000920E-02 0. -1.
       -2   -1    0    0    0  501  0.00000000000E+00  0.00000000000E+00 -0.63518884498E+03  0.63518884498E+03  0.25500000920E-02 0.  1.
    10030    2    1    2    0    0  0.00000000000E+00  0.00000000000E+00  0.78466068970E+03  0.20550383797E+04  0.18993394494E+04 0.  0.
        1    1    3    3  502    0 -0.54308963246E+03 -0.54982525200E+03 -0.20483615397E+03  0.79950735245E+03  0.50400001928E-02 0.  1.
       -1    1    3    3    0  502  0.54308963246E+03  0.54982525200E+03  0.98949684367E+03  0.12555310272E+04  0.50400001928E-02 0. -1.
</event>
<event>
 5   0  0.6098377E-05  0.1900865E+04  0.7818609E-02  0.8654426E-01
        2   -1    0    0  501    0  0.00000000000E+00  0.00000000000E+00  0.95326111112E+03  0.95326111113E+03  0.25500000920E-02 0.  1.
       -2   -1    0    0    0  501  0.00000000000E+00  0.00000000000E+00 -0.94761194182E+03  0.94761194182E+03  0.25500000920E-02 0. -1.
    10030    2    1    2    0    0  0.00000000000E+00  0.00000000000E+00  0.56491693045E+01  0.19008730530E+04  0.19008646586E+04 0.  0.
        5    1    3    3  502    0  0.45227223842E+03  0.74628826998E+03  0.37939385511E+03  0.95155564569E+03  0.46999998093E+01 0.  1.
       -5    1    3    3    0  502 -0.45227223842E+03 -0.74628826998E+03 -0.37374468580E+03  0.94931740726E+03  0.46999998093E+01 0. -1.
</event>
<event>
 5   0  0.6452182E-05  0.1910395E+04  0.7818609E-02  0.8649700E-01
        2   -1    0    0  501    0  0.00000000000E+00  0.00000000000E+00  0.15960267176E+04  0.15960267176E+04  0.25500000920E-02 0. -1.
       -2   -1    0    0    0  501  0.00000000000E+00  0.00000000000E+00 -0.57167086952E+03  0.57167086953E+03  0.25500000920E-02 0.  1.
    10030    2    1    2    0    0  0.00000000000E+00  0.00000000000E+00  0.10243558481E+04  0.21676975871E+04  0.19103947042E+04 0.  0.
        3    1    3    3  502    0 -0.33375547199E+03 -0.26689843104E+03  0.14815040668E+04  0.15419084920E+04  0.10100000352E+00 0. -1.
       -3    1    3    3    0  502  0.33375547199E+03  0.26689843104E+03 -0.45714821868E+03  0.62578909516E+03  0.10100000352E+00 0.  1.
</event>
<event>
 5   0  0.3203527E-05  0.1878776E+04  0.7818609E-02  0.8665494E-01
        1   -1    0    0  501    0  0.00000000000E+00  0.00000000000E+00  0.19904695679E+04  0.19904695679E+04  0.50400001928E-02 0.  1.
       -1   -1    0    0    0  501  0.00000000000E+00  0.00000000000E+00 -0.44333759490E+03  0.44333759493E+03  0.50400001928E-02 0. -1.
    10030    2    1    2    0    0  0.00000000000E+00  0.00000000000E+00  0.15471319730E+04  0.24338071628E+04  0.18787761878E+04 0.  0.
        1    1    3    3  502    0 -0.70583683030E+03 -0.43446883146E+03  0.20081794898E+03  0.85281688842E+03  0.50400001928E-02 0. -1.
       -1    1    3    3    0  502  0.70583683030E+03  0.43446883146E+03  0.13463140240E+04  0.15809902744E+04  0.50400001928E-02 0.  1.
</event>
<event>
 5   0  0.3203527E-05  0.1867324E+04  0.7818609E-02  0.8671295E-01
        1   -1    0    0  501    0  0.00000000000E+00  0.00000000000E+00  0.12008324906E+04  0.12008324906E+04  0.50400001928E-02 0.  1.
       -1   -1    0    0    0  501  0.00000000000E+00  0.00000000000E+00 -0.72593346766E+03  0.72593346768E+03  0.50400001928E-02 0. -1.
    10030    2    1    2    0    0  0.00000000000E+00  0.00000000000E+00  0.47489902290E+03  0.19267659582E+04  0.18673237469E+04 0.  0.
        1    1    3    3  502    0 -0.24371692170E+03  0.47645481422E+01 -0.69251976652E+03  0.73416909897E+03  0.50400001928E-02 0. -1.
       -1    1    3    3    0  502  0.24371692170E+03 -0.47645481422E+01  0.11674187894E+04  0.11925968593E+04  0.50400001928E-02 0.  1.
</event>
<event>
 5   0  0.3203527E-05  0.1898916E+04  0.7818609E-02  0.8655396E-01
        1   -1    0    0  501    0  0.00000000000E+00  0.00000000000E+00  0.16188609422E+04  0.16188609422E+04  0.50400001928E-02 0.  1.
       -1   -1    0    0    0  501  0.00000000000E+00  0.00000000000E+00 -0.55685478811E+03  0.55685478813E+03  0.50400001928E-02 0. -1.
    10030    2    1    2    0    0  0.00000000000E+00  0.00000000000E+00  0.10620061540E+04  0.21757157303E+04  0.18989159718E+04 0.  0.
        1    1    3    3  502    0  0.56634621185E+03 -0.44799497084E+03 -0.17531661077E+03  0.74309046529E+03  0.50400001928E-02 0. -1.
       -1    1    3    3    0  502 -0.56634621185E+03  0.44799497084E+03  0.12373227648E+04  0.14326252650E+04  0.50400001928E-02 0.  1.
</event>
<event>
 5   0  0.6098377E-05  0.1906273E+04  0.7818609E-02  0.8651740E-01
       -2   -1    0    0    0  501  0.00000000000E+00  0.00000000000E+00  0.64187584568E+03  0.64187584568E+03  0.25500000920E-02 0.  1.
        2   -1    0    0  501    0  0.00000000000E+00  0.00000000000E+00 -0.14153341388E+04  0.14153341388E+04  0.25500000920E-02 0. -1.
    10030    2    1    2    0    0  0.00000000000E+00  0.00000000000E+00 -0.77345829311E+03  0.20572099845E+04  0.19062725904E+04 0.  0.
        5    1    3    3  502    0 -0.52527479697E+03 -0.18608005855E+03 -0.12211988055E+04  0.13423442230E+04  0.46999998093E+01 0. -1.
       -5    1    3    3    0  502  0.52527479697E+03  0.18608005855E+03  0.44774051236E+03  0.71486576148E+03  0.46999998093E+01 0.  1.
</event>
<event>
 5   0  0.6361762E-05  0.1911219E+04  0.7818609E-02  0.8649292E-01
        2   -1    0    0  501    0  0.00000000000E+00  0.00000000000E+00  0.14116814644E+04  0.14116814644E+04  0.25500000920E-02 0.  1.
       -2   -1    0    0    0  501  0.00000000000E+00  0.00000000000E+00 -0.64688080081E+03  0.64688080082E+03  0.25500000920E-02 0. -1.
    10030    2    1    2    0    0  0.00000000000E+00  0.00000000000E+00  0.76480066356E+03  0.20585622652E+04  0.19112191252E+04 0.  0.
        1    1    3    3  502    0 -0.67498846563E+03  0.36933446850E+03 -0.22801092969E+03  0.80250007005E+03  0.50400001928E-02 0. -1.
       -1    1    3    3    0  502  0.67498846563E+03 -0.36933446850E+03  0.99281159324E+03  0.12560621951E+04  0.50400001928E-02 0.  1.
</event>
<event>
 5   0  0.3147063E-05  0.1911259E+04  0.7818609E-02  0.8649272E-01
        1   -1    0    0  501    0  0.00000000000E+00  0.00000000000E+00  0.10597081443E+04  0.10597081443E+04  0.50400001928E-02 0.  1.
       -1   -1    0    0    0  501  0.00000000000E+00  0.00000000000E+00 -0.86177316418E+03  0.86177316419E+03  0.50400001928E-02 0. -1.
    10030    2    1    2    0    0  0.00000000000E+00  0.00000000000E+00  0.19793498013E+03  0.19214813085E+04  0.19112593133E+04 0.  0.
        5    1    3    3  502    0  0.42148239963E+03  0.38207700997E+03  0.87091244929E+03  0.10402599863E+04  0.46999998093E+01 0.  1.
       -5    1    3    3    0  502 -0.42148239963E+03 -0.38207700997E+03 -0.67297746916E+03  0.88122132222E+03  0.46999998093E+01 0. -1.
</event>
<event>
 5   0  0.3147063E-05  0.1924306E+04  0.7818609E-02  0.8642851E-01
       -1   -1    0    0    0  501  0.00000000000E+00  0.00000000000E+00  0.94175986950E+03  0.94175986952E+03  0.50400001928E-02 0.  1.
        1   -1    0    0  501    0  0.00000000000E+00  0.00000000000E+00 -0.98298816157E+03  0.98298816159E+03  0.50400001928E-02 0. -1.
    10030    2    1    2    0    0  0.00000000000E+00  0.00000000000E+00 -0.41228292071E+02  0.19247480311E+04  0.19243064234E+04 0.  0.
        5    1    3    3  502    0  0.37345294033E+03  0.85948825673E+03 -0.23867690821E+03  0.96704494136E+03  0.46999998093E+01 0. -1.
       -5    1    3    3    0  502 -0.37345294033E+03 -0.85948825673E+03  0.19744861614E+03  0.95770308975E+03  0.46999998093E+01 0.  1.
</event>
<event>
 5   0  0.6361762E-05  0.1891980E+04  0.7818609E-02  0.8658859E-01
       -2   -1    0    0    0  501  0.00000000000E+00  0.00000000000E+00  0.83388653884E+03  0.83388653885E+03  0.25500000920E-02 0.  1.
        2   -1    0    0  501    0  0.00000000000E+00  0.00000000000E+00 -0.10731639903E+04  0.10731639903E+04  0.25500000920E-02 0. -1.
    10030    2    1    2    0    0  0.00000000000E+00  0.00000000000E+00 -0.23927745146E+03  0.19070505292E+04  0.18919799211E+04 0.  0.
        1    1    3    3  502    0  0.44056394915E+03  0.78360388766E+03 -0.41654464927E+03  0.99077802302E+03  0.50400001928E-02 0. -1.
       -1    1    3    3    0  502 -0.44056394915E+03 -0.78360388766E+03  0.17726719781E+03  0.91627250613E+03  0.50400001928E-02 0.  1.
</event>
<event>
 5   0  0.3083469E-05  0.1901179E+04  0.7818609E-02  0.8654270E-01
        1   -1    0    0  501    0  0.00000000000E+00  0.00000000000E+00  0.10552006464E+04  0.10552006464E+04  0.50400001928E-02 0.  1.
       -1   -1    0    0    0  501  0.00000000000E+00  0.00000000000E+00 -0.85634976410E+03  0.85634976411E+03  0.50400001928E-02 0. -1.
    10030    2    1    2    0    0  0.00000000000E+00  0.00000000000E+00  0.19885088229E+03  0.19115504105E+04  0.19011794493E+04 0.  0.
        3    1    3    3  502    0 -0.44470705153E+02 -0.38728676543E+03  0.97113356060E+03  0.10464554864E+04  0.10100000352E+00 0.  1.
       -3    1    3    3    0  502  0.44470705153E+02  0.38728676543E+03 -0.77228267831E+03  0.86509492411E+03  0.10100000352E+00 0. -1.
</event>
<event>
 5   0  0.3086139E-05  0.1898366E+04  0.7818609E-02  0.8655670E-01
       -1   -1    0    0    0  501  0.00000000000E+00  0.00000000000E+00  0.71592640672E+03  0.71592640674E+03  0.50400001928E-02 0. -1.
        1   -1    0    0  501    0  0.00000000000E+00  0.00000000000E+00 -0.12584369225E+04  0.12584369225E+04  0.50400001928E-02 0.  1.
    10030    2    1    2    0    0  0.00000000000E+00  0.00000000000E+00 -0.54251051574E+03  0.19743633292E+04  0.18983658488E+04 0.  0.
        2    1    3    3  502    0 -0.66936557678E+03 -0.37272143831E+03  0.31151295987E+03  0.82705010134E+03  0.25500000920E-02 0. -1.
       -2    1    3    3    0  502  0.66936557678E+03  0.37272143831E+03 -0.85402347561E+03  0.11473132279E+04  0.25500000920E-02 0.  1.
</event>
<event>
 5   0  0.3144958E-05  0.1909882E+04  0.7818609E-02  0.8649953E-01
        1   -1    0    0  501    0  0.00000000000E+00  0.00000000000E+00  0.14198097052E+04  0.14198097052E+04  0.50400001928E-02 0.  1.
       -1   -1    0    0    0  501  0.00000000000E+00  0.00000000000E+00 -0.64227813506E+03  0.64227813508E+03  0.50400001928E-02 0. -1.
    10030    2    1    2    0    0  0.00000000000E+00  0.00000000000E+00  0.77753157017E+03  0.20620878403E+04  0.19098824358E+04 0.  0.
        4    1    3    3  502    0  0.26504145301E+03  0.91668936628E+03  0.34917251142E+03  0.10161148664E+04  0.12699999809E+01 0.  1.
       -4    1    3    3    0  502 -0.26504145301E+03 -0.91668936628E+03  0.42835905875E+03  0.10459729739E+04  0.12699999809E+01 0. -1.
</event>
<event>
 5   0  0.3144958E-05  0.1900435E+04  0.7818609E-02  0.8654640E-01
        1   -1    0    0  501    0  0.00000000000E+00  0.00000000000E+00  0.42506767862E+03  0.42506767865E+03  0.50400001928E-02 0. -1.
       -1   -1    0    0    0  501  0.00000000000E+00  0.00000000000E+00 -0.21241645324E+04  0.21241645324E+04  0.50400001928E-02 0.  1.
    10030    2    1    2    0    0  0.00000000000E+00  0.00000000000E+00 -0.16990968537E+04  0.25492322110E+04  0.19004354099E+04 0.  0.
        4    1    3    3  502    0  0.61221006689E+03 -0.69571630883E+03 -0.56788855245E+03  0.10868860885E+04  0.12699999809E+01 0.  1.
       -4    1    3    3    0  502 -0.61221006689E+03  0.69571630883E+03 -0.11312083013E+04  0.14623461226E+04  0.12699999809E+01 0. -1.
</event>
<event>
 5   0  0.3203527E-05  0.1892090E+04  0.7818609E-02  0.8658804E-01
        1   -1    0    0  501    0  0.00000000000E+00  0.00000000000E+00  0.13990943566E+04  0.13990943566E+04  0.50400001928E-02 0.  1.
       -1   -1    0    0    0  501  0.00000000000E+00  0.00000000000E+00 -0.63970030542E+03  0.63970030544E+03  0.50400001928E-02 0. -1.
    10030    2    1    2    0    0  0.00000000000E+00  0.00000000000E+00  0.75939405121E+03  0.20387946621E+04  0.18920899421E+04 0.  0.
        1    1    3    3  502    0 -0.43835896414E+03  0.29715752142E+03 -0.46501126780E+03  0.70476709145E+03  0.50400001928E-02 0. -1.
       -1    1    3    3    0  502  0.43835896414E+03 -0.29715752142E+03  0.12244053190E+04  0.13340275706E+04  0.50400001928E-02 0.  1.
</event>
<event>
 5   0  0.3083469E-05  0.1898800E+04  0.7818609E-02  0.8655454E-01
        1   -1    0    0  501    0  0.00000000000E+00  0.00000000000E+00  0.10140766419E+04  0.10140766419E+04  0.50400001928E-02 0. -1.
       -1   -1    0    0    0  501  0.00000000000E+00  0.00000000000E+00 -0.88884793936E+03  0.88884793937E+03  0.50400001928E-02 0.  1.
    10030    2    1    2    0    0  0.00000000000E+00  0.00000000000E+00  0.12522870250E+03  0.19029245812E+04  0.18987995508E+04 0.  0.
        3    1    3    3  502    0 -0.53043388486E+03 -0.69349518169E+03 -0.31110897448E+03  0.92686810142E+03  0.10100000352E+00 0.  1.
       -3    1    3    3    0  502  0.53043388486E+03  0.69349518169E+03  0.43633767698E+03  0.97605647981E+03  0.10100000352E+00 0. -1.
</event>
<event>
 5   0  0.3144958E-05  0.1871138E+04  0.7818609E-02  0.8669358E-01
       -1   -1    0    0    0  501  0.00000000000E+00  0.00000000000E+00  0.85242120400E+03  0.85242120401E+03  0.50400001928E-02 0. -1.
        1   -1    0    0  501    0  0.00000000000E+00  0.00000000000E+00 -0.10268274113E+04  0.10268274113E+04  0.50400001928E-02 0.  1.
    10030    2    1    2    0    0  0.00000000000E+00  0.00000000000E+00 -0.17440620733E+03  0.18792486153E+04  0.18711381117E+04 0.  0.
        4    1    3    3  502    0 -0.51967569686E+03  0.55417334195E+03 -0.63557060534E+03  0.99051629472E+03  0.12699999809E+01 0.  1.
       -4    1    3    3    0  502  0.51967569686E+03 -0.55417334195E+03  0.46116439802E+03  0.88873232063E+03  0.12699999809E+01 0. -1.
</event>
<event>
 5   0  0.6098377E-05  0.1890567E+04  0.7818609E-02  0.8659566E-01
       -2   -1    0    0    0  501  0.00000000000E+00  0.00000000000E+00  0.11457139669E+04  0.11457139669E+04  0.25500000920E-02 0.  1.
        2   -1    0    0  501    0  0.00000000000E+00  0.00000000000E+00 -0.77991618687E+03  0.77991618687E+03  0.25500000920E-02 0. -1.
    10030    2    1    2    0    0  0.00000000000E+00  0.00000000000E+00  0.36579778000E+03  0.19256301537E+04  0.18905669713E+04 0.  0.
        5    1    3    3  502    0 -0.22822153353E+03  0.35538209403E+03 -0.67845494708E+03  0.79919003143E+03  0.46999998093E+01 0. -1.
       -5    1    3    3    0  502  0.22822153353E+03 -0.35538209403E+03  0.10442527271E+04  0.11264401223E+04  0.46999998093E+01 0.  1.
</event>
<event>
 5   0  0.3086139E-05  0.1905279E+04  0.7818609E-02  0.8652233E-01
       -1   -1    0    0    0  501  0.00000000000E+00  0.00000000000E+00  0.57030208793E+03  0.57030208795E+03  0.50400001928E-02 0.  1.
        1   -1    0    0  501    0  0.00000000000E+00  0.00000000000E+00 -0.15912999384E+04  0.15912999384E+04  0.50400001928E-02 0. -1.
    10030    2    1    2    0    0  0.00000000000E+00  0.00000000000E+00 -0.10209978504E+04  0.21616020263E+04  0.19052786436E+04 0.  0.
        2    1    3    3  502    0  0.42645553599E+03 -0.24561737607E+03 -0.14359119668E+04  0.15179049364E+04  0.25500000920E-02 0. -1.
       -2    1    3    3    0  502 -0.42645553599E+03  0.24561737607E+03  0.41491411636E+03  0.64369708992E+03  0.25500000920E-02 0.  1.
</event>
<event>
 5   0  0.3083469E-05  0.1898062E+04  0.7818609E-02  0.8655821E-01
        1   -1    0    0  501    0  0.00000000000E+00  0.00000000000E+00  0.96135724654E+03  0.96135724656E+03  0.50400001928E-02 0.  1.
       -1   -1    0    0    0  501  0.00000000000E+00  0.00000000000E+00 -0.93686328691E+03  0.93686328692E+03  0.50400001928E-02 0. -1.
    10030    2    1    2    0    0  0.00000000000E+00  0.00000000000E+00  0.24493959635E+02  0.18982205335E+04  0.18980624962E+04 0.  0.
        3    1    3    3  502    0  0.32116621294E+03  0.37094185422E+03 -0.80017200131E+03  0.93862710244E+03  0.10100000352E+00 0. -1.
       -3    1    3    3    0  502 -0.32116621294E+03 -0.37094185422E+03  0.82466596095E+03  0.95959343104E+03  0.10100000352E+00 0.  1.
</event>
<event>
 5   0  0.3086139E-05  0.1902985E+04  0.7818609E-02  0.8653372E-01
       -1   -1    0    0    0  501  0.00000000000E+00  0.00000000000E+00  0.53789716112E+03  0.53789716114E+03  0.50400001928E-02 0. -1.
        1   -1    0    0  501    0  0.00000000000E+00  0.00000000000E+00 -0.16831054186E+04  0.16831054186E+04  0.50400001928E-02 0.  1.
    10030    2    1    2    0    0  0.00000000000E+00  0.00000000000E+00 -0.11452082575E+04  0.22210025798E+04  0.19029846311E+04 0.  0.
        2    1    3    3  502    0  0.52217412198E+02 -0.87184491403E+03 -0.13203174179E+03  0.88333039860E+03  0.25500000920E-02 0. -1.
       -2    1    3    3    0  502 -0.52217412198E+02  0.87184491403E+03 -0.10131765157E+04  0.13376721812E+04  0.25500000920E-02 0.  1.
</event>
<event>
 5   0  0.6361762E-05  0.1881817E+04  0.7818609E-02  0.8663960E-01
       -2   -1    0    0    0  501  0.00000000000E+00  0.00000000000E+00  0.47437526180E+03  0.47437526181E+03  0.25500000920E-02 0. -1.
        2   -1    0    0  501    0  0.00000000000E+00  0.00000000000E+00 -0.18662629321E+04  0.18662629321E+04  0.25500000920E-02 0.  1.
    10030    2    1    2    0    0  0.00000000000E+00  0.00000000000E+00 -0.13918876703E+04  0.23406381939E+04  0.18818171718E+04 0.  0.
        1    1    3    3  502    0  0.10799292711E+03  0.89601941783E+03 -0.10268922406E+04  0.13671214076E+04  0.50400001928E-02 0.  1.
       -1    1    3    3    0  502 -0.10799292711E+03 -0.89601941783E+03 -0.36499542976E+03  0.97351678630E+03  0.50400001928E-02 0. -1.
</event>
<event>
 5   0  0.3203527E-05  0.1887370E+04  0.7818609E-02  0.8661169E-01
        1   -1    0    0  501    0  0.00000000000E+00  0.00000000000E+00  0.18643617580E+04  0.18643617580E+04  0.50400001928E-02 0.  1.
       -1   -1    0    0    0  501  0.00000000000E+00  0.00000000000E+00 -0.47766568410E+03  0.47766568413E+03  0.50400001928E-02 0. -1.
    10030    2    1    2    0    0  0.00000000000E+00  0.00000000000E+00  0.13866960739E+04  0.23420274421E+04  0.18873702706E+04 0.  0.
        1    1    3    3  502    0 -0.35444850741E+03 -0.41490796071E+03 -0.26202734995E+03  0.60534344997E+03  0.50400001928E-02 0. -1.
       -1    1    3    3    0  502  0.35444850741E+03  0.41490796071E+03  0.16487234238E+04  0.17366839921E+04  0.50400001928E-02 0.  1.
</event>
<event>
 5   0  0.6423388E-05  0.1902287E+04  0.7818609E-02  0.8653719E-01
       -2   -1    0    0    0  501  0.00000000000E+00  0.00000000000E+00  0.50957233812E+03  0.50957233813E+03  0.25500000920E-02 0. -1.
        2   -1    0    0  501    0  0.00000000000E+00  0.00000000000E+00 -0.17753597895E+04  0.17753597895E+04  0.25500000920E-02 0.  1.
    10030    2    1    2    0    0  0.00000000000E+00  0.00000000000E+00 -0.12657874513E+04  0.22849321276E+04  0.19022872958E+04 0.  0.
        2    1    3    3  502    0 -0.79242809487E+02 -0.94750883120E+03 -0.60294120777E+03  0.11258732203E+04  0.25500000920E-02 0.  1.
       -2    1    3    3    0  502  0.79242809487E+02  0.94750883120E+03 -0.66284624357E+03  0.11590589073E+04  0.25500000920E-02 0. -1.
</event>
<event>
 5   0  0.2279625E-05  0.1901095E+04  0.7818609E-02  0.8654312E-01
       -3   -1    0    0    0  501  0.00000000000E+00  0.00000000000E+00  0.13750072197E+04  0.13750072235E+04  0.10100000352E+00 0. -1.
        3   -1    0    0  501    0  0.00000000000E+00  0.00000000000E+00 -0.65711683740E+03  0.65711684516E+03  0.10100000352E+00 0.  1.
    10030    2    1    2    0    0  0.00000000000E+00  0.00000000000E+00  0.71789038235E+03  0.20321240686E+04  0.19010948501E+04 0.  0.
        4    1    3    3  502    0 -0.18017860175E+03  0.31228176856E+03 -0.58119346552E+03  0.68393836620E+03  0.12699999809E+01 0.  1.
       -4    1    3    3    0  502  0.18017860175E+03 -0.31228176856E+03  0.12990838479E+04  0.13481857024E+04  0.12699999809E+01 0. -1.
</event>
<event>
 5   0  0.3203527E-05  0.1894577E+04  0.7818609E-02  0.8657561E-01
        1   -1    0    0  501    0  0.00000000000E+00  0.00000000000E+00  0.95812548839E+03  0.95812548841E+03  0.50400001928E-02 0.  1.
       -1   -1    0    0    0  501  0.00000000000E+00  0.00000000000E+00 -0.93657368079E+03  0.93657368080E+03  0.50400001928E-02 0. -1.
    10030    2    1    2    0    0  0.00000000000E+00  0.00000000000E+00  0.21551807608E+02  0.18946991692E+04  0.18945765916E+04 0.  0.
        1    1    3    3  502    0  0.88799258005E+02 -0.80998658750E+03 -0.47236148519E+03  0.94185399764E+03  0.50400001928E-02 0. -1.
       -1    1    3    3    0  502 -0.88799258005E+02  0.80998658750E+03  0.49391329279E+03  0.95284517157E+03  0.50400001928E-02 0.  1.
</event>
<event>
 5   0  0.3083469E-05  0.1880158E+04  0.7818609E-02  0.8664797E-01
        1   -1    0    0  501    0  0.00000000000E+00  0.00000000000E+00  0.11071733435E+04  0.11071733435E+04  0.50400001928E-02 0.  1.
       -1   -1    0    0    0  501  0.00000000000E+00  0.00000000000E+00 -0.79820207257E+03  0.79820207259E+03  0.50400001928E-02 0. -1.
    10030    2    1    2    0    0  0.00000000000E+00  0.00000000000E+00  0.30897127091E+03  0.19053754161E+04  0.18801575014E+04 0.  0.
        3    1    3    3  502    0  0.50120963250E+03 -0.37699271427E+03  0.86417371370E+03  0.10677690855E+04  0.10100000352E+00 0.  1.
       -3    1    3    3    0  502 -0.50120963250E+03  0.37699271427E+03 -0.55520244279E+03  0.83760633057E+03  0.10100000352E+00 0. -1.
</event>
<event>
 5   0  0.6452182E-05  0.1906165E+04  0.7818609E-02  0.8651794E-01
        2   -1    0    0  501    0  0.00000000000E+00  0.00000000000E+00  0.31371889325E+03  0.31371889326E+03  0.25500000920E-02 0.  1.
       -2   -1    0    0    0  501  0.00000000000E+00  0.00000000000E+00 -0.28954785728E+04  0.28954785728E+04  0.25500000920E-02 0. -1.
    10030    2    1    2    0    0  0.00000000000E+00  0.00000000000E+00 -0.25817596795E+04  0.32091974660E+04  0.19061650855E+04 0.  0.
        3    1    3    3  502    0 -0.90327054152E+03  0.15656232159E+03 -0.85199287491E+03  0.12515195967E+04  0.10100000352E+00 0.  1.
       -3    1    3    3    0  502  0.90327054152E+03 -0.15656232159E+03 -0.17297668046E+04  0.19576778694E+04  0.10100000352E+00 0. -1.
</event>
<event>
 5   0  0.6395992E-05  0.1960105E+04  0.7818609E-02  0.8625504E-01
       -2   -1    0    0    0  501  0.00000000000E+00  0.00000000000E+00  0.11977954539E+04  0.11977954539E+04  0.25500000920E-02 0.  1.
        2   -1    0    0  501    0  0.00000000000E+00  0.00000000000E+00 -0.80189185086E+03  0.80189185086E+03  0.25500000920E-02 0. -1.
    10030    2    1    2    0    0  0.00000000000E+00  0.00000000000E+00  0.39590360309E+03  0.19996873048E+04  0.19601045008E+04 0.  0.
        4    1    3    3  502    0  0.94162203182E+02  0.25449554844E+02 -0.79692673693E+03  0.80287485780E+03  0.12699999809E+01 0. -1.
       -4    1    3    3    0  502 -0.94162203182E+02 -0.25449554844E+02  0.11928303400E+04  0.11968124470E+04  0.12699999809E+01 0.  1.
</event>
<event>
 5   0  0.3203527E-05  0.1836088E+04  0.7818609E-02  0.8687340E-01
        1   -1    0    0  501    0  0.00000000000E+00  0.00000000000E+00  0.17523879678E+04  0.17523879678E+04  0.50400001928E-02 0.  1.
       -1   -1    0    0    0  501  0.00000000000E+00  0.00000000000E+00 -0.48094651192E+03  0.48094651195E+03  0.50400001928E-02 0. -1.
    10030    2    1    2    0    0  0.00000000000E+00  0.00000000000E+00  0.12714414559E+04  0.22333344798E+04  0.18360881032E+04 0.  0.
        1    1    3    3  502    0 -0.82492931527E+03  0.28862525438E+03  0.97758343026E+03  0.13112903095E+04  0.50400001928E-02 0. -1.
       -1    1    3    3    0  502  0.82492931527E+03 -0.28862525438E+03  0.29385802563E+03  0.92204417026E+03  0.50400001928E-02 0.  1.
</event>
<event>
 5   0  0.3147063E-05  0.1986338E+04  0.7818609E-02  0.8613035E-01
       -1   -1    0    0    0  501  0.00000000000E+00  0.00000000000E+00  0.85385818624E+03  0.85385818625E+03  0.50400001928E-02 0. -1.
        1   -1    0    0  501    0  0.00000000000E+00  0.00000000000E+00 -0.11552085699E+04  0.11552085699E+04  0.50400001928E-02 0.  1.
    10030    2    1    2    0    0  0.00000000000E+00  0.00000000000E+00 -0.30135038368E+03  0.20090667562E+04  0.19863376292E+04 0.  0.
        5    1    3    3  502    0  0.42873117054E+03 -0.39147867689E+03 -0.96568481982E+03  0.11267809158E+04  0.46999998093E+01 0.  1.
       -5    1    3    3    0  502 -0.42873117054E+03  0.39147867689E+03  0.66433443614E+03  0.88228584035E+03  0.46999998093E+01 0. -1.
</event>
<event>
 5   0  0.6452182E-05  0.1898015E+04  0.7818609E-02  0.8655845E-01
       -2   -1    0    0    0  501  0.00000000000E+00  0.00000000000E+00  0.63946264929E+03  0.63946264930E+03  0.25500000920E-02 0. -1.
        2   -1    0    0  501    0  0.00000000000E+00  0.00000000000E+00 -0.14083934193E+04  0.14083934193E+04  0.25500000920E-02 0.  1.
    10030    2    1    2    0    0  0.00000000000E+00  0.00000000000E+00 -0.76893077003E+03  0.20478560686E+04  0.18980147388E+04 0.  0.
        3    1    3    3  502    0 -0.23394307995E+03 -0.26414559653E+03 -0.13349875499E+04  0.13808309199E+04  0.10100000352E+00 0.  1.
       -3    1    3    3    0  502  0.23394307995E+03  0.26414559653E+03  0.56605677985E+03  0.66702514872E+03  0.10100000352E+00 0. -1.
</event>
<event>
 5   0  0.3144958E-05  0.1890725E+04  0.7818609E-02  0.8659487E-01
        1   -1    0    0  501    0  0.00000000000E+00  0.00000000000E+00  0.84814508928E+03  0.84814508930E+03  0.50400001928E-02 0. -1.
       -1   -1    0    0    0  501  0.00000000000E+00  0.00000000000E+00 -0.10537231812E+04  0.10537231812E+04  0.50400001928E-02 0.  1.
    10030    2    1    2    0    0  0.00000000000E+00  0.00000000000E+00 -0.20557809190E+03  0.19018682705E+04  0.18907248786E+04 0.  0.
        4    1    3    3  502    0 -0.27451065423E+03 -0.56463119135E+03  0.60816083898E+03  0.87408563683E+03  0.12699999809E+01 0. -1.
       -4    1    3    3    0  502  0.27451065423E+03  0.56463119135E+03 -0.81373893088E+03  0.10277826337E+04  0.12699999809E+01 0.  1.
</event>
<event>
 5   0  0.6452182E-05  0.1898549E+04  0.7818609E-02  0.8655579E-01
        2   -1    0    0  501    0  0.00000000000E+00  0.00000000000E+00  0.12671705548E+04  0.12671705548E+04  0.25500000920E-02 0. -1.
       -2   -1    0    0    0  501  0.00000000000E+00  0.00000000000E+00 -0.71112945764E+03  0.71112945764E+03  0.25500000920E-02 0.  1.
    10030    2    1    2    0    0  0.00000000000E+00  0.00000000000E+00  0.55604109715E+03  0.19783000124E+04  0.18985492455E+04 0.  0.
        3    1    3    3  502    0  0.41168517368E+03  0.43327297731E+03 -0.49046315964E+03  0.77315216889E+03  0.10100000352E+00 0.  1.
       -3    1    3    3    0  502 -0.41168517368E+03 -0.43327297731E+03  0.10465042568E+04  0.12051478435E+04  0.10100000352E+00 0. -1.
</event>
<event>
 5   0  0.2279625E-05  0.1899572E+04  0.7818609E-02  0.8655069E-01
       -3   -1    0    0    0  501  0.00000000000E+00  0.00000000000E+00  0.24576157115E+04  0.24576157136E+04  0.10100000352E+00 0. -1.
        3   -1    0    0  501    0  0.00000000000E+00  0.00000000000E+00 -0.36706047529E+03  0.36706048919E+03  0.10100000352E+00 0.  1.
    10030    2    1    2    0    0  0.00000000000E+00  0.00000000000E+00  0.20905552362E+04  0.28246762028E+04  0.18995721768E+04 0.  0.
        2    1    3    3  502    0  0.52431070655E+03 -0.61087545547E+03  0.29581589807E+03  0.85765819803E+03  0.25500000920E-02 0.  1.
       -2    1    3    3    0  502 -0.52431070655E+03  0.61087545547E+03  0.17947393382E+04  0.19670180048E+04  0.25500000920E-02 0. -1.
</event>
<event>
 5   0  0.3086139E-05  0.1901634E+04  0.7818609E-02  0.8654044E-01
       -1   -1    0    0    0  501  0.00000000000E+00  0.00000000000E+00  0.99115467373E+03  0.99115467374E+03  0.50400001928E-02 0.  1.
        1   -1    0    0  501    0  0.00000000000E+00  0.00000000000E+00 -0.91212077775E+03  0.91212077776E+03  0.50400001928E-02 0. -1.
    10030    2    1    2    0    0  0.00000000000E+00  0.00000000000E+00  0.79033895984E+02  0.19032754515E+04  0.19016337943E+04 0.  0.
        2    1    3    3  502    0  0.93261043544E+03  0.10433077644E+03 -0.11360413395E+03  0.94527934202E+03  0.25500000920E-02 0. -1.
       -2    1    3    3    0  502 -0.93261043544E+03 -0.10433077644E+03  0.19263802994E+03  0.95799610948E+03  0.25500000920E-02 0.  1.
</event>
<event>
 5   0  0.6098377E-05  0.1891788E+04  0.7818609E-02  0.8658955E-01
       -2   -1    0    0    0  501  0.00000000000E+00  0.00000000000E+00  0.75358173449E+03  0.75358173449E+03  0.25500000920E-02 0.  1.
        2   -1    0    0  501    0  0.00000000000E+00  0.00000000000E+00 -0.11872837788E+04  0.11872837788E+04  0.25500000920E-02 0. -1.
    10030    2    1    2    0    0  0.00000000000E+00  0.00000000000E+00 -0.43370204429E+03  0.19408655133E+04  0.18917879050E+04 0.  0.
        5    1    3    3  502    0  0.81137137906E+03 -0.40604485384E+03 -0.49117763726E+03  0.10317332501E+04  0.46999998093E+01 0. -1.
       -5    1    3    3    0  502 -0.81137137906E+03  0.40604485384E+03  0.57475592974E+02  0.90913226314E+03  0.46999998093E+01 0.  1.
</event>
<event>
 5   0  0.3203527E-05  0.1973385E+04  0.7818609E-02  0.8619166E-01
        1   -1    0    0  501    0  0.00000000000E+00  0.00000000000E+00  0.22370806741E+04  0.22370806741E+04  0.50400001928E-02 0.  1.
       -1   -1    0    0    0  501  0.00000000000E+00  0.00000000000E+00 -0.43519290449E+03  0.43519290452E+03  0.50400001928E-02 0. -1.
    10030    2    1    2    0    0  0.00000000000E+00  0.00000000000E+00  0.18018877696E+04  0.26722735786E+04  0.19733845405E+04 0.  0.
        1    1    3    3  502    0  0.92621158405E+03 -0.33675880189E+03  0.83618106702E+03  0.12924678588E+04  0.50400001928E-02 0.  1.
       -1    1    3    3    0  502 -0.92621158405E+03  0.33675880189E+03  0.96570670256E+03  0.13798057198E+04  0.50400001928E-02 0. -1.
</event>
<event>
 5   0  0.3203527E-05  0.1910604E+04  0.7818609E-02  0.8649596E-01
       -1   -1    0    0    0  501  0.00000000000E+00  0.00000000000E+00  0.70261810107E+03  0.70261810109E+03  0.50400001928E-02 0. -1.
        1   -1    0    0  501    0  0.00000000000E+00  0.00000000000E+00 -0.12988584930E+04  0.12988584930E+04  0.50400001928E-02 0.  1.
    10030    2    1    2    0    0  0.00000000000E+00  0.00000000000E+00 -0.59624039192E+03  0.20014765941E+04  0.19106035569E+04 0.  0.
        1    1    3    3  502    0 -0.80366990081E+03 -0.19709872936E+03  0.20193950943E+03  0.85177038225E+03  0.50400001928E-02 0.  1.
       -1    1    3    3    0  502  0.80366990081E+03  0.19709872936E+03 -0.79817990135E+03  0.11497062118E+04  0.50400001928E-02 0. -1.
</event>
<event>
 5   0  0.6098377E-05  0.1923873E+04  0.7818609E-02  0.8643064E-01
       -2   -1    0    0    0  501  0.00000000000E+00  0.00000000000E+00  0.43647036291E+03  0.43647036291E+03  0.25500000920E-02 0.  1.
        2   -1    0    0  501    0  0.00000000000E+00  0.00000000000E+00 -0.21200113306E+04  0.21200113306E+04  0.25500000920E-02 0. -1.
    10030    2    1    2    0    0  0.00000000000E+00  0.00000000000E+00 -0.16835409677E+04  0.25564816936E+04  0.19238732961E+04 0.  0.
        5    1    3    3  502    0 -0.85056090517E+03  0.23524013001E+03 -0.33314599660E+03  0.94329216959E+03  0.46999998093E+01 0.  1.
       -5    1    3    3    0  502  0.85056090517E+03 -0.23524013001E+03 -0.13503949711E+04  0.16131895240E+04  0.46999998093E+01 0. -1.
</event>
<event>
 5   0  0.3144958E-05  0.1899890E+04  0.7818609E-02  0.8654911E-01
        1   -1    0    0  501    0  0.00000000000E+00  0.00000000000E+00  0.15891794988E+04  0.15891794988E+04  0.50400001928E-02 0.  1.
       -1   -1    0    0    0  501  0.00000000000E+00  0.00000000000E+00 -0.56783721840E+03  0.56783721842E+03  0.50400001928E-02 0. -1.
    10030    2    1    2    0    0  0.00000000000E+00  0.00000000000E+00  0.10213422804E+04  0.21570167172E+04  0.18998897507E+04 0.  0.
        4    1    3    3  502    0 -0.49966431979E+03  0.36231994249E+03  0.13305182995E+04  0.14667040367E+04  0.12699999809E+01 0.  1.
       -4    1    3    3    0  502  0.49966431979E+03 -0.36231994249E+03 -0.30917601907E+03  0.69031268050E+03  0.12699999809E+01 0. -1.
</event>
<event>
 5   0  0.3203527E-05  0.1875386E+04  0.7818609E-02  0.8667206E-01
        1   -1    0    0  501    0  0.00000000000E+00  0.00000000000E+00  0.63635628710E+03  0.63635628712E+03  0.50400001928E-02 0.  1.
       -1   -1    0    0    0  501  0.00000000000E+00  0.00000000000E+00 -0.13817225610E+04  0.13817225610E+04  0.50400001928E-02 0. -1.
    10030    2    1    2    0    0  0.00000000000E+00  0.00000000000E+00 -0.74536627390E+03  0.20180788481E+04  0.18753856550E+04 0.  0.
        1    1    3    3  502    0  0.76250941747E+03 -0.24297015162E+03  0.15318430073E+03  0.81481319106E+03  0.50400001928E-02 0.  1.
       -1    1    3    3    0  502 -0.76250941747E+03  0.24297015162E+03 -0.89855057463E+03  0.12032656571E+04  0.50400001928E-02 0. -1.
</event>
<event>
 5   0  0.6098377E-05  0.1884005E+04  0.7818609E-02  0.8662860E-01
        2   -1    0    0  501    0  0.00000000000E+00  0.00000000000E+00  0.21658468945E+04  0.21658468945E+04  0.25500000920E-02 0.  1.
       -2   -1    0    0    0  501  0.00000000000E+00  0.00000000000E+00 -0.40970961757E+03  0.40970961758E+03  0.25500000920E-02 0. -1.
    10030    2    1    2    0    0  0.00000000000E+00  0.00000000000E+00  0.17561372769E+04  0.25755565120E+04  0.18840045678E+04 0.  0.
        5    1    3    3  502    0 -0.42916618199E+03  0.52909137643E+03  0.17674228091E+04  0.18941823493E+04  0.46999998093E+01 0.  1.
       -5    1    3    3    0  502  0.42916618199E+03 -0.52909137643E+03 -0.11285532206E+02  0.68137416272E+03  0.46999998093E+01 0. -1.
</event>
<event>
 5   0  0.3147063E-05  0.1902436E+04  0.7818609E-02  0.8653645E-01
       -1   -1    0    0    0  501  0.00000000000E+00  0.00000000000E+00  0.73557843945E+03  0.73557843947E+03  0.50400001928E-02 0. -1.
        1   -1    0    0  501    0  0.00000000000E+00  0.00000000000E+00 -0.12300737773E+04  0.12300737773E+04  0.50400001928E-02 0.  1.
    10030    2    1    2    0    0  0.00000000000E+00  0.00000000000E+00 -0.49449533786E+03  0.19656522168E+04  0.19024360694E+04 0.  0.
        5    1    3    3  502    0  0.18614589817E+03 -0.51107394829E+03 -0.10535283974E+04  0.11856605965E+04  0.46999998093E+01 0.  1.
       -5    1    3    3    0  502 -0.18614589817E+03  0.51107394829E+03  0.55903305954E+03  0.77999162026E+03  0.46999998093E+01 0. -1.
</event>
<event>
 5   0  0.6452182E-05  0.1899186E+04  0.7818609E-02  0.8655262E-01
        2   -1    0    0  501    0  0.00000000000E+00  0.00000000000E+00  0.12288486703E+04  0.12288486703E+04  0.25500000920E-02 0. -1.
       -2   -1    0    0    0  501  0.00000000000E+00  0.00000000000E+00 -0.73379794577E+03  0.73379794577E+03  0.25500000920E-02 0.  1.
    10030    2    1    2    0    0  0.00000000000E+00  0.00000000000E+00  0.49505072456E+03  0.19626466161E+04  0.18991857518E+04 0.  0.
        3    1    3    3  502    0 -0.62012805961E+03 -0.33063988003E+03 -0.41244172814E+03  0.81485564973E+03  0.10100000352E+00 0.  1.
       -3    1    3    3    0  502  0.62012805961E+03  0.33063988003E+03  0.90749245270E+03  0.11477909664E+04  0.10100000352E+00 0. -1.
</event>
<event>
 5   0  0.3086139E-05  0.1902976E+04  0.7818609E-02  0.8653376E-01
        1   -1    0    0  501    0  0.00000000000E+00  0.00000000000E+00  0.12968352897E+04  0.12968352898E+04  0.50400001928E-02 0.  1.
       -1   -1    0    0    0  501  0.00000000000E+00  0.00000000000E+00 -0.69810705282E+03  0.69810705284E+03  0.50400001928E-02 0. -1.
    10030    2    1    2    0    0  0.00000000000E+00  0.00000000000E+00  0.59872823692E+03  0.19949423426E+04  0.19029764708E+04 0.  0.
        2    1    3    3  502    0 -0.41639059417E+03 -0.53102513241E+03 -0.40384482851E+03  0.78642193744E+03  0.25500000920E-02 0. -1.
       -2    1    3    3    0  502  0.41639059417E+03  0.53102513241E+03  0.10025730654E+04  0.12085204052E+04  0.25500000920E-02 0.  1.
</event>
<event>
 5   0  0.3144958E-05  0.1917140E+04  0.7818609E-02  0.8646371E-01
        1   -1    0    0  501    0  0.00000000000E+00  0.00000000000E+00  0.13307112767E+04  0.13307112767E+04  0.50400001928E-02 0. -1.
       -1   -1    0    0    0  501  0.00000000000E+00  0.00000000000E+00 -0.69050035726E+03  0.69050035728E+03  0.50400001928E-02 0.  1.
    10030    2    1    2    0    0  0.00000000000E+00  0.00000000000E+00  0.64021091940E+03  0.20212116340E+04  0.19171401743E+04 0.  0.
        4    1    3    3  502    0  0.90811251885E+03  0.15500820684E+03  0.59935981209E+03  0.10990585464E+04  0.12699999809E+01 0.  1.
       -4    1    3    3    0  502 -0.90811251885E+03 -0.15500820684E+03  0.40851107312E+02  0.92215308759E+03  0.12699999809E+01 0. -1.
</event>
<event>
 5   0  0.3203527E-05  0.1900217E+04  0.7818609E-02  0.8654748E-01
        1   -1    0    0  501    0  0.00000000000E+00  0.00000000000E+00  0.18809714877E+04  0.18809714877E+04  0.50400001928E-02 0.  1.
       -1   -1    0    0    0  501  0.00000000000E+00  0.00000000000E+00 -0.47991476178E+03  0.47991476180E+03  0.50400001928E-02 0. -1.
    10030    2    1    2    0    0  0.00000000000E+00  0.00000000000E+00  0.14010567259E+04  0.23608862495E+04  0.19002168123E+04 0.  0.
        1    1    3    3  502    0  0.56216041566E+03  0.73545033644E+02 -0.24671571549E+03  0.61830562767E+03  0.50400001928E-02 0. -1.
       -1    1    3    3    0  502 -0.56216041566E+03 -0.73545033644E+02  0.16477724414E+04  0.17425806218E+04  0.50400001928E-02 0.  1.
</event>
<event>
 5   0  0.3144958E-05  0.1900436E+04  0.7818609E-02  0.8654639E-01
       -1   -1    0    0    0  501  0.00000000000E+00  0.00000000000E+00  0.56001503299E+03  0.56001503302E+03  0.50400001928E-02 0.  1.
        1   -1    0    0  501    0  0.00000000000E+00  0.00000000000E+00 -0.16123039955E+04  0.16123039955E+04  0.50400001928E-02 0. -1.
    10030    2    1    2    0    0  0.00000000000E+00  0.00000000000E+00 -0.10522889625E+04  0.21723190285E+04  0.19004362397E+04 0.  0.
        4    1    3    3  502    0 -0.81526472455E+03 -0.40155844337E+03 -0.20894263285E+03  0.93250436528E+03  0.12699999809E+01 0.  1.
       -4    1    3    3    0  502  0.81526472455E+03  0.40155844337E+03 -0.84334632966E+03  0.12398146632E+04  0.12699999809E+01 0. -1.
</event>
<event>
 5   0  0.6423388E-05  0.1872931E+04  0.7818609E-02  0.8668449E-01
       -2   -1    0    0    0  501  0.00000000000E+00  0.00000000000E+00  0.44414773537E+03  0.44414773538E+03  0.25500000920E-02 0.  1.
        2   -1    0    0  501    0  0.00000000000E+00  0.00000000000E+00 -0.19744952350E+04  0.19744952350E+04  0.25500000920E-02 0. -1.
    10030    2    1    2    0    0  0.00000000000E+00  0.00000000000E+00 -0.15303474997E+04  0.24186429704E+04  0.18729309514E+04 0.  0.
        2    1    3    3  502    0  0.68050838134E+03  0.33657475917E+03 -0.14731842366E+04  0.16573008238E+04  0.25500000920E-02 0. -1.
       -2    1    3    3    0  502 -0.68050838134E+03 -0.33657475917E+03 -0.57163263085E+02  0.76134214664E+03  0.25500000920E-02 0.  1.
</event>
<event>
 5   0  0.6361762E-05  0.1924243E+04  0.7818609E-02  0.8642882E-01
       -2   -1    0    0    0  501  0.00000000000E+00  0.00000000000E+00  0.99238640715E+03  0.99238640716E+03  0.25500000920E-02 0. -1.
        2   -1    0    0  501    0  0.00000000000E+00  0.00000000000E+00 -0.93277976622E+03  0.93277976623E+03  0.25500000920E-02 0.  1.
    10030    2    1    2    0    0  0.00000000000E+00  0.00000000000E+00  0.59606640929E+02  0.19251661734E+04  0.19242431872E+04 0.  0.
        1    1    3    3  502    0 -0.17258875563E+03 -0.82027413431E+03 -0.44269582994E+03  0.94795365491E+03  0.50400001928E-02 0.  1.
       -1    1    3    3    0  502  0.17258875563E+03  0.82027413431E+03  0.50230247087E+03  0.97721251847E+03  0.50400001928E-02 0. -1.
</event>
<event>
 5   0  0.6452182E-05  0.1894121E+04  0.7818609E-02  0.8657788E-01
        2   -1    0    0  501    0  0.00000000000E+00  0.00000000000E+00  0.97275829081E+03  0.97275829081E+03  0.25500000920E-02 0.  1.
       -2   -1    0    0    0  501  0.00000000000E+00  0.00000000000E+00 -0.92204141663E+03  0.92204141663E+03  0.25500000920E-02 0. -1.
    10030    2    1    2    0    0  0.00000000000E+00  0.00000000000E+00  0.50716874178E+02  0.18947997074E+04  0.18941208330E+04 0.  0.
        3    1    3    3  502    0 -0.72943261349E+02 -0.90497544585E+03 -0.24422311249E+03  0.94018413933E+03  0.10100000352E+00 0. -1.
       -3    1    3    3    0  502  0.72943261349E+02  0.90497544585E+03  0.29493998666E+03  0.95461556812E+03  0.10100000352E+00 0.  1.
</event>
<event>
 5   0  0.6361762E-05  0.1900758E+04  0.7818609E-02  0.8654479E-01
        2   -1    0    0  501    0  0.00000000000E+00  0.00000000000E+00  0.99204715837E+03  0.99204715837E+03  0.25500000920E-02 0.  1.
       -2   -1    0    0    0  501  0.00000000000E+00  0.00000000000E+00 -0.91046106173E+03  0.91046106173E+03  0.25500000920E-02 0. -1.
    10030    2    1    2    0    0  0.00000000000E+00  0.00000000000E+00  0.81586096642E+02  0.19025082201E+04  0.19007580689E+04 0.  0.
        1    1    3    3  502    0  0.58011707413E+03 -0.74919983955E+03 -0.32650871310E+02  0.94810458215E+03  0.50400001928E-02 0. -1.
       -1    1    3    3    0  502 -0.58011707413E+03  0.74919983955E+03  0.11423696795E+03  0.95440363795E+03  0.50400001928E-02 0.  1.
</event>
<event>
 5   0  0.6395992E-05  0.1835179E+04  0.7818609E-02  0.8687812E-01
       -2   -1    0    0    0  501  0.00000000000E+00  0.00000000000E+00  0.61335183394E+03  0.61335183395E+03  0.25500000920E-02 0.  1.
        2   -1    0    0  501    0  0.00000000000E+00  0.00000000000E+00 -0.13727363789E+04  0.13727363789E+04  0.25500000920E-02 0. -1.
    10030    2    1    2    0    0  0.00000000000E+00  0.00000000000E+00 -0.75938454497E+03  0.19860882129E+04  0.18351788747E+04 0.  0.
        4    1    3    3  502    0  0.19836891967E+03  0.12203995276E+03  0.58082988485E+03  0.62578666205E+03  0.12699999809E+01 0.  1.
       -4    1    3    3    0  502 -0.19836891967E+03 -0.12203995276E+03 -0.13402144298E+04  0.13603015508E+04  0.12699999809E+01 0. -1.
</event>
<event>
 5   0  0.3083469E-05  0.1902307E+04  0.7818609E-02  0.8653709E-01
       -1   -1    0    0    0  501  0.00000000000E+00  0.00000000000E+00  0.59320566500E+03  0.59320566503E+03  0.50400001928E-02 0.  1.
        1   -1    0    0  501    0  0.00000000000E+00  0.00000000000E+00 -0.15250921365E+04  0.15250921365E+04  0.50400001928E-02 0. -1.
    10030    2    1    2    0    0  0.00000000000E+00  0.00000000000E+00 -0.93188647150E+03  0.21182978015E+04  0.19023073306E+04 0.  0.
        3    1    3    3  502    0  0.20576022906E+03 -0.67341339285E+03  0.24608821608E+03  0.74591037653E+03  0.10100000352E+00 0.  1.
       -3    1    3    3    0  502 -0.20576022906E+03  0.67341339285E+03 -0.11779746876E+04  0.13723874250E+04  0.10100000352E+00 0. -1.
</event>
<event>
 5   0  0.3203527E-05  0.1898459E+04  0.7818609E-02  0.8655624E-01
        1   -1    0    0  501    0  0.00000000000E+00  0.00000000000E+00  0.16251134684E+04  0.16251134685E+04  0.50400001928E-02 0.  1.
       -1   -1    0    0    0  501  0.00000000000E+00  0.00000000000E+00 -0.55444558759E+03  0.55444558761E+03  0.50400001928E-02 0. -1.
    10030    2    1    2    0    0  0.00000000000E+00  0.00000000000E+00  0.10706678809E+04  0.21795590561E+04  0.18984593669E+04 0.  0.
        1    1    3    3  502    0 -0.43096517878E+03 -0.63861022015E+03 -0.10128255099E+03  0.77705350765E+03  0.50400001928E-02 0. -1.
       -1    1    3    3    0  502  0.43096517878E+03  0.63861022015E+03  0.11719504318E+04  0.14025055484E+04  0.50400001928E-02 0.  1.
</event>
<event>
 5   0  0.2279625E-05  0.1889823E+04  0.7818609E-02  0.8659939E-01
       -3   -1    0    0    0  501  0.00000000000E+00  0.00000000000E+00  0.98279842474E+03  0.98279842993E+03  0.10100000352E+00 0.  1.
        3   -1    0    0  501    0  0.00000000000E+00  0.00000000000E+00 -0.90848484912E+03  0.90848485473E+03  0.10100000352E+00 0. -1.
    10030    2    1    2    0    0  0.00000000000E+00  0.00000000000E+00  0.74313575619E+02  0.18912832847E+04  0.18898227312E+04 0.  0.
        4    1    3    3  502    0 -0.61245859261E+03 -0.53631184259E+03 -0.44292215424E+03  0.92677805746E+03  0.12699999809E+01 0. -1.
       -4    1    3    3    0  502  0.61245859261E+03  0.53631184259E+03  0.51723572986E+03  0.96450522721E+03  0.12699999809E+01 0.  1.
</event>
<event>
 5   0  0.3203527E-05  0.1898836E+04  0.7818609E-02  0.8655436E-01
       -1   -1    0    0    0  501  0.00000000000E+00  0.00000000000E+00  0.68337617409E+03  0.68337617411E+03  0.50400001928E-02 0. -1.
        1   -1    0    0  501    0  0.00000000000E+00  0.00000000000E+00 -0.13190313126E+04  0.13190313126E+04  0.50400001928E-02 0.  1.
    10030    2    1    2    0    0  0.00000000000E+00  0.00000000000E+00 -0.63565513852E+03  0.20024074867E+04  0.18988360350E+04 0.  0.
        1    1    3    3  502    0 -0.39926730913E+03  0.20539984298E+03 -0.11999913045E+04  0.12812426041E+04  0.50400001928E-02 0.  1.
       -1    1    3    3    0  502  0.39926730913E+03 -0.20539984298E+03  0.56433616600E+03  0.72116488262E+03  0.50400001928E-02 0. -1.
</event>
<event>
 5   0  0.3144958E-05  0.1901560E+04  0.7818609E-02  0.8654080E-01
       -1   -1    0    0    0  501  0.00000000000E+00  0.00000000000E+00  0.56873342444E+03  0.56873342446E+03  0.50400001928E-02 0. -1.
        1   -1    0    0  501    0  0.00000000000E+00  0.00000000000E+00 -0.15894661914E+04  0.15894661914E+04  0.50400001928E-02 0.  1.
    10030    2    1    2    0    0  0.00000000000E+00  0.00000000000E+00 -0.10207327670E+04  0.21581996159E+04  0.19015599387E+04 0.  0.
        4    1    3    3  502    0 -0.32268539506E+03 -0.29892896530E+03  0.44630454636E+03  0.62663685774E+03  0.12699999809E+01 0. -1.
       -4    1    3    3    0  502  0.32268539506E+03  0.29892896530E+03 -0.14670373133E+04  0.15315627581E+04  0.12699999809E+01 0.  1.
</event>
<event>
 5   0  0.3083469E-05  0.1900803E+04  0.7818609E-02  0.8654457E-01
        1   -1    0    0  501    0  0.00000000000E+00  0.00000000000E+00  0.51952977173E+03  0.51952977175E+03  0.50400001928E-02 0.  1.
       -1   -1    0    0    0  501  0.00000000000E+00  0.00000000000E+00 -0.17386157995E+04  0.17386157995E+04  0.50400001928E-02 0. -1.
    10030    2    1    2    0    0  0.00000000000E+00  0.00000000000E+00 -0.12190860278E+04  0.22581455712E+04  0.19008026404E+04 0.  0.
        3    1    3    3  502    0  0.85777690321E+03 -0.27953518555E+03 -0.96463558456E+03  0.13207736206E+04  0.10100000352E+00 0. -1.
       -3    1    3    3    0  502 -0.85777690321E+03  0.27953518555E+03 -0.25445044320E+03  0.93737195066E+03  0.10100000352E+00 0.  1.
</event>
<event>
 5   0  0.6395992E-05  0.1908243E+04  0.7818609E-02  0.8650764E-01
       -2   -1    0    0    0  501  0.00000000000E+00  0.00000000000E+00  0.36958704146E+03  0.36958704146E+03  0.25500000920E-02 0.  1.
        2   -1    0    0  501    0  0.00000000000E+00  0.00000000000E+00 -0.24631491475E+04  0.24631491475E+04  0.25500000920E-02 0. -1.
    10030    2    1    2    0    0  0.00000000000E+00  0.00000000000E+00 -0.20935621060E+04  0.28327361889E+04  0.19082431775E+04 0.  0.
        4    1    3    3  502    0  0.12172562928E+03  0.77895944338E+03 -0.24909040713E+03  0.82682681807E+03  0.12699999809E+01 0.  1.
       -4    1    3    3    0  502 -0.12172562928E+03 -0.77895944338E+03 -0.18444716989E+04  0.20059093709E+04  0.12699999809E+01 0. -1.
</event>
<event>
 5   0  0.3086139E-05  0.1893845E+04  0.7818609E-02  0.8657926E-01
        1   -1    0    0  501    0  0.00000000000E+00  0.00000000000E+00  0.83017073959E+03  0.83017073960E+03  0.50400001928E-02 0.  1.
       -1   -1    0    0    0  501  0.00000000000E+00  0.00000000000E+00 -0.10800939238E+04  0.10800939238E+04  0.50400001928E-02 0. -1.
    10030    2    1    2    0    0  0.00000000000E+00  0.00000000000E+00 -0.24992318419E+03  0.19102646634E+04  0.18938451590E+04 0.  0.
        2    1    3    3  502    0  0.49721865041E+03 -0.55848831289E+03 -0.71096912430E+03  0.10318006967E+04  0.25500000920E-02 0. -1.
       -2    1    3    3    0  502 -0.49721865041E+03  0.55848831289E+03  0.46104594010E+03  0.87846396672E+03  0.25500000920E-02 0.  1.
</event>
<event>
 5   0  0.3083469E-05  0.1866511E+04  0.7818609E-02  0.8671708E-01
        1   -1    0    0  501    0  0.00000000000E+00  0.00000000000E+00  0.56065147665E+03  0.56065147667E+03  0.50400001928E-02 0. -1.
       -1   -1    0    0    0  501  0.00000000000E+00  0.00000000000E+00 -0.15534889207E+04  0.15534889207E+04  0.50400001928E-02 0.  1.
    10030    2    1    2    0    0  0.00000000000E+00  0.00000000000E+00 -0.99283744404E+03  0.21141403974E+04  0.18665110312E+04 0.  0.
        3    1    3    3  502    0 -0.87226978855E+02 -0.89884336833E+03 -0.22972877112E+03  0.93182791604E+03  0.10100000352E+00 0.  1.
       -3    1    3    3    0  502  0.87226978855E+02  0.89884336833E+03 -0.76310867292E+03  0.11823124813E+04  0.10100000352E+00 0. -1.
</event>
<event>
 5   0  0.6098377E-05  0.1900326E+04  0.7818609E-02  0.8654694E-01
        2   -1    0    0  501    0  0.00000000000E+00  0.00000000000E+00  0.28576329825E+04  0.28576329825E+04  0.25500000920E-02 0. -1.
       -2   -1    0    0    0  501  0.00000000000E+00  0.00000000000E+00 -0.31592917199E+03  0.31592917200E+03  0.25500000920E-02 0.  1.
    10030    2    1    2    0    0  0.00000000000E+00  0.00000000000E+00  0.25417038106E+04  0.31735621545E+04  0.19003258900E+04 0.  0.
        5    1    3    3  502    0  0.64272519239E+03 -0.84082458617E+02  0.11067963659E+03  0.65759988194E+03  0.46999998093E+01 0.  1.
       -5    1    3    3    0  502 -0.64272519239E+03  0.84082458617E+02  0.24310241740E+04  0.25159622726E+04  0.46999998093E+01 0. -1.
</event>
<event>
 5   0  0.3086139E-05  0.1904508E+04  0.7818609E-02  0.8652616E-01
       -1   -1    0    0    0  501  0.00000000000E+00  0.00000000000E+00  0.97281997218E+03  0.97281997220E+03  0.50400001928E-02 0. -1.
        1   -1    0    0  501    0  0.00000000000E+00  0.00000000000E+00 -0.93212275567E+03  0.93212275569E+03  0.50400001928E-02 0.  1.
    10030    2    1    2    0    0  0.00000000000E+00  0.00000000000E+00  0.40697216508E+02  0.19049427279E+04  0.19045079504E+04 0.  0.
        2    1    3    3  502    0 -0.90648914496E+03 -0.11175450602E+02  0.31186011543E+03  0.95869921885E+03  0.25500000920E-02 0. -1.
       -2    1    3    3    0  502  0.90648914496E+03  0.11175450602E+02 -0.27116289892E+03  0.94624350903E+03  0.25500000920E-02 0.  1.
</event>
<event>
 5   0  0.3147063E-05  0.1905361E+04  0.7818609E-02  0.8652192E-01
       -1   -1    0    0    0  501  0.00000000000E+00  0.00000000000E+00  0.74193399249E+03  0.74193399251E+03  0.50400001928E-02 0. -1.
        1   -1    0    0  501    0  0.00000000000E+00  0.00000000000E+00 -0.12232902087E+04  0.12232902087E+04  0.50400001928E-02 0.  1.
    10030    2    1    2    0    0  0.00000000000E+00  0.00000000000E+00 -0.48135621619E+03  0.19652242012E+04  0.19053614760E+04 0.  0.
        5    1    3    3  502    0 -0.76798247494E+03  0.32456380909E+03  0.23471470847E+03  0.86617078706E+03  0.46999998093E+01 0. -1.
       -5    1    3    3    0  502  0.76798247494E+03 -0.32456380909E+03 -0.71607092466E+03  0.10990534141E+04  0.46999998093E+01 0.  1.
</event>
<event>
 5   0  0.3147063E-05  0.1876056E+04  0.7818609E-02  0.8666868E-01
        1   -1    0    0  501    0  0.00000000000E+00  0.00000000000E+00  0.16871443879E+04  0.16871443879E+04  0.50400001928E-02 0. -1.
       -1   -1    0    0    0  501  0.00000000000E+00  0.00000000000E+00 -0.52152979135E+03  0.52152979137E+03  0.50400001928E-02 0.  1.
    10030    2    1    2    0    0  0.00000000000E+00  0.00000000000E+00  0.11656145966E+04  0.22086741793E+04  0.18760555009E+04 0.  0.
        5    1    3    3  502    0  0.65603085411E+03  0.27920452803E+03  0.13004199988E+04  0.14830529031E+04  0.46999998093E+01 0. -1.
       -5    1    3    3    0  502 -0.65603085411E+03 -0.27920452803E+03 -0.13480540225E+03  0.72562127621E+03  0.46999998093E+01 0.  1.
</event>
<event>
 5   0  0.6423388E-05  0.1917095E+04  0.7818609E-02  0.8646394E-01
        2   -1    0    0  501    0  0.00000000000E+00  0.00000000000E+00  0.51708471005E+03  0.51708471006E+03  0.25500000920E-02 0.  1.
       -2   -1    0    0    0  501  0.00000000000E+00  0.00000000000E+00 -0.17769107871E+04  0.17769107871E+04  0.25500000920E-02 0. -1.
    10030    2    1    2    0    0  0.00000000000E+00  0.00000000000E+00 -0.12598260771E+04  0.22939954972E+04  0.19170950933E+04 0.  0.
        2    1    3    3  502    0 -0.43175052948E+03 -0.79882818010E+03 -0.99732648714E+03  0.13487754087E+04  0.25500000920E-02 0.  1.
       -2    1    3    3    0  502  0.43175052948E+03  0.79882818010E+03 -0.26249958994E+03  0.94522008853E+03  0.25500000920E-02 0. -1.
</event>
<event>
 5   0  0.6423388E-05  0.1873818E+04  0.7818609E-02  0.8668000E-01
        2   -1    0    0  501    0  0.00000000000E+00  0.00000000000E+00  0.65283801983E+03  0.65283801984E+03  0.25500000920E-02 0. -1.
       -2   -1    0    0    0  501  0.00000000000E+00  0.00000000000E+00 -0.13445887556E+04  0.13445887556E+04  0.25500000920E-02 0.  1.
    10030    2    1    2    0    0  0.00000000000E+00  0.00000000000E+00 -0.69175073579E+03  0.19974267755E+04  0.18738181990E+04 0.  0.
        2    1    3    3  502    0  0.63099284145E+03 -0.30987358137E+03  0.31435713166E+03  0.77006104214E+03  0.25500000920E-02 0. -1.
       -2    1    3    3    0  502 -0.63099284145E+03  0.30987358137E+03 -0.10061078674E+04  0.12273657333E+04  0.25500000920E-02 0.  1.
</event>
<event>
 5   0  0.6098377E-05  0.1921452E+04  0.7818609E-02  0.8644251E-01
        2   -1    0    0  501    0  0.00000000000E+00  0.00000000000E+00  0.97195887519E+03  0.97195887519E+03  0.25500000920E-02 0.  1.
       -2   -1    0    0    0  501  0.00000000000E+00  0.00000000000E+00 -0.94962299432E+03  0.94962299432E+03  0.25500000920E-02 0. -1.
    10030    2    1    2    0    0  0.00000000000E+00  0.00000000000E+00  0.22335880870E+02  0.19215818695E+04  0.19214520524E+04 0.  0.
        5    1    3    3  502    0 -0.35998140682E+03 -0.80727402786E+03 -0.36528070820E+03  0.95641521062E+03  0.46999998093E+01 0. -1.
       -5    1    3    3    0  502  0.35998140682E+03  0.80727402786E+03  0.38761658907E+03  0.96516665890E+03  0.46999998093E+01 0.  1.
</event>
<event>
 5   0  0.6395992E-05  0.1897481E+04  0.7818609E-02  0.8656111E-01
        2   -1    0    0  501    0  0.00000000000E+00  0.00000000000E+00  0.94975262033E+03  0.94975262033E+03  0.25500000920E-02 0.  1.
       -2   -1    0    0    0  501  0.00000000000E+00  0.00000000000E+00 -0.94772918721E+03  0.94772918721E+03  0.25500000920E-02 0. -1.
    10030    2    1    2    0    0  0.00000000000E+00  0.00000000000E+00  0.20234331158E+01  0.18974818075E+04  0.18974807287E+04 0.  0.
        4    1    3    3  502    0 -0.19174942329E+02  0.43153784095E+03 -0.84368638976E+03  0.94784013618E+03  0.12699999809E+01 0. -1.
       -4    1    3    3    0  502  0.19174942329E+02 -0.43153784095E+03  0.84570982287E+03  0.94964167136E+03  0.12699999809E+01 0.  1.
</event>
<event>
 5   0  0.3203527E-05  0.1906739E+04  0.7818609E-02  0.8651509E-01
        1   -1    0    0  501    0  0.00000000000E+00  0.00000000000E+00  0.13665340588E+04  0.13665340588E+04  0.50400001928E-02 0.  1.
       -1   -1    0    0    0  501  0.00000000000E+00  0.00000000000E+00 -0.66512338181E+03  0.66512338183E+03  0.50400001928E-02 0. -1.
    10030    2    1    2    0    0  0.00000000000E+00  0.00000000000E+00  0.70141067695E+03  0.20316574406E+04  0.19067393682E+04 0.  0.
        1    1    3    3  502    0  0.15474758984E+03 -0.24178384671E+03  0.13193902865E+04  0.13502581135E+04  0.50400001928E-02 0.  1.
       -1    1    3    3    0  502 -0.15474758984E+03  0.24178384671E+03 -0.61797960953E+03  0.68139932706E+03  0.50400001928E-02 0. -1.
</event>
<event>
 5   0  0.6395992E-05  0.1906518E+04  0.7818609E-02  0.8651619E-01
        2   -1    0    0  501    0  0.00000000000E+00  0.00000000000E+00  0.25914260615E+04  0.25914260615E+04  0.25500000920E-02 0.  1.
       -2   -1    0    0    0  501  0.00000000000E+00  0.00000000000E+00 -0.35065743455E+03  0.35065743455E+03  0.25500000920E-02 0. -1.
    10030    2    1    2    0    0  0.00000000000E+00  0.00000000000E+00  0.22407686270E+04  0.29420834961E+04  0.19065180981E+04 0.  0.
        4    1    3    3  502    0 -0.13745105328E+03 -0.48662778999E+03  0.23673980915E+04  0.24208004327E+04  0.12699999809E+01 0.  1.
       -4    1    3    3    0  502  0.13745105328E+03  0.48662778999E+03 -0.12662946454E+03  0.52128306344E+03  0.12699999809E+01 0. -1.
</event>
<event>
 5   0  0.3144958E-05  0.1885953E+04  0.7818609E-02  0.8661880E-01
        1   -1    0    0  501    0  0.00000000000E+00  0.00000000000E+00  0.13019359933E+04  0.13019359934E+04  0.50400001928E-02 0.  1.
       -1   -1    0    0    0  501  0.00000000000E+00  0.00000000000E+00 -0.68298665155E+03  0.68298665157E+03  0.50400001928E-02 0. -1.
    10030    2    1    2    0    0  0.00000000000E+00  0.00000000000E+00  0.61894934179E+03  0.19849226449E+04  0.18859532387E+04 0.  0.
        4    1    3    3  502    0 -0.84222195999E+03 -0.15034562344E+02 -0.13660608978E+03  0.85336200092E+03  0.12699999809E+01 0. -1.
       -4    1    3    3    0  502  0.84222195999E+03  0.15034562344E+02  0.75555543158E+03  0.11315606440E+04  0.12699999809E+01 0.  1.
</event>
<event>
 5   0  0.6361762E-05  0.1901447E+04  0.7818609E-02  0.8654137E-01
       -2   -1    0    0    0  501  0.00000000000E+00  0.00000000000E+00  0.10937437232E+04  0.10937437232E+04  0.25500000920E-02 0. -1.
        2   -1    0    0  501    0  0.00000000000E+00  0.00000000000E+00 -0.82640458303E+03  0.82640458303E+03  0.25500000920E-02 0.  1.
    10030    2    1    2    0    0  0.00000000000E+00  0.00000000000E+00  0.26733914014E+03  0.19201483062E+04  0.19014466340E+04 0.  0.
        1    1    3    3  502    0 -0.71147999461E+03 -0.20689938297E+03  0.73523298137E+03  0.10438288530E+04  0.50400001928E-02 0. -1.
       -1    1    3    3    0  502  0.71147999461E+03  0.20689938297E+03 -0.46789384123E+03  0.87631945322E+03  0.50400001928E-02 0.  1.
</event>
<event>
 5   0  0.3083469E-05  0.1888791E+04  0.7818609E-02  0.8660456E-01
       -1   -1    0    0    0  501  0.00000000000E+00  0.00000000000E+00  0.10543843093E+04  0.10543843093E+04  0.50400001928E-02 0. -1.
        1   -1    0    0  501    0  0.00000000000E+00  0.00000000000E+00 -0.84588044339E+03  0.84588044341E+03  0.50400001928E-02 0.  1.
    10030    2    1    2    0    0  0.00000000000E+00  0.00000000000E+00  0.20850386592E+03  0.19002647527E+04  0.18887912188E+04 0.  0.
        3    1    3    3  502    0 -0.89572848990E+03  0.14240407232E+03  0.36905145747E+03  0.97918713017E+03  0.10100000352E+00 0.  1.
       -3    1    3    3    0  502  0.89572848990E+03 -0.14240407232E+03 -0.16054759155E+03  0.92107762256E+03  0.10100000352E+00 0. -1.
</event>
<event>
 5   0  0.6452182E-05  0.1898986E+04  0.7818609E-02  0.8655361E-01
       -2   -1    0    0    0  501  0.00000000000E+00  0.00000000000E+00  0.76654048027E+03  0.76654048027E+03  0.25500000920E-02 0.  1.
        2   -1    0    0  501    0  0.00000000000E+00  0.00000000000E+00 -0.11761117870E+04  0.11761117870E+04  0.25500000920E-02 0. -1.
    10030    2    1    2    0    0  0.00000000000E+00  0.00000000000E+00 -0.40957130670E+03  0.19426522672E+04  0.18989863549E+04 0.  0.
        3    1    3    3  502    0 -0.63676373577E+03  0.75532195882E+02 -0.92114769582E+03  0.11223574544E+04  0.10100000352E+00 0. -1.
       -3    1    3    3    0  502  0.63676373577E+03 -0.75532195882E+02  0.51157638912E+03  0.82029481280E+03  0.10100000352E+00 0.  1.
</event>
<event>
 5   0  0.3147063E-05  0.1906875E+04  0.7818609E-02  0.8651442E-01
       -1   -1    0    0    0  501  0.00000000000E+00  0.00000000000E+00  0.76714972469E+03  0.76714972471E+03  0.50400001928E-02 0.  1.
        1   -1    0    0  501    0  0.00000000000E+00  0.00000000000E+00 -0.11849613552E+04  0.11849613552E+04  0.50400001928E-02 0. -1.
    10030    2    1    2    0    0  0.00000000000E+00  0.00000000000E+00 -0.41781163053E+03  0.19521110799E+04  0.19068746969E+04 0.  0.
        5    1    3    3  502    0 -0.31151602678E+03 -0.74461180086E+03  0.31060875645E+03  0.86486349126E+03  0.46999998093E+01 0.  1.
       -5    1    3    3    0  502  0.31151602678E+03  0.74461180086E+03 -0.72842038698E+03  0.10872475887E+04  0.46999998093E+01 0. -1.
</event>
<event>
 5   0  0.6361762E-05  0.1894880E+04  0.7818609E-02  0.8657409E-01
       -2   -1    0    0    0  501  0.00000000000E+00  0.00000000000E+00  0.58153649227E+03  0.58153649228E+03  0.25500000920E-02 0. -1.
        2   -1    0    0  501    0  0.00000000000E+00  0.00000000000E+00 -0.15435700521E+04  0.15435700521E+04  0.25500000920E-02 0.  1.
    10030    2    1    2    0    0  0.00000000000E+00  0.00000000000E+00 -0.96203355985E+03  0.21251065444E+04  0.18948797468E+04 0.  0.
        1    1    3    3  502    0 -0.64866897876E+03  0.40694160677E+03 -0.11067183834E+04  0.13458077484E+04  0.50400001928E-02 0.  1.
       -1    1    3    3    0  502  0.64866897876E+03 -0.40694160677E+03  0.14468482355E+03  0.77929879605E+03  0.50400001928E-02 0. -1.
</event>
<event>
 5   0  0.6452182E-05  0.1937853E+04  0.7818609E-02  0.8636241E-01
        2   -1    0    0  501    0  0.00000000000E+00  0.00000000000E+00  0.19802983726E+04  0.19802983726E+04  0.25500000920E-02 0. -1.
       -2   -1    0    0    0  501  0.00000000000E+00  0.00000000000E+00 -0.47407939260E+03  0.47407939261E+03  0.25500000920E-02 0.  1.
    10030    2    1    2    0    0  0.00000000000E+00  0.00000000000E+00  0.15062189800E+04  0.24543777653E+04  0.19378530901E+04 0.  0.
        3    1    3    3  502    0  0.69653848376E+03  0.31556208994E+03  0.15067551050E+04  0.16896911696E+04  0.10100000352E+00 0. -1.
       -3    1    3    3    0  502 -0.69653848376E+03 -0.31556208994E+03 -0.53612494096E+00  0.76468659567E+03  0.10100000352E+00 0.  1.
</event>
<event>
 5   0  0.2279625E-05  0.1897080E+04  0.7818609E-02  0.8656311E-01
       -3   -1    0    0    0  501  0.00000000000E+00  0.00000000000E+00  0.41097584701E+03  0.41097585943E+03  0.10100000352E+00 0. -1.
        3   -1    0    0  501    0  0.00000000000E+00  0.00000000000E+00 -0.21892471510E+04  0.21892471534E+04  0.10100000352E+00 0.  1.
    10030    2    1    2    0    0  0.00000000000E+00  0.00000000000E+00 -0.17782713040E+04  0.26002230128E+04  0.18970795675E+04 0.  0.
        4    1    3    3  502    0 -0.22272230866E+03 -0.57758575287E+03  0.95933601837E+02  0.62643068057E+03  0.12699999809E+01 0. -1.
       -4    1    3    3    0  502  0.22272230866E+03  0.57758575287E+03 -0.18742049059E+04  0.19737923322E+04  0.12699999809E+01 0.  1.
</event>
<event>
 5   0  0.3144958E-05  0.1900914E+04  0.7818609E-02  0.8654402E-01
        1   -1    0    0  501    0  0.00000000000E+00  0.00000000000E+00  0.94115655941E+03  0.94115655942E+03  0.50400001928E-02 0. -1.
       -1   -1    0    0    0  501  0.00000000000E+00  0.00000000000E+00 -0.95984885070E+03  0.95984885072E+03  0.50400001928E-02 0.  1.
    10030    2    1    2    0    0  0.00000000000E+00  0.00000000000E+00 -0.18692291293E+02  0.19010054101E+04  0.19009135087E+04 0.  0.
        4    1    3    3  502    0  0.22758282982E+02  0.59735712356E+03 -0.74830876498E+03  0.95776880987E+03  0.12699999809E+01 0.  1.
       -4    1    3    3    0  502 -0.22758282982E+02 -0.59735712356E+03  0.72961647369E+03  0.94323660027E+03  0.12699999809E+01 0. -1.
</event>
<event>
 5   0  0.3086139E-05  0.1903734E+04  0.7818609E-02  0.8653000E-01
       -1   -1    0    0    0  501  0.00000000000E+00  0.00000000000E+00  0.44381795814E+03  0.44381795817E+03  0.50400001928E-02 0. -1.
        1   -1    0    0  501    0  0.00000000000E+00  0.00000000000E+00 -0.20414918666E+04  0.20414918666E+04  0.50400001928E-02 0.  1.
    10030    2    1    2    0    0  0.00000000000E+00  0.00000000000E+00 -0.15976739085E+04  0.24853098248E+04  0.19037339644E+04 0.  0.
        2    1    3    3  502    0 -0.15488453024E+03  0.44466147186E+03 -0.18788015402E+04  0.19369068820E+04  0.25500000920E-02 0.  1.
       -2    1    3    3    0  502  0.15488453024E+03 -0.44466147186E+03  0.28112763174E+03  0.54840294273E+03  0.25500000920E-02 0. -1.
</event>
<event>
 5   0  0.6395992E-05  0.1879464E+04  0.7818609E-02  0.8665146E-01
        2   -1    0    0  501    0  0.00000000000E+00  0.00000000000E+00  0.13902069651E+04  0.13902069651E+04  0.25500000920E-02 0. -1.
       -2   -1    0    0    0  501  0.00000000000E+00  0.00000000000E+00 -0.63522652280E+03  0.63522652280E+03  0.25500000920E-02 0.  1.
    10030    2    1    2    0    0  0.00000000000E+00  0.00000000000E+00  0.75498044227E+03  0.20254334879E+04  0.18794641113E+04 0.  0.
        4    1    3    3  502    0 -0.13782996085E+03  0.89612225207E+03  0.64379034168E+03  0.11119801283E+04  0.12699999809E+01 0. -1.
       -4    1    3    3    0  502  0.13782996085E+03 -0.89612225207E+03  0.11119010059E+03  0.91345335959E+03  0.12699999809E+01 0.  1.
</event>
<event>
 5   0  0.6361762E-05  0.1901849E+04  0.7818609E-02  0.8653936E-01
       -2   -1    0    0    0  501  0.00000000000E+00  0.00000000000E+00  0.42707521782E+03  0.42707521783E+03  0.25500000920E-02 0.  1.
        2   -1    0    0  501    0  0.00000000000E+00  0.00000000000E+00 -0.21173264787E+04  0.21173264787E+04  0.25500000920E-02 0. -1.
    10030    2    1    2    0    0  0.00000000000E+00  0.00000000000E+00 -0.16902512609E+04  0.25444016966E+04  0.19018492760E+04 0.  0.
        1    1    3    3  502    0 -0.33207761073E+03  0.60616975859E+03  0.28629305368E+02  0.69176365395E+03  0.50400001928E-02 0.  1.
       -1    1    3    3    0  502  0.33207761073E+03 -0.60616975859E+03 -0.17188805663E+04  0.18526380426E+04  0.50400001928E-02 0. -1.
</event>
<event>
 5   0  0.3203527E-05  0.1884638E+04  0.7818609E-02  0.8662541E-01
       -1   -1    0    0    0  501  0.00000000000E+00  0.00000000000E+00  0.97761055045E+03  0.97761055046E+03  0.50400001928E-02 0. -1.
        1   -1    0    0  501    0  0.00000000000E+00  0.00000000000E+00 -0.90830162829E+03  0.90830162830E+03  0.50400001928E-02 0.  1.
    10030    2    1    2    0    0  0.00000000000E+00  0.00000000000E+00  0.69308922161E+02  0.18859121788E+04  0.18846381667E+04 0.  0.
        1    1    3    3  502    0 -0.49300364320E+03  0.36654833146E+03 -0.68035986406E+03  0.91667868752E+03  0.50400001928E-02 0.  1.
       -1    1    3    3    0  502  0.49300364320E+03 -0.36654833146E+03  0.74966878622E+03  0.96923349125E+03  0.50400001928E-02 0. -1.
</event>
<event>
 5   0  0.6098377E-05  0.1897753E+04  0.7818609E-02  0.8655976E-01
        2   -1    0    0  501    0  0.00000000000E+00  0.00000000000E+00  0.13266039491E+04  0.13266039491E+04  0.25500000920E-02 0. -1.
       -2   -1    0    0    0  501  0.00000000000E+00  0.00000000000E+00 -0.67870017777E+03  0.67870017777E+03  0.25500000920E-02 0.  1.
    10030    2    1    2    0    0  0.00000000000E+00  0.00000000000E+00  0.64790377137E+03  0.20053041269E+04  0.18977527090E+04 0.  0.
        5    1    3    3  502    0 -0.39883320762E+03 -0.59045796079E+03  0.98607008968E+03  0.12165791560E+04  0.46999998093E+01 0. -1.
       -5    1    3    3    0  502  0.39883320762E+03  0.59045796079E+03 -0.33816631831E+03  0.78872497095E+03  0.46999998093E+01 0.  1.
</event>
<event>
 5   0  0.3144958E-05  0.1908063E+04  0.7818609E-02  0.8650853E-01
       -1   -1    0    0    0  501  0.00000000000E+00  0.00000000000E+00  0.50809286721E+03  0.50809286723E+03  0.50400001928E-02 0.  1.
        1   -1    0    0  501    0  0.00000000000E+00  0.00000000000E+00 -0.17913586771E+04  0.17913586771E+04  0.50400001928E-02 0. -1.
    10030    2    1    2    0    0  0.00000000000E+00  0.00000000000E+00 -0.12832658099E+04  0.22994515443E+04  0.19080634858E+04 0.  0.
        4    1    3    3  502    0  0.15494837097E+03 -0.57481277910E+03 -0.15400409029E+04  0.16511045770E+04  0.12699999809E+01 0. -1.
       -4    1    3    3    0  502 -0.15494837097E+03  0.57481277910E+03  0.25677509306E+03  0.64834696729E+03  0.12699999809E+01 0.  1.
</event>
<event>
 5   0  0.3083469E-05  0.1886189E+04  0.7818609E-02  0.8661762E-01
       -1   -1    0    0    0  501  0.00000000000E+00  0.00000000000E+00  0.10602387790E+04  0.10602387790E+04  0.50400001928E-02 0.  1.
        1   -1    0    0  501    0  0.00000000000E+00  0.00000000000E+00 -0.83889295825E+03  0.83889295827E+03  0.50400001928E-02 0. -1.
    10030    2    1    2    0    0  0.00000000000E+00  0.00000000000E+00  0.22134582078E+03  0.18991317373E+04  0.18861885864E+04 0.  0.
        3    1    3    3  502    0 -0.73325661146E+03  0.12118773113E+03 -0.47389278039E+03  0.88143411661E+03  0.10100000352E+00 0.  1.
       -3    1    3    3    0  502  0.73325661146E+03 -0.12118773113E+03  0.69523860117E+03  0.10176976207E+04  0.10100000352E+00 0. -1.
</event>
<event>
 5   0  0.3086139E-05  0.1903548E+04  0.7818609E-02  0.8653092E-01
       -1   -1    0    0    0  501  0.00000000000E+00  0.00000000000E+00  0.37878927315E+03  0.37878927318E+03  0.50400001928E-02 0.  1.
        1   -1    0    0  501    0  0.00000000000E+00  0.00000000000E+00 -0.23914991421E+04  0.23914991421E+04  0.50400001928E-02 0. -1.
    10030    2    1    2    0    0  0.00000000000E+00  0.00000000000E+00 -0.20127098689E+04  0.27702884153E+04  0.19035484988E+04 0.  0.
        2    1    3    3  502    0 -0.88286051560E+03 -0.54745221396E+02 -0.49505079637E+03  0.10136641556E+04  0.25500000920E-02 0.  1.
       -2    1    3    3    0  502  0.88286051560E+03  0.54745221396E+02 -0.15176590726E+04  0.17566242597E+04  0.25500000920E-02 0. -1.
</event>
<event>
 5   0  0.6395992E-05  0.1865388E+04  0.7818609E-02  0.8672279E-01
        2   -1    0    0  501    0  0.00000000000E+00  0.00000000000E+00  0.69435047765E+03  0.69435047765E+03  0.25500000920E-02 0. -1.
       -2   -1    0    0    0  501  0.00000000000E+00  0.00000000000E+00 -0.12528521070E+04  0.12528521070E+04  0.25500000920E-02 0.  1.
    10030    2    1    2    0    0  0.00000000000E+00  0.00000000000E+00 -0.55850162934E+03  0.19472025846E+04  0.18653883874E+04 0.  0.
        4    1    3    3  502    0 -0.33110023880E+03  0.41666089797E+03 -0.10787972382E+04  0.12029292440E+04  0.12699999809E+01 0.  1.
       -4    1    3    3    0  502  0.33110023880E+03 -0.41666089797E+03  0.52029560888E+03  0.74427334062E+03  0.12699999809E+01 0. -1.
</event>
<event>
 5   0  0.3203527E-05  0.1901083E+04  0.7818609E-02  0.8654318E-01
       -1   -1    0    0    0  501  0.00000000000E+00  0.00000000000E+00  0.91530543465E+03  0.91530543466E+03  0.50400001928E-02 0.  1.
        1   -1    0    0  501    0  0.00000000000E+00  0.00000000000E+00 -0.98713360550E+03  0.98713360551E+03  0.50400001928E-02 0. -1.
    10030    2    1    2    0    0  0.00000000000E+00  0.00000000000E+00 -0.71828170853E+02  0.19024390402E+04  0.19010825904E+04 0.  0.
        1    1    3    3  502    0  0.55890674603E+03 -0.76088631377E+03  0.74636546843E+02  0.94704558887E+03  0.50400001928E-02 0. -1.
       -1    1    3    3    0  502 -0.55890674603E+03  0.76088631377E+03 -0.14646471770E+03  0.95539345130E+03  0.50400001928E-02 0.  1.
</event>
<event>
 5   0  0.3083469E-05  0.1899251E+04  0.7818609E-02  0.8655230E-01
       -1   -1    0    0    0  501  0.00000000000E+00  0.00000000000E+00  0.83096400966E+03  0.83096400967E+03  0.50400001928E-02 0. -1.
        1   -1    0    0  501    0  0.00000000000E+00  0.00000000000E+00 -0.10852313219E+04  0.10852313219E+04  0.50400001928E-02 0.  1.
    10030    2    1    2    0    0  0.00000000000E+00  0.00000000000E+00 -0.25426731221E+03  0.19161953316E+04  0.18992505581E+04 0.  0.
        3    1    3    3  502    0 -0.42693866649E+03  0.25568746647E+03 -0.94313591239E+03  0.10663761367E+04  0.10100000352E+00 0.  1.
       -3    1    3    3    0  502  0.42693866649E+03 -0.25568746647E+03  0.68886860018E+03  0.84981919487E+03  0.10100000352E+00 0. -1.
</event>
<event>
 5   0  0.6423388E-05  0.1903457E+04  0.7818609E-02  0.8653138E-01
       -2   -1    0    0    0  501  0.00000000000E+00  0.00000000000E+00  0.70643824977E+03  0.70643824977E+03  0.25500000920E-02 0.  1.
        2   -1    0    0  501    0  0.00000000000E+00  0.00000000000E+00 -0.12821887086E+04  0.12821887086E+04  0.25500000920E-02 0. -1.
    10030    2    1    2    0    0  0.00000000000E+00  0.00000000000E+00 -0.57575045882E+03  0.19886269584E+04  0.19034570099E+04 0.  0.
        2    1    3    3  502    0  0.51755116824E+02 -0.61245313868E+03 -0.10470315351E+04  0.12141056275E+04  0.25500000920E-02 0. -1.
       -2    1    3    3    0  502 -0.51755116824E+02  0.61245313868E+03  0.47128107624E+03  0.77452133090E+03  0.25500000920E-02 0.  1.
</event>
<event>
 5   0  0.6395992E-05  0.1918287E+04  0.7818609E-02  0.8645807E-01
        2   -1    0    0  501    0  0.00000000000E+00  0.00000000000E+00  0.12103096972E+04  0.12103096972E+04  0.25500000920E-02 0. -1.
       -2   -1    0    0    0  501  0.00000000000E+00  0.00000000000E+00 -0.76009995163E+03  0.76009995164E+03  0.25500000920E-02 0.  1.
    10030    2    1    2    0    0  0.00000000000E+00  0.00000000000E+00  0.45020974553E+03  0.19704096488E+04  0.19182870925E+04 0.  0.
        4    1    3    3  502    0  0.39316181696E+03  0.29709677975E+03 -0.62012177774E+03  0.79208291421E+03  0.12699999809E+01 0.  1.
       -4    1    3    3    0  502 -0.39316181696E+03 -0.29709677975E+03  0.10703315233E+04  0.11783267346E+04  0.12699999809E+01 0. -1.
</event>
<event>
 5   0  0.3147063E-05  0.1896405E+04  0.7818609E-02  0.8656648E-01
       -1   -1    0    0    0  501  0.00000000000E+00  0.00000000000E+00  0.61456220432E+03  0.61456220434E+03  0.50400001928E-02 0.  1.
        1   -1    0    0  501    0  0.00000000000E+00  0.00000000000E+00 -0.14629731902E+04  0.14629731902E+04  0.50400001928E-02 0. -1.
    10030    2    1    2    0    0  0.00000000000E+00  0.00000000000E+00 -0.84841098590E+03  0.20775353946E+04  0.18964050503E+04 0.  0.
        5    1    3    3  502    0  0.20735795448E+03 -0.75682776258E+03  0.15887103288E+03  0.80065453136E+03  0.46999998093E+01 0. -1.
       -5    1    3    3    0  502 -0.20735795448E+03  0.75682776258E+03 -0.10072820188E+04  0.12768808632E+04  0.46999998093E+01 0.  1.
</event>
<event>
 5   0  0.6395992E-05  0.1896729E+04  0.7818609E-02  0.8656486E-01
        2   -1    0    0  501    0  0.00000000000E+00  0.00000000000E+00  0.14965045807E+04  0.14965045807E+04  0.25500000920E-02 0.  1.
       -2   -1    0    0    0  501  0.00000000000E+00  0.00000000000E+00 -0.60099709012E+03  0.60099709012E+03  0.25500000920E-02 0. -1.
    10030    2    1    2    0    0  0.00000000000E+00  0.00000000000E+00  0.89550749053E+03  0.20975016708E+04  0.18967286557E+04 0.  0.
        4    1    3    3  502    0 -0.48991556801E+03 -0.58801399752E+03 -0.17153888404E+03  0.78435000267E+03  0.12699999809E+01 0. -1.
       -4    1    3    3    0  502  0.48991556801E+03  0.58801399752E+03  0.10670463746E+04  0.13131516681E+04  0.12699999809E+01 0.  1.
</event>
<event>
 5   0  0.3086139E-05  0.1921542E+04  0.7818609E-02  0.8644207E-01
       -1   -1    0    0    0  501  0.00000000000E+00  0.00000000000E+00  0.42281405331E+03  0.42281405334E+03  0.50400001928E-02 0.  1.
        1   -1    0    0  501    0  0.00000000000E+00  0.00000000000E+00 -0.21831842810E+04  0.21831842810E+04  0.50400001928E-02 0. -1.
    10030    2    1    2    0    0  0.00000000000E+00  0.00000000000E+00 -0.17603702277E+04  0.26059983344E+04  0.19215420839E+04 0.  0.
        2    1    3    3  502    0 -0.58105938963E+03  0.28537013704E+03 -0.18430068948E+04  0.19533920609E+04  0.25500000920E-02 0. -1.
       -2    1    3    3    0  502  0.58105938963E+03 -0.28537013704E+03  0.82636667082E+02  0.65260627345E+03  0.25500000920E-02 0.  1.
</event>
<event>
 5   0  0.6098377E-05  0.1909087E+04  0.7818609E-02  0.8650346E-01
        2   -1    0    0  501    0  0.00000000000E+00  0.00000000000E+00  0.86765054102E+03  0.86765054102E+03  0.25500000920E-02 0.  1.
       -2   -1    0    0    0  501  0.00000000000E+00  0.00000000000E+00 -0.10501383501E+04  0.10501383501E+04  0.25500000920E-02 0. -1.
    10030    2    1    2    0    0  0.00000000000E+00  0.00000000000E+00 -0.18248780905E+03  0.19177888911E+04  0.19090868053E+04 0.  0.
        5    1    3    3  502    0 -0.75122281415E+03 -0.53561668061E+03  0.15463713770E+03  0.93549755714E+03  0.46999998093E+01 0.  1.
       -5    1    3    3    0  502  0.75122281415E+03  0.53561668061E+03 -0.33712494675E+03  0.98229133396E+03  0.46999998093E+01 0. -1.
</event>
<event>
 5   0  0.3144958E-05  0.1903458E+04  0.7818609E-02  0.8653137E-01
        1   -1    0    0  501    0  0.00000000000E+00  0.00000000000E+00  0.19433964732E+04  0.19433964732E+04  0.50400001928E-02 0.  1.
       -1   -1    0    0    0  501  0.00000000000E+00  0.00000000000E+00 -0.46608498586E+03  0.46608498589E+03  0.50400001928E-02 0. -1.
    10030    2    1    2    0    0  0.00000000000E+00  0.00000000000E+00  0.14773114873E+04  0.24094814590E+04  0.19034578196E+04 0.  0.
        4    1    3    3  502    0  0.25608147153E+03 -0.76270594573E+03  0.13822330381E+04  0.15993335688E+04  0.12699999809E+01 0. -1.
       -4    1    3    3    0  502 -0.25608147153E+03  0.76270594573E+03  0.95078449215E+02  0.81014789028E+03  0.12699999809E+01 0.  1.
</event>
<event>
 5   0  0.6452182E-05  0.1889861E+04  0.7818609E-02  0.8659920E-01
       -2   -1    0    0    0  501  0.00000000000E+00  0.00000000000E+00  0.42081407561E+03  0.42081407562E+03  0.25500000920E-02 0. -1.
        2   -1    0    0  501    0  0.00000000000E+00  0.00000000000E+00 -0.21218250789E+04  0.21218250789E+04  0.25500000920E-02 0.  1.
    10030    2    1    2    0    0  0.00000000000E+00  0.00000000000E+00 -0.17010110033E+04  0.25426391545E+04  0.18898612216E+04 0.  0.
        3    1    3    3  502    0 -0.34164219691E+03  0.54749586641E+03 -0.17791533472E+04  0.18925796568E+04  0.10100000352E+00 0.  1.
       -3    1    3    3    0  502  0.34164219691E+03 -0.54749586641E+03  0.78142343889E+02  0.65005949770E+03  0.10100000352E+00 0. -1.
</event>
<event>
 5   0  0.2279625E-05  0.1898784E+04  0.7818609E-02  0.8655462E-01
       -4   -1    0    0    0  501  0.00000000000E+00  0.00000000000E+00  0.11617526370E+04  0.11617533312E+04  0.12699999809E+01 0. -1.
        4   -1    0    0  501    0  0.00000000000E+00  0.00000000000E+00 -0.77584833263E+03  0.77584937207E+03  0.12699999809E+01 0.  1.
    10030    2    1    2    0    0  0.00000000000E+00  0.00000000000E+00  0.38590430436E+03  0.19376027032E+04  0.18987843752E+04 0.  0.
        5    1    3    3  502    0 -0.30122531171E+03  0.40102823455E+03 -0.62960598940E+03  0.80497585380E+03  0.46999998093E+01 0.  1.
       -5    1    3    3    0  502  0.30122531171E+03 -0.40102823455E+03  0.10155102938E+04  0.11326268494E+04  0.46999998093E+01 0. -1.
</event>
<event>
 5   0  0.6423388E-05  0.1902146E+04  0.7818609E-02  0.8653789E-01
        2   -1    0    0  501    0  0.00000000000E+00  0.00000000000E+00  0.16933112288E+04  0.16933112289E+04  0.25500000920E-02 0. -1.
       -2   -1    0    0    0  501  0.00000000000E+00  0.00000000000E+00 -0.53418378215E+03  0.53418378216E+03  0.25500000920E-02 0.  1.
    10030    2    1    2    0    0  0.00000000000E+00  0.00000000000E+00  0.11591274467E+04  0.22274950110E+04  0.19021455219E+04 0.  0.
        2    1    3    3  502    0 -0.17630705007E+03  0.85746446452E+00  0.16740067049E+04  0.16832656828E+04  0.25500000920E-02 0. -1.
       -2    1    3    3    0  502  0.17630705007E+03 -0.85746446452E+00 -0.51487925816E+03  0.54422932817E+03  0.25500000920E-02 0.  1.
</event>
<event>
 5   0  0.2279625E-05  0.1869010E+04  0.7818609E-02  0.8670438E-01
        3   -1    0    0  501    0  0.00000000000E+00  0.00000000000E+00  0.13470662407E+04  0.13470662445E+04  0.10100000352E+00 0. -1.
       -3   -1    0    0    0  501  0.00000000000E+00  0.00000000000E+00 -0.64829715384E+03  0.64829716171E+03  0.10100000352E+00 0.  1.
    10030    2    1    2    0    0  0.00000000000E+00  0.00000000000E+00  0.69876908683E+03  0.19953634062E+04  0.18690096003E+04 0.  0.
        3    1    3    3  502    0  0.70155878976E+03  0.13762717498E+03  0.99187790998E+03  0.12226805688E+04  0.10100000352E+00 0. -1.
       -3    1    3    3    0  502 -0.70155878976E+03 -0.13762717498E+03 -0.29310882315E+03  0.77268283738E+03  0.10100000352E+00 0.  1.
</event>
<event>
 5   0  0.6395992E-05  0.1899371E+04  0.7818609E-02  0.8655169E-01
       -2   -1    0    0    0  501  0.00000000000E+00  0.00000000000E+00  0.10393161856E+04  0.10393161856E+04  0.25500000920E-02 0.  1.
        2   -1    0    0  501    0  0.00000000000E+00  0.00000000000E+00 -0.86778492834E+03  0.86778492835E+03  0.25500000920E-02 0. -1.
    10030    2    1    2    0    0  0.00000000000E+00  0.00000000000E+00  0.17153125725E+03  0.19071011139E+04  0.18993713925E+04 0.  0.
        4    1    3    3  502    0 -0.87694747602E+03 -0.44160630342E+02  0.44905887500E+03  0.98622640559E+03  0.12699999809E+01 0.  1.
       -4    1    3    3    0  502  0.87694747602E+03  0.44160630342E+02 -0.27752761775E+03  0.92087470835E+03  0.12699999809E+01 0. -1.
</event>
<event>
 5   0  0.6098377E-05  0.1900294E+04  0.7818609E-02  0.8654710E-01
        2   -1    0    0  501    0  0.00000000000E+00  0.00000000000E+00  0.14818393733E+04  0.14818393733E+04  0.25500000920E-02 0.  1.
       -2   -1    0    0    0  501  0.00000000000E+00  0.00000000000E+00 -0.60922867563E+03  0.60922867564E+03  0.25500000920E-02 0. -1.
    10030    2    1    2    0    0  0.00000000000E+00  0.00000000000E+00  0.87261069762E+03  0.20910680489E+04  0.19002937024E+04 0.  0.
        5    1    3    3  502    0  0.66065226944E+03 -0.16521436795E+03  0.11653927083E+04  0.13497849692E+04  0.46999998093E+01 0.  1.
       -5    1    3    3    0  502 -0.66065226944E+03  0.16521436795E+03 -0.29278201068E+03  0.74128307971E+03  0.46999998093E+01 0. -1.
</event>
<event>
 5   0  0.3144958E-05  0.1939646E+04  0.7818609E-02  0.8635370E-01
        1   -1    0    0  501    0  0.00000000000E+00  0.00000000000E+00  0.14595625476E+04  0.14595625476E+04  0.50400001928E-02 0.  1.
       -1   -1    0    0    0  501  0.00000000000E+00  0.00000000000E+00 -0.64440975522E+03  0.64440975524E+03  0.50400001928E-02 0. -1.
    10030    2    1    2    0    0  0.00000000000E+00  0.00000000000E+00  0.81515279234E+03  0.21039723028E+04  0.19396456831E+04 0.  0.
        4    1    3    3  502    0  0.39758706336E+03 -0.85671688574E+03  0.64649918911E+03  0.11445532358E+04  0.12699999809E+01 0. -1.
       -4    1    3    3    0  502 -0.39758706336E+03  0.85671688574E+03  0.16865360324E+03  0.95941906696E+03  0.12699999809E+01 0.  1.
</event>
<event>
 5   0  0.3086139E-05  0.1900698E+04  0.7818609E-02  0.8654509E-01
        1   -1    0    0  501    0  0.00000000000E+00  0.00000000000E+00  0.63546725281E+03  0.63546725283E+03  0.50400001928E-02 0. -1.
       -1   -1    0    0    0  501  0.00000000000E+00  0.00000000000E+00 -0.14212587700E+04  0.14212587700E+04  0.50400001928E-02 0.  1.
    10030    2    1    2    0    0  0.00000000000E+00  0.00000000000E+00 -0.78579151722E+03  0.20567260229E+04  0.19006981940E+04 0.  0.
        2    1    3    3  502    0  0.32790144355E+03 -0.77123159130E+02  0.56870161556E+03  0.66097569237E+03  0.25500000920E-02 0. -1.
       -2    1    3    3    0  502 -0.32790144355E+03  0.77123159130E+02 -0.13544931328E+04  0.13957503305E+04  0.25500000920E-02 0.  1.
</event>
<event>
 5   0  0.6098377E-05  0.1899273E+04  0.7818609E-02  0.8655219E-01
        2   -1    0    0  501    0  0.00000000000E+00  0.00000000000E+00  0.24362055583E+04  0.24362055583E+04  0.25500000920E-02 0. -1.
       -2   -1    0    0    0  501  0.00000000000E+00  0.00000000000E+00 -0.37016951068E+03  0.37016951069E+03  0.25500000920E-02 0.  1.
    10030    2    1    2    0    0  0.00000000000E+00  0.00000000000E+00  0.20660360477E+04  0.28063750690E+04  0.18992725128E+04 0.  0.
        5    1    3    3  502    0  0.28250127960E+02 -0.49370150727E+03 -0.16488858791E+03  0.52129606217E+03  0.46999998093E+01 0.  1.
       -5    1    3    3    0  502 -0.28250127960E+02  0.49370150727E+03  0.22309246356E+04  0.22850790069E+04  0.46999998093E+01 0. -1.
</event>
<event>
 5   0  0.3083469E-05  0.1893293E+04  0.7818609E-02  0.8658202E-01
        1   -1    0    0  501    0  0.00000000000E+00  0.00000000000E+00  0.93848756949E+03  0.93848756951E+03  0.50400001928E-02 0.  1.
       -1   -1    0    0    0  501  0.00000000000E+00  0.00000000000E+00 -0.95487629650E+03  0.95487629651E+03  0.50400001928E-02 0. -1.
    10030    2    1    2    0    0  0.00000000000E+00  0.00000000000E+00 -0.16388727006E+02  0.18933638660E+04  0.18932929353E+04 0.  0.
        3    1    3    3  502    0  0.89645785897E+03 -0.25692830527E+03 -0.17096003089E+03  0.94809081280E+03  0.10100000352E+00 0.  1.
       -3    1    3    3    0  502 -0.89645785897E+03  0.25692830527E+03  0.15457130388E+03  0.94527305322E+03  0.10100000352E+00 0. -1.
</event>
<event>
 5   0  0.6361762E-05  0.1922090E+04  0.7818609E-02  0.8643938E-01
       -2   -1    0    0    0  501  0.00000000000E+00  0.00000000000E+00  0.11291285440E+04  0.11291285440E+04  0.25500000920E-02 0. -1.
        2   -1    0    0  501    0  0.00000000000E+00  0.00000000000E+00 -0.81798280723E+03  0.81798280724E+03  0.25500000920E-02 0.  1.
    10030    2    1    2    0    0  0.00000000000E+00  0.00000000000E+00  0.31114573677E+03  0.19471113512E+04  0.19220902540E+04 0.  0.
        1    1    3    3  502    0 -0.35820898104E+03  0.70469389439E+03  0.70922253528E+03  0.10620281368E+04  0.50400001928E-02 0. -1.
       -1    1    3    3    0  502  0.35820898104E+03 -0.70469389439E+03 -0.39807679850E+03  0.88508321440E+03  0.50400001928E-02 0.  1.
</event>
<event>
 5   0  0.3203527E-05  0.1907900E+04  0.7818609E-02  0.8650934E-01
        1   -1    0    0  501    0  0.00000000000E+00  0.00000000000E+00  0.11377300844E+04  0.11377300844E+04  0.50400001928E-02 0.  1.
       -1   -1    0    0    0  501  0.00000000000E+00  0.00000000000E+00 -0.79985592977E+03  0.79985592979E+03  0.50400001928E-02 0. -1.
    10030    2    1    2    0    0  0.00000000000E+00  0.00000000000E+00  0.33787415461E+03  0.19375860142E+04  0.19078995304E+04 0.  0.
        1    1    3    3  502    0  0.95127576738E+03 -0.66438908192E+02  0.14244594503E+03  0.96417351208E+03  0.50400001928E-02 0.  1.
       -1    1    3    3    0  502 -0.95127576738E+03  0.66438908192E+02  0.19542820957E+03  0.97341250210E+03  0.50400001928E-02 0. -1.
</event>
<event>
 5   0  0.6361762E-05  0.1900458E+04  0.7818609E-02  0.8654629E-01
        2   -1    0    0  501    0  0.00000000000E+00  0.00000000000E+00  0.12598479621E+04  0.12598479621E+04  0.25500000920E-02 0. -1.
       -2   -1    0    0    0  501  0.00000000000E+00  0.00000000000E+00 -0.71670151375E+03  0.71670151375E+03  0.25500000920E-02 0.  1.
    10030    2    1    2    0    0  0.00000000000E+00  0.00000000000E+00  0.54314644832E+03  0.19765494758E+04  0.19004577780E+04 0.  0.
        1    1    3    3  502    0 -0.12711027633E+03  0.83159182694E+03  0.73111608699E+03  0.11145549433E+04  0.50400001928E-02 0. -1.
       -1    1    3    3    0  502  0.12711027633E+03 -0.83159182694E+03 -0.18796963867E+03  0.86199453251E+03  0.50400001928E-02 0.  1.
</event>
<event>
 5   0  0.6361762E-05  0.1894479E+04  0.7818609E-02  0.8657609E-01
        2   -1    0    0  501    0  0.00000000000E+00  0.00000000000E+00  0.20885020375E+04  0.20885020375E+04  0.25500000920E-02 0. -1.
       -2   -1    0    0    0  501  0.00000000000E+00  0.00000000000E+00 -0.42962027441E+03  0.42962027441E+03  0.25500000920E-02 0.  1.
    10030    2    1    2    0    0  0.00000000000E+00  0.00000000000E+00  0.16588817631E+04  0.25181223119E+04  0.18944791563E+04 0.  0.
        1    1    3    3  502    0 -0.53923231376E+03 -0.67811476955E+03  0.32042594659E+03  0.92373368248E+03  0.50400001928E-02 0.  1.
       -1    1    3    3    0  502  0.53923231376E+03  0.67811476955E+03  0.13384558165E+04  0.15943886294E+04  0.50400001928E-02 0. -1.
</event>
<event>
 5   0  0.6098377E-05  0.1898687E+04  0.7818609E-02  0.8655510E-01
       -2   -1    0    0    0  501  0.00000000000E+00  0.00000000000E+00  0.51151673207E+03  0.51151673207E+03  0.25500000920E-02 0.  1.
        2   -1    0    0  501    0  0.00000000000E+00  0.00000000000E+00 -0.17619235511E+04  0.17619235511E+04  0.25500000920E-02 0. -1.
    10030    2    1    2    0    0  0.00000000000E+00  0.00000000000E+00 -0.12504068191E+04  0.22734402832E+04  0.18986873118E+04 0.  0.
        5    1    3    3  502    0  0.91018358543E+03  0.18351932500E+03 -0.38838403399E+03  0.10064679576E+04  0.46999998093E+01 0. -1.
       -5    1    3    3    0  502 -0.91018358543E+03 -0.18351932500E+03 -0.86202278506E+03  0.12669723256E+04  0.46999998093E+01 0.  1.
</event>
<event>
 5   0  0.6452182E-05  0.1901208E+04  0.7818609E-02  0.8654255E-01
       -2   -1    0    0    0  501  0.00000000000E+00  0.00000000000E+00  0.56314651694E+03  0.56314651695E+03  0.25500000920E-02 0. -1.
        2   -1    0    0  501    0  0.00000000000E+00  0.00000000000E+00 -0.16046408251E+04  0.16046408251E+04  0.25500000920E-02 0.  1.
    10030    2    1    2    0    0  0.00000000000E+00  0.00000000000E+00 -0.10414943081E+04  0.21677873420E+04  0.19012079230E+04 0.  0.
        3    1    3    3  502    0 -0.94880601948E+03 -0.45625336073E+01 -0.58717587787E+03  0.11158087655E+04  0.10100000352E+00 0.  1.
       -3    1    3    3    0  502  0.94880601948E+03  0.45625336073E+01 -0.45431843028E+03  0.10519785766E+04  0.10100000352E+00 0. -1.
</event>
<event>
 5   0  0.3086139E-05  0.1903400E+04  0.7818609E-02  0.8653166E-01
        1   -1    0    0  501    0  0.00000000000E+00  0.00000000000E+00  0.76562378019E+03  0.76562378020E+03  0.50400001928E-02 0.  1.
       -1   -1    0    0    0  501  0.00000000000E+00  0.00000000000E+00 -0.11829998338E+04  0.11829998338E+04  0.50400001928E-02 0. -1.
    10030    2    1    2    0    0  0.00000000000E+00  0.00000000000E+00 -0.41737605362E+03  0.19486236140E+04  0.19033999104E+04 0.  0.
        2    1    3    3  502    0  0.20494903012E+03  0.48042029756E+03 -0.10231560809E+04  0.11487628707E+04  0.25500000920E-02 0. -1.
       -2    1    3    3    0  502 -0.20494903012E+03 -0.48042029756E+03  0.60578002727E+03  0.79986074331E+03  0.25500000920E-02 0.  1.
</event>
<event>
 5   0  0.3083469E-05  0.1898580E+04  0.7818609E-02  0.8655564E-01
       -1   -1    0    0    0  501  0.00000000000E+00  0.00000000000E+00  0.11427934299E+04  0.11427934299E+04  0.50400001928E-02 0.  1.
        1   -1    0    0  501    0  0.00000000000E+00  0.00000000000E+00 -0.78855144011E+03  0.78855144013E+03  0.50400001928E-02 0. -1.
    10030    2    1    2    0    0  0.00000000000E+00  0.00000000000E+00  0.35424198977E+03  0.19313448700E+04  0.18985798955E+04 0.  0.
        3    1    3    3  502    0  0.18750428277E+03 -0.77839668362E+03  0.69591454484E+03  0.10608281280E+04  0.10100000352E+00 0. -1.
       -3    1    3    3    0  502 -0.18750428277E+03  0.77839668362E+03 -0.34167255506E+03  0.87051674207E+03  0.10100000352E+00 0.  1.
</event>
<event>
 5   0  0.3086139E-05  0.1901809E+04  0.7818609E-02  0.8653956E-01
       -1   -1    0    0    0  501  0.00000000000E+00  0.00000000000E+00  0.49038877287E+03  0.49038877290E+03  0.50400001928E-02 0. -1.
        1   -1    0    0  501    0  0.00000000000E+00  0.00000000000E+00 -0.18438830676E+04  0.18438830676E+04  0.50400001928E-02 0.  1.
    10030    2    1    2    0    0  0.00000000000E+00  0.00000000000E+00 -0.13534942947E+04  0.23342718405E+04  0.19018091964E+04 0.  0.
        2    1    3    3  502    0  0.78516922140E+03  0.53616893176E+03 -0.65727347406E+03  0.11558443880E+04  0.25500000920E-02 0. -1.
       -2    1    3    3    0  502 -0.78516922140E+03 -0.53616893176E+03 -0.69622082064E+03  0.11784274525E+04  0.25500000920E-02 0.  1.
</event>
<event>
 5   0  0.3203527E-05  0.1900896E+04  0.7818609E-02  0.8654411E-01
       -1   -1    0    0    0  501  0.00000000000E+00  0.00000000000E+00  0.63774965696E+03  0.63774965698E+03  0.50400001928E-02 0.  1.
        1   -1    0    0  501    0  0.00000000000E+00  0.00000000000E+00 -0.14164669102E+04  0.14164669102E+04  0.50400001928E-02 0. -1.
    10030    2    1    2    0    0  0.00000000000E+00  0.00000000000E+00 -0.77871725324E+03  0.20542165672E+04  0.19008958794E+04 0.  0.
        1    1    3    3  502    0 -0.48200029301E+03 -0.81191311704E+03 -0.27184943601E+03  0.98256262293E+03  0.50400001928E-02 0.  1.
       -1    1    3    3    0  502  0.48200029301E+03  0.81191311704E+03 -0.50686781723E+03  0.10716539443E+04  0.50400001928E-02 0. -1.
</event>
<event>
 5   0  0.6361762E-05  0.1904925E+04  0.7818609E-02  0.8652409E-01
        2   -1    0    0  501    0  0.00000000000E+00  0.00000000000E+00  0.97962434919E+03  0.97962434919E+03  0.25500000920E-02 0. -1.
       -2   -1    0    0    0  501  0.00000000000E+00  0.00000000000E+00 -0.92605375632E+03  0.92605375632E+03  0.25500000920E-02 0.  1.
    10030    2    1    2    0    0  0.00000000000E+00  0.00000000000E+00  0.53570592872E+02  0.19056781055E+04  0.19049249942E+04 0.  0.
        1    1    3    3  502    0 -0.89133897335E+03  0.30528698317E+03 -0.11291052351E+03  0.94891205801E+03  0.50400001928E-02 0. -1.
       -1    1    3    3    0  502  0.89133897335E+03 -0.30528698317E+03  0.16648111638E+03  0.95676604749E+03  0.50400001928E-02 0.  1.
</event>
<event>
 5   0  0.3083469E-05  0.1921990E+04  0.7818609E-02  0.8643987E-01
        1   -1    0    0  501    0  0.00000000000E+00  0.00000000000E+00  0.13572131172E+04  0.13572131172E+04  0.50400001928E-02 0.  1.
       -1   -1    0    0    0  501  0.00000000000E+00  0.00000000000E+00 -0.68044684667E+03  0.68044684669E+03  0.50400001928E-02 0. -1.
    10030    2    1    2    0    0  0.00000000000E+00  0.00000000000E+00  0.67676627050E+03  0.20376599639E+04  0.19219899957E+04 0.  0.
        3    1    3    3  502    0  0.92734529746E+03  0.15578378689E+03  0.54848519951E+03  0.10886110018E+04  0.10100000352E+00 0.  1.
       -3    1    3    3    0  502 -0.92734529746E+03 -0.15578378689E+03  0.12828107098E+03  0.94904896205E+03  0.10100000352E+00 0. -1.
</event>
<event>
 5   0  0.6423388E-05  0.1895768E+04  0.7818609E-02  0.8656966E-01
        2   -1    0    0  501    0  0.00000000000E+00  0.00000000000E+00  0.31803820583E+04  0.31803820583E+04  0.25500000920E-02 0. -1.
       -2   -1    0    0    0  501  0.00000000000E+00  0.00000000000E+00 -0.28250816666E+03  0.28250816667E+03  0.25500000920E-02 0.  1.
    10030    2    1    2    0    0  0.00000000000E+00  0.00000000000E+00  0.28978738916E+04  0.34628902249E+04  0.18957678176E+04 0.  0.
        2    1    3    3  502    0  0.31939234051E+03  0.88806338367E+03  0.12874482694E+04  0.15963054492E+04  0.25500000920E-02 0.  1.
       -2    1    3    3    0  502 -0.31939234051E+03 -0.88806338367E+03  0.16104256222E+04  0.18665847758E+04  0.25500000920E-02 0. -1.
</event>
<event>
 5   0  0.3147063E-05  0.1959551E+04  0.7818609E-02  0.8625769E-01
        1   -1    0    0  501    0  0.00000000000E+00  0.00000000000E+00  0.63353671576E+03  0.63353671578E+03  0.50400001928E-02 0. -1.
       -1   -1    0    0    0  501  0.00000000000E+00  0.00000000000E+00 -0.15152397862E+04  0.15152397862E+04  0.50400001928E-02 0.  1.
    10030    2    1    2    0    0  0.00000000000E+00  0.00000000000E+00 -0.88170307045E+03  0.21487765020E+04  0.19595510075E+04 0.  0.
        5    1    3    3  502    0  0.16811063527E+03  0.69354163782E+02 -0.14965583562E+04  0.15075742732E+04  0.46999998093E+01 0.  1.
       -5    1    3    3    0  502 -0.16811063527E+03 -0.69354163782E+02  0.61485528578E+03  0.64120222876E+03  0.46999998093E+01 0. -1.
</event>
<event>
 5   0  0.6395992E-05  0.1902188E+04  0.7818609E-02  0.8653768E-01
       -2   -1    0    0    0  501  0.00000000000E+00  0.00000000000E+00  0.84620575420E+03  0.84620575420E+03  0.25500000920E-02 0. -1.
        2   -1    0    0  501    0  0.00000000000E+00  0.00000000000E+00 -0.10689836270E+04  0.10689836270E+04  0.25500000920E-02 0.  1.
    10030    2    1    2    0    0  0.00000000000E+00  0.00000000000E+00 -0.22277787283E+03  0.19151893812E+04  0.19021883149E+04 0.  0.
        4    1    3    3  502    0 -0.54272391470E+03 -0.50673425915E+02  0.67333621626E+03  0.86631421361E+03  0.12699999809E+01 0. -1.
       -4    1    3    3    0  502  0.54272391470E+03  0.50673425915E+02 -0.89611408909E+03  0.10488751676E+04  0.12699999809E+01 0.  1.
</event>
<event>
 5   0  0.6361762E-05  0.1903603E+04  0.7818609E-02  0.8653065E-01
        2   -1    0    0  501    0  0.00000000000E+00  0.00000000000E+00  0.30796789125E+03  0.30796789126E+03  0.25500000920E-02 0. -1.
       -2   -1    0    0    0  501  0.00000000000E+00  0.00000000000E+00 -0.29416246646E+04  0.29416246646E+04  0.25500000920E-02 0.  1.
    10030    2    1    2    0    0  0.00000000000E+00  0.00000000000E+00 -0.26336567734E+04  0.32495925559E+04  0.19036028418E+04 0.  0.
        1    1    3    3  502    0 -0.38425926687E+03  0.50979710139E+03 -0.25219527239E+04  0.26014983780E+04  0.50400001928E-02 0.  1.
       -1    1    3    3    0  502  0.38425926687E+03 -0.50979710139E+03 -0.11170404944E+03  0.64809417792E+03  0.50400001928E-02 0. -1.
</event>
<event>
 5   0  0.6361762E-05  0.1902315E+04  0.7818609E-02  0.8653705E-01
        2   -1    0    0  501    0  0.00000000000E+00  0.00000000000E+00  0.10374198468E+04  0.10374198468E+04  0.25500000920E-02 0.  1.
       -2   -1    0    0    0  501  0.00000000000E+00  0.00000000000E+00 -0.87206755008E+03  0.87206755008E+03  0.25500000920E-02 0. -1.
    10030    2    1    2    0    0  0.00000000000E+00  0.00000000000E+00  0.16535229674E+03  0.19094873969E+04  0.19023145736E+04 0.  0.
        1    1    3    3  502    0  0.21932081676E+03  0.92404604778E+03  0.13519421842E+03  0.95929150721E+03  0.50400001928E-02 0.  1.
       -1    1    3    3    0  502 -0.21932081676E+03 -0.92404604778E+03  0.30158078316E+02  0.95019588970E+03  0.50400001928E-02 0. -1.
</event>
<event>
 5   0  0.3144958E-05  0.1886858E+04  0.7818609E-02  0.8661426E-01
        1   -1    0    0  501    0  0.00000000000E+00  0.00000000000E+00  0.97936126341E+03  0.97936126342E+03  0.50400001928E-02 0. -1.
       -1   -1    0    0    0  501  0.00000000000E+00  0.00000000000E+00 -0.90881551319E+03  0.90881551321E+03  0.50400001928E-02 0.  1.
    10030    2    1    2    0    0  0.00000000000E+00  0.00000000000E+00  0.70545750215E+02  0.18881767766E+04  0.18868584570E+04 0.  0.
        4    1    3    3  502    0  0.49325463365E+03 -0.64477338998E+03 -0.44571275604E+03  0.92611788226E+03  0.12699999809E+01 0.  1.
       -4    1    3    3    0  502 -0.49325463365E+03  0.64477338998E+03  0.51625850626E+03  0.96205889437E+03  0.12699999809E+01 0. -1.
</event>
<event>
 5   0  0.6395992E-05  0.1867248E+04  0.7818609E-02  0.8671333E-01
        2   -1    0    0  501    0  0.00000000000E+00  0.00000000000E+00  0.70438182255E+03  0.70438182255E+03  0.25500000920E-02 0.  1.
       -2   -1    0    0    0  501  0.00000000000E+00  0.00000000000E+00 -0.12374735671E+04  0.12374735671E+04  0.25500000920E-02 0. -1.
    10030    2    1    2    0    0  0.00000000000E+00  0.00000000000E+00 -0.53309174457E+03  0.19418553897E+04  0.18672481212E+04 0.  0.
        4    1    3    3  502    0 -0.36249967403E+03 -0.42649302121E+03 -0.10436301092E+04  0.11842583032E+04  0.12699999809E+01 0. -1.
       -4    1    3    3    0  502  0.36249967403E+03  0.42649302121E+03  0.51053836465E+03  0.75759708652E+03  0.12699999809E+01 0.  1.
</event>
<event>
 5   0  0.6395992E-05  0.1900473E+04  0.7818609E-02  0.8654621E-01
        2   -1    0    0  501    0  0.00000000000E+00  0.00000000000E+00  0.14213110304E+04  0.14213110304E+04  0.25500000920E-02 0.  1.
       -2   -1    0    0    0  501  0.00000000000E+00  0.00000000000E+00 -0.63529357065E+03  0.63529357065E+03  0.25500000920E-02 0. -1.
    10030    2    1    2    0    0  0.00000000000E+00  0.00000000000E+00  0.78601745976E+03  0.20566046011E+04  0.19004733721E+04 0.  0.
        4    1    3    3  502    0  0.20578900449E+03 -0.76320831959E+03  0.96369700623E+03  0.12464146927E+04  0.12699999809E+01 0.  1.
       -4    1    3    3    0  502 -0.20578900449E+03  0.76320831959E+03 -0.17767954647E+03  0.81018990836E+03  0.12699999809E+01 0. -1.
</event>
<event>
 5   0  0.3086139E-05  0.1860442E+04  0.7818609E-02  0.8674801E-01
        1   -1    0    0  501    0  0.00000000000E+00  0.00000000000E+00  0.13703526630E+04  0.13703526630E+04  0.50400001928E-02 0. -1.
       -1   -1    0    0    0  501  0.00000000000E+00  0.00000000000E+00 -0.63145125937E+03  0.63145125939E+03  0.50400001928E-02 0.  1.
    10030    2    1    2    0    0  0.00000000000E+00  0.00000000000E+00  0.73890140362E+03  0.20018039224E+04  0.18604417915E+04 0.  0.
        2    1    3    3  502    0 -0.31644821175E+03 -0.72451654652E+03  0.89684403181E+03  0.11955722121E+04  0.25500000920E-02 0. -1.
       -2    1    3    3    0  502  0.31644821175E+03  0.72451654652E+03 -0.15794262820E+03  0.80623171031E+03  0.25500000920E-02 0.  1.
</event>
<event>
 5   0  0.6361762E-05  0.1886971E+04  0.7818609E-02  0.8661369E-01
       -2   -1    0    0    0  501  0.00000000000E+00  0.00000000000E+00  0.47166194511E+03  0.47166194511E+03  0.25500000920E-02 0. -1.
        2   -1    0    0  501    0  0.00000000000E+00  0.00000000000E+00 -0.18872933478E+04  0.18872933478E+04  0.25500000920E-02 0.  1.
    10030    2    1    2    0    0  0.00000000000E+00  0.00000000000E+00 -0.14156314027E+04  0.23589552929E+04  0.18869705365E+04 0.  0.
        1    1    3    3  502    0 -0.25176912751E+03 -0.25657216068E+03 -0.17983314301E+04  0.18339064588E+04  0.50400001928E-02 0.  1.
       -1    1    3    3    0  502  0.25176912751E+03  0.25657216068E+03  0.38270002739E+03  0.52504883410E+03  0.50400001928E-02 0. -1.
</event>
<event>
 5   0  0.3147063E-05  0.1899470E+04  0.7818609E-02  0.8655120E-01
       -1   -1    0    0    0  501  0.00000000000E+00  0.00000000000E+00  0.82070381152E+03  0.82070381154E+03  0.50400001928E-02 0.  1.
        1   -1    0    0  501    0  0.00000000000E+00  0.00000000000E+00 -0.10990529135E+04  0.10990529135E+04  0.50400001928E-02 0. -1.
    10030    2    1    2    0    0  0.00000000000E+00  0.00000000000E+00 -0.27834910194E+03  0.19197567250E+04  0.18994703632E+04 0.  0.
        5    1    3    3  502    0 -0.71464201442E+03 -0.47666249248E+03 -0.54853674280E+03  0.10192325489E+04  0.46999998093E+01 0. -1.
       -5    1    3    3    0  502  0.71464201442E+03  0.47666249248E+03  0.27018764086E+03  0.90052417612E+03  0.46999998093E+01 0.  1.
</event>
<event>
 5   0  0.3147063E-05  0.1902571E+04  0.7818609E-02  0.8653578E-01
        1   -1    0    0  501    0  0.00000000000E+00  0.00000000000E+00  0.11239113529E+04  0.11239113529E+04  0.50400001928E-02 0. -1.
       -1   -1    0    0    0  501  0.00000000000E+00  0.00000000000E+00 -0.80517416538E+03  0.80517416539E+03  0.50400001928E-02 0.  1.
    10030    2    1    2    0    0  0.00000000000E+00  0.00000000000E+00  0.31873718750E+03  0.19290855183E+04  0.19025712975E+04 0.  0.
        5    1    3    3  502    0  0.80072954725E+03  0.26874152448E+03  0.60311184084E+03  0.10378611648E+04  0.46999998093E+01 0. -1.
       -5    1    3    3    0  502 -0.80072954725E+03 -0.26874152448E+03 -0.28437465334E+03  0.89122435350E+03  0.46999998093E+01 0.  1.
</event>
<event>
 5   0  0.3147063E-05  0.1890516E+04  0.7818609E-02  0.8659592E-01
        1   -1    0    0  501    0  0.00000000000E+00  0.00000000000E+00  0.12682890545E+04  0.12682890545E+04  0.50400001928E-02 0.  1.
       -1   -1    0    0    0  501  0.00000000000E+00  0.00000000000E+00 -0.70450214905E+03  0.70450214906E+03  0.50400001928E-02 0. -1.
    10030    2    1    2    0    0  0.00000000000E+00  0.00000000000E+00  0.56378690542E+03  0.19727912035E+04  0.18905156593E+04 0.  0.
        5    1    3    3  502    0 -0.28794863820E+02  0.93162895447E+03  0.44599051170E+03  0.10332914785E+04  0.46999998093E+01 0.  1.
       -5    1    3    3    0  502  0.28794863820E+02 -0.93162895447E+03  0.11779639372E+03  0.93949972505E+03  0.46999998093E+01 0. -1.
</event>
<event>
 5   0  0.3086139E-05  0.1896440E+04  0.7818609E-02  0.8656630E-01
       -1   -1    0    0    0  501  0.00000000000E+00  0.00000000000E+00  0.11015853924E+04  0.11015853924E+04  0.50400001928E-02 0. -1.
        1   -1    0    0  501    0  0.00000000000E+00  0.00000000000E+00 -0.81620642228E+03  0.81620642229E+03  0.50400001928E-02 0.  1.
    10030    2    1    2    0    0  0.00000000000E+00  0.00000000000E+00  0.28537897010E+03  0.19177918147E+04  0.18964398983E+04 0.  0.
        2    1    3    3  502    0  0.39219582759E+03  0.75138059723E+03  0.57260027561E+03  0.10228692217E+04  0.25500000920E-02 0. -1.
       -2    1    3    3    0  502 -0.39219582759E+03 -0.75138059723E+03 -0.28722130551E+03  0.89492259298E+03  0.25500000920E-02 0.  1.
</event>
<event>
 5   0  0.6452182E-05  0.1899264E+04  0.7818609E-02  0.8655223E-01
       -2   -1    0    0    0  501  0.00000000000E+00  0.00000000000E+00  0.62854601417E+03  0.62854601418E+03  0.25500000920E-02 0. -1.
        2   -1    0    0  501    0  0.00000000000E+00  0.00000000000E+00 -0.14347408217E+04  0.14347408217E+04  0.25500000920E-02 0.  1.
    10030    2    1    2    0    0  0.00000000000E+00  0.00000000000E+00 -0.80619480749E+03  0.20632868358E+04  0.18992636729E+04 0.  0.
        3    1    3    3  502    0 -0.65688422396E+03  0.20590556599E+03 -0.11137361009E+04  0.13093135982E+04  0.10100000352E+00 0.  1.
       -3    1    3    3    0  502  0.65688422396E+03 -0.20590556599E+03  0.30754129337E+03  0.75397323767E+03  0.10100000352E+00 0. -1.
</event>
<event>
 5   0  0.6098377E-05  0.1905499E+04  0.7818609E-02  0.8652124E-01
       -2   -1    0    0    0  501  0.00000000000E+00  0.00000000000E+00  0.51202662137E+03  0.51202662138E+03  0.25500000920E-02 0. -1.
        2   -1    0    0  501    0  0.00000000000E+00  0.00000000000E+00 -0.17728202911E+04  0.17728202911E+04  0.25500000920E-02 0.  1.
    10030    2    1    2    0    0  0.00000000000E+00  0.00000000000E+00 -0.12607936697E+04  0.22848469124E+04  0.19054985531E+04 0.  0.
        5    1    3    3  502    0  0.93242859639E+03 -0.19304155794E+03 -0.66871049037E+03  0.11635651853E+04  0.46999998093E+01 0. -1.
       -5    1    3    3    0  502 -0.93242859639E+03  0.19304155794E+03 -0.59208317932E+03  0.11212817272E+04  0.46999998093E+01 0.  1.
</event>
<event>
 5   0  0.6423388E-05  0.1901212E+04  0.7818609E-02  0.8654253E-01
       -2   -1    0    0    0  501  0.00000000000E+00  0.00000000000E+00  0.77899081185E+03  0.77899081185E+03  0.25500000920E-02 0. -1.
        2   -1    0    0  501    0  0.00000000000E+00  0.00000000000E+00 -0.11600286038E+04  0.11600286038E+04  0.25500000920E-02 0.  1.
    10030    2    1    2    0    0  0.00000000000E+00  0.00000000000E+00 -0.38103779194E+03  0.19390194156E+04  0.19012118492E+04 0.  0.
        2    1    3    3  502    0 -0.10877075975E+03  0.35623018414E+02  0.77193775148E+03  0.78037681269E+03  0.25500000920E-02 0. -1.
       -2    1    3    3    0  502  0.10877075975E+03 -0.35623018414E+02 -0.11529755434E+04  0.11586426029E+04  0.25500000920E-02 0.  1.
</event>
<event>
 5   0  0.3086139E-05  0.1891484E+04  0.7818609E-02  0.8659107E-01
        1   -1    0    0  501    0  0.00000000000E+00  0.00000000000E+00  0.10452403863E+04  0.10452403863E+04  0.50400001928E-02 0.  1.
       -1   -1    0    0    0  501  0.00000000000E+00  0.00000000000E+00 -0.85571491125E+03  0.85571491126E+03  0.50400001928E-02 0. -1.
    10030    2    1    2    0    0  0.00000000000E+00  0.00000000000E+00  0.18952547507E+03  0.19009552976E+04  0.18914838455E+04 0.  0.
        2    1    3    3  502    0 -0.22299588377E+03 -0.22764093606E+03 -0.80013428018E+03  0.86125630696E+03  0.25500000920E-02 0. -1.
       -2    1    3    3    0  502  0.22299588377E+03  0.22764093606E+03  0.98965975525E+03  0.10396989906E+04  0.25500000920E-02 0.  1.
</event>
<event>
 5   0  0.6361762E-05  0.1865010E+04  0.7818609E-02  0.8672472E-01
        2   -1    0    0  501    0  0.00000000000E+00  0.00000000000E+00  0.82433195713E+03  0.82433195713E+03  0.25500000920E-02 0.  1.
       -2   -1    0    0    0  501  0.00000000000E+00  0.00000000000E+00 -0.10548727911E+04  0.10548727911E+04  0.25500000920E-02 0. -1.
    10030    2    1    2    0    0  0.00000000000E+00  0.00000000000E+00 -0.23054083400E+03  0.18792047483E+04  0.18650097613E+04 0.  0.
        1    1    3    3  502    0  0.35425556186E+03 -0.69840377049E+03  0.39484416440E+03  0.87702151851E+03  0.50400001928E-02 0.  1.
       -1    1    3    3    0  502 -0.35425556186E+03  0.69840377049E+03 -0.62538499840E+03  0.10021832298E+04  0.50400001928E-02 0. -1.
</event>
<event>
 5   0  0.3086139E-05  0.1890980E+04  0.7818609E-02  0.8659359E-01
       -1   -1    0    0    0  501  0.00000000000E+00  0.00000000000E+00  0.87934211271E+03  0.87934211272E+03  0.50400001928E-02 0.  1.
        1   -1    0    0  501    0  0.00000000000E+00  0.00000000000E+00 -0.10166136299E+04  0.10166136299E+04  0.50400001928E-02 0. -1.
    10030    2    1    2    0    0  0.00000000000E+00  0.00000000000E+00 -0.13727151720E+03  0.18959557426E+04  0.18909798277E+04 0.  0.
        2    1    3    3  502    0 -0.49885663214E+03  0.48770220843E+03 -0.70846841719E+03  0.99430321417E+03  0.25500000920E-02 0. -1.
       -2    1    3    3    0  502  0.49885663214E+03 -0.48770220843E+03  0.57119689999E+03  0.90165252847E+03  0.25500000920E-02 0.  1.
</event>
<event>
 5   0  0.3203527E-05  0.1895673E+04  0.7818609E-02  0.8657013E-01
       -1   -1    0    0    0  501  0.00000000000E+00  0.00000000000E+00  0.69136340064E+03  0.69136340066E+03  0.50400001928E-02 0. -1.
        1   -1    0    0  501    0  0.00000000000E+00  0.00000000000E+00 -0.12994531261E+04  0.12994531261E+04  0.50400001928E-02 0.  1.
    10030    2    1    2    0    0  0.00000000000E+00  0.00000000000E+00 -0.60808972542E+03  0.19908165267E+04  0.18956733181E+04 0.  0.
        1    1    3    3  502    0  0.76347788481E+03 -0.47104071868E+03 -0.62536942442E+03  0.10935560142E+04  0.50400001928E-02 0.  1.
       -1    1    3    3    0  502 -0.76347788481E+03  0.47104071868E+03  0.17279699000E+02  0.89726051249E+03  0.50400001928E-02 0. -1.
</event>
<event>
 5   0  0.3083469E-05  0.1892434E+04  0.7818609E-02  0.8658632E-01
        1   -1    0    0  501    0  0.00000000000E+00  0.00000000000E+00  0.10107360242E+04  0.10107360242E+04  0.50400001928E-02 0. -1.
       -1   -1    0    0    0  501  0.00000000000E+00  0.00000000000E+00 -0.88581624023E+03  0.88581624025E+03  0.50400001928E-02 0.  1.
    10030    2    1    2    0    0  0.00000000000E+00  0.00000000000E+00  0.12491978399E+03  0.18965522645E+04  0.18924337609E+04 0.  0.
        3    1    3    3  502    0 -0.94764648257E+02  0.35125819902E+03 -0.81291899921E+03  0.89061774652E+03  0.10100000352E+00 0.  1.
       -3    1    3    3    0  502  0.94764648257E+02 -0.35125819902E+03  0.93783878321E+03  0.10059345180E+04  0.10100000352E+00 0. -1.
</event>
<event>
 5   0  0.3086139E-05  0.1898821E+04  0.7818609E-02  0.8655444E-01
       -1   -1    0    0    0  501  0.00000000000E+00  0.00000000000E+00  0.52499511410E+03  0.52499511412E+03  0.50400001928E-02 0. -1.
        1   -1    0    0  501    0  0.00000000000E+00  0.00000000000E+00 -0.17169306660E+04  0.17169306660E+04  0.50400001928E-02 0.  1.
    10030    2    1    2    0    0  0.00000000000E+00  0.00000000000E+00 -0.11919355519E+04  0.22419257802E+04  0.18988209088E+04 0.  0.
        2    1    3    3  502    0 -0.36489470942E+03 -0.78962369387E+03 -0.10451382821E+04  0.13597675374E+04  0.25500000920E-02 0.  1.
       -2    1    3    3    0  502  0.36489470942E+03  0.78962369387E+03 -0.14679726978E+03  0.88215824278E+03  0.25500000920E-02 0. -1.
</event>
<event>
 5   0  0.3083469E-05  0.1906442E+04  0.7818609E-02  0.8651656E-01
       -1   -1    0    0    0  501  0.00000000000E+00  0.00000000000E+00  0.99196903814E+03  0.99196903815E+03  0.50400001928E-02 0. -1.
        1   -1    0    0  501    0  0.00000000000E+00  0.00000000000E+00 -0.91598695215E+03  0.91598695217E+03  0.50400001928E-02 0.  1.
    10030    2    1    2    0    0  0.00000000000E+00  0.00000000000E+00  0.75982085987E+02  0.19079559903E+04  0.19064424417E+04 0.  0.
        3    1    3    3  502    0 -0.84280284657E+02 -0.47258523585E+03 -0.78618611629E+03  0.92115611661E+03  0.10100000352E+00 0.  1.
       -3    1    3    3    0  502  0.84280284657E+02  0.47258523585E+03  0.86216820228E+03  0.98679987371E+03  0.10100000352E+00 0. -1.
</event>
<event>
 5   0  0.3203527E-05  0.1899281E+04  0.7818609E-02  0.8655215E-01
       -1   -1    0    0    0  501  0.00000000000E+00  0.00000000000E+00  0.10328037344E+04  0.10328037344E+04  0.50400001928E-02 0. -1.
        1   -1    0    0  501    0  0.00000000000E+00  0.00000000000E+00 -0.87317330593E+03  0.87317330595E+03  0.50400001928E-02 0.  1.
    10030    2    1    2    0    0  0.00000000000E+00  0.00000000000E+00  0.15963042846E+03  0.19059770403E+04  0.18992805492E+04 0.  0.
        1    1    3    3  502    0  0.44113659363E+03 -0.20312881197E+03  0.89875243213E+03  0.10215765966E+04  0.50400001928E-02 0. -1.
       -1    1    3    3    0  502 -0.44113659363E+03  0.20312881197E+03 -0.73912200368E+03  0.88440044371E+03  0.50400001928E-02 0.  1.
</event>
<event>
 5   0  0.3086139E-05  0.1895588E+04  0.7818609E-02  0.8657056E-01
       -1   -1    0    0    0  501  0.00000000000E+00  0.00000000000E+00  0.50545268098E+03  0.50545268101E+03  0.50400001928E-02 0.  1.
        1   -1    0    0  501    0  0.00000000000E+00  0.00000000000E+00 -0.17772445688E+04  0.17772445688E+04  0.50400001928E-02 0. -1.
    10030    2    1    2    0    0  0.00000000000E+00  0.00000000000E+00 -0.12717918878E+04  0.22826972498E+04  0.18955875418E+04 0.  0.
        2    1    3    3  502    0 -0.87379483682E+03  0.31399441193E+03 -0.40676829601E+03  0.10136914492E+04  0.25500000920E-02 0. -1.
       -2    1    3    3    0  502  0.87379483682E+03 -0.31399441193E+03 -0.86502359183E+03  0.12690058006E+04  0.25500000920E-02 0.  1.
</event>
<event>
 5   0  0.6423388E-05  0.1886504E+04  0.7818609E-02  0.8661603E-01
        2   -1    0    0  501    0  0.00000000000E+00  0.00000000000E+00  0.76337919821E+03  0.76337919821E+03  0.25500000920E-02 0. -1.
       -2   -1    0    0    0  501  0.00000000000E+00  0.00000000000E+00 -0.11655079165E+04  0.11655079165E+04  0.25500000920E-02 0.  1.
    10030    2    1    2    0    0  0.00000000000E+00  0.00000000000E+00 -0.40212871830E+03  0.19288871147E+04  0.18865041731E+04 0.  0.
        2    1    3    3  502    0  0.43621279269E+03  0.26024106375E+03 -0.10137273670E+04  0.11338651535E+04  0.25500000920E-02 0.  1.
       -2    1    3    3    0  502 -0.43621279269E+03 -0.26024106375E+03  0.61159864867E+03  0.79502196122E+03  0.25500000920E-02 0. -1.
</event>
<event>
 5   0  0.3086139E-05  0.1893311E+04  0.7818609E-02  0.8658193E-01
       -1   -1    0    0    0  501  0.00000000000E+00  0.00000000000E+00  0.16391707328E+04  0.16391707328E+04  0.50400001928E-02 0.  1.
        1   -1    0    0  501    0  0.00000000000E+00  0.00000000000E+00 -0.54671365067E+03  0.54671365069E+03  0.50400001928E-02 0. -1.
    10030    2    1    2    0    0  0.00000000000E+00  0.00000000000E+00  0.10924570821E+04  0.21858843835E+04  0.18933114011E+04 0.  0.
        2    1    3    3  502    0  0.87596084560E+03 -0.28347942767E+03  0.29199849883E+03  0.96588359147E+03  0.25500000920E-02 0. -1.
       -2    1    3    3    0  502 -0.87596084560E+03  0.28347942767E+03  0.80045858326E+03  0.12200007920E+04  0.25500000920E-02 0.  1.
</event>
<event>
 5   0  0.3147063E-05  0.1866882E+04  0.7818609E-02  0.8671519E-01
       -1   -1    0    0    0  501  0.00000000000E+00  0.00000000000E+00  0.10063442113E+04  0.10063442113E+04  0.50400001928E-02 0. -1.
        1   -1    0    0  501    0  0.00000000000E+00  0.00000000000E+00 -0.86581894747E+03  0.86581894749E+03  0.50400001928E-02 0.  1.
    10030    2    1    2    0    0  0.00000000000E+00  0.00000000000E+00  0.14052526382E+03  0.18721631588E+04  0.18668817701E+04 0.  0.
        5    1    3    3  502    0  0.65010737301E+02  0.73009783347E+03  0.64984274534E+03  0.97958507853E+03  0.46999998093E+01 0. -1.
       -5    1    3    3    0  502 -0.65010737301E+02 -0.73009783347E+03 -0.50931748152E+03  0.89257808027E+03  0.46999998093E+01 0.  1.
</event>
<event>
 5   0  0.2279625E-05  0.1901826E+04  0.7818609E-02  0.8653948E-01
        3   -1    0    0  501    0  0.00000000000E+00  0.00000000000E+00  0.14646843106E+04  0.14646843141E+04  0.10100000352E+00 0. -1.
       -3   -1    0    0    0  501  0.00000000000E+00  0.00000000000E+00 -0.61735847328E+03  0.61735848154E+03  0.10100000352E+00 0.  1.
    10030    2    1    2    0    0  0.00000000000E+00  0.00000000000E+00  0.84732583736E+03  0.20820427957E+04  0.19018257355E+04 0.  0.
        5    1    3    3  502    0  0.19325227471E+03  0.17896043422E+03  0.14239404975E+04  0.14481028655E+04  0.46999998093E+01 0. -1.
       -5    1    3    3    0  502 -0.19325227471E+03 -0.17896043422E+03 -0.57661466016E+03  0.63393993013E+03  0.46999998093E+01 0.  1.
</event>
<event>
 5   0  0.6452182E-05  0.1904836E+04  0.7818609E-02  0.8652453E-01
        2   -1    0    0  501    0  0.00000000000E+00  0.00000000000E+00  0.89452996127E+03  0.89452996128E+03  0.25500000920E-02 0.  1.
       -2   -1    0    0    0  501  0.00000000000E+00  0.00000000000E+00 -0.10140521384E+04  0.10140521384E+04  0.25500000920E-02 0. -1.
    10030    2    1    2    0    0  0.00000000000E+00  0.00000000000E+00 -0.11952217713E+03  0.19085820997E+04  0.19048359721E+04 0.  0.
        3    1    3    3  502    0  0.93305996417E+03 -0.18758404355E+03 -0.23477446113E+02  0.95201883953E+03  0.10100000352E+00 0. -1.
       -3    1    3    3    0  502 -0.93305996417E+03  0.18758404355E+03 -0.96044731021E+02  0.95656326016E+03  0.10100000352E+00 0.  1.
</event>
<event>
 5   0  0.6452182E-05  0.1897543E+04  0.7818609E-02  0.8656080E-01
        2   -1    0    0  501    0  0.00000000000E+00  0.00000000000E+00  0.69490510199E+03  0.69490510200E+03  0.25500000920E-02 0. -1.
       -2   -1    0    0    0  501  0.00000000000E+00  0.00000000000E+00 -0.12953814095E+04  0.12953814095E+04  0.25500000920E-02 0.  1.
    10030    2    1    2    0    0  0.00000000000E+00  0.00000000000E+00 -0.60047630751E+03  0.19902865115E+04  0.18975427800E+04 0.  0.
        3    1    3    3  502    0 -0.48815896082E+02 -0.14460903024E+03 -0.12824207141E+04  0.12914711230E+04  0.10100000352E+00 0.  1.
       -3    1    3    3    0  502  0.48815896082E+02  0.14460903024E+03  0.68194440660E+03  0.69881538852E+03  0.10100000352E+00 0. -1.
</event>
<event>
 5   0  0.6395992E-05  0.1908663E+04  0.7818609E-02  0.8650556E-01
        2   -1    0    0  501    0  0.00000000000E+00  0.00000000000E+00  0.58711282058E+03  0.58711282059E+03  0.25500000920E-02 0. -1.
       -2   -1    0    0    0  501  0.00000000000E+00  0.00000000000E+00 -0.15512325144E+04  0.15512325144E+04  0.25500000920E-02 0.  1.
    10030    2    1    2    0    0  0.00000000000E+00  0.00000000000E+00 -0.96411969379E+03  0.21383453350E+04  0.19086628795E+04 0.  0.
        4    1    3    3  502    0 -0.87629732660E+03 -0.34584545776E+03 -0.65285444909E+03  0.11461791439E+04  0.12699999809E+01 0.  1.
       -4    1    3    3    0  502  0.87629732660E+03  0.34584545776E+03 -0.31126524470E+03  0.99216619108E+03  0.12699999809E+01 0. -1.
</event>
<event>
 5   0  0.6452182E-05  0.2002391E+04  0.7818609E-02  0.8605504E-01
        2   -1    0    0  501    0  0.00000000000E+00  0.00000000000E+00  0.10636426265E+04  0.10636426265E+04  0.25500000920E-02 0. -1.
       -2   -1    0    0    0  501  0.00000000000E+00  0.00000000000E+00 -0.94241475510E+03  0.94241475511E+03  0.25500000920E-02 0.  1.
    10030    2    1    2    0    0  0.00000000000E+00  0.00000000000E+00  0.12122787140E+03  0.20060573816E+04  0.20023910761E+04 0.  0.
        3    1    3    3  502    0 -0.78947642576E+03 -0.57101883822E+03  0.29137663492E+03  0.10169738905E+04  0.10100000352E+00 0. -1.
       -3    1    3    3    0  502  0.78947642576E+03  0.57101883822E+03 -0.17014876352E+03  0.98908349109E+03  0.10100000352E+00 0.  1.
</event>
<event>
 5   0  0.6361762E-05  0.1901031E+04  0.7818609E-02  0.8654343E-01
        2   -1    0    0  501    0  0.00000000000E+00  0.00000000000E+00  0.17043870906E+04  0.17043870906E+04  0.25500000920E-02 0. -1.
       -2   -1    0    0    0  501  0.00000000000E+00  0.00000000000E+00 -0.53009060079E+03  0.53009060079E+03  0.25500000920E-02 0.  1.
    10030    2    1    2    0    0  0.00000000000E+00  0.00000000000E+00  0.11742964898E+04  0.22344776914E+04  0.19010308539E+04 0.  0.
        1    1    3    3  502    0  0.57305674884E+03  0.49698060797E+03 -0.86118560712E+02  0.76341349779E+03  0.50400001928E-02 0.  1.
       -1    1    3    3    0  502 -0.57305674884E+03 -0.49698060797E+03  0.12604150505E+04  0.14710641936E+04  0.50400001928E-02 0. -1.
</event>
<event>
 5   0  0.6098377E-05  0.1900733E+04  0.7818609E-02  0.8654492E-01
        2   -1    0    0  501    0  0.00000000000E+00  0.00000000000E+00  0.13871399977E+04  0.13871399977E+04  0.25500000920E-02 0.  1.
       -2   -1    0    0    0  501  0.00000000000E+00  0.00000000000E+00 -0.65112145633E+03  0.65112145634E+03  0.25500000920E-02 0. -1.
    10030    2    1    2    0    0  0.00000000000E+00  0.00000000000E+00  0.73601854139E+03  0.20382614541E+04  0.19007331380E+04 0.  0.
        5    1    3    3  502    0  0.83923717567E+03 -0.35330750432E+03  0.65977921623E+03  0.11244891879E+04  0.46999998093E+01 0.  1.
       -5    1    3    3    0  502 -0.83923717567E+03  0.35330750432E+03  0.76239325161E+02  0.91377226612E+03  0.46999998093E+01 0. -1.
</event>
<event>
 5   0  0.6098377E-05  0.1894048E+04  0.7818609E-02  0.8657825E-01
       -2   -1    0    0    0  501  0.00000000000E+00  0.00000000000E+00  0.55153615128E+03  0.55153615129E+03  0.25500000920E-02 0.  1.
        2   -1    0    0  501    0  0.00000000000E+00  0.00000000000E+00 -0.16261031149E+04  0.16261031149E+04  0.25500000920E-02 0. -1.
    10030    2    1    2    0    0  0.00000000000E+00  0.00000000000E+00 -0.10745669637E+04  0.21776392662E+04  0.18940482081E+04 0.  0.
        5    1    3    3  502    0  0.17277268053E+03  0.31774442920E+03 -0.15435549218E+04  0.15853692971E+04  0.46999998093E+01 0. -1.
       -5    1    3    3    0  502 -0.17277268053E+03 -0.31774442920E+03  0.46898795818E+03  0.59226996914E+03  0.46999998093E+01 0.  1.
</event>
<event>
 5   0  0.3083469E-05  0.1901414E+04  0.7818609E-02  0.8654153E-01
       -1   -1    0    0    0  501  0.00000000000E+00  0.00000000000E+00  0.74346664018E+03  0.74346664020E+03  0.50400001928E-02 0.  1.
        1   -1    0    0  501    0  0.00000000000E+00  0.00000000000E+00 -0.12157147238E+04  0.12157147238E+04  0.50400001928E-02 0. -1.
    10030    2    1    2    0    0  0.00000000000E+00  0.00000000000E+00 -0.47224808362E+03  0.19591813640E+04  0.19014135175E+04 0.  0.
        3    1    3    3  502    0 -0.30463561369E+03 -0.53113963695E+03 -0.98549634973E+03  0.11602220635E+04  0.10100000352E+00 0. -1.
       -3    1    3    3    0  502  0.30463561369E+03  0.53113963695E+03  0.51324826610E+03  0.79895930054E+03  0.10100000352E+00 0.  1.
</event>
<event>
 5   0  0.3203527E-05  0.1890876E+04  0.7818609E-02  0.8659411E-01
        1   -1    0    0  501    0  0.00000000000E+00  0.00000000000E+00  0.70831467798E+03  0.70831467800E+03  0.50400001928E-02 0. -1.
       -1   -1    0    0    0  501  0.00000000000E+00  0.00000000000E+00 -0.12619433118E+04  0.12619433118E+04  0.50400001928E-02 0.  1.
    10030    2    1    2    0    0  0.00000000000E+00  0.00000000000E+00 -0.55362863381E+03  0.19702579898E+04  0.18908759563E+04 0.  0.
        1    1    3    3  502    0 -0.63973816442E+03  0.18816741709E+03  0.42153189660E+03  0.78889862197E+03  0.50400001928E-02 0. -1.
       -1    1    3    3    0  502  0.63973816442E+03 -0.18816741709E+03 -0.97516053040E+03  0.11813593678E+04  0.50400001928E-02 0.  1.
</event>
<event>
 5   0  0.3083469E-05  0.1895594E+04  0.7818609E-02  0.8657053E-01
       -1   -1    0    0    0  501  0.00000000000E+00  0.00000000000E+00  0.93810193839E+03  0.93810193840E+03  0.50400001928E-02 0.  1.
        1   -1    0    0  501    0  0.00000000000E+00  0.00000000000E+00 -0.95759182285E+03  0.95759182287E+03  0.50400001928E-02 0. -1.
    10030    2    1    2    0    0  0.00000000000E+00  0.00000000000E+00 -0.19489884467E+02  0.18956937613E+04  0.18955935695E+04 0.  0.
        3    1    3    3  502    0 -0.11259377087E+03 -0.64160349633E+03 -0.69824798345E+03  0.95492547371E+03  0.10100000352E+00 0. -1.
       -3    1    3    3    0  502  0.11259377087E+03  0.64160349633E+03  0.67875809898E+03  0.94076828756E+03  0.10100000352E+00 0.  1.
</event>
<event>
 5   0  0.3203527E-05  0.1902501E+04  0.7818609E-02  0.8653612E-01
       -1   -1    0    0    0  501  0.00000000000E+00  0.00000000000E+00  0.89919587205E+03  0.89919587206E+03  0.50400001928E-02 0. -1.
        1   -1    0    0  501    0  0.00000000000E+00  0.00000000000E+00 -0.10063186078E+04  0.10063186078E+04  0.50400001928E-02 0.  1.
    10030    2    1    2    0    0  0.00000000000E+00  0.00000000000E+00 -0.10712273573E+03  0.19055144799E+04  0.19025010256E+04 0.  0.
        1    1    3    3  502    0  0.48226511080E+03  0.45895277645E+03 -0.73409343601E+03  0.99101486413E+03  0.50400001928E-02 0.  1.
       -1    1    3    3    0  502 -0.48226511080E+03 -0.45895277645E+03  0.62697070029E+03  0.91449961572E+03  0.50400001928E-02 0. -1.
</event>
<event>
 5   0  0.3144958E-05  0.1896152E+04  0.7818609E-02  0.8656774E-01
        1   -1    0    0  501    0  0.00000000000E+00  0.00000000000E+00  0.10805304506E+04  0.10805304506E+04  0.50400001928E-02 0.  1.
       -1   -1    0    0    0  501  0.00000000000E+00  0.00000000000E+00 -0.83185813376E+03  0.83185813378E+03  0.50400001928E-02 0. -1.
    10030    2    1    2    0    0  0.00000000000E+00  0.00000000000E+00  0.24867231685E+03  0.19123885844E+04  0.18961519392E+04 0.  0.
        4    1    3    3  502    0 -0.74026130088E+03  0.56485543203E+03  0.30418297886E+03  0.97958019080E+03  0.12699999809E+01 0.  1.
       -4    1    3    3    0  502  0.74026130088E+03 -0.56485543203E+03 -0.55510662007E+02  0.93280839360E+03  0.12699999809E+01 0. -1.
</event>
<event>
 5   0  0.6395992E-05  0.1904055E+04  0.7818609E-02  0.8652840E-01
        2   -1    0    0  501    0  0.00000000000E+00  0.00000000000E+00  0.15352082990E+04  0.15352082990E+04  0.25500000920E-02 0. -1.
       -2   -1    0    0    0  501  0.00000000000E+00  0.00000000000E+00 -0.59038032212E+03  0.59038032212E+03  0.25500000920E-02 0.  1.
    10030    2    1    2    0    0  0.00000000000E+00  0.00000000000E+00  0.94482797689E+03  0.21255886211E+04  0.19040554300E+04 0.  0.
        4    1    3    3  502    0 -0.79035989961E+03  0.63691925672E+02 -0.11579629206E+03  0.80133377969E+03  0.12699999809E+01 0.  1.
       -4    1    3    3    0  502  0.79035989961E+03 -0.63691925672E+02  0.10606242689E+04  0.13242548414E+04  0.12699999809E+01 0. -1.
</event>
<event>
 5   0  0.6098377E-05  0.1903128E+04  0.7818609E-02  0.8653301E-01
        2   -1    0    0  501    0  0.00000000000E+00  0.00000000000E+00  0.67218182738E+03  0.67218182739E+03  0.25500000920E-02 0.  1.
       -2   -1    0    0    0  501  0.00000000000E+00  0.00000000000E+00 -0.13470669006E+04  0.13470669006E+04  0.25500000920E-02 0. -1.
    10030    2    1    2    0    0  0.00000000000E+00  0.00000000000E+00 -0.67488507322E+03  0.20192487280E+04  0.19031278369E+04 0.  0.
        5    1    3    3  502    0  0.40158865638E+03 -0.44365092071E+03  0.44753150498E+03  0.74726576686E+03  0.46999998093E+01 0.  1.
       -5    1    3    3    0  502 -0.40158865638E+03  0.44365092071E+03 -0.11224165782E+04  0.12719829611E+04  0.46999998093E+01 0. -1.
</event>
<event>
 5   0  0.3203527E-05  0.1904833E+04  0.7818609E-02  0.8652455E-01
        1   -1    0    0  501    0  0.00000000000E+00  0.00000000000E+00  0.78245559051E+03  0.78245559052E+03  0.50400001928E-02 0. -1.
       -1   -1    0    0    0  501  0.00000000000E+00  0.00000000000E+00 -0.11592948319E+04  0.11592948319E+04  0.50400001928E-02 0.  1.
    10030    2    1    2    0    0  0.00000000000E+00  0.00000000000E+00 -0.37683924139E+03  0.19417504224E+04  0.19048325095E+04 0.  0.
        1    1    3    3  502    0 -0.53778334587E+03 -0.66699819587E+03 -0.61241259824E+03  0.10531603443E+04  0.50400001928E-02 0.  1.
       -1    1    3    3    0  502  0.53778334587E+03  0.66699819587E+03  0.23557335685E+03  0.88859007808E+03  0.50400001928E-02 0. -1.
</event>
<event>
 5   0  0.6452182E-05  0.1899748E+04  0.7818609E-02  0.8654982E-01
       -2   -1    0    0    0  501  0.00000000000E+00  0.00000000000E+00  0.64216477891E+03  0.64216477892E+03  0.25500000920E-02 0.  1.
        2   -1    0    0  501    0  0.00000000000E+00  0.00000000000E+00 -0.14050294973E+04  0.14050294973E+04  0.25500000920E-02 0. -1.
    10030    2    1    2    0    0  0.00000000000E+00  0.00000000000E+00 -0.76286471839E+03  0.20471942762E+04  0.18997478322E+04 0.  0.
        3    1    3    3  502    0 -0.19150584901E+01  0.52798043294E+03 -0.12323333820E+04  0.13406761651E+04  0.10100000352E+00 0. -1.
       -3    1    3    3    0  502  0.19150584901E+01 -0.52798043294E+03  0.46946866363E+03  0.70651811113E+03  0.10100000352E+00 0.  1.
</event>
<event>
 5   0  0.6361762E-05  0.1901937E+04  0.7818609E-02  0.8653893E-01
       -2   -1    0    0    0  501  0.00000000000E+00  0.00000000000E+00  0.11201615213E+04  0.11201615213E+04  0.25500000920E-02 0.  1.
        2   -1    0    0  501    0  0.00000000000E+00  0.00000000000E+00 -0.80733055163E+03  0.80733055163E+03  0.25500000920E-02 0. -1.
    10030    2    1    2    0    0  0.00000000000E+00  0.00000000000E+00  0.31283096971E+03  0.19274920730E+04  0.19019365068E+04 0.  0.
        1    1    3    3  502    0  0.36299843491E+03  0.83599701904E+03 -0.11867560293E+03  0.91909889476E+03  0.50400001928E-02 0. -1.
       -1    1    3    3    0  502 -0.36299843491E+03 -0.83599701904E+03  0.43150657263E+03  0.10083931782E+04  0.50400001928E-02 0.  1.
</event>
<event>
 5   0  0.6423388E-05  0.1915287E+04  0.7818609E-02  0.8647284E-01
       -2   -1    0    0    0  501  0.00000000000E+00  0.00000000000E+00  0.65491207988E+03  0.65491207988E+03  0.25500000920E-02 0. -1.
        2   -1    0    0  501    0  0.00000000000E+00  0.00000000000E+00 -0.14003115698E+04  0.14003115698E+04  0.25500000920E-02 0.  1.
    10030    2    1    2    0    0  0.00000000000E+00  0.00000000000E+00 -0.74539948991E+03  0.20552236497E+04  0.19152868847E+04 0.  0.
        2    1    3    3  502    0  0.27346942850E+03 -0.33754199897E+03  0.54309584122E+03  0.69546619052E+03  0.25500000920E-02 0. -1.
       -2    1    3    3    0  502 -0.27346942850E+03  0.33754199897E+03 -0.12884953311E+04  0.13597574592E+04  0.25500000920E-02 0.  1.
</event>
<event>
 5   0  0.3086139E-05  0.1918944E+04  0.7818609E-02  0.8645484E-01
       -1   -1    0    0    0  501  0.00000000000E+00  0.00000000000E+00  0.91350862256E+03  0.91350862257E+03  0.50400001928E-02 0. -1.
        1   -1    0    0  501    0  0.00000000000E+00  0.00000000000E+00 -0.10077481582E+04  0.10077481582E+04  0.50400001928E-02 0.  1.
    10030    2    1    2    0    0  0.00000000000E+00  0.00000000000E+00 -0.94239535609E+02  0.19212567807E+04  0.19189441179E+04 0.  0.
        2    1    3    3  502    0 -0.56186865423E+03 -0.46058997453E+03 -0.67457044384E+03  0.99140546344E+03  0.25500000920E-02 0.  1.
       -2    1    3    3    0  502  0.56186865423E+03  0.46058997453E+03  0.58033090823E+03  0.92985131730E+03  0.25500000920E-02 0. -1.
</event>
<event>
 5   0  0.3144958E-05  0.1865303E+04  0.7818609E-02  0.8672323E-01
        1   -1    0    0  501    0  0.00000000000E+00  0.00000000000E+00  0.25915580787E+04  0.25915580787E+04  0.50400001928E-02 0. -1.
       -1   -1    0    0    0  501  0.00000000000E+00  0.00000000000E+00 -0.33564324003E+03  0.33564324007E+03  0.50400001928E-02 0.  1.
    10030    2    1    2    0    0  0.00000000000E+00  0.00000000000E+00  0.22559148387E+04  0.29272013188E+04  0.18653031393E+04 0.  0.
        4    1    3    3  502    0 -0.65492594597E+03  0.66175976955E+03  0.12136721143E+04  0.15296586551E+04  0.12699999809E+01 0.  1.
       -4    1    3    3    0  502  0.65492594597E+03 -0.66175976955E+03  0.10422427244E+04  0.13975426636E+04  0.12699999809E+01 0. -1.
</event>
<event>
 5   0  0.6098377E-05  0.1898119E+04  0.7818609E-02  0.8655793E-01
       -2   -1    0    0    0  501  0.00000000000E+00  0.00000000000E+00  0.74116839680E+03  0.74116839681E+03  0.25500000920E-02 0.  1.
        2   -1    0    0  501    0  0.00000000000E+00  0.00000000000E+00 -0.12152616318E+04  0.12152616318E+04  0.25500000920E-02 0. -1.
    10030    2    1    2    0    0  0.00000000000E+00  0.00000000000E+00 -0.47409323503E+03  0.19564300286E+04  0.18981185583E+04 0.  0.
        5    1    3    3  502    0 -0.62493519575E+03  0.49347729554E+03 -0.76926947751E+03  0.11071862802E+04  0.46999998093E+01 0. -1.
       -5    1    3    3    0  502  0.62493519575E+03 -0.49347729554E+03  0.29517624248E+03  0.84924374841E+03  0.46999998093E+01 0.  1.
</event>
<event>
 5   0  0.2279625E-05  0.1895194E+04  0.7818609E-02  0.8657252E-01
       -4   -1    0    0    0  501  0.00000000000E+00  0.00000000000E+00  0.36656651673E+03  0.36656871674E+03  0.12699999809E+01 0. -1.
        4   -1    0    0  501    0  0.00000000000E+00  0.00000000000E+00 -0.24495867858E+04  0.24495871150E+04  0.12699999809E+01 0.  1.
    10030    2    1    2    0    0  0.00000000000E+00  0.00000000000E+00 -0.20830202690E+04  0.28161558317E+04  0.18951939815E+04 0.  0.
        5    1    3    3  502    0  0.20444748355E+03 -0.65216562213E+03 -0.20168151456E+04  0.21294797942E+04  0.46999998093E+01 0. -1.
       -5    1    3    3    0  502 -0.20444748355E+03  0.65216562213E+03 -0.66205123453E+02  0.68667603758E+03  0.46999998093E+01 0.  1.
</event>
<event>
 5   0  0.3147063E-05  0.1915375E+04  0.7818609E-02  0.8647241E-01
       -1   -1    0    0    0  501  0.00000000000E+00  0.00000000000E+00  0.10278177833E+04  0.10278177833E+04  0.50400001928E-02 0. -1.
        1   -1    0    0  501    0  0.00000000000E+00  0.00000000000E+00 -0.89234220531E+03  0.89234220532E+03  0.50400001928E-02 0.  1.
    10030    2    1    2    0    0  0.00000000000E+00  0.00000000000E+00  0.13547557797E+03  0.19201599886E+04  0.19153748327E+04 0.  0.
        5    1    3    3  502    0 -0.63989209957E+03  0.70290088809E+03  0.18469776445E+03  0.96833202558E+03  0.46999998093E+01 0.  1.
       -5    1    3    3    0  502  0.63989209957E+03 -0.70290088809E+03 -0.49222186476E+02  0.95182796303E+03  0.46999998093E+01 0. -1.
</event>
<event>
 5   0  0.3144958E-05  0.1904605E+04  0.7818609E-02  0.8652568E-01
       -1   -1    0    0    0  501  0.00000000000E+00  0.00000000000E+00  0.11368382863E+04  0.11368382863E+04  0.50400001928E-02 0. -1.
        1   -1    0    0  501    0  0.00000000000E+00  0.00000000000E+00 -0.79772110217E+03  0.79772110218E+03  0.50400001928E-02 0.  1.
    10030    2    1    2    0    0  0.00000000000E+00  0.00000000000E+00  0.33911718414E+03  0.19345593885E+04  0.19046048312E+04 0.  0.
        4    1    3    3  502    0 -0.63524983951E+03 -0.58063994591E+02  0.88776084896E+03  0.10931764377E+04  0.12699999809E+01 0. -1.
       -4    1    3    3    0  502  0.63524983951E+03  0.58063994591E+02 -0.54864366483E+03  0.84138295081E+03  0.12699999809E+01 0.  1.
</event>
<event>
 5   0  0.3083469E-05  0.1908915E+04  0.7818609E-02  0.8650432E-01
        1   -1    0    0  501    0  0.00000000000E+00  0.00000000000E+00  0.89685679617E+03  0.89685679618E+03  0.50400001928E-02 0.  1.
       -1   -1    0    0    0  501  0.00000000000E+00  0.00000000000E+00 -0.10157572775E+04  0.10157572775E+04  0.50400001928E-02 0. -1.
    10030    2    1    2    0    0  0.00000000000E+00  0.00000000000E+00 -0.11890048133E+03  0.19126140737E+04  0.19089146839E+04 0.  0.
        3    1    3    3  502    0  0.47837059588E+03 -0.19630567638E+03 -0.86326083409E+03  0.10062771107E+04  0.10100000352E+00 0. -1.
       -3    1    3    3    0  502 -0.47837059588E+03  0.19630567638E+03  0.74436035276E+03  0.90633696302E+03  0.10100000352E+00 0.  1.
</event>
<event>
 5   0  0.3147063E-05  0.1898282E+04  0.7818609E-02  0.8655712E-01
       -1   -1    0    0    0  501  0.00000000000E+00  0.00000000000E+00  0.77944253790E+03  0.77944253792E+03  0.50400001928E-02 0. -1.
        1   -1    0    0  501    0  0.00000000000E+00  0.00000000000E+00 -0.11557856243E+04  0.11557856243E+04  0.50400001928E-02 0.  1.
    10030    2    1    2    0    0  0.00000000000E+00  0.00000000000E+00 -0.37634308636E+03  0.19352281622E+04  0.18982818339E+04 0.  0.
        5    1    3    3  502    0  0.63568194680E+03 -0.62760484967E+03 -0.51514276669E+03  0.10312000509E+04  0.46999998093E+01 0.  1.
       -5    1    3    3    0  502 -0.63568194680E+03  0.62760484967E+03  0.13879968033E+03  0.90402811133E+03  0.46999998093E+01 0. -1.
</event>
<event>
 5   0  0.3203527E-05  0.1901390E+04  0.7818609E-02  0.8654165E-01
       -1   -1    0    0    0  501  0.00000000000E+00  0.00000000000E+00  0.76706335868E+03  0.76706335870E+03  0.50400001928E-02 0.  1.
        1   -1    0    0  501    0  0.00000000000E+00  0.00000000000E+00 -0.11782869263E+04  0.11782869263E+04  0.50400001928E-02 0. -1.
    10030    2    1    2    0    0  0.00000000000E+00  0.00000000000E+00 -0.41122356757E+03  0.19453502850E+04  0.19013897309E+04 0.  0.
        1    1    3    3  502    0 -0.38858120142E+03  0.19629735617E+02 -0.10931000522E+04  0.11602794494E+04  0.50400001928E-02 0. -1.
       -1    1    3    3    0  502  0.38858120142E+03 -0.19629735617E+02  0.68187648459E+03  0.78507083558E+03  0.50400001928E-02 0.  1.
</event>
<event>
 5   0  0.6361762E-05  0.1900944E+04  0.7818609E-02  0.8654387E-01
       -2   -1    0    0    0  501  0.00000000000E+00  0.00000000000E+00  0.95431001743E+03  0.95431001744E+03  0.25500000920E-02 0. -1.
        2   -1    0    0  501    0  0.00000000000E+00  0.00000000000E+00 -0.94664900883E+03  0.94664900884E+03  0.25500000920E-02 0.  1.
    10030    2    1    2    0    0  0.00000000000E+00  0.00000000000E+00  0.76610086007E+01  0.19009590263E+04  0.19009435890E+04 0.  0.
        1    1    3    3  502    0 -0.62585307262E+03  0.69733385143E+03 -0.15563885412E+03  0.94983683957E+03  0.50400001928E-02 0.  1.
       -1    1    3    3    0  502  0.62585307262E+03 -0.69733385143E+03  0.16329986272E+03  0.95112218671E+03  0.50400001928E-02 0. -1.
</event>
<event>
 5   0  0.3203527E-05  0.1900562E+04  0.7818609E-02  0.8654576E-01
        1   -1    0    0  501    0  0.00000000000E+00  0.00000000000E+00  0.16813640555E+04  0.16813640555E+04  0.50400001928E-02 0. -1.
       -1   -1    0    0    0  501  0.00000000000E+00  0.00000000000E+00 -0.53708438239E+03  0.53708438241E+03  0.50400001928E-02 0.  1.
    10030    2    1    2    0    0  0.00000000000E+00  0.00000000000E+00  0.11442796731E+04  0.22184484380E+04  0.19005624172E+04 0.  0.
        1    1    3    3  502    0 -0.66897843225E+03 -0.67251979731E+03  0.50591031465E+03  0.10750629131E+04  0.50400001928E-02 0.  1.
       -1    1    3    3    0  502  0.66897843225E+03  0.67251979731E+03  0.63836935850E+03  0.11433855249E+04  0.50400001928E-02 0. -1.
</event>
<event>
 5   0  0.6395992E-05  0.1940328E+04  0.7818609E-02  0.8635039E-01
       -2   -1    0    0    0  501  0.00000000000E+00  0.00000000000E+00  0.59397131025E+03  0.59397131026E+03  0.25500000920E-02 0. -1.
        2   -1    0    0  501    0  0.00000000000E+00  0.00000000000E+00 -0.15846183378E+04  0.15846183378E+04  0.25500000920E-02 0.  1.
    10030    2    1    2    0    0  0.00000000000E+00  0.00000000000E+00 -0.99064702756E+03  0.21785896481E+04  0.19403276325E+04 0.  0.
        4    1    3    3  502    0  0.64281829894E+03 -0.20403500201E+03  0.28771660070E+03  0.73323127505E+03  0.12699999809E+01 0. -1.
       -4    1    3    3    0  502 -0.64281829894E+03  0.20403500201E+03 -0.12783636283E+04  0.14453583730E+04  0.12699999809E+01 0.  1.
</event>
<event>
 5   0  0.6098377E-05  0.1899196E+04  0.7818609E-02  0.8655257E-01
        2   -1    0    0  501    0  0.00000000000E+00  0.00000000000E+00  0.13891591714E+04  0.13891591714E+04  0.25500000920E-02 0.  1.
       -2   -1    0    0    0  501  0.00000000000E+00  0.00000000000E+00 -0.64912385485E+03  0.64912385486E+03  0.25500000920E-02 0. -1.
    10030    2    1    2    0    0  0.00000000000E+00  0.00000000000E+00  0.74003531654E+03  0.20382830263E+04  0.18991959945E+04 0.  0.
        5    1    3    3  502    0  0.23949818869E+02 -0.88603612993E+03  0.43600485471E+01  0.88638294060E+03  0.46999998093E+01 0. -1.
       -5    1    3    3    0  502 -0.23949818869E+02  0.88603612993E+03  0.73567526799E+03  0.11519000856E+04  0.46999998093E+01 0.  1.
</event>
<event>
 5   0  0.3086139E-05  0.1909442E+04  0.7818609E-02  0.8650171E-01
       -1   -1    0    0    0  501  0.00000000000E+00  0.00000000000E+00  0.50621053511E+03  0.50621053514E+03  0.50400001928E-02 0. -1.
        1   -1    0    0  501    0  0.00000000000E+00  0.00000000000E+00 -0.18006190754E+04  0.18006190754E+04  0.50400001928E-02 0.  1.
    10030    2    1    2    0    0  0.00000000000E+00  0.00000000000E+00 -0.12944085403E+04  0.23068296105E+04  0.19094421654E+04 0.  0.
        2    1    3    3  502    0  0.85137458387E+03 -0.27247199507E+03 -0.24214679522E+03  0.92612890064E+03  0.25500000920E-02 0. -1.
       -2    1    3    3    0  502 -0.85137458387E+03  0.27247199507E+03 -0.10522617450E+04  0.13807007099E+04  0.25500000920E-02 0.  1.
</event>
<event>
 5   0  0.3203527E-05  0.1894823E+04  0.7818609E-02  0.8657438E-01
        1   -1    0    0  501    0  0.00000000000E+00  0.00000000000E+00  0.14860554736E+04  0.14860554736E+04  0.50400001928E-02 0. -1.
       -1   -1    0    0    0  501  0.00000000000E+00  0.00000000000E+00 -0.60400716497E+03  0.60400716499E+03  0.50400001928E-02 0.  1.
    10030    2    1    2    0    0  0.00000000000E+00  0.00000000000E+00  0.88204830859E+03  0.20900626385E+04  0.18948225812E+04 0.  0.
        1    1    3    3  502    0 -0.11445480532E+03  0.85640018343E+03  0.86974590696E+03  0.12259604885E+04  0.50400001928E-02 0. -1.
       -1    1    3    3    0  502  0.11445480532E+03 -0.85640018343E+03  0.12302401630E+02  0.86410215006E+03  0.50400001928E-02 0.  1.
</event>
<event>
 5   0  0.6423388E-05  0.1881662E+04  0.7818609E-02  0.8664038E-01
        2   -1    0    0  501    0  0.00000000000E+00  0.00000000000E+00  0.91547293988E+03  0.91547293989E+03  0.25500000920E-02 0.  1.
       -2   -1    0    0    0  501  0.00000000000E+00  0.00000000000E+00 -0.96689197726E+03  0.96689197726E+03  0.25500000920E-02 0. -1.
    10030    2    1    2    0    0  0.00000000000E+00  0.00000000000E+00 -0.51419037371E+02  0.18823649171E+04  0.18816625000E+04 0.  0.
        2    1    3    3  502    0  0.71866480275E+03 -0.31298012765E+03  0.49479979237E+03  0.92696412743E+03  0.25500000920E-02 0.  1.
       -2    1    3    3    0  502 -0.71866480275E+03  0.31298012765E+03 -0.54621882974E+03  0.95540078971E+03  0.25500000920E-02 0. -1.
</event>
<event>
 5   0  0.3083469E-05  0.1950652E+04  0.7818609E-02  0.8630046E-01
       -1   -1    0    0    0  501  0.00000000000E+00  0.00000000000E+00  0.55611954822E+03  0.55611954824E+03  0.50400001928E-02 0.  1.
        1   -1    0    0  501    0  0.00000000000E+00  0.00000000000E+00 -0.17105338025E+04  0.17105338025E+04  0.50400001928E-02 0. -1.
    10030    2    1    2    0    0  0.00000000000E+00  0.00000000000E+00 -0.11544142542E+04  0.22666533507E+04  0.19506524913E+04 0.  0.
        3    1    3    3  502    0 -0.80796431578E+03  0.50955800520E+02 -0.12092509422E+04  0.14552287382E+04  0.10100000352E+00 0. -1.
       -3    1    3    3    0  502  0.80796431578E+03 -0.50955800520E+02  0.54836687946E+02  0.81142461248E+03  0.10100000352E+00 0.  1.
</event>
<event>
 5   0  0.3083469E-05  0.1909095E+04  0.7818609E-02  0.8650343E-01
        1   -1    0    0  501    0  0.00000000000E+00  0.00000000000E+00  0.13767974022E+04  0.13767974022E+04  0.50400001928E-02 0. -1.
       -1   -1    0    0    0  501  0.00000000000E+00  0.00000000000E+00 -0.66179725829E+03  0.66179725831E+03  0.50400001928E-02 0.  1.
    10030    2    1    2    0    0  0.00000000000E+00  0.00000000000E+00  0.71500014390E+03  0.20385946605E+04  0.19090948075E+04 0.  0.
        3    1    3    3  502    0  0.22954102965E+03  0.63714658623E+03 -0.36082379707E+03  0.76735824709E+03  0.10100000352E+00 0.  1.
       -3    1    3    3    0  502 -0.22954102965E+03 -0.63714658623E+03  0.10758239410E+04  0.12712364134E+04  0.10100000352E+00 0. -1.
</event>
<event>
 5   0  0.6423388E-05  0.1892640E+04  0.7818609E-02  0.8658529E-01
        2   -1    0    0  501    0  0.00000000000E+00  0.00000000000E+00  0.17495896298E+04  0.17495896298E+04  0.25500000920E-02 0.  1.
       -2   -1    0    0    0  501  0.00000000000E+00  0.00000000000E+00 -0.51184641889E+03  0.51184641890E+03  0.25500000920E-02 0. -1.
    10030    2    1    2    0    0  0.00000000000E+00  0.00000000000E+00  0.12377432109E+04  0.22614360487E+04  0.18926396240E+04 0.  0.
        2    1    3    3  502    0 -0.15485400280E+03 -0.84475302193E+03  0.10937187875E+04  0.13906143306E+04  0.25500000920E-02 0.  1.
       -2    1    3    3    0  502  0.15485400280E+03  0.84475302193E+03  0.14402442341E+03  0.87082171814E+03  0.25500000920E-02 0. -1.
</event>
<event>
 5   0  0.3147063E-05  0.1903119E+04  0.7818609E-02  0.8653305E-01
        1   -1    0    0  501    0  0.00000000000E+00  0.00000000000E+00  0.11311321584E+04  0.11311321584E+04  0.50400001928E-02 0. -1.
       -1   -1    0    0    0  501  0.00000000000E+00  0.00000000000E+00 -0.80049477056E+03  0.80049477058E+03  0.50400001928E-02 0.  1.
    10030    2    1    2    0    0  0.00000000000E+00  0.00000000000E+00  0.33063738787E+03  0.19316269290E+04  0.19031188903E+04 0.  0.
        5    1    3    3  502    0 -0.58687653584E+02 -0.64905846421E+03 -0.53840860925E+03  0.84535616823E+03  0.46999998093E+01 0.  1.
       -5    1    3    3    0  502  0.58687653584E+02  0.64905846421E+03  0.86904599712E+03  0.10862707608E+04  0.46999998093E+01 0. -1.
</event>
<event>
 5   0  0.6452182E-05  0.1899079E+04  0.7818609E-02  0.8655315E-01
        2   -1    0    0  501    0  0.00000000000E+00  0.00000000000E+00  0.10109744510E+04  0.10109744510E+04  0.25500000920E-02 0. -1.
       -2   -1    0    0    0  501  0.00000000000E+00  0.00000000000E+00 -0.89183799070E+03  0.89183799070E+03  0.25500000920E-02 0.  1.
    10030    2    1    2    0    0  0.00000000000E+00  0.00000000000E+00  0.11913646031E+03  0.19028124417E+04  0.18990791695E+04 0.  0.
        3    1    3    3  502    0 -0.95754094905E+02  0.61761221325E+03 -0.65668788482E+03  0.90656090855E+03  0.10100000352E+00 0.  1.
       -3    1    3    3    0  502  0.95754094905E+02 -0.61761221325E+03  0.77582434514E+03  0.99625153317E+03  0.10100000352E+00 0. -1.
</event>
<event>
 5   0  0.6452182E-05  0.1901717E+04  0.7818609E-02  0.8654002E-01
       -2   -1    0    0    0  501  0.00000000000E+00  0.00000000000E+00  0.84048259694E+03  0.84048259695E+03  0.25500000920E-02 0.  1.
        2   -1    0    0  501    0  0.00000000000E+00  0.00000000000E+00 -0.10757299413E+04  0.10757299413E+04  0.25500000920E-02 0. -1.
    10030    2    1    2    0    0  0.00000000000E+00  0.00000000000E+00 -0.23524734431E+03  0.19162125382E+04  0.19017174287E+04 0.  0.
        3    1    3    3  502    0 -0.34828338400E+03  0.49290083127E+03  0.62274188340E+03  0.86721393472E+03  0.10100000352E+00 0.  1.
       -3    1    3    3    0  502  0.34828338400E+03 -0.49290083127E+03 -0.85798922771E+03  0.10489986035E+04  0.10100000352E+00 0. -1.
</event>
<event>
 5   0  0.6423388E-05  0.1896615E+04  0.7818609E-02  0.8656543E-01
       -2   -1    0    0    0  501  0.00000000000E+00  0.00000000000E+00  0.75212073199E+03  0.75212073200E+03  0.25500000920E-02 0.  1.
        2   -1    0    0  501    0  0.00000000000E+00  0.00000000000E+00 -0.11956681507E+04  0.11956681507E+04  0.25500000920E-02 0. -1.
    10030    2    1    2    0    0  0.00000000000E+00  0.00000000000E+00 -0.44354741867E+03  0.19477888827E+04  0.18966146733E+04 0.  0.
        2    1    3    3  502    0  0.22890593924E+03  0.83571217563E+03  0.17394631983E+03  0.88378169913E+03  0.25500000920E-02 0.  1.
       -2    1    3    3    0  502 -0.22890593924E+03 -0.83571217563E+03 -0.61749373850E+03  0.10640071835E+04  0.25500000920E-02 0. -1.
</event>
<event>
 5   0  0.3144958E-05  0.1905162E+04  0.7818609E-02  0.8652291E-01
       -1   -1    0    0    0  501  0.00000000000E+00  0.00000000000E+00  0.65875190495E+03  0.65875190496E+03  0.50400001928E-02 0.  1.
        1   -1    0    0  501    0  0.00000000000E+00  0.00000000000E+00 -0.13774693689E+04  0.13774693689E+04  0.50400001928E-02 0. -1.
    10030    2    1    2    0    0  0.00000000000E+00  0.00000000000E+00 -0.71871746398E+03  0.20362212739E+04  0.19051620097E+04 0.  0.
        4    1    3    3  502    0 -0.41863131955E+01 -0.73896799339E+03  0.28308884982E+03  0.79134829896E+03  0.12699999809E+01 0.  1.
       -4    1    3    3    0  502  0.41863131955E+01  0.73896799339E+03 -0.10018063138E+04  0.12448729749E+04  0.12699999809E+01 0. -1.
</event>
<event>
 5   0  0.6361762E-05  0.1900661E+04  0.7818609E-02  0.8654527E-01
        2   -1    0    0  501    0  0.00000000000E+00  0.00000000000E+00  0.75037495289E+03  0.75037495290E+03  0.25500000920E-02 0.  1.
       -2   -1    0    0    0  501  0.00000000000E+00  0.00000000000E+00 -0.12035691174E+04  0.12035691174E+04  0.25500000920E-02 0. -1.
    10030    2    1    2    0    0  0.00000000000E+00  0.00000000000E+00 -0.45319416447E+03  0.19539440703E+04  0.19006610637E+04 0.  0.
        1    1    3    3  502    0  0.88794417189E+03  0.15052977027E+03 -0.53845597664E+03  0.10493040088E+04  0.50400001928E-02 0. -1.
       -1    1    3    3    0  502 -0.88794417189E+03 -0.15052977027E+03  0.85261812167E+02  0.90464006144E+03  0.50400001928E-02 0.  1.
</event>
<event>
 5   0  0.6423388E-05  0.1822429E+04  0.7818609E-02  0.8694462E-01
       -2   -1    0    0    0  501  0.00000000000E+00  0.00000000000E+00  0.57271241912E+03  0.57271241913E+03  0.25500000920E-02 0.  1.
        2   -1    0    0  501    0  0.00000000000E+00  0.00000000000E+00 -0.14497884313E+04  0.14497884313E+04  0.25500000920E-02 0. -1.
    10030    2    1    2    0    0  0.00000000000E+00  0.00000000000E+00 -0.87707601219E+03  0.20225008504E+04  0.18224289722E+04 0.  0.
        2    1    3    3  502    0  0.68094431285E+03  0.55834409508E+03 -0.69851770213E+03  0.11239930008E+04  0.25500000920E-02 0. -1.
       -2    1    3    3    0  502 -0.68094431285E+03 -0.55834409508E+03 -0.17855831006E+03  0.89850784961E+03  0.25500000920E-02 0.  1.
</event>
<event>
 5   0  0.6361762E-05  0.1895965E+04  0.7818609E-02  0.8656867E-01
       -2   -1    0    0    0  501  0.00000000000E+00  0.00000000000E+00  0.51644734879E+03  0.51644734880E+03  0.25500000920E-02 0. -1.
        2   -1    0    0  501    0  0.00000000000E+00  0.00000000000E+00 -0.17401017424E+04  0.17401017425E+04  0.25500000920E-02 0.  1.
    10030    2    1    2    0    0  0.00000000000E+00  0.00000000000E+00 -0.12236543937E+04  0.22565490912E+04  0.18959651173E+04 0.  0.
        1    1    3    3  502    0  0.80873805489E+03  0.19616171993E+03 -0.11521950974E+04  0.14212987738E+04  0.50400001928E-02 0.  1.
       -1    1    3    3    0  502 -0.80873805489E+03 -0.19616171993E+03 -0.71459296232E+02  0.83525031747E+03  0.50400001928E-02 0. -1.
</event>
<event>
 5   0  0.6452182E-05  0.1897110E+04  0.7818609E-02  0.8656296E-01
       -2   -1    0    0    0  501  0.00000000000E+00  0.00000000000E+00  0.76365859584E+03  0.76365859584E+03  0.25500000920E-02 0. -1.
        2   -1    0    0  501    0  0.00000000000E+00  0.00000000000E+00 -0.11782180566E+04  0.11782180566E+04  0.25500000920E-02 0.  1.
    10030    2    1    2    0    0  0.00000000000E+00  0.00000000000E+00 -0.41455946080E+03  0.19418766525E+04  0.18971097456E+04 0.  0.
        3    1    3    3  502    0 -0.15696687642E+03 -0.90504121704E+03  0.34986842154E+02  0.91921830604E+03  0.10100000352E+00 0.  1.
       -3    1    3    3    0  502  0.15696687642E+03  0.90504121704E+03 -0.44954630296E+03  0.10226583464E+04  0.10100000352E+00 0. -1.
</event>
<event>
 5   0  0.3086139E-05  0.1898100E+04  0.7818609E-02  0.8655803E-01
        1   -1    0    0  501    0  0.00000000000E+00  0.00000000000E+00  0.16550461493E+04  0.16550461493E+04  0.50400001928E-02 0. -1.
       -1   -1    0    0    0  501  0.00000000000E+00  0.00000000000E+00 -0.54421217916E+03  0.54421217919E+03  0.50400001928E-02 0.  1.
    10030    2    1    2    0    0  0.00000000000E+00  0.00000000000E+00  0.11108339702E+04  0.21992583285E+04  0.18981003889E+04 0.  0.
        2    1    3    3  502    0 -0.12699969628E+03 -0.28242693653E+03  0.15948624089E+04  0.16246476543E+04  0.25500000920E-02 0. -1.
       -2    1    3    3    0  502  0.12699969628E+03  0.28242693653E+03 -0.48402843877E+03  0.57461067418E+03  0.25500000920E-02 0.  1.
</event>
<event>
 5   0  0.6452182E-05  0.1901893E+04  0.7818609E-02  0.8653914E-01
        2   -1    0    0  501    0  0.00000000000E+00  0.00000000000E+00  0.80518431736E+03  0.80518431737E+03  0.25500000920E-02 0.  1.
       -2   -1    0    0    0  501  0.00000000000E+00  0.00000000000E+00 -0.11230964481E+04  0.11230964482E+04  0.25500000920E-02 0. -1.
    10030    2    1    2    0    0  0.00000000000E+00  0.00000000000E+00 -0.31791213078E+03  0.19282807655E+04  0.19018934218E+04 0.  0.
        3    1    3    3  502    0  0.74085570896E+03 -0.56541982981E+03 -0.35061013717E+03  0.99573803981E+03  0.10100000352E+00 0. -1.
       -3    1    3    3    0  502 -0.74085570896E+03  0.56541982981E+03  0.32698006392E+02  0.93254272570E+03  0.10100000352E+00 0.  1.
</event>
<event>
 5   0  0.6395992E-05  0.1876344E+04  0.7818609E-02  0.8666722E-01
       -2   -1    0    0    0  501  0.00000000000E+00  0.00000000000E+00  0.39737062660E+03  0.39737062661E+03  0.25500000920E-02 0. -1.
        2   -1    0    0  501    0  0.00000000000E+00  0.00000000000E+00 -0.22149759940E+04  0.22149759940E+04  0.25500000920E-02 0.  1.
    10030    2    1    2    0    0  0.00000000000E+00  0.00000000000E+00 -0.18176053674E+04  0.26123466206E+04  0.18763436771E+04 0.  0.
        4    1    3    3  502    0  0.25437217113E+03 -0.53875301777E+03 -0.19177831161E+04  0.20081966311E+04  0.12699999809E+01 0.  1.
       -4    1    3    3    0  502 -0.25437217113E+03  0.53875301777E+03  0.10017774876E+03  0.60414998953E+03  0.12699999809E+01 0. -1.
</event>
<event>
 5   0  0.3203527E-05  0.1905163E+04  0.7818609E-02  0.8652291E-01
       -1   -1    0    0    0  501  0.00000000000E+00  0.00000000000E+00  0.11856248862E+04  0.11856248862E+04  0.50400001928E-02 0. -1.
        1   -1    0    0  501    0  0.00000000000E+00  0.00000000000E+00 -0.76534481280E+03  0.76534481282E+03  0.50400001928E-02 0.  1.
    10030    2    1    2    0    0  0.00000000000E+00  0.00000000000E+00  0.42028007338E+03  0.19509696990E+04  0.19051633595E+04 0.  0.
        1    1    3    3  502    0  0.90541746237E+03 -0.28835744551E+03  0.27869022252E+03  0.99025200717E+03  0.50400001928E-02 0. -1.
       -1    1    3    3    0  502 -0.90541746237E+03  0.28835744551E+03  0.14158985086E+03  0.96071769185E+03  0.50400001928E-02 0.  1.
</event>
<event>
 5   0  0.3086139E-05  0.1896466E+04  0.7818609E-02  0.8656618E-01
       -1   -1    0    0    0  501  0.00000000000E+00  0.00000000000E+00  0.72956999174E+03  0.72956999176E+03  0.50400001928E-02 0. -1.
        1   -1    0    0  501    0  0.00000000000E+00  0.00000000000E+00 -0.12324320027E+04  0.12324320027E+04  0.50400001928E-02 0.  1.
    10030    2    1    2    0    0  0.00000000000E+00  0.00000000000E+00 -0.50286201092E+03  0.19620019944E+04  0.18964655610E+04 0.  0.
        2    1    3    3  502    0  0.30723564062E+03  0.30644379428E+03  0.62082023296E+03  0.75744260481E+03  0.25500000920E-02 0. -1.
       -2    1    3    3    0  502 -0.30723564062E+03 -0.30644379428E+03 -0.11236822439E+04  0.12045593896E+04  0.25500000920E-02 0.  1.
</event>
<event>
 5   0  0.3147063E-05  0.1895023E+04  0.7818609E-02  0.8657338E-01
       -1   -1    0    0    0  501  0.00000000000E+00  0.00000000000E+00  0.70723356936E+03  0.70723356938E+03  0.50400001928E-02 0.  1.
        1   -1    0    0  501    0  0.00000000000E+00  0.00000000000E+00 -0.12694219005E+04  0.12694219005E+04  0.50400001928E-02 0. -1.
    10030    2    1    2    0    0  0.00000000000E+00  0.00000000000E+00 -0.56218833110E+03  0.19766554699E+04  0.18950227246E+04 0.  0.
        5    1    3    3  502    0 -0.83402003224E+03 -0.44836285081E+03 -0.24592169994E+03  0.97832419610E+03  0.46999998093E+01 0.  1.
       -5    1    3    3    0  502  0.83402003224E+03  0.44836285081E+03 -0.31626663116E+03  0.99833127375E+03  0.46999998093E+01 0. -1.
</event>
<event>
 5   0  0.2279625E-05  0.1907483E+04  0.7818609E-02  0.8651141E-01
       -3   -1    0    0    0  501  0.00000000000E+00  0.00000000000E+00  0.22841148729E+04  0.22841148752E+04  0.10100000352E+00 0.  1.
        3   -1    0    0  501    0  0.00000000000E+00  0.00000000000E+00 -0.39823855535E+03  0.39823856816E+03  0.10100000352E+00 0. -1.
    10030    2    1    2    0    0  0.00000000000E+00  0.00000000000E+00  0.18858763176E+04  0.26823534433E+04  0.19074827679E+04 0.  0.
        5    1    3    3  502    0  0.28193658973E+03 -0.51026850085E+03  0.20043724341E+04  0.20874369759E+04  0.46999998093E+01 0.  1.
       -5    1    3    3    0  502 -0.28193658973E+03  0.51026850085E+03 -0.11849611655E+03  0.59491646744E+03  0.46999998093E+01 0. -1.
</event>
<event>
 5   0  0.3083469E-05  0.1874915E+04  0.7818609E-02  0.8667445E-01
       -1   -1    0    0    0  501  0.00000000000E+00  0.00000000000E+00  0.63398446394E+03  0.63398446396E+03  0.50400001928E-02 0.  1.
        1   -1    0    0  501    0  0.00000000000E+00  0.00000000000E+00 -0.13861951275E+04  0.13861951275E+04  0.50400001928E-02 0. -1.
    10030    2    1    2    0    0  0.00000000000E+00  0.00000000000E+00 -0.75221066356E+03  0.20201795915E+04  0.18749145846E+04 0.  0.
        3    1    3    3  502    0 -0.40249582576E+02  0.91182622954E+03 -0.14556763968E+03  0.92424945210E+03  0.10100000352E+00 0.  1.
       -3    1    3    3    0  502  0.40249582576E+02 -0.91182622954E+03 -0.60664302388E+03  0.10959301394E+04  0.10100000352E+00 0. -1.
</event>
<event>
 5   0  0.6395992E-05  0.1899871E+04  0.7818609E-02  0.8654920E-01
       -2   -1    0    0    0  501  0.00000000000E+00  0.00000000000E+00  0.14276229208E+04  0.14276229208E+04  0.25500000920E-02 0. -1.
        2   -1    0    0  501    0  0.00000000000E+00  0.00000000000E+00 -0.63208402130E+03  0.63208402131E+03  0.25500000920E-02 0.  1.
    10030    2    1    2    0    0  0.00000000000E+00  0.00000000000E+00  0.79553889946E+03  0.20597069421E+04  0.18998711921E+04 0.  0.
        4    1    3    3  502    0  0.58420463057E+03  0.50038797869E+03  0.10020615273E+04  0.12632545654E+04  0.12699999809E+01 0. -1.
       -4    1    3    3    0  502 -0.58420463057E+03 -0.50038797869E+03 -0.20652262785E+03  0.79645237667E+03  0.12699999809E+01 0.  1.
</event>
<event>
 5   0  0.3203527E-05  0.1903940E+04  0.7818609E-02  0.8652897E-01
        1   -1    0    0  501    0  0.00000000000E+00  0.00000000000E+00  0.66102554452E+03  0.66102554454E+03  0.50400001928E-02 0. -1.
       -1   -1    0    0    0  501  0.00000000000E+00  0.00000000000E+00 -0.13709715861E+04  0.13709715861E+04  0.50400001928E-02 0.  1.
    10030    2    1    2    0    0  0.00000000000E+00  0.00000000000E+00 -0.70994604160E+03  0.20319971307E+04  0.19039403764E+04 0.  0.
        1    1    3    3  502    0 -0.91442817033E+03  0.25449844946E+03 -0.27728347207E+03  0.98885512760E+03  0.50400001928E-02 0. -1.
       -1    1    3    3    0  502  0.91442817033E+03 -0.25449844946E+03 -0.43266256953E+03  0.10431420031E+04  0.50400001928E-02 0.  1.
</event>
<event>
 5   0  0.6098377E-05  0.1892172E+04  0.7818609E-02  0.8658763E-01
       -2   -1    0    0    0  501  0.00000000000E+00  0.00000000000E+00  0.69657612520E+03  0.69657612520E+03  0.25500000920E-02 0. -1.
        2   -1    0    0  501    0  0.00000000000E+00  0.00000000000E+00 -0.12849691832E+04  0.12849691832E+04  0.25500000920E-02 0.  1.
    10030    2    1    2    0    0  0.00000000000E+00  0.00000000000E+00 -0.58839305799E+03  0.19815453084E+04  0.18921721429E+04 0.  0.
        5    1    3    3  502    0  0.27919539150E+03 -0.46376403101E+03 -0.11067506416E+04  0.12320495995E+04  0.46999998093E+01 0.  1.
       -5    1    3    3    0  502 -0.27919539150E+03  0.46376403101E+03  0.51835758360E+03  0.74949570884E+03  0.46999998093E+01 0. -1.
</event>
<event>
 5   0  0.6098377E-05  0.1875729E+04  0.7818609E-02  0.8667033E-01
        2   -1    0    0  501    0  0.00000000000E+00  0.00000000000E+00  0.71352085168E+03  0.71352085169E+03  0.25500000920E-02 0. -1.
       -2   -1    0    0    0  501  0.00000000000E+00  0.00000000000E+00 -0.12327459119E+04  0.12327459119E+04  0.25500000920E-02 0.  1.
    10030    2    1    2    0    0  0.00000000000E+00  0.00000000000E+00 -0.51922506021E+03  0.19462667636E+04  0.18757290987E+04 0.  0.
        5    1    3    3  502    0 -0.92952215691E+03  0.23986423275E+02 -0.13261269725E+03  0.93925236553E+03  0.46999998093E+01 0.  1.
       -5    1    3    3    0  502  0.92952215691E+03 -0.23986423275E+02 -0.38661236296E+03  0.10070143980E+04  0.46999998093E+01 0. -1.
</event>
<event>
 5   0  0.6098377E-05  0.1900867E+04  0.7818609E-02  0.8654425E-01
        2   -1    0    0  501    0  0.00000000000E+00  0.00000000000E+00  0.11556044539E+04  0.11556044539E+04  0.25500000920E-02 0. -1.
       -2   -1    0    0    0  501  0.00000000000E+00  0.00000000000E+00 -0.78168961249E+03  0.78168961249E+03  0.25500000920E-02 0.  1.
    10030    2    1    2    0    0  0.00000000000E+00  0.00000000000E+00  0.37391484137E+03  0.19372940663E+04  0.19008671681E+04 0.  0.
        5    1    3    3  502    0  0.21664098807E+03  0.17615947533E+03  0.11128471915E+04  0.11473519251E+04  0.46999998093E+01 0. -1.
       -5    1    3    3    0  502 -0.21664098807E+03 -0.17615947533E+03 -0.73893235011E+03  0.78994214124E+03  0.46999998093E+01 0.  1.
</event>
<event>
 5   0  0.6423388E-05  0.1896822E+04  0.7818609E-02  0.8656440E-01
        2   -1    0    0  501    0  0.00000000000E+00  0.00000000000E+00  0.14878146709E+04  0.14878146709E+04  0.25500000920E-02 0. -1.
       -2   -1    0    0    0  501  0.00000000000E+00  0.00000000000E+00 -0.60456707401E+03  0.60456707402E+03  0.25500000920E-02 0.  1.
    10030    2    1    2    0    0  0.00000000000E+00  0.00000000000E+00  0.88324759691E+03  0.20923817449E+04  0.18968223557E+04 0.  0.
        2    1    3    3  502    0 -0.87894196780E+03 -0.77152910847E+02  0.57922769599E+02  0.88422090094E+03  0.25500000920E-02 0.  1.
       -2    1    3    3    0  502  0.87894196780E+03  0.77152910847E+02  0.82532482731E+03  0.12081608440E+04  0.25500000920E-02 0. -1.
</event>
<event>
 5   0  0.3144958E-05  0.1898064E+04  0.7818609E-02  0.8655821E-01
       -1   -1    0    0    0  501  0.00000000000E+00  0.00000000000E+00  0.63698674011E+03  0.63698674013E+03  0.50400001928E-02 0.  1.
        1   -1    0    0  501    0  0.00000000000E+00  0.00000000000E+00 -0.14139410563E+04  0.14139410563E+04  0.50400001928E-02 0. -1.
    10030    2    1    2    0    0  0.00000000000E+00  0.00000000000E+00 -0.77695431621E+03  0.20509277965E+04  0.18980639654E+04 0.  0.
        4    1    3    3  502    0  0.85766808729E+03 -0.31388438575E+03 -0.66720984090E+03  0.11310563824E+04  0.12699999809E+01 0. -1.
       -4    1    3    3    0  502 -0.85766808729E+03  0.31388438575E+03 -0.10974447532E+03  0.91987141402E+03  0.12699999809E+01 0.  1.
</event>
<event>
 5   0  0.6361762E-05  0.1903312E+04  0.7818609E-02  0.8653210E-01
        2   -1    0    0  501    0  0.00000000000E+00  0.00000000000E+00  0.11441343321E+04  0.11441343321E+04  0.25500000920E-02 0.  1.
       -2   -1    0    0    0  501  0.00000000000E+00  0.00000000000E+00 -0.79155825750E+03  0.79155825750E+03  0.25500000920E-02 0. -1.
    10030    2    1    2    0    0  0.00000000000E+00  0.00000000000E+00  0.35257607461E+03  0.19356925896E+04  0.19033118276E+04 0.  0.
        1    1    3    3  502    0 -0.25482247139E+03 -0.66702293025E+03 -0.46353745016E+03  0.85130549695E+03  0.50400001928E-02 0. -1.
       -1    1    3    3    0  502  0.25482247139E+03  0.66702293025E+03  0.81611352477E+03  0.10843870927E+04  0.50400001928E-02 0.  1.
</event>
<event>
 5   0  0.6098377E-05  0.1845917E+04  0.7818609E-02  0.8682255E-01
       -2   -1    0    0    0  501  0.00000000000E+00  0.00000000000E+00  0.11625297800E+04  0.11625297800E+04  0.25500000920E-02 0. -1.
        2   -1    0    0  501    0  0.00000000000E+00  0.00000000000E+00 -0.73275755410E+03  0.73275755410E+03  0.25500000920E-02 0.  1.
    10030    2    1    2    0    0  0.00000000000E+00  0.00000000000E+00  0.42977222587E+03  0.18952873341E+04  0.18459170925E+04 0.  0.
        5    1    3    3  502    0  0.49672851230E+03 -0.64799389040E+03 -0.22696668008E+03  0.84744985740E+03  0.46999998093E+01 0.  1.
       -5    1    3    3    0  502 -0.49672851230E+03  0.64799389040E+03  0.65673890594E+03  0.10478374767E+04  0.46999998093E+01 0. -1.
</event>
<event>
 5   0  0.6395992E-05  0.1904182E+04  0.7818609E-02  0.8652778E-01
        2   -1    0    0  501    0  0.00000000000E+00  0.00000000000E+00  0.94325142927E+03  0.94325142928E+03  0.25500000920E-02 0. -1.
       -2   -1    0    0    0  501  0.00000000000E+00  0.00000000000E+00 -0.96101292966E+03  0.96101292966E+03  0.25500000920E-02 0.  1.
    10030    2    1    2    0    0  0.00000000000E+00  0.00000000000E+00 -0.17761500385E+02  0.19042643589E+04  0.19041815244E+04 0.  0.
        4    1    3    3  502    0  0.17815561144E+03 -0.51438510278E+03  0.77227021861E+03  0.94484620934E+03  0.12699999809E+01 0. -1.
       -4    1    3    3    0  502 -0.17815561144E+03  0.51438510278E+03 -0.79003171900E+03  0.95941814960E+03  0.12699999809E+01 0.  1.
</event>
<event>
 5   0  0.6098377E-05  0.1899887E+04  0.7818609E-02  0.8654913E-01
        2   -1    0    0  501    0  0.00000000000E+00  0.00000000000E+00  0.61052289508E+03  0.61052289509E+03  0.25500000920E-02 0. -1.
       -2   -1    0    0    0  501  0.00000000000E+00  0.00000000000E+00 -0.14780645556E+04  0.14780645556E+04  0.25500000920E-02 0.  1.
    10030    2    1    2    0    0  0.00000000000E+00  0.00000000000E+00 -0.86754166055E+03  0.20885874507E+04  0.18998865773E+04 0.  0.
        5    1    3    3  502    0  0.12804927619E+03  0.57081641305E+03  0.38899097684E+03  0.70254114798E+03  0.46999998093E+01 0. -1.
       -5    1    3    3    0  502 -0.12804927619E+03 -0.57081641305E+03 -0.12565326374E+04  0.13860463027E+04  0.46999998093E+01 0.  1.
</event>
<event>
 5   0  0.6098377E-05  0.1893716E+04  0.7818609E-02  0.8657991E-01
        2   -1    0    0  501    0  0.00000000000E+00  0.00000000000E+00  0.10106949193E+04  0.10106949193E+04  0.25500000920E-02 0. -1.
       -2   -1    0    0    0  501  0.00000000000E+00  0.00000000000E+00 -0.88705312899E+03  0.88705312900E+03  0.25500000920E-02 0.  1.
    10030    2    1    2    0    0  0.00000000000E+00  0.00000000000E+00  0.12364179027E+03  0.18977480483E+04  0.18937160195E+04 0.  0.
        5    1    3    3  502    0 -0.62006655166E+03  0.23333804146E+03 -0.61607250852E+03  0.90470801689E+03  0.46999998093E+01 0.  1.
       -5    1    3    3    0  502  0.62006655166E+03 -0.23333804146E+03  0.73971429879E+03  0.99304003138E+03  0.46999998093E+01 0. -1.
</event>
<event>
 5   0  0.3144958E-05  0.1901954E+04  0.7818609E-02  0.8653884E-01
       -1   -1    0    0    0  501  0.00000000000E+00  0.00000000000E+00  0.10057281271E+04  0.10057281271E+04  0.50400001928E-02 0. -1.
        1   -1    0    0  501    0  0.00000000000E+00  0.00000000000E+00 -0.89920655998E+03  0.89920656000E+03  0.50400001928E-02 0.  1.
    10030    2    1    2    0    0  0.00000000000E+00  0.00000000000E+00  0.10652156714E+03  0.19049346871E+04  0.19019540788E+04 0.  0.
        4    1    3    3  502    0 -0.30780528751E+03  0.39328020247E+03  0.86381409531E+03  0.99779247183E+03  0.12699999809E+01 0. -1.
       -4    1    3    3    0  502  0.30780528751E+03 -0.39328020247E+03 -0.75729252817E+03  0.90714221531E+03  0.12699999809E+01 0.  1.
</event>
<event>
 5   0  0.3083469E-05  0.1915805E+04  0.7818609E-02  0.8647029E-01
       -1   -1    0    0    0  501  0.00000000000E+00  0.00000000000E+00  0.51544899610E+03  0.51544899613E+03  0.50400001928E-02 0.  1.
        1   -1    0    0  501    0  0.00000000000E+00  0.00000000000E+00 -0.17801507712E+04  0.17801507712E+04  0.50400001928E-02 0. -1.
    10030    2    1    2    0    0  0.00000000000E+00  0.00000000000E+00 -0.12647017751E+04  0.22955997673E+04  0.19158047165E+04 0.  0.
        3    1    3    3  502    0  0.62661213745E+03 -0.46083763710E+03 -0.13022564619E+04  0.15168671667E+04  0.10100000352E+00 0.  1.
       -3    1    3    3    0  502 -0.62661213745E+03  0.46083763710E+03  0.37554686846E+02  0.77873260062E+03  0.10100000352E+00 0. -1.
</event>
<event>
 5   0  0.3147063E-05  0.1906049E+04  0.7818609E-02  0.8651851E-01
        1   -1    0    0  501    0  0.00000000000E+00  0.00000000000E+00  0.21355021139E+04  0.21355021139E+04  0.50400001928E-02 0.  1.
       -1   -1    0    0    0  501  0.00000000000E+00  0.00000000000E+00 -0.42531254772E+03  0.42531254775E+03  0.50400001928E-02 0. -1.
    10030    2    1    2    0    0  0.00000000000E+00  0.00000000000E+00  0.17101895662E+04  0.25608146617E+04  0.19060491544E+04 0.  0.
        5    1    3    3  502    0  0.56374522608E+03 -0.72735981242E+03  0.52225751960E+03  0.10581285288E+04  0.46999998093E+01 0.  1.
       -5    1    3    3    0  502 -0.56374522608E+03  0.72735981242E+03  0.11879320466E+04  0.15026861329E+04  0.46999998093E+01 0. -1.
</event>
<event>
 5   0  0.6361762E-05  0.1903597E+04  0.7818609E-02  0.8653068E-01
       -2   -1    0    0    0  501  0.00000000000E+00  0.00000000000E+00  0.12021557765E+04  0.12021557765E+04  0.25500000920E-02 0.  1.
        2   -1    0    0  501    0  0.00000000000E+00  0.00000000000E+00 -0.75357958476E+03  0.75357958477E+03  0.25500000920E-02 0. -1.
    10030    2    1    2    0    0  0.00000000000E+00  0.00000000000E+00  0.44857619177E+03  0.19557353613E+04  0.19035966494E+04 0.  0.
        1    1    3    3  502    0 -0.29626564765E+02 -0.15665356245E+03  0.11883397957E+04  0.11989868815E+04  0.50400001928E-02 0.  1.
       -1    1    3    3    0  502  0.29626564765E+02  0.15665356245E+03 -0.73976360392E+03  0.75674847980E+03  0.50400001928E-02 0. -1.
</event>
<event>
 5   0  0.6098377E-05  0.1900870E+04  0.7818609E-02  0.8654423E-01
       -2   -1    0    0    0  501  0.00000000000E+00  0.00000000000E+00  0.12065174437E+04  0.12065174437E+04  0.25500000920E-02 0.  1.
        2   -1    0    0  501    0  0.00000000000E+00  0.00000000000E+00 -0.74870600347E+03  0.74870600348E+03  0.25500000920E-02 0. -1.
    10030    2    1    2    0    0  0.00000000000E+00  0.00000000000E+00  0.45781144024E+03  0.19552234472E+04  0.19008701727E+04 0.  0.
        5    1    3    3  502    0 -0.18886510045E+03 -0.89554351881E+03  0.49242766721E+03  0.10393148309E+04  0.46999998093E+01 0.  1.
       -5    1    3    3    0  502  0.18886510045E+03  0.89554351881E+03 -0.34616226975E+02  0.91590861631E+03  0.46999998093E+01 0. -1.
</event>
<event>
 5   0  0.3147063E-05  0.1873315E+04  0.7818609E-02  0.8668255E-01
       -1   -1    0    0    0  501  0.00000000000E+00  0.00000000000E+00  0.68297413607E+03  0.68297413609E+03  0.50400001928E-02 0. -1.
        1   -1    0    0  501    0  0.00000000000E+00  0.00000000000E+00 -0.12845682542E+04  0.12845682542E+04  0.50400001928E-02 0.  1.
    10030    2    1    2    0    0  0.00000000000E+00  0.00000000000E+00 -0.60159411814E+03  0.19675423903E+04  0.18733145958E+04 0.  0.
        5    1    3    3  502    0  0.64316608786E+03  0.65648022372E+03 -0.11093981176E+03  0.92572060177E+03  0.46999998093E+01 0. -1.
       -5    1    3    3    0  502 -0.64316608786E+03 -0.65648022372E+03 -0.49065430638E+03  0.10418217885E+04  0.46999998093E+01 0.  1.
</event>
<event>
 5   0  0.3203527E-05  0.1902483E+04  0.7818609E-02  0.8653622E-01
        1   -1    0    0  501    0  0.00000000000E+00  0.00000000000E+00  0.14641101817E+04  0.14641101817E+04  0.50400001928E-02 0. -1.
       -1   -1    0    0    0  501  0.00000000000E+00  0.00000000000E+00 -0.61802723083E+03  0.61802723086E+03  0.50400001928E-02 0.  1.
    10030    2    1    2    0    0  0.00000000000E+00  0.00000000000E+00  0.84608295089E+03  0.20821374126E+04  0.19024825479E+04 0.  0.
        1    1    3    3  502    0  0.27623020831E+03 -0.11184544552E+03  0.14117002083E+04  0.14428132276E+04  0.50400001928E-02 0. -1.
       -1    1    3    3    0  502 -0.27623020831E+03  0.11184544552E+03 -0.56561725737E+03  0.63932418500E+03  0.50400001928E-02 0.  1.
</event>
<event>
 5   0  0.6395992E-05  0.1902156E+04  0.7818609E-02  0.8653784E-01
       -2   -1    0    0    0  501  0.00000000000E+00  0.00000000000E+00  0.40376110358E+03  0.40376110359E+03  0.25500000920E-02 0. -1.
        2   -1    0    0  501    0  0.00000000000E+00  0.00000000000E+00 -0.22403075763E+04  0.22403075763E+04  0.25500000920E-02 0.  1.
    10030    2    1    2    0    0  0.00000000000E+00  0.00000000000E+00 -0.18365464727E+04  0.26440686799E+04  0.19021556817E+04 0.  0.
        4    1    3    3  502    0 -0.16576840735E+03 -0.23072584589E+03  0.34339884594E+03  0.44568818823E+03  0.12699999809E+01 0. -1.
       -4    1    3    3    0  502  0.16576840735E+03  0.23072584589E+03 -0.21799453186E+04  0.21983804916E+04  0.12699999809E+01 0.  1.
</event>
<event>
 5   0  0.3203527E-05  0.1906108E+04  0.7818609E-02  0.8651822E-01
        1   -1    0    0  501    0  0.00000000000E+00  0.00000000000E+00  0.17566461063E+04  0.17566461063E+04  0.50400001928E-02 0. -1.
       -1   -1    0    0    0  501  0.00000000000E+00  0.00000000000E+00 -0.51707141737E+03  0.51707141740E+03  0.50400001928E-02 0.  1.
    10030    2    1    2    0    0  0.00000000000E+00  0.00000000000E+00  0.12395746890E+04  0.22737175237E+04  0.19061075437E+04 0.  0.
        1    1    3    3  502    0  0.32668522279E+03  0.83102890472E+03  0.22240374751E+03  0.92021503041E+03  0.50400001928E-02 0. -1.
       -1    1    3    3    0  502 -0.32668522279E+03 -0.83102890472E+03  0.10171709415E+04  0.13535024933E+04  0.50400001928E-02 0.  1.
</event>
<event>
 5   0  0.6395992E-05  0.1895287E+04  0.7818609E-02  0.8657206E-01
       -2   -1    0    0    0  501  0.00000000000E+00  0.00000000000E+00  0.46768965014E+03  0.46768965014E+03  0.25500000920E-02 0.  1.
        2   -1    0    0  501    0  0.00000000000E+00  0.00000000000E+00 -0.19201371331E+04  0.19201371331E+04  0.25500000920E-02 0. -1.
    10030    2    1    2    0    0  0.00000000000E+00  0.00000000000E+00 -0.14524474829E+04  0.23878267832E+04  0.18952870643E+04 0.  0.
        4    1    3    3  502    0  0.91717901640E+03  0.38669397810E+02 -0.42991444495E+03  0.10136768288E+04  0.12699999809E+01 0.  1.
       -4    1    3    3    0  502 -0.91717901640E+03 -0.38669397810E+02 -0.10225330380E+04  0.13741499544E+04  0.12699999809E+01 0. -1.
</event>
<event>
 5   0  0.6361762E-05  0.1907323E+04  0.7818609E-02  0.8651220E-01
       -2   -1    0    0    0  501  0.00000000000E+00  0.00000000000E+00  0.51052048525E+03  0.51052048526E+03  0.25500000920E-02 0.  1.
        2   -1    0    0  501    0  0.00000000000E+00  0.00000000000E+00 -0.17814572342E+04  0.17814572342E+04  0.25500000920E-02 0. -1.
    10030    2    1    2    0    0  0.00000000000E+00  0.00000000000E+00 -0.12709367490E+04  0.22919777195E+04  0.19073231626E+04 0.  0.
        1    1    3    3  502    0 -0.54753482415E+03 -0.52188659532E+03  0.62444131546E+02  0.75898568604E+03  0.50400001928E-02 0.  1.
       -1    1    3    3    0  502  0.54753482415E+03  0.52188659532E+03 -0.13333808805E+04  0.15329920334E+04  0.50400001928E-02 0. -1.
</event>
<event>
 5   0  0.2279625E-05  0.1902055E+04  0.7818609E-02  0.8653834E-01
       -4   -1    0    0    0  501  0.00000000000E+00  0.00000000000E+00  0.14313178959E+04  0.14313184593E+04  0.12699999809E+01 0. -1.
        4   -1    0    0  501    0  0.00000000000E+00  0.00000000000E+00 -0.63190102305E+03  0.63190229928E+03  0.12699999809E+01 0.  1.
    10030    2    1    2    0    0  0.00000000000E+00  0.00000000000E+00  0.79941687286E+03  0.20632207586E+04  0.19020548263E+04 0.  0.
        3    1    3    3  502    0  0.45142125120E+03 -0.62284816148E+03  0.10063175548E+04  0.12666475475E+04  0.10100000352E+00 0. -1.
       -3    1    3    3    0  502 -0.45142125120E+03  0.62284816148E+03 -0.20690068192E+03  0.79657321112E+03  0.10100000352E+00 0.  1.
</event>
<event>
 5   0  0.3203527E-05  0.1896048E+04  0.7818609E-02  0.8656826E-01
        1   -1    0    0  501    0  0.00000000000E+00  0.00000000000E+00  0.62812550761E+03  0.62812550763E+03  0.50400001928E-02 0.  1.
       -1   -1    0    0    0  501  0.00000000000E+00  0.00000000000E+00 -0.14308440211E+04  0.14308440211E+04  0.50400001928E-02 0. -1.
    10030    2    1    2    0    0  0.00000000000E+00  0.00000000000E+00 -0.80271851345E+03  0.20589695287E+04  0.18960481292E+04 0.  0.
        1    1    3    3  502    0  0.37723564003E+03 -0.84228474679E+03 -0.16593767315E+03  0.93770231640E+03  0.50400001928E-02 0.  1.
       -1    1    3    3    0  502 -0.37723564003E+03  0.84228474679E+03 -0.63678084031E+03  0.11212672123E+04  0.50400001928E-02 0. -1.
</event>
<event>
 5   0  0.2279625E-05  0.1878686E+04  0.7818609E-02  0.8665539E-01
       -3   -1    0    0    0  501  0.00000000000E+00  0.00000000000E+00  0.83112065494E+03  0.83112066108E+03  0.10100000352E+00 0. -1.
        3   -1    0    0  501    0  0.00000000000E+00  0.00000000000E+00 -0.10616567918E+04  0.10616567966E+04  0.10100000352E+00 0.  1.
    10030    2    1    2    0    0  0.00000000000E+00  0.00000000000E+00 -0.23053613684E+03  0.18927774577E+04  0.18786856027E+04 0.  0.
        1    1    3    3  502    0  0.35246893279E+03  0.84632871058E+03  0.90859486472E+02  0.92128284541E+03  0.50400001928E-02 0. -1.
       -1    1    3    3    0  502 -0.35246893279E+03 -0.84632871058E+03 -0.32139562331E+03  0.97149461226E+03  0.50400001928E-02 0.  1.
</event>
<event>
 5   0  0.6395992E-05  0.1895591E+04  0.7818609E-02  0.8657054E-01
       -2   -1    0    0    0  501  0.00000000000E+00  0.00000000000E+00  0.80762870588E+03  0.80762870589E+03  0.25500000920E-02 0.  1.
        2   -1    0    0  501    0  0.00000000000E+00  0.00000000000E+00 -0.11122887126E+04  0.11122887126E+04  0.25500000920E-02 0. -1.
    10030    2    1    2    0    0  0.00000000000E+00  0.00000000000E+00 -0.30466000671E+03  0.19199174185E+04  0.18955909828E+04 0.  0.
        4    1    3    3  502    0 -0.35615754621E+01 -0.10578368653E+03  0.80162325233E+03  0.80858167475E+03  0.12699999809E+01 0.  1.
       -4    1    3    3    0  502  0.35615754621E+01  0.10578368653E+03 -0.11062832590E+04  0.11113357437E+04  0.12699999809E+01 0. -1.
</event>
<event>
 5   0  0.3144958E-05  0.1862597E+04  0.7818609E-02  0.8673702E-01
        1   -1    0    0  501    0  0.00000000000E+00  0.00000000000E+00  0.78900976437E+03  0.78900976438E+03  0.50400001928E-02 0. -1.
       -1   -1    0    0    0  501  0.00000000000E+00  0.00000000000E+00 -0.10992472252E+04  0.10992472252E+04  0.50400001928E-02 0.  1.
    10030    2    1    2    0    0  0.00000000000E+00  0.00000000000E+00 -0.31023746085E+03  0.18882569896E+04  0.18625968906E+04 0.  0.
        4    1    3    3  502    0  0.41491767609E+03  0.34842554093E+03  0.61278479167E+03  0.81796323225E+03  0.12699999809E+01 0. -1.
       -4    1    3    3    0  502 -0.41491767609E+03 -0.34842554093E+03 -0.92302225252E+03  0.10702937574E+04  0.12699999809E+01 0.  1.
</event>
<event>
 5   0  0.6395992E-05  0.1904517E+04  0.7818609E-02  0.8652611E-01
        2   -1    0    0  501    0  0.00000000000E+00  0.00000000000E+00  0.20545665772E+04  0.20545665772E+04  0.25500000920E-02 0.  1.
       -2   -1    0    0    0  501  0.00000000000E+00  0.00000000000E+00 -0.44135633203E+03  0.44135633204E+03  0.25500000920E-02 0. -1.
    10030    2    1    2    0    0  0.00000000000E+00  0.00000000000E+00  0.16132102451E+04  0.24959229092E+04  0.19045167034E+04 0.  0.
        4    1    3    3  502    0  0.12023626036E+03  0.10315402354E+03  0.20371742764E+04  0.20433252694E+04  0.12699999809E+01 0.  1.
       -4    1    3    3    0  502 -0.12023626036E+03 -0.10315402354E+03 -0.42396403130E+03  0.45259763986E+03  0.12699999809E+01 0. -1.
</event>
<event>
 5   0  0.3086139E-05  0.1896864E+04  0.7818609E-02  0.8656419E-01
       -1   -1    0    0    0  501  0.00000000000E+00  0.00000000000E+00  0.63204386314E+03  0.63204386316E+03  0.50400001928E-02 0.  1.
        1   -1    0    0  501    0  0.00000000000E+00  0.00000000000E+00 -0.14231981319E+04  0.14231981319E+04  0.50400001928E-02 0. -1.
    10030    2    1    2    0    0  0.00000000000E+00  0.00000000000E+00 -0.79115426875E+03  0.20552419951E+04  0.18968644077E+04 0.  0.
        2    1    3    3  502    0 -0.66916566718E+03 -0.10035428826E+03 -0.11156486219E+04  0.13048086146E+04  0.25500000920E-02 0.  1.
       -2    1    3    3    0  502  0.66916566718E+03  0.10035428826E+03  0.32449435310E+03  0.75043338046E+03  0.25500000920E-02 0. -1.
</event>
<event>
 5   0  0.6361762E-05  0.1900830E+04  0.7818609E-02  0.8654444E-01
       -2   -1    0    0    0  501  0.00000000000E+00  0.00000000000E+00  0.45826173547E+03  0.45826173548E+03  0.25500000920E-02 0. -1.
        2   -1    0    0  501    0  0.00000000000E+00  0.00000000000E+00 -0.19711185457E+04  0.19711185457E+04  0.25500000920E-02 0.  1.
    10030    2    1    2    0    0  0.00000000000E+00  0.00000000000E+00 -0.15128568102E+04  0.24293802812E+04  0.19008295090E+04 0.  0.
        1    1    3    3  502    0 -0.91670308585E+03 -0.80605511452E+02 -0.45278035434E+03  0.10255982866E+04  0.50400001928E-02 0. -1.
       -1    1    3    3    0  502  0.91670308585E+03  0.80605511452E+02 -0.10600764559E+04  0.14037819946E+04  0.50400001928E-02 0.  1.
</event>
<event>
 5   0  0.3083469E-05  0.1896474E+04  0.7818609E-02  0.8656614E-01
        1   -1    0    0  501    0  0.00000000000E+00  0.00000000000E+00  0.15797074390E+04  0.15797074390E+04  0.50400001928E-02 0.  1.
       -1   -1    0    0    0  501  0.00000000000E+00  0.00000000000E+00 -0.56918969348E+03  0.56918969351E+03  0.50400001928E-02 0. -1.
    10030    2    1    2    0    0  0.00000000000E+00  0.00000000000E+00  0.10105177455E+04  0.21488971325E+04  0.18964737731E+04 0.  0.
        3    1    3    3  502    0 -0.61844014214E+03  0.57294213613E+03  0.99711140877E+03  0.13057419624E+04  0.10100000352E+00 0.  1.
       -3    1    3    3    0  502  0.61844014214E+03 -0.57294213613E+03  0.13406336745E+02  0.84315517008E+03  0.10100000352E+00 0. -1.
</event>
<event>
 5   0  0.3203527E-05  0.1894729E+04  0.7818609E-02  0.8657484E-01
       -1   -1    0    0    0  501  0.00000000000E+00  0.00000000000E+00  0.71182288505E+03  0.71182288507E+03  0.50400001928E-02 0.  1.
        1   -1    0    0  501    0  0.00000000000E+00  0.00000000000E+00 -0.12608468133E+04  0.12608468133E+04  0.50400001928E-02 0. -1.
    10030    2    1    2    0    0  0.00000000000E+00  0.00000000000E+00 -0.54902392825E+03  0.19726696984E+04  0.18947291271E+04 0.  0.
        1    1    3    3  502    0  0.85225373925E+03 -0.12197726384E+03 -0.68610262484E+03  0.11008867793E+04  0.50400001928E-02 0. -1.
       -1    1    3    3    0  502 -0.85225373925E+03  0.12197726384E+03  0.13707869659E+03  0.87178291910E+03  0.50400001928E-02 0.  1.
</event>
<event>
 5   0  0.3083469E-05  0.1900472E+04  0.7818609E-02  0.8654621E-01
        1   -1    0    0  501    0  0.00000000000E+00  0.00000000000E+00  0.14600437067E+04  0.14600437067E+04  0.50400001928E-02 0.  1.
       -1   -1    0    0    0  501  0.00000000000E+00  0.00000000000E+00 -0.61843944898E+03  0.61843944900E+03  0.50400001928E-02 0. -1.
    10030    2    1    2    0    0  0.00000000000E+00  0.00000000000E+00  0.84160425768E+03  0.20784831557E+04  0.19004721787E+04 0.  0.
        3    1    3    3  502    0  0.65099726285E+03 -0.49991657639E+03 -0.10282853821E+03  0.82721686278E+03  0.10100000352E+00 0. -1.
       -3    1    3    3    0  502 -0.65099726285E+03  0.49991657639E+03  0.94443279589E+03  0.12512662929E+04  0.10100000352E+00 0.  1.
</event>
<event>
 5   0  0.6452182E-05  0.1901594E+04  0.7818609E-02  0.8654063E-01
        2   -1    0    0  501    0  0.00000000000E+00  0.00000000000E+00  0.78482608264E+03  0.78482608265E+03  0.25500000920E-02 0.  1.
       -2   -1    0    0    0  501  0.00000000000E+00  0.00000000000E+00 -0.11518669119E+04  0.11518669119E+04  0.25500000920E-02 0. -1.
    10030    2    1    2    0    0  0.00000000000E+00  0.00000000000E+00 -0.36704082927E+03  0.19366929946E+04  0.19015942745E+04 0.  0.
        3    1    3    3  502    0 -0.73891546806E+03 -0.44669681223E+02  0.42417001600E+03  0.85317739189E+03  0.10100000352E+00 0.  1.
       -3    1    3    3    0  502  0.73891546806E+03  0.44669681223E+02 -0.79121084527E+03  0.10835156027E+04  0.10100000352E+00 0. -1.
</event>
<event>
 5   0  0.6423388E-05  0.1898754E+04  0.7818609E-02  0.8655477E-01
        2   -1    0    0  501    0  0.00000000000E+00  0.00000000000E+00  0.86134014774E+03  0.86134014775E+03  0.25500000920E-02 0.  1.
       -2   -1    0    0    0  501  0.00000000000E+00  0.00000000000E+00 -0.10464121227E+04  0.10464121227E+04  0.25500000920E-02 0. -1.
    10030    2    1    2    0    0  0.00000000000E+00  0.00000000000E+00 -0.18507197500E+03  0.19077522705E+04  0.18987540888E+04 0.  0.
        2    1    3    3  502    0  0.15664022744E+03 -0.40327872116E+03 -0.94161289607E+03  0.10362454988E+04  0.25500000920E-02 0. -1.
       -2    1    3    3    0  502 -0.15664022744E+03  0.40327872116E+03  0.75654092107E+03  0.87150677166E+03  0.25500000920E-02 0.  1.
</event>
<event>
 5   0  0.3144958E-05  0.1904617E+04  0.7818609E-02  0.8652562E-01
        1   -1    0    0  501    0  0.00000000000E+00  0.00000000000E+00  0.12856299204E+04  0.12856299204E+04  0.50400001928E-02 0.  1.
       -1   -1    0    0    0  501  0.00000000000E+00  0.00000000000E+00 -0.70540636215E+03  0.70540636217E+03  0.50400001928E-02 0. -1.
    10030    2    1    2    0    0  0.00000000000E+00  0.00000000000E+00  0.58022355821E+03  0.19910362825E+04  0.19046170484E+04 0.  0.
        4    1    3    3  502    0  0.73222251612E+03  0.49480034488E+03  0.66105403270E+03  0.11036173438E+04  0.12699999809E+01 0.  1.
       -4    1    3    3    0  502 -0.73222251612E+03 -0.49480034488E+03 -0.80830474494E+02  0.88741893878E+03  0.12699999809E+01 0. -1.
</event>
<event>
 5   0  0.6361762E-05  0.1889788E+04  0.7818609E-02  0.8659956E-01
        2   -1    0    0  501    0  0.00000000000E+00  0.00000000000E+00  0.13245488237E+04  0.13245488237E+04  0.25500000920E-02 0.  1.
       -2   -1    0    0    0  501  0.00000000000E+00  0.00000000000E+00 -0.67405971151E+03  0.67405971151E+03  0.25500000920E-02 0. -1.
    10030    2    1    2    0    0  0.00000000000E+00  0.00000000000E+00  0.65048911215E+03  0.19986085352E+04  0.18897883458E+04 0.  0.
        1    1    3    3  502    0  0.11372539611E+03  0.68907401312E+03 -0.34785426035E+03  0.78023012486E+03  0.50400001928E-02 0. -1.
       -1    1    3    3    0  502 -0.11372539611E+03 -0.68907401312E+03  0.99834337250E+03  0.12183784103E+04  0.50400001928E-02 0.  1.
</event>
<event>
 5   0  0.6098377E-05  0.1940309E+04  0.7818609E-02  0.8635048E-01
       -2   -1    0    0    0  501  0.00000000000E+00  0.00000000000E+00  0.14157282635E+04  0.14157282635E+04  0.25500000920E-02 0. -1.
        2   -1    0    0  501    0  0.00000000000E+00  0.00000000000E+00 -0.66481680611E+03  0.66481680611E+03  0.25500000920E-02 0.  1.
    10030    2    1    2    0    0  0.00000000000E+00  0.00000000000E+00  0.75091145736E+03  0.20805450696E+04  0.19403091944E+04 0.  0.
        5    1    3    3  502    0  0.91503656828E+00  0.75369513003E+03 -0.27952849354E+03  0.80387527330E+03  0.46999998093E+01 0.  1.
       -5    1    3    3    0  502 -0.91503656828E+00 -0.75369513003E+03  0.10304399509E+04  0.12766697963E+04  0.46999998093E+01 0. -1.
</event>
<event>
 5   0  0.3144958E-05  0.1900328E+04  0.7818609E-02  0.8654693E-01
        1   -1    0    0  501    0  0.00000000000E+00  0.00000000000E+00  0.63059196610E+03  0.63059196612E+03  0.50400001928E-02 0.  1.
       -1   -1    0    0    0  501  0.00000000000E+00  0.00000000000E+00 -0.14316893200E+04  0.14316893200E+04  0.50400001928E-02 0. -1.
    10030    2    1    2    0    0  0.00000000000E+00  0.00000000000E+00 -0.80109735390E+03  0.20622812861E+04  0.19003281645E+04 0.  0.
        4    1    3    3  502    0 -0.62325592776E+03  0.13163714157E+03  0.36454091357E+03  0.73394003780E+03  0.12699999809E+01 0.  1.
       -4    1    3    3    0  502  0.62325592776E+03 -0.13163714157E+03 -0.11656382675E+04  0.13283412483E+04  0.12699999809E+01 0. -1.
</event>
<event>
 5   0  0.6361762E-05  0.1893532E+04  0.7818609E-02  0.8658083E-01
       -2   -1    0    0    0  501  0.00000000000E+00  0.00000000000E+00  0.80340642476E+03  0.80340642476E+03  0.25500000920E-02 0. -1.
        2   -1    0    0  501    0  0.00000000000E+00  0.00000000000E+00 -0.11157062002E+04  0.11157062002E+04  0.25500000920E-02 0.  1.
    10030    2    1    2    0    0  0.00000000000E+00  0.00000000000E+00 -0.31229977539E+03  0.19191126249E+04  0.18935316521E+04 0.  0.
        1    1    3    3  502    0 -0.76194395771E+03  0.68770283464E+02  0.40912833043E+03  0.86756782868E+03  0.50400001928E-02 0. -1.
       -1    1    3    3    0  502  0.76194395771E+03 -0.68770283464E+02 -0.72142810582E+03  0.10515447962E+04  0.50400001928E-02 0.  1.
</event>
<event>
 5   0  0.3203527E-05  0.1913114E+04  0.7818609E-02  0.8648356E-01
        1   -1    0    0  501    0  0.00000000000E+00  0.00000000000E+00  0.10992225121E+04  0.10992225121E+04  0.50400001928E-02 0.  1.
       -1   -1    0    0    0  501  0.00000000000E+00  0.00000000000E+00 -0.83240756031E+03  0.83240756033E+03  0.50400001928E-02 0. -1.
    10030    2    1    2    0    0  0.00000000000E+00  0.00000000000E+00  0.26681495179E+03  0.19316300724E+04  0.19131138278E+04 0.  0.
        1    1    3    3  502    0 -0.17832009837E+03 -0.22417118276E+03  0.10549018870E+04  0.10931005296E+04  0.50400001928E-02 0.  1.
       -1    1    3    3    0  502  0.17832009837E+03  0.22417118276E+03 -0.78808693522E+03  0.83852954280E+03  0.50400001928E-02 0. -1.
</event>
<event>
 5   0  0.6361762E-05  0.1896631E+04  0.7818609E-02  0.8656535E-01
        2   -1    0    0  501    0  0.00000000000E+00  0.00000000000E+00  0.14341577345E+04  0.14341577345E+04  0.25500000920E-02 0. -1.
       -2   -1    0    0    0  501  0.00000000000E+00  0.00000000000E+00 -0.62705960871E+03  0.62705960871E+03  0.25500000920E-02 0.  1.
    10030    2    1    2    0    0  0.00000000000E+00  0.00000000000E+00  0.80709812580E+03  0.20612173432E+04  0.18966311058E+04 0.  0.
        1    1    3    3  502    0  0.42391588839E+02  0.29684765525E+03  0.13812791520E+04  0.14134523950E+04  0.50400001928E-02 0. -1.
       -1    1    3    3    0  502 -0.42391588839E+02 -0.29684765525E+03 -0.57418102620E+03  0.64776494819E+03  0.50400001928E-02 0.  1.
</event>
<event>
 5   0  0.3144958E-05  0.1897767E+04  0.7818609E-02  0.8655969E-01
        1   -1    0    0  501    0  0.00000000000E+00  0.00000000000E+00  0.62698937189E+03  0.62698937191E+03  0.50400001928E-02 0. -1.
       -1   -1    0    0    0  501  0.00000000000E+00  0.00000000000E+00 -0.14360371991E+04  0.14360371991E+04  0.50400001928E-02 0.  1.
    10030    2    1    2    0    0  0.00000000000E+00  0.00000000000E+00 -0.80904782720E+03  0.20630265710E+04  0.18977671738E+04 0.  0.
        4    1    3    3  502    0  0.20026778158E+03 -0.79536317273E+03  0.11417285625E+03  0.82809831232E+03  0.12699999809E+01 0. -1.
       -4    1    3    3    0  502 -0.20026778158E+03  0.79536317273E+03 -0.92322068344E+03  0.12349282587E+04  0.12699999809E+01 0.  1.
</event>
<event>
 5   0  0.6423388E-05  0.1897352E+04  0.7818609E-02  0.8656176E-01
        2   -1    0    0  501    0  0.00000000000E+00  0.00000000000E+00  0.19643099537E+04  0.19643099537E+04  0.25500000920E-02 0.  1.
       -2   -1    0    0    0  501  0.00000000000E+00  0.00000000000E+00 -0.45816906551E+03  0.45816906552E+03  0.25500000920E-02 0. -1.
    10030    2    1    2    0    0  0.00000000000E+00  0.00000000000E+00  0.15061408882E+04  0.24224790192E+04  0.18973518976E+04 0.  0.
        2    1    3    3  502    0  0.36680120044E+02  0.94515278666E+03  0.65988528713E+03  0.11533030016E+04  0.25500000920E-02 0.  1.
       -2    1    3    3    0  502 -0.36680120044E+02 -0.94515278666E+03  0.84625560105E+03  0.12691760176E+04  0.25500000920E-02 0. -1.
</event>
<event>
 5   0  0.6423388E-05  0.1895830E+04  0.7818609E-02  0.8656935E-01
       -2   -1    0    0    0  501  0.00000000000E+00  0.00000000000E+00  0.64100456555E+03  0.64100456555E+03  0.25500000920E-02 0. -1.
        2   -1    0    0  501    0  0.00000000000E+00  0.00000000000E+00 -0.14017733390E+04  0.14017733390E+04  0.25500000920E-02 0.  1.
    10030    2    1    2    0    0  0.00000000000E+00  0.00000000000E+00 -0.76076877343E+03  0.20427779045E+04  0.18958302774E+04 0.  0.
        2    1    3    3  502    0  0.48895914221E+03 -0.64804714555E+03 -0.90770130280E+03  0.12177716538E+04  0.25500000920E-02 0.  1.
       -2    1    3    3    0  502 -0.48895914221E+03  0.64804714555E+03  0.14693252937E+03  0.82500625077E+03  0.25500000920E-02 0. -1.
</event>
<event>
 5   0  0.3144958E-05  0.1892614E+04  0.7818609E-02  0.8658542E-01
        1   -1    0    0  501    0  0.00000000000E+00  0.00000000000E+00  0.88396371266E+03  0.88396371267E+03  0.50400001928E-02 0.  1.
       -1   -1    0    0    0  501  0.00000000000E+00  0.00000000000E+00 -0.10130471798E+04  0.10130471798E+04  0.50400001928E-02 0. -1.
    10030    2    1    2    0    0  0.00000000000E+00  0.00000000000E+00 -0.12908346713E+03  0.18970108925E+04  0.18926140084E+04 0.  0.
        4    1    3    3  502    0  0.49346290481E+03 -0.68257464543E+03  0.36783212625E+03  0.91908425675E+03  0.12699999809E+01 0. -1.
       -4    1    3    3    0  502 -0.49346290481E+03  0.68257464543E+03 -0.49691559338E+03  0.97792663572E+03  0.12699999809E+01 0.  1.
</event>
<event>
 5   0  0.3147063E-05  0.1903050E+04  0.7818609E-02  0.8653340E-01
        1   -1    0    0  501    0  0.00000000000E+00  0.00000000000E+00  0.23366032475E+04  0.23366032475E+04  0.50400001928E-02 0.  1.
       -1   -1    0    0    0  501  0.00000000000E+00  0.00000000000E+00 -0.38748534384E+03  0.38748534387E+03  0.50400001928E-02 0. -1.
    10030    2    1    2    0    0  0.00000000000E+00  0.00000000000E+00  0.19491179037E+04  0.27240885914E+04  0.19030496713E+04 0.  0.
        5    1    3    3  502    0 -0.65768996729E+03  0.59160396978E+03  0.47289096705E+03  0.10030948643E+04  0.46999998093E+01 0. -1.
       -5    1    3    3    0  502  0.65768996729E+03 -0.59160396978E+03  0.14762269367E+04  0.17209937271E+04  0.46999998093E+01 0.  1.
</event>
<event>
 5   0  0.3086139E-05  0.1898438E+04  0.7818609E-02  0.8655634E-01
        1   -1    0    0  501    0  0.00000000000E+00  0.00000000000E+00  0.98387463060E+03  0.98387463061E+03  0.50400001928E-02 0. -1.
       -1   -1    0    0    0  501  0.00000000000E+00  0.00000000000E+00 -0.91578371376E+03  0.91578371377E+03  0.50400001928E-02 0.  1.
    10030    2    1    2    0    0  0.00000000000E+00  0.00000000000E+00  0.68090916835E+02  0.18996583444E+04  0.18984376346E+04 0.  0.
        2    1    3    3  502    0  0.30483001505E+03  0.43550919276E+03  0.82095226989E+03  0.97803487898E+03  0.25500000920E-02 0. -1.
       -2    1    3    3    0  502 -0.30483001505E+03 -0.43550919276E+03 -0.75286135305E+03  0.92162346540E+03  0.25500000920E-02 0.  1.
</event>
<event>
 5   0  0.6452182E-05  0.1897769E+04  0.7818609E-02  0.8655968E-01
       -2   -1    0    0    0  501  0.00000000000E+00  0.00000000000E+00  0.67396496293E+03  0.67396496294E+03  0.25500000920E-02 0.  1.
        2   -1    0    0  501    0  0.00000000000E+00  0.00000000000E+00 -0.13359477983E+04  0.13359477983E+04  0.25500000920E-02 0. -1.
    10030    2    1    2    0    0  0.00000000000E+00  0.00000000000E+00 -0.66198283536E+03  0.20099127612E+04  0.18977692256E+04 0.  0.
        3    1    3    3  502    0  0.57611323059E+03 -0.69136993475E+03 -0.64957081059E+03  0.11098833674E+04  0.10100000352E+00 0. -1.
       -3    1    3    3    0  502 -0.57611323059E+03  0.69136993475E+03 -0.12412024770E+02  0.90002939380E+03  0.10100000352E+00 0.  1.
</event>
<event>
 5   0  0.3086139E-05  0.1856215E+04  0.7818609E-02  0.8676963E-01
        1   -1    0    0  501    0  0.00000000000E+00  0.00000000000E+00  0.17906274080E+04  0.17906274080E+04  0.50400001928E-02 0. -1.
       -1   -1    0    0    0  501  0.00000000000E+00  0.00000000000E+00 -0.48105126408E+03  0.48105126411E+03  0.50400001928E-02 0.  1.
    10030    2    1    2    0    0  0.00000000000E+00  0.00000000000E+00  0.13095761439E+04  0.22716786721E+04  0.18562150502E+04 0.  0.
        2    1    3    3  502    0 -0.20536390982E+03  0.68904576463E+03 -0.63446086890E+02  0.72179208029E+03  0.25500000920E-02 0.  1.
       -2    1    3    3    0  502  0.20536390982E+03 -0.68904576463E+03  0.13730222308E+04  0.15498865918E+04  0.25500000920E-02 0. -1.
</event>
<event>
 5   0  0.3203527E-05  0.1912296E+04  0.7818609E-02  0.8648760E-01
        1   -1    0    0  501    0  0.00000000000E+00  0.00000000000E+00  0.13902079264E+04  0.13902079264E+04  0.50400001928E-02 0. -1.
       -1   -1    0    0    0  501  0.00000000000E+00  0.00000000000E+00 -0.65761308994E+03  0.65761308996E+03  0.50400001928E-02 0.  1.
    10030    2    1    2    0    0  0.00000000000E+00  0.00000000000E+00  0.73259483649E+03  0.20478210164E+04  0.19122959292E+04 0.  0.
        1    1    3    3  502    0 -0.70687564904E+03  0.48647552031E+03 -0.85360247179E+02  0.86233287476E+03  0.50400001928E-02 0.  1.
       -1    1    3    3    0  502  0.70687564904E+03 -0.48647552031E+03  0.81795508367E+03  0.11854881416E+04  0.50400001928E-02 0. -1.
</event>
<event>
 5   0  0.6361762E-05  0.1897481E+04  0.7818609E-02  0.8656111E-01
       -2   -1    0    0    0  501  0.00000000000E+00  0.00000000000E+00  0.59826591010E+03  0.59826591011E+03  0.25500000920E-02 0.  1.
        2   -1    0    0  501    0  0.00000000000E+00  0.00000000000E+00 -0.15045291046E+04  0.15045291046E+04  0.25500000920E-02 0. -1.
    10030    2    1    2    0    0  0.00000000000E+00  0.00000000000E+00 -0.90626319450E+03  0.21027950147E+04  0.18974809343E+04 0.  0.
        1    1    3    3  502    0 -0.13386740799E+03 -0.11599578876E+02  0.58766764439E+03  0.60283355368E+03  0.50400001928E-02 0.  1.
       -1    1    3    3    0  502  0.13386740799E+03  0.11599578876E+02 -0.14939308389E+04  0.14999614610E+04  0.50400001928E-02 0. -1.
</event>
<event>
 5   0  0.2279625E-05  0.1900497E+04  0.7818609E-02  0.8654609E-01
        3   -1    0    0  501    0  0.00000000000E+00  0.00000000000E+00  0.24634793075E+04  0.24634793095E+04  0.10100000352E+00 0. -1.
       -3   -1    0    0    0  501  0.00000000000E+00  0.00000000000E+00 -0.36654328834E+03  0.36654330225E+03  0.10100000352E+00 0.  1.
    10030    2    1    2    0    0  0.00000000000E+00  0.00000000000E+00  0.20969360191E+04  0.28300226118E+04  0.19004965969E+04 0.  0.
        2    1    3    3  502    0  0.68107094212E+03 -0.21044661637E+03  0.19841449219E+04  0.21083112857E+04  0.25500000920E-02 0. -1.
       -2    1    3    3    0  502 -0.68107094212E+03  0.21044661637E+03  0.11279109725E+03  0.72171132606E+03  0.25500000920E-02 0.  1.
</event>
<event>
 5   0  0.3147063E-05  0.1862411E+04  0.7818609E-02  0.8673796E-01
       -1   -1    0    0    0  501  0.00000000000E+00  0.00000000000E+00  0.69800097534E+03  0.69800097536E+03  0.50400001928E-02 0. -1.
        1   -1    0    0  501    0  0.00000000000E+00  0.00000000000E+00 -0.12423245088E+04  0.12423245088E+04  0.50400001928E-02 0.  1.
    10030    2    1    2    0    0  0.00000000000E+00  0.00000000000E+00 -0.54432353345E+03  0.19403254842E+04  0.18624110383E+04 0.  0.
        5    1    3    3  502    0 -0.39224720507E+03 -0.12774568600E+03 -0.11419193849E+04  0.12141576511E+04  0.46999998093E+01 0.  1.
       -5    1    3    3    0  502  0.39224720507E+03  0.12774568600E+03  0.59759585141E+03  0.72616783308E+03  0.46999998093E+01 0. -1.
</event>
<event>
 5   0  0.6423388E-05  0.1900741E+04  0.7818609E-02  0.8654487E-01
        2   -1    0    0  501    0  0.00000000000E+00  0.00000000000E+00  0.10582130121E+04  0.10582130121E+04  0.25500000920E-02 0. -1.
       -2   -1    0    0    0  501  0.00000000000E+00  0.00000000000E+00 -0.85351849361E+03  0.85351849361E+03  0.25500000920E-02 0.  1.
    10030    2    1    2    0    0  0.00000000000E+00  0.00000000000E+00  0.20469451852E+03  0.19117315057E+04  0.19007413038E+04 0.  0.
        2    1    3    3  502    0  0.29746903470E+03 -0.85288915605E+03 -0.19482115153E+03  0.92404708765E+03  0.25500000920E-02 0.  1.
       -2    1    3    3    0  502 -0.29746903470E+03  0.85288915605E+03  0.39951567005E+03  0.98768441809E+03  0.25500000920E-02 0. -1.
</event>
<event>
 5   0  0.6423388E-05  0.1938666E+04  0.7818609E-02  0.8635846E-01
        2   -1    0    0  501    0  0.00000000000E+00  0.00000000000E+00  0.10118816072E+04  0.10118816072E+04  0.25500000920E-02 0.  1.
       -2   -1    0    0    0  501  0.00000000000E+00  0.00000000000E+00 -0.92857331980E+03  0.92857331980E+03  0.25500000920E-02 0. -1.
    10030    2    1    2    0    0  0.00000000000E+00  0.00000000000E+00  0.83308287391E+02  0.19404549270E+04  0.19386657920E+04 0.  0.
        2    1    3    3  502    0  0.88372447408E+03 -0.70054273762E+02 -0.35079151068E+03  0.95337884985E+03  0.25500000920E-02 0. -1.
       -2    1    3    3    0  502 -0.88372447408E+03  0.70054273762E+02  0.43409979807E+03  0.98707607714E+03  0.25500000920E-02 0.  1.
</event>
<event>
 5   0  0.3083469E-05  0.1975896E+04  0.7818609E-02  0.8617974E-01
        1   -1    0    0  501    0  0.00000000000E+00  0.00000000000E+00  0.92229536216E+03  0.92229536218E+03  0.50400001928E-02 0.  1.
       -1   -1    0    0    0  501  0.00000000000E+00  0.00000000000E+00 -0.10582738911E+04  0.10582738911E+04  0.50400001928E-02 0. -1.
    10030    2    1    2    0    0  0.00000000000E+00  0.00000000000E+00 -0.13597852896E+03  0.19805692533E+04  0.19758958492E+04 0.  0.
        3    1    3    3  502    0  0.40052740828E+02 -0.95137248691E+03  0.19593420015E+03  0.97216462180E+03  0.10100000352E+00 0.  1.
       -3    1    3    3    0  502 -0.40052740828E+02  0.95137248691E+03 -0.33191272910E+03  0.10084046315E+04  0.10100000352E+00 0. -1.
</event>
<event>
 5   0  0.6098377E-05  0.1908024E+04  0.7818609E-02  0.8650873E-01
        2   -1    0    0  501    0  0.00000000000E+00  0.00000000000E+00  0.14842655978E+04  0.14842655978E+04  0.25500000920E-02 0. -1.
       -2   -1    0    0    0  501  0.00000000000E+00  0.00000000000E+00 -0.61319140004E+03  0.61319140005E+03  0.25500000920E-02 0.  1.
    10030    2    1    2    0    0  0.00000000000E+00  0.00000000000E+00  0.87107419779E+03  0.20974569979E+04  0.19080240040E+04 0.  0.
        5    1    3    3  502    0 -0.81123702383E+03 -0.39266270750E+03  0.77936353346E+03  0.11915196675E+04  0.46999998093E+01 0. -1.
       -5    1    3    3    0  502  0.81123702383E+03  0.39266270750E+03  0.91710664334E+02  0.90593733042E+03  0.46999998093E+01 0.  1.
</event>
<event>
 5   0  0.3144958E-05  0.1925920E+04  0.7818609E-02  0.8642061E-01
       -1   -1    0    0    0  501  0.00000000000E+00  0.00000000000E+00  0.89651762440E+03  0.89651762442E+03  0.50400001928E-02 0. -1.
        1   -1    0    0  501    0  0.00000000000E+00  0.00000000000E+00 -0.10343264597E+04  0.10343264597E+04  0.50400001928E-02 0.  1.
    10030    2    1    2    0    0  0.00000000000E+00  0.00000000000E+00 -0.13780883529E+03  0.19308440841E+04  0.19259199366E+04 0.  0.
        4    1    3    3  502    0  0.41180754086E+03 -0.42167396057E+03  0.69455155858E+03  0.91093241251E+03  0.12699999809E+01 0. -1.
       -4    1    3    3    0  502 -0.41180754086E+03  0.42167396057E+03 -0.83236039387E+03  0.10199116716E+04  0.12699999809E+01 0.  1.
</event>
<event>
 5   0  0.6423388E-05  0.1899988E+04  0.7818609E-02  0.8654862E-01
        2   -1    0    0  501    0  0.00000000000E+00  0.00000000000E+00  0.15670037574E+04  0.15670037574E+04  0.25500000920E-02 0.  1.
       -2   -1    0    0    0  501  0.00000000000E+00  0.00000000000E+00 -0.57593285517E+03  0.57593285517E+03  0.25500000920E-02 0. -1.
    10030    2    1    2    0    0  0.00000000000E+00  0.00000000000E+00  0.99107090225E+03  0.21429366126E+04  0.18999883664E+04 0.  0.
        2    1    3    3  502    0 -0.56579708867E+03  0.72077097224E+03  0.21277590812E+03  0.94069693688E+03  0.25500000920E-02 0. -1.
       -2    1    3    3    0  502  0.56579708867E+03 -0.72077097224E+03  0.77829499413E+03  0.12022396757E+04  0.25500000920E-02 0.  1.
</event>
<event>
 5   0  0.3147063E-05  0.1898923E+04  0.7818609E-02  0.8655393E-01
       -1   -1    0    0    0  501  0.00000000000E+00  0.00000000000E+00  0.71125694128E+03  0.71125694129E+03  0.50400001928E-02 0.  1.
        1   -1    0    0  501    0  0.00000000000E+00  0.00000000000E+00 -0.12674417963E+04  0.12674417963E+04  0.50400001928E-02 0. -1.
    10030    2    1    2    0    0  0.00000000000E+00  0.00000000000E+00 -0.55618485503E+03  0.19786987376E+04  0.18989226159E+04 0.  0.
        5    1    3    3  502    0 -0.33418957083E+03 -0.62832959183E+03 -0.93296474269E+03  0.11734249215E+04  0.46999998093E+01 0. -1.
       -5    1    3    3    0  502  0.33418957083E+03  0.62832959183E+03  0.37677988766E+03  0.80527381614E+03  0.46999998093E+01 0.  1.
</event>
<event>
 5   0  0.2279625E-05  0.1890137E+04  0.7818609E-02  0.8659782E-01
        3   -1    0    0  501    0  0.00000000000E+00  0.00000000000E+00  0.13721990410E+04  0.13721990447E+04  0.10100000352E+00 0.  1.
       -3   -1    0    0    0  501  0.00000000000E+00  0.00000000000E+00 -0.65089270047E+03  0.65089270830E+03  0.10100000352E+00 0. -1.
    10030    2    1    2    0    0  0.00000000000E+00  0.00000000000E+00  0.72130634050E+03  0.20230917530E+04  0.18901368745E+04 0.  0.
        2    1    3    3  502    0  0.31798744902E+03 -0.13537905696E+03  0.13021344020E+04  0.13472184336E+04  0.25500000920E-02 0.  1.
       -2    1    3    3    0  502 -0.31798744902E+03  0.13537905696E+03 -0.58082806154E+03  0.67587331940E+03  0.25500000920E-02 0. -1.
</event>
<event>
 5   0  0.3086139E-05  0.1917981E+04  0.7818609E-02  0.8645957E-01
       -1   -1    0    0    0  501  0.00000000000E+00  0.00000000000E+00  0.14712483657E+04  0.14712483657E+04  0.50400001928E-02 0.  1.
        1   -1    0    0  501    0  0.00000000000E+00  0.00000000000E+00 -0.62509021461E+03  0.62509021463E+03  0.50400001928E-02 0. -1.
    10030    2    1    2    0    0  0.00000000000E+00  0.00000000000E+00  0.84615815105E+03  0.20963385803E+04  0.19179811852E+04 0.  0.
        2    1    3    3  502    0 -0.71564341214E+03  0.35913106399E+03  0.99992880863E+03  0.12810067279E+04  0.25500000920E-02 0.  1.
       -2    1    3    3    0  502  0.71564341214E+03 -0.35913106399E+03 -0.15377065758E+03  0.81533185244E+03  0.25500000920E-02 0. -1.
</event>
<event>
 5   0  0.3147063E-05  0.1910049E+04  0.7818609E-02  0.8649870E-01
       -1   -1    0    0    0  501  0.00000000000E+00  0.00000000000E+00  0.11304297815E+04  0.11304297816E+04  0.50400001928E-02 0. -1.
        1   -1    0    0  501    0  0.00000000000E+00  0.00000000000E+00 -0.80683658576E+03  0.80683658578E+03  0.50400001928E-02 0.  1.
    10030    2    1    2    0    0  0.00000000000E+00  0.00000000000E+00  0.32359319578E+03  0.19372663673E+04  0.19100493244E+04 0.  0.
        5    1    3    3  502    0 -0.30968420822E+03 -0.59606437809E+03 -0.52673828683E+03  0.85362308102E+03  0.46999998093E+01 0.  1.
       -5    1    3    3    0  502  0.30968420822E+03  0.59606437809E+03  0.85033148261E+03  0.10836432863E+04  0.46999998093E+01 0. -1.
</event>
<event>
 5   0  0.6423388E-05  0.1888869E+04  0.7818609E-02  0.8660417E-01
       -2   -1    0    0    0  501  0.00000000000E+00  0.00000000000E+00  0.50897530801E+03  0.50897530802E+03  0.25500000920E-02 0.  1.
        2   -1    0    0  501    0  0.00000000000E+00  0.00000000000E+00 -0.17524552450E+04  0.17524552450E+04  0.25500000920E-02 0. -1.
    10030    2    1    2    0    0  0.00000000000E+00  0.00000000000E+00 -0.12434799370E+04  0.22614305530E+04  0.18888689188E+04 0.  0.
        2    1    3    3  502    0 -0.94187088262E+03 -0.55309173146E+02 -0.67220311219E+03  0.11584631579E+04  0.25500000920E-02 0. -1.
       -2    1    3    3    0  502  0.94187088262E+03  0.55309173146E+02 -0.57127682482E+03  0.11029673951E+04  0.25500000920E-02 0.  1.
</event>
<event>
 5   0  0.6423388E-05  0.1900139E+04  0.7818609E-02  0.8654787E-01
        2   -1    0    0  501    0  0.00000000000E+00  0.00000000000E+00  0.93550469636E+03  0.93550469637E+03  0.25500000920E-02 0.  1.
       -2   -1    0    0    0  501  0.00000000000E+00  0.00000000000E+00 -0.96486074392E+03  0.96486074392E+03  0.25500000920E-02 0. -1.
    10030    2    1    2    0    0  0.00000000000E+00  0.00000000000E+00 -0.29356047558E+02  0.19003654403E+04  0.19001386868E+04 0.  0.
        2    1    3    3  502    0  0.89892812006E+03 -0.89138058917E+02 -0.30901638728E+03  0.95472953562E+03  0.25500000920E-02 0. -1.
       -2    1    3    3    0  502 -0.89892812006E+03  0.89138058917E+02  0.27966033972E+03  0.94563590467E+03  0.25500000920E-02 0.  1.
</event>
<event>
 5   0  0.3144958E-05  0.1908786E+04  0.7818609E-02  0.8650495E-01
       -1   -1    0    0    0  501  0.00000000000E+00  0.00000000000E+00  0.82551297136E+03  0.82551297138E+03  0.50400001928E-02 0.  1.
        1   -1    0    0  501    0  0.00000000000E+00  0.00000000000E+00 -0.11033937017E+04  0.11033937018E+04  0.50400001928E-02 0. -1.
    10030    2    1    2    0    0  0.00000000000E+00  0.00000000000E+00 -0.27788073038E+03  0.19289066731E+04  0.19087858060E+04 0.  0.
        4    1    3    3  502    0  0.59719162049E+03 -0.73067466067E+03 -0.28306532472E+03  0.98521616018E+03  0.12699999809E+01 0.  1.
       -4    1    3    3    0  502 -0.59719162049E+03  0.73067466067E+03  0.51845943332E+01  0.94369051296E+03  0.12699999809E+01 0. -1.
</event>
<event>
 5   0  0.6395992E-05  0.1896601E+04  0.7818609E-02  0.8656550E-01
        2   -1    0    0  501    0  0.00000000000E+00  0.00000000000E+00  0.11788817216E+04  0.11788817216E+04  0.25500000920E-02 0. -1.
       -2   -1    0    0    0  501  0.00000000000E+00  0.00000000000E+00 -0.76281961368E+03  0.76281961369E+03  0.25500000920E-02 0.  1.
    10030    2    1    2    0    0  0.00000000000E+00  0.00000000000E+00  0.41606210788E+03  0.19417013353E+04  0.18966012754E+04 0.  0.
        4    1    3    3  502    0 -0.80793382577E+03  0.47896711149E+03  0.74131329549E+02  0.94215902460E+03  0.12699999809E+01 0.  1.
       -4    1    3    3    0  502  0.80793382577E+03 -0.47896711149E+03  0.34193077833E+03  0.99954231065E+03  0.12699999809E+01 0. -1.
</event>
<event>
 5   0  0.2279625E-05  0.1896227E+04  0.7818609E-02  0.8656737E-01
        3   -1    0    0  501    0  0.00000000000E+00  0.00000000000E+00  0.22654750258E+04  0.22654750280E+04  0.10100000352E+00 0. -1.
       -3   -1    0    0    0  501  0.00000000000E+00  0.00000000000E+00 -0.39679078118E+03  0.39679079404E+03  0.10100000352E+00 0.  1.
    10030    2    1    2    0    0  0.00000000000E+00  0.00000000000E+00  0.18686842446E+04  0.26622658221E+04  0.18962274392E+04 0.  0.
        3    1    3    3  502    0 -0.64192360716E+02  0.68857003817E+03  0.18449510298E+04  0.19703029385E+04  0.10100000352E+00 0. -1.
       -3    1    3    3    0  502  0.64192360716E+02 -0.68857003817E+03  0.23733214796E+02  0.69196288363E+03  0.10100000352E+00 0.  1.
</event>
<event>
 5   0  0.2279625E-05  0.1902940E+04  0.7818609E-02  0.8653395E-01
        3   -1    0    0  501    0  0.00000000000E+00  0.00000000000E+00  0.74114701680E+03  0.74114702368E+03  0.10100000352E+00 0.  1.
       -3   -1    0    0    0  501  0.00000000000E+00  0.00000000000E+00 -0.12214778793E+04  0.12214778835E+04  0.10100000352E+00 0. -1.
    10030    2    1    2    0    0  0.00000000000E+00  0.00000000000E+00 -0.48033086255E+03  0.19626249072E+04  0.19029395127E+04 0.  0.
        2    1    3    3  502    0  0.34377381842E+03  0.42372130929E+03 -0.10440840651E+04  0.11780626983E+04  0.25500000920E-02 0. -1.
       -2    1    3    3    0  502 -0.34377381842E+03 -0.42372130929E+03  0.56375320256E+03  0.78456220887E+03  0.25500000920E-02 0.  1.
</event>
<event>
 5   0  0.3083469E-05  0.1897636E+04  0.7818609E-02  0.8656034E-01
        1   -1    0    0  501    0  0.00000000000E+00  0.00000000000E+00  0.84450338199E+03  0.84450338201E+03  0.50400001928E-02 0.  1.
       -1   -1    0    0    0  501  0.00000000000E+00  0.00000000000E+00 -0.10660174585E+04  0.10660174586E+04  0.50400001928E-02 0. -1.
    10030    2    1    2    0    0  0.00000000000E+00  0.00000000000E+00 -0.22151407655E+03  0.19105208406E+04  0.18976357385E+04 0.  0.
        3    1    3    3  502    0 -0.24290640310E+03  0.89163418724E+03  0.10573863605E+03  0.93015897236E+03  0.10100000352E+00 0.  1.
       -3    1    3    3    0  502  0.24290640310E+03 -0.89163418724E+03 -0.32725271260E+03  0.98036186820E+03  0.10100000352E+00 0. -1.
</event>
<event>
 5   0  0.6423388E-05  0.1872440E+04  0.7818609E-02  0.8668697E-01
        2   -1    0    0  501    0  0.00000000000E+00  0.00000000000E+00  0.85266924085E+03  0.85266924086E+03  0.25500000920E-02 0.  1.
       -2   -1    0    0    0  501  0.00000000000E+00  0.00000000000E+00 -0.10279581448E+04  0.10279581449E+04  0.25500000920E-02 0. -1.
    10030    2    1    2    0    0  0.00000000000E+00  0.00000000000E+00 -0.17528890399E+03  0.18806273857E+04  0.18724404300E+04 0.  0.
        2    1    3    3  502    0 -0.46533364618E+03 -0.80934377194E+03 -0.15820507657E+03  0.94689048454E+03  0.25500000920E-02 0.  1.
       -2    1    3    3    0  502  0.46533364618E+03  0.80934377194E+03 -0.17083827419E+02  0.93373690117E+03  0.25500000920E-02 0. -1.
</event>
<event>
 5   0  0.3203527E-05  0.1900607E+04  0.7818609E-02  0.8654554E-01
        1   -1    0    0  501    0  0.00000000000E+00  0.00000000000E+00  0.11119243301E+04  0.11119243301E+04  0.50400001928E-02 0. -1.
       -1   -1    0    0    0  501  0.00000000000E+00  0.00000000000E+00 -0.81217434089E+03  0.81217434091E+03  0.50400001928E-02 0.  1.
    10030    2    1    2    0    0  0.00000000000E+00  0.00000000000E+00  0.29974998921E+03  0.19240986710E+04  0.19006066505E+04 0.  0.
        1    1    3    3  502    0  0.89100422028E+02  0.40971649956E+03  0.10132170684E+04  0.10965469999E+04  0.50400001928E-02 0. -1.
       -1    1    3    3    0  502 -0.89100422028E+02 -0.40971649956E+03 -0.71346707922E+03  0.82755167112E+03  0.50400001928E-02 0.  1.
</event>
<event>
 5   0  0.6423388E-05  0.1900080E+04  0.7818609E-02  0.8654817E-01
        2   -1    0    0  501    0  0.00000000000E+00  0.00000000000E+00  0.16639350154E+04  0.16639350154E+04  0.25500000920E-02 0.  1.
       -2   -1    0    0    0  501  0.00000000000E+00  0.00000000000E+00 -0.54243456008E+03  0.54243456009E+03  0.25500000920E-02 0. -1.
    10030    2    1    2    0    0  0.00000000000E+00  0.00000000000E+00  0.11215004553E+04  0.22063695755E+04  0.19000798490E+04 0.  0.
        2    1    3    3  502    0  0.29657267721E+03  0.77286913916E+03  0.19460139613E+02  0.82804634905E+03  0.25500000920E-02 0. -1.
       -2    1    3    3    0  502 -0.29657267721E+03 -0.77286913916E+03  0.11020403157E+04  0.13783232265E+04  0.25500000920E-02 0.  1.
</event>
<event>
 5   0  0.6423388E-05  0.1909673E+04  0.7818609E-02  0.8650056E-01
       -2   -1    0    0    0  501  0.00000000000E+00  0.00000000000E+00  0.70736996261E+03  0.70736996261E+03  0.25500000920E-02 0. -1.
        2   -1    0    0  501    0  0.00000000000E+00  0.00000000000E+00 -0.12888771424E+04  0.12888771424E+04  0.25500000920E-02 0.  1.
    10030    2    1    2    0    0  0.00000000000E+00  0.00000000000E+00 -0.58150717977E+03  0.19962471050E+04  0.19096732454E+04 0.  0.
        2    1    3    3  502    0  0.36570921579E+03  0.68686248719E+03 -0.86918318114E+03  0.11666202078E+04  0.25500000920E-02 0.  1.
       -2    1    3    3    0  502 -0.36570921579E+03 -0.68686248719E+03  0.28767600136E+03  0.82962689722E+03  0.25500000920E-02 0. -1.
</event>
<event>
 5   0  0.3083469E-05  0.1896962E+04  0.7818609E-02  0.8656370E-01
        1   -1    0    0  501    0  0.00000000000E+00  0.00000000000E+00  0.90452242205E+03  0.90452242206E+03  0.50400001928E-02 0. -1.
       -1   -1    0    0    0  501  0.00000000000E+00  0.00000000000E+00 -0.99457600343E+03  0.99457600344E+03  0.50400001928E-02 0.  1.
    10030    2    1    2    0    0  0.00000000000E+00  0.00000000000E+00 -0.90053581382E+02  0.18990984255E+04  0.18969620930E+04 0.  0.
        3    1    3    3  502    0  0.29524739440E+03 -0.89580044694E+03 -0.14507341698E+03  0.95429333601E+03  0.10100000352E+00 0.  1.
       -3    1    3    3    0  502 -0.29524739440E+03  0.89580044694E+03  0.55019835595E+02  0.94480508950E+03  0.10100000352E+00 0. -1.
</event>
<event>
 5   0  0.3203527E-05  0.1898726E+04  0.7818609E-02  0.8655491E-01
        1   -1    0    0  501    0  0.00000000000E+00  0.00000000000E+00  0.87706919508E+03  0.87706919509E+03  0.50400001928E-02 0. -1.
       -1   -1    0    0    0  501  0.00000000000E+00  0.00000000000E+00 -0.10276156292E+04  0.10276156293E+04  0.50400001928E-02 0.  1.
    10030    2    1    2    0    0  0.00000000000E+00  0.00000000000E+00 -0.15054643417E+03  0.19046848243E+04  0.18987259021E+04 0.  0.
        1    1    3    3  502    0  0.29832270645E+03 -0.28458238674E+03 -0.93312161736E+03  0.10201468153E+04  0.50400001928E-02 0.  1.
       -1    1    3    3    0  502 -0.29832270645E+03  0.28458238674E+03  0.78257518319E+03  0.88453800902E+03  0.50400001928E-02 0. -1.
</event>
<event>
 5   0  0.3083469E-05  0.1897216E+04  0.7818609E-02  0.8656243E-01
       -1   -1    0    0    0  501  0.00000000000E+00  0.00000000000E+00  0.57451140044E+03  0.57451140046E+03  0.50400001928E-02 0.  1.
        1   -1    0    0  501    0  0.00000000000E+00  0.00000000000E+00 -0.15662996720E+04  0.15662996720E+04  0.50400001928E-02 0. -1.
    10030    2    1    2    0    0  0.00000000000E+00  0.00000000000E+00 -0.99178827156E+03  0.21408110725E+04  0.18972158740E+04 0.  0.
        3    1    3    3  502    0 -0.33712040783E+03 -0.71322378121E+03 -0.10903336907E+04  0.13457956378E+04  0.10100000352E+00 0. -1.
       -3    1    3    3    0  502  0.33712040783E+03  0.71322378121E+03  0.98545419174E+02  0.79501543463E+03  0.10100000352E+00 0.  1.
</event>
<event>
 5   0  0.2279625E-05  0.1891761E+04  0.7818609E-02  0.8658968E-01
        3   -1    0    0  501    0  0.00000000000E+00  0.00000000000E+00  0.56021693609E+03  0.56021694519E+03  0.10100000352E+00 0. -1.
       -3   -1    0    0    0  501  0.00000000000E+00  0.00000000000E+00 -0.15970417323E+04  0.15970417355E+04  0.10100000352E+00 0.  1.
    10030    2    1    2    0    0  0.00000000000E+00  0.00000000000E+00 -0.10368247962E+04  0.21572586807E+04  0.18917609144E+04 0.  0.
        1    1    3    3  502    0  0.40074289863E+03  0.56348922027E+03  0.21759555834E+03  0.72488812874E+03  0.50400001928E-02 0. -1.
       -1    1    3    3    0  502 -0.40074289863E+03 -0.56348922027E+03 -0.12544203546E+04  0.14323705520E+04  0.50400001928E-02 0.  1.
</event>
<event>
 5   0  0.3144958E-05  0.1892311E+04  0.7818609E-02  0.8658693E-01
        1   -1    0    0  501    0  0.00000000000E+00  0.00000000000E+00  0.10985514606E+04  0.10985514606E+04  0.50400001928E-02 0. -1.
       -1   -1    0    0    0  501  0.00000000000E+00  0.00000000000E+00 -0.81490019412E+03  0.81490019414E+03  0.50400001928E-02 0.  1.
    10030    2    1    2    0    0  0.00000000000E+00  0.00000000000E+00  0.28365126644E+03  0.19134516547E+04  0.18923105437E+04 0.  0.
        4    1    3    3  502    0 -0.51871291922E+02  0.94333082231E+03  0.19382499925E+03  0.96443424580E+03  0.12699999809E+01 0. -1.
       -4    1    3    3    0  502  0.51871291922E+02 -0.94333082231E+03  0.89826267187E+02  0.94901740891E+03  0.12699999809E+01 0.  1.
</event>
<event>
 5   0  0.3144958E-05  0.1896641E+04  0.7818609E-02  0.8656530E-01
        1   -1    0    0  501    0  0.00000000000E+00  0.00000000000E+00  0.10070580942E+04  0.10070580942E+04  0.50400001928E-02 0. -1.
       -1   -1    0    0    0  501  0.00000000000E+00  0.00000000000E+00 -0.89300898522E+03  0.89300898523E+03  0.50400001928E-02 0.  1.
    10030    2    1    2    0    0  0.00000000000E+00  0.00000000000E+00  0.11404910895E+03  0.19000670794E+04  0.18966411645E+04 0.  0.
        4    1    3    3  502    0 -0.47481940701E+03 -0.78541136049E+03  0.29617282036E+03  0.96438811009E+03  0.12699999809E+01 0. -1.
       -4    1    3    3    0  502  0.47481940701E+03  0.78541136049E+03 -0.18212371141E+03  0.93567896932E+03  0.12699999809E+01 0.  1.
</event>
<event>
 5   0  0.6361762E-05  0.1891018E+04  0.7818609E-02  0.8659340E-01
       -2   -1    0    0    0  501  0.00000000000E+00  0.00000000000E+00  0.59827147067E+03  0.59827147068E+03  0.25500000920E-02 0.  1.
        2   -1    0    0  501    0  0.00000000000E+00  0.00000000000E+00 -0.14942829611E+04  0.14942829611E+04  0.25500000920E-02 0. -1.
    10030    2    1    2    0    0  0.00000000000E+00  0.00000000000E+00 -0.89601149046E+03  0.20925544318E+04  0.18910175724E+04 0.  0.
        1    1    3    3  502    0 -0.28334416187E+02  0.84902828152E+03  0.11369879371E+02  0.84957703367E+03  0.50400001928E-02 0. -1.
       -1    1    3    3    0  502  0.28334416187E+02 -0.84902828152E+03 -0.90738136983E+03  0.12429773981E+04  0.50400001928E-02 0.  1.
</event>
<event>
 5   0  0.6452182E-05  0.1900722E+04  0.7818609E-02  0.8654497E-01
       -2   -1    0    0    0  501  0.00000000000E+00  0.00000000000E+00  0.79405133181E+03  0.79405133182E+03  0.25500000920E-02 0. -1.
        2   -1    0    0  501    0  0.00000000000E+00  0.00000000000E+00 -0.11374402074E+04  0.11374402074E+04  0.25500000920E-02 0.  1.
    10030    2    1    2    0    0  0.00000000000E+00  0.00000000000E+00 -0.34338887558E+03  0.19314915392E+04  0.19007218750E+04 0.  0.
        3    1    3    3  502    0  0.27316020896E+03  0.33754215752E+03  0.68735129566E+03  0.81302092329E+03  0.10100000352E+00 0. -1.
       -3    1    3    3    0  502 -0.27316020896E+03 -0.33754215752E+03 -0.10307401712E+04  0.11184706159E+04  0.10100000352E+00 0.  1.
</event>
<event>
 5   0  0.2279625E-05  0.1911030E+04  0.7818609E-02  0.8649385E-01
       -3   -1    0    0    0  501  0.00000000000E+00  0.00000000000E+00  0.70547461479E+03  0.70547462202E+03  0.10100000352E+00 0. -1.
        3   -1    0    0  501    0  0.00000000000E+00  0.00000000000E+00 -0.12941771477E+04  0.12941771516E+04  0.10100000352E+00 0.  1.
    10030    2    1    2    0    0  0.00000000000E+00  0.00000000000E+00 -0.58870253290E+03  0.19996517737E+04  0.19110302310E+04 0.  0.
        2    1    3    3  502    0 -0.51821674944E+03  0.77989426542E+03 -0.95195063558E+02  0.94119379767E+03  0.25500000920E-02 0. -1.
       -2    1    3    3    0  502  0.51821674944E+03 -0.77989426542E+03 -0.49350746934E+03  0.10584579760E+04  0.25500000920E-02 0.  1.
</event>
<event>
 5   0  0.6423388E-05  0.1916417E+04  0.7818609E-02  0.8646728E-01
       -2   -1    0    0    0  501  0.00000000000E+00  0.00000000000E+00  0.79443883463E+03  0.79443883463E+03  0.25500000920E-02 0.  1.
        2   -1    0    0  501    0  0.00000000000E+00  0.00000000000E+00 -0.11557383857E+04  0.11557383857E+04  0.25500000920E-02 0. -1.
    10030    2    1    2    0    0  0.00000000000E+00  0.00000000000E+00 -0.36129955107E+03  0.19501772203E+04  0.19164169236E+04 0.  0.
        2    1    3    3  502    0  0.50252703881E+03  0.72318795899E+03 -0.56496564350E+03  0.10462888832E+04  0.25500000920E-02 0. -1.
       -2    1    3    3    0  502 -0.50252703881E+03 -0.72318795899E+03  0.20366609244E+03  0.90388833712E+03  0.25500000920E-02 0.  1.
</event>
<event>
 5   0  0.6395992E-05  0.1892818E+04  0.7818609E-02  0.8658439E-01
       -2   -1    0    0    0  501  0.00000000000E+00  0.00000000000E+00  0.60330542255E+03  0.60330542256E+03  0.25500000920E-02 0.  1.
        2   -1    0    0  501    0  0.00000000000E+00  0.00000000000E+00 -0.14846380411E+04  0.14846380411E+04  0.25500000920E-02 0. -1.
    10030    2    1    2    0    0  0.00000000000E+00  0.00000000000E+00 -0.88133261858E+03  0.20879434637E+04  0.18928181960E+04 0.  0.
        4    1    3    3  502    0  0.93783396611E+02  0.36447303309E+03 -0.13985453444E+04  0.14482978321E+04  0.12699999809E+01 0. -1.
       -4    1    3    3    0  502 -0.93783396611E+02 -0.36447303309E+03  0.51721272581E+03  0.63964563156E+03  0.12699999809E+01 0.  1.
</event>
<event>
 5   0  0.3144958E-05  0.1901364E+04  0.7818609E-02  0.8654178E-01
        1   -1    0    0  501    0  0.00000000000E+00  0.00000000000E+00  0.19066742921E+04  0.19066742921E+04  0.50400001928E-02 0. -1.
       -1   -1    0    0    0  501  0.00000000000E+00  0.00000000000E+00 -0.47401719382E+03  0.47401719384E+03  0.50400001928E-02 0.  1.
    10030    2    1    2    0    0  0.00000000000E+00  0.00000000000E+00  0.14326570983E+04  0.23806914860E+04  0.19013641393E+04 0.  0.
        4    1    3    3  502    0  0.81891687093E+03  0.40295991871E+03  0.38318321413E+03  0.98986490294E+03  0.12699999809E+01 0.  1.
       -4    1    3    3    0  502 -0.81891687093E+03 -0.40295991871E+03  0.10494738842E+04  0.13908265830E+04  0.12699999809E+01 0. -1.
</event>
<event>
 5   0  0.6098377E-05  0.1898815E+04  0.7818609E-02  0.8655446E-01
        2   -1    0    0  501    0  0.00000000000E+00  0.00000000000E+00  0.26547013064E+04  0.26547013064E+04  0.25500000920E-02 0. -1.
       -2   -1    0    0    0  501  0.00000000000E+00  0.00000000000E+00 -0.33953903085E+03  0.33953903086E+03  0.25500000920E-02 0.  1.
    10030    2    1    2    0    0  0.00000000000E+00  0.00000000000E+00  0.23151622755E+04  0.29942403372E+04  0.18988151135E+04 0.  0.
        5    1    3    3  502    0 -0.76058495224E+03 -0.51394666780E+03  0.15397051175E+04  0.17925804266E+04  0.46999998093E+01 0. -1.
       -5    1    3    3    0  502  0.76058495224E+03  0.51394666780E+03  0.77545715797E+03  0.12016599106E+04  0.46999998093E+01 0.  1.
</event>
<event>
 5   0  0.6452182E-05  0.1945039E+04  0.7818609E-02  0.8632757E-01
        2   -1    0    0  501    0  0.00000000000E+00  0.00000000000E+00  0.76330128046E+03  0.76330128046E+03  0.25500000920E-02 0. -1.
       -2   -1    0    0    0  501  0.00000000000E+00  0.00000000000E+00 -0.12390841705E+04  0.12390841705E+04  0.25500000920E-02 0.  1.
    10030    2    1    2    0    0  0.00000000000E+00  0.00000000000E+00 -0.47578289003E+03  0.20023854510E+04  0.19450393661E+04 0.  0.
        3    1    3    3  502    0  0.22802653278E+03 -0.34851725421E+03 -0.11426275128E+04  0.12161652927E+04  0.10100000352E+00 0.  1.
       -3    1    3    3    0  502 -0.22802653278E+03  0.34851725421E+03  0.66684462272E+03  0.78622015822E+03  0.10100000352E+00 0. -1.
</event>
<event>
 5   0  0.3144958E-05  0.1900800E+04  0.7818609E-02  0.8654458E-01
        1   -1    0    0  501    0  0.00000000000E+00  0.00000000000E+00  0.12459757150E+04  0.12459757150E+04  0.50400001928E-02 0. -1.
       -1   -1    0    0    0  501  0.00000000000E+00  0.00000000000E+00 -0.72494204219E+03  0.72494204220E+03  0.50400001928E-02 0.  1.
    10030    2    1    2    0    0  0.00000000000E+00  0.00000000000E+00  0.52103367278E+03  0.19709177572E+04  0.19008000204E+04 0.  0.
        4    1    3    3  502    0 -0.46660007316E+03  0.82785403562E+03  0.24582979834E+03  0.98157619939E+03  0.12699999809E+01 0.  1.
       -4    1    3    3    0  502  0.46660007316E+03 -0.82785403562E+03  0.27520387445E+03  0.98934155779E+03  0.12699999809E+01 0. -1.
</event>
<event>
 5   0  0.3083469E-05  0.1906996E+04  0.7818609E-02  0.8651382E-01
       -1   -1    0    0    0  501  0.00000000000E+00  0.00000000000E+00  0.13597370691E+04  0.13597370691E+04  0.50400001928E-02 0.  1.
        1   -1    0    0  501    0  0.00000000000E+00  0.00000000000E+00 -0.66862797886E+03  0.66862797887E+03  0.50400001928E-02 0. -1.
    10030    2    1    2    0    0  0.00000000000E+00  0.00000000000E+00  0.69110909021E+03  0.20283650479E+04  0.19069958031E+04 0.  0.
        3    1    3    3  502    0 -0.42122156536E+03  0.30621226128E+03  0.11951158032E+04  0.13036469420E+04  0.10100000352E+00 0.  1.
       -3    1    3    3    0  502  0.42122156536E+03 -0.30621226128E+03 -0.50400671303E+03  0.72471810593E+03  0.10100000352E+00 0. -1.
</event>
<event>
 5   0  0.6395992E-05  0.1885781E+04  0.7818609E-02  0.8661966E-01
       -2   -1    0    0    0  501  0.00000000000E+00  0.00000000000E+00  0.41113676347E+03  0.41113676347E+03  0.25500000920E-02 0.  1.
        2   -1    0    0  501    0  0.00000000000E+00  0.00000000000E+00 -0.21624018769E+04  0.21624018769E+04  0.25500000920E-02 0. -1.
    10030    2    1    2    0    0  0.00000000000E+00  0.00000000000E+00 -0.17512651135E+04  0.25735386404E+04  0.18857814391E+04 0.  0.
        4    1    3    3  502    0  0.76897236711E+03  0.53961365621E+03 -0.98599588330E+03  0.13618703661E+04  0.12699999809E+01 0.  1.
       -4    1    3    3    0  502 -0.76897236711E+03 -0.53961365621E+03 -0.76526923016E+03  0.12116682743E+04  0.12699999809E+01 0. -1.
</event>
<event>
 5   0  0.6452182E-05  0.1881908E+04  0.7818609E-02  0.8663915E-01
        2   -1    0    0  501    0  0.00000000000E+00  0.00000000000E+00  0.43483215955E+03  0.43483215955E+03  0.25500000920E-02 0.  1.
       -2   -1    0    0    0  501  0.00000000000E+00  0.00000000000E+00 -0.20361751548E+04  0.20361751548E+04  0.25500000920E-02 0. -1.
    10030    2    1    2    0    0  0.00000000000E+00  0.00000000000E+00 -0.16013429952E+04  0.24710073143E+04  0.18819080103E+04 0.  0.
        3    1    3    3  502    0 -0.56877213122E+03  0.24703135675E+03  0.12858877394E+03  0.63329401660E+03  0.10100000352E+00 0.  1.
       -3    1    3    3    0  502  0.56877213122E+03 -0.24703135675E+03 -0.17299317691E+04  0.18377132977E+04  0.10100000352E+00 0. -1.
</event>
<event>
 5   0  0.6423388E-05  0.1900959E+04  0.7818609E-02  0.8654379E-01
        2   -1    0    0  501    0  0.00000000000E+00  0.00000000000E+00  0.22752275784E+04  0.22752275784E+04  0.25500000920E-02 0. -1.
       -2   -1    0    0    0  501  0.00000000000E+00  0.00000000000E+00 -0.39706401083E+03  0.39706401084E+03  0.25500000920E-02 0.  1.
    10030    2    1    2    0    0  0.00000000000E+00  0.00000000000E+00  0.18781635676E+04  0.26722915893E+04  0.19009586927E+04 0.  0.
        2    1    3    3  502    0 -0.72671878305E+03  0.59667285082E+03  0.74392753046E+03  0.11989857594E+04  0.25500000920E-02 0.  1.
       -2    1    3    3    0  502  0.72671878305E+03 -0.59667285082E+03  0.11342360371E+04  0.14733058299E+04  0.25500000920E-02 0. -1.
</event>
<event>
 5   0  0.6423388E-05  0.1898966E+04  0.7818609E-02  0.8655371E-01
        2   -1    0    0  501    0  0.00000000000E+00  0.00000000000E+00  0.66810157011E+03  0.66810157012E+03  0.25500000920E-02 0.  1.
       -2   -1    0    0    0  501  0.00000000000E+00  0.00000000000E+00 -0.13493722110E+04  0.13493722110E+04  0.25500000920E-02 0. -1.
    10030    2    1    2    0    0  0.00000000000E+00  0.00000000000E+00 -0.68127064085E+03  0.20174737811E+04  0.18989657109E+04 0.  0.
        2    1    3    3  502    0  0.10595559166E+03 -0.19502955254E+03  0.64015336739E+03  0.67753925905E+03  0.25500000920E-02 0.  1.
       -2    1    3    3    0  502 -0.10595559166E+03  0.19502955254E+03 -0.13214240082E+04  0.13399345220E+04  0.25500000920E-02 0. -1.
</event>
<event>
 5   0  0.6395992E-05  0.1902300E+04  0.7818609E-02  0.8653712E-01
        2   -1    0    0  501    0  0.00000000000E+00  0.00000000000E+00  0.18254069545E+04  0.18254069545E+04  0.25500000920E-02 0. -1.
       -2   -1    0    0    0  501  0.00000000000E+00  0.00000000000E+00 -0.49560788156E+03  0.49560788156E+03  0.25500000920E-02 0.  1.
    10030    2    1    2    0    0  0.00000000000E+00  0.00000000000E+00  0.13297990730E+04  0.23210148361E+04  0.19022997385E+04 0.  0.
        4    1    3    3  502    0  0.23973358176E+02 -0.56388595592E+03 -0.26921584942E+03  0.62531662353E+03  0.12699999809E+01 0.  1.
       -4    1    3    3    0  502 -0.23973358176E+02  0.56388595592E+03  0.15990149224E+04  0.16956982126E+04  0.12699999809E+01 0. -1.
</event>
<event>
 5   0  0.6098377E-05  0.1899884E+04  0.7818609E-02  0.8654914E-01
       -2   -1    0    0    0  501  0.00000000000E+00  0.00000000000E+00  0.65565250413E+03  0.65565250414E+03  0.25500000920E-02 0. -1.
        2   -1    0    0  501    0  0.00000000000E+00  0.00000000000E+00 -0.13763236494E+04  0.13763236494E+04  0.25500000920E-02 0.  1.
    10030    2    1    2    0    0  0.00000000000E+00  0.00000000000E+00 -0.72067114522E+03  0.20319761535E+04  0.18998842567E+04 0.  0.
        5    1    3    3  502    0  0.90064862322E+03  0.19335121371E+03 -0.11222547592E+03  0.92799206990E+03  0.46999998093E+01 0.  1.
       -5    1    3    3    0  502 -0.90064862322E+03 -0.19335121371E+03 -0.60844566930E+03  0.11039840836E+04  0.46999998093E+01 0. -1.
</event>
<event>
 5   0  0.6098377E-05  0.1900805E+04  0.7818609E-02  0.8654456E-01
       -2   -1    0    0    0  501  0.00000000000E+00  0.00000000000E+00  0.10236054059E+04  0.10236054059E+04  0.25500000920E-02 0. -1.
        2   -1    0    0  501    0  0.00000000000E+00  0.00000000000E+00 -0.88243462542E+03  0.88243462543E+03  0.25500000920E-02 0.  1.
    10030    2    1    2    0    0  0.00000000000E+00  0.00000000000E+00  0.14117078043E+03  0.19060400313E+04  0.19008049378E+04 0.  0.
        5    1    3    3  502    0 -0.88184932762E+03  0.21724234650E+03 -0.21016838146E+03  0.93222599851E+03  0.46999998093E+01 0.  1.
       -5    1    3    3    0  502  0.88184932762E+03 -0.21724234650E+03  0.35133916189E+03  0.97381403277E+03  0.46999998093E+01 0. -1.
</event>
<event>
 5   0  0.6452182E-05  0.1898492E+04  0.7818609E-02  0.8655608E-01
        2   -1    0    0  501    0  0.00000000000E+00  0.00000000000E+00  0.18227569838E+04  0.18227569838E+04  0.25500000920E-02 0. -1.
       -2   -1    0    0    0  501  0.00000000000E+00  0.00000000000E+00 -0.49434330145E+03  0.49434330146E+03  0.25500000920E-02 0.  1.
    10030    2    1    2    0    0  0.00000000000E+00  0.00000000000E+00  0.13284136823E+04  0.23171002853E+04  0.18984917225E+04 0.  0.
        3    1    3    3  502    0 -0.35848364011E+03 -0.21360541863E+03  0.17048034086E+04  0.17551331765E+04  0.10100000352E+00 0. -1.
       -3    1    3    3    0  502  0.35848364011E+03  0.21360541863E+03 -0.37638972625E+03  0.56196710876E+03  0.10100000352E+00 0.  1.
</event>
<event>
 5   0  0.3203527E-05  0.1900000E+04  0.7818609E-02  0.8654856E-01
        1   -1    0    0  501    0  0.00000000000E+00  0.00000000000E+00  0.14459337735E+04  0.14459337735E+04  0.50400001928E-02 0.  1.
       -1   -1    0    0    0  501  0.00000000000E+00  0.00000000000E+00 -0.62416436293E+03  0.62416436295E+03  0.50400001928E-02 0. -1.
    10030    2    1    2    0    0  0.00000000000E+00  0.00000000000E+00  0.82176941055E+03  0.20700981364E+04  0.19000003501E+04 0.  0.
        1    1    3    3  502    0 -0.94626800584E+03 -0.81207589050E+02  0.43481761154E+03  0.10445497435E+04  0.50400001928E-02 0. -1.
       -1    1    3    3    0  502  0.94626800584E+03  0.81207589050E+02  0.38695179901E+03  0.10255483929E+04  0.50400001928E-02 0.  1.
</event>
<event>
 5   0  0.3203527E-05  0.1899643E+04  0.7818609E-02  0.8655034E-01
       -1   -1    0    0    0  501  0.00000000000E+00  0.00000000000E+00  0.69182691523E+03  0.69182691525E+03  0.50400001928E-02 0.  1.
        1   -1    0    0  501    0  0.00000000000E+00  0.00000000000E+00 -0.13040261812E+04  0.13040261812E+04  0.50400001928E-02 0. -1.
    10030    2    1    2    0    0  0.00000000000E+00  0.00000000000E+00 -0.61219926597E+03  0.19958530965E+04  0.18996425036E+04 0.  0.
        1    1    3    3  502    0  0.66821384561E+03  0.49373312507E+03 -0.78971478719E+03  0.11462685494E+04  0.50400001928E-02 0. -1.
       -1    1    3    3    0  502 -0.66821384561E+03 -0.49373312507E+03  0.17751552122E+03  0.84958454704E+03  0.50400001928E-02 0.  1.
</event>
<event>
 5   0  0.6423388E-05  0.1906515E+04  0.7818609E-02  0.8651620E-01
       -2   -1    0    0    0  501  0.00000000000E+00  0.00000000000E+00  0.68675626400E+03  0.68675626401E+03  0.25500000920E-02 0. -1.
        2   -1    0    0  501    0  0.00000000000E+00  0.00000000000E+00 -0.13231766169E+04  0.13231766169E+04  0.25500000920E-02 0.  1.
    10030    2    1    2    0    0  0.00000000000E+00  0.00000000000E+00 -0.63642035293E+03  0.20099328809E+04  0.19065149672E+04 0.  0.
        2    1    3    3  502    0 -0.65038001154E+03  0.50744367730E+03  0.18541266837E+03  0.84550050422E+03  0.25500000920E-02 0. -1.
       -2    1    3    3    0  502  0.65038001154E+03 -0.50744367730E+03 -0.82183302129E+03  0.11644323767E+04  0.25500000920E-02 0.  1.
</event>
<event>
 5   0  0.6395992E-05  0.1897329E+04  0.7818609E-02  0.8656187E-01
        2   -1    0    0  501    0  0.00000000000E+00  0.00000000000E+00  0.13766486697E+04  0.13766486697E+04  0.25500000920E-02 0.  1.
       -2   -1    0    0    0  501  0.00000000000E+00  0.00000000000E+00 -0.65373577010E+03  0.65373577010E+03  0.25500000920E-02 0. -1.
    10030    2    1    2    0    0  0.00000000000E+00  0.00000000000E+00  0.72291289963E+03  0.20303844398E+04  0.18973291525E+04 0.  0.
        4    1    3    3  502    0 -0.86030096166E+03  0.36695383779E+03  0.19161265106E+03  0.95471979379E+03  0.12699999809E+01 0. -1.
       -4    1    3    3    0  502  0.86030096166E+03 -0.36695383779E+03  0.53130024857E+03  0.10756646460E+04  0.12699999809E+01 0.  1.
</event>
<event>
 5   0  0.3147063E-05  0.1917886E+04  0.7818609E-02  0.8646004E-01
        1   -1    0    0  501    0  0.00000000000E+00  0.00000000000E+00  0.18206638499E+04  0.18206638499E+04  0.50400001928E-02 0. -1.
       -1   -1    0    0    0  501  0.00000000000E+00  0.00000000000E+00 -0.50507504940E+03  0.50507504942E+03  0.50400001928E-02 0.  1.
    10030    2    1    2    0    0  0.00000000000E+00  0.00000000000E+00  0.13155888005E+04  0.23257388994E+04  0.19178862156E+04 0.  0.
        5    1    3    3  502    0 -0.81310091215E+03  0.21261217567E+03  0.97850241549E+02  0.84612870792E+03  0.46999998093E+01 0.  1.
       -5    1    3    3    0  502  0.81310091215E+03 -0.21261217567E+03  0.12177385590E+04  0.14796101915E+04  0.46999998093E+01 0. -1.
</event>
<event>
 5   0  0.6361762E-05  0.1904167E+04  0.7818609E-02  0.8652785E-01
       -2   -1    0    0    0  501  0.00000000000E+00  0.00000000000E+00  0.66882677102E+03  0.66882677102E+03  0.25500000920E-02 0.  1.
        2   -1    0    0  501    0  0.00000000000E+00  0.00000000000E+00 -0.13553028880E+04  0.13553028880E+04  0.25500000920E-02 0. -1.
    10030    2    1    2    0    0  0.00000000000E+00  0.00000000000E+00 -0.68647611701E+03  0.20241296590E+04  0.19041668565E+04 0.  0.
        1    1    3    3  502    0  0.87882229693E+03  0.26206306905E+03 -0.71273727951E+02  0.91982912873E+03  0.50400001928E-02 0.  1.
       -1    1    3    3    0  502 -0.87882229693E+03 -0.26206306905E+03 -0.61520238906E+03  0.11043005303E+04  0.50400001928E-02 0. -1.
</event>
<event>
 5   0  0.3147063E-05  0.1900454E+04  0.7818609E-02  0.8654630E-01
       -1   -1    0    0    0  501  0.00000000000E+00  0.00000000000E+00  0.99412187858E+03  0.99412187859E+03  0.50400001928E-02 0.  1.
        1   -1    0    0  501    0  0.00000000000E+00  0.00000000000E+00 -0.90827036305E+03  0.90827036306E+03  0.50400001928E-02 0. -1.
    10030    2    1    2    0    0  0.00000000000E+00  0.00000000000E+00  0.85851515530E+02  0.19023922417E+04  0.19004540927E+04 0.  0.
        5    1    3    3  502    0 -0.24871002563E+03 -0.51997475458E+03  0.79912911481E+03  0.98532220841E+03  0.46999998093E+01 0.  1.
       -5    1    3    3    0  502  0.24871002563E+03  0.51997475458E+03 -0.71327759928E+03  0.91707003325E+03  0.46999998093E+01 0. -1.
</event>
<event>
 5   0  0.3144958E-05  0.1934809E+04  0.7818609E-02  0.8637721E-01
       -1   -1    0    0    0  501  0.00000000000E+00  0.00000000000E+00  0.41594936232E+03  0.41594936235E+03  0.50400001928E-02 0. -1.
        1   -1    0    0  501    0  0.00000000000E+00  0.00000000000E+00 -0.22499641777E+04  0.22499641777E+04  0.50400001928E-02 0.  1.
    10030    2    1    2    0    0  0.00000000000E+00  0.00000000000E+00 -0.18340148154E+04  0.26659135401E+04  0.19348086882E+04 0.  0.
        4    1    3    3  502    0 -0.53911874156E+03  0.61116109953E+03 -0.16352232238E+04  0.18270532318E+04  0.12699999809E+01 0. -1.
       -4    1    3    3    0  502  0.53911874156E+03 -0.61116109953E+03 -0.19879159159E+03  0.83886030832E+03  0.12699999809E+01 0.  1.
</event>
<event>
 5   0  0.3203527E-05  0.1873177E+04  0.7818609E-02  0.8668324E-01
       -1   -1    0    0    0  501  0.00000000000E+00  0.00000000000E+00  0.63693872247E+03  0.63693872249E+03  0.50400001928E-02 0.  1.
        1   -1    0    0  501    0  0.00000000000E+00  0.00000000000E+00 -0.13772098873E+04  0.13772098873E+04  0.50400001928E-02 0. -1.
    10030    2    1    2    0    0  0.00000000000E+00  0.00000000000E+00 -0.74027116484E+03  0.20141486098E+04  0.18731773074E+04 0.  0.
        1    1    3    3  502    0  0.68363821214E+03 -0.25264040151E+03  0.26235913623E+03  0.77461002702E+03  0.50400001928E-02 0.  1.
       -1    1    3    3    0  502 -0.68363821214E+03  0.25264040151E+03 -0.10026303011E+04  0.12395385828E+04  0.50400001928E-02 0. -1.
</event>
<event>
 5   0  0.3203527E-05  0.1900464E+04  0.7818609E-02  0.8654626E-01
        1   -1    0    0  501    0  0.00000000000E+00  0.00000000000E+00  0.15441747571E+04  0.15441747571E+04  0.50400001928E-02 0. -1.
       -1   -1    0    0    0  501  0.00000000000E+00  0.00000000000E+00 -0.58473993521E+03  0.58473993523E+03  0.50400001928E-02 0.  1.
    10030    2    1    2    0    0  0.00000000000E+00  0.00000000000E+00  0.95943482186E+03  0.21289146923E+04  0.19004637828E+04 0.  0.
        1    1    3    3  502    0 -0.92004101263E+03 -0.46767104473E+02  0.74069947504E+03  0.11820737453E+04  0.50400001928E-02 0.  1.
       -1    1    3    3    0  502  0.92004101263E+03  0.46767104473E+02  0.21873534682E+03  0.94684094702E+03  0.50400001928E-02 0. -1.
</event>
<event>
 5   0  0.3203527E-05  0.1908892E+04  0.7818609E-02  0.8650443E-01
        1   -1    0    0  501    0  0.00000000000E+00  0.00000000000E+00  0.74504473291E+03  0.74504473293E+03  0.50400001928E-02 0.  1.
       -1   -1    0    0    0  501  0.00000000000E+00  0.00000000000E+00 -0.12227018137E+04  0.12227018137E+04  0.50400001928E-02 0. -1.
    10030    2    1    2    0    0  0.00000000000E+00  0.00000000000E+00 -0.47765708075E+03  0.19677465466E+04  0.19088923974E+04 0.  0.
        1    1    3    3  502    0 -0.14317305146E+03  0.40395669978E+02  0.73302053355E+03  0.74796352548E+03  0.50400001928E-02 0.  1.
       -1    1    3    3    0  502  0.14317305146E+03 -0.40395669978E+02 -0.12106776143E+04  0.12197830211E+04  0.50400001928E-02 0. -1.
</event>
<event>
 5   0  0.3086139E-05  0.1912401E+04  0.7818609E-02  0.8648708E-01
        1   -1    0    0  501    0  0.00000000000E+00  0.00000000000E+00  0.21025567535E+04  0.21025567535E+04  0.50400001928E-02 0. -1.
       -1   -1    0    0    0  501  0.00000000000E+00  0.00000000000E+00 -0.43486071027E+03  0.43486071030E+03  0.50400001928E-02 0.  1.
    10030    2    1    2    0    0  0.00000000000E+00  0.00000000000E+00  0.16676960433E+04  0.25374174638E+04  0.19124009237E+04 0.  0.
        2    1    3    3  502    0 -0.25176208978E+03  0.23214201518E+03  0.20184009508E+04  0.20472460681E+04  0.25500000920E-02 0. -1.
       -2    1    3    3    0  502  0.25176208978E+03 -0.23214201518E+03 -0.35070490753E+03  0.49017139577E+03  0.25500000920E-02 0.  1.
</event>
<event>
 5   0  0.3147063E-05  0.1943682E+04  0.7818609E-02  0.8633413E-01
        1   -1    0    0  501    0  0.00000000000E+00  0.00000000000E+00  0.11863973519E+04  0.11863973519E+04  0.50400001928E-02 0.  1.
       -1   -1    0    0    0  501  0.00000000000E+00  0.00000000000E+00 -0.79608685288E+03  0.79608685289E+03  0.50400001928E-02 0. -1.
    10030    2    1    2    0    0  0.00000000000E+00  0.00000000000E+00  0.39031049904E+03  0.19824842048E+04  0.19436824166E+04 0.  0.
        5    1    3    3  502    0 -0.66921594290E+03  0.62223294657E+03  0.53256023145E+03  0.10576702266E+04  0.46999998093E+01 0.  1.
       -5    1    3    3    0  502  0.66921594290E+03 -0.62223294657E+03 -0.14224973241E+03  0.92481397826E+03  0.46999998093E+01 0. -1.
</event>
<event>
 5   0  0.6452182E-05  0.1907394E+04  0.7818609E-02  0.8651185E-01
       -2   -1    0    0    0  501  0.00000000000E+00  0.00000000000E+00  0.14224704249E+04  0.14224704249E+04  0.25500000920E-02 0.  1.
        2   -1    0    0  501    0  0.00000000000E+00  0.00000000000E+00 -0.63940719834E+03  0.63940719835E+03  0.25500000920E-02 0. -1.
    10030    2    1    2    0    0  0.00000000000E+00  0.00000000000E+00  0.78306322660E+03  0.20618776233E+04  0.19073938546E+04 0.  0.
        3    1    3    3  502    0  0.75057222617E+03 -0.36222118869E+03  0.89273782815E+03  0.12212877205E+04  0.10100000352E+00 0.  1.
       -3    1    3    3    0  502 -0.75057222617E+03  0.36222118869E+03 -0.10967460155E+03  0.84058990278E+03  0.10100000352E+00 0. -1.
</event>
<event>
 5   0  0.3083469E-05  0.1902131E+04  0.7818609E-02  0.8653796E-01
       -1   -1    0    0    0  501  0.00000000000E+00  0.00000000000E+00  0.67938049501E+03  0.67938049503E+03  0.50400001928E-02 0. -1.
        1   -1    0    0  501    0  0.00000000000E+00  0.00000000000E+00 -0.13313981117E+04  0.13313981117E+04  0.50400001928E-02 0.  1.
    10030    2    1    2    0    0  0.00000000000E+00  0.00000000000E+00 -0.65201761670E+03  0.20107786067E+04  0.19021313395E+04 0.  0.
        3    1    3    3  502    0 -0.55530711335E+03 -0.12731915666E+03 -0.11310515413E+04  0.12664334792E+04  0.10100000352E+00 0.  1.
       -3    1    3    3    0  502  0.55530711335E+03  0.12731915666E+03  0.47903392464E+03  0.74434512757E+03  0.10100000352E+00 0. -1.
</event>
<event>
 5   0  0.3086139E-05  0.1822242E+04  0.7818609E-02  0.8694560E-01
       -1   -1    0    0    0  501  0.00000000000E+00  0.00000000000E+00  0.32029898893E+03  0.32029898897E+03  0.50400001928E-02 0. -1.
        1   -1    0    0  501    0  0.00000000000E+00  0.00000000000E+00 -0.25917699551E+04  0.25917699551E+04  0.50400001928E-02 0.  1.
    10030    2    1    2    0    0  0.00000000000E+00  0.00000000000E+00 -0.22714709661E+04  0.29120689440E+04  0.18222418020E+04 0.  0.
        2    1    3    3  502    0  0.52752446941E+03 -0.50676724552E+03 -0.20037773106E+04  0.21331241448E+04  0.25500000920E-02 0.  1.
       -2    1    3    3    0  502 -0.52752446941E+03  0.50676724552E+03 -0.26769365557E+03  0.77894479920E+03  0.25500000920E-02 0. -1.
</event>
<event>
 5   0  0.6098377E-05  0.1908001E+04  0.7818609E-02  0.8650884E-01
       -2   -1    0    0    0  501  0.00000000000E+00  0.00000000000E+00  0.65322720150E+03  0.65322720150E+03  0.25500000920E-02 0.  1.
        2   -1    0    0  501    0  0.00000000000E+00  0.00000000000E+00 -0.13932618687E+04  0.13932618687E+04  0.25500000920E-02 0. -1.
    10030    2    1    2    0    0  0.00000000000E+00  0.00000000000E+00 -0.74003466723E+03  0.20464890702E+04  0.19080005781E+04 0.  0.
        5    1    3    3  502    0  0.61405502366E+02 -0.84055639951E+03  0.10940300987E+03  0.84988046515E+03  0.46999998093E+01 0.  1.
       -5    1    3    3    0  502 -0.61405502366E+02  0.84055639951E+03 -0.84943767710E+03  0.11966086051E+04  0.46999998093E+01 0. -1.
</event>
<event>
 5   0  0.6452182E-05  0.1911602E+04  0.7818609E-02  0.8649103E-01
        2   -1    0    0  501    0  0.00000000000E+00  0.00000000000E+00  0.10463456148E+04  0.10463456148E+04  0.25500000920E-02 0.  1.
       -2   -1    0    0    0  501  0.00000000000E+00  0.00000000000E+00 -0.87309152324E+03  0.87309152324E+03  0.25500000920E-02 0. -1.
    10030    2    1    2    0    0  0.00000000000E+00  0.00000000000E+00  0.17325409158E+03  0.19194371381E+04  0.19116019321E+04 0.  0.
        3    1    3    3  502    0  0.52989673663E+02 -0.21525029702E+03  0.10201769741E+04  0.10439835557E+04  0.10100000352E+00 0.  1.
       -3    1    3    3    0  502 -0.52989673663E+02  0.21525029702E+03 -0.84692288248E+03  0.87545358240E+03  0.10100000352E+00 0. -1.
</event>
<event>
 5   0  0.3203527E-05  0.1897417E+04  0.7818609E-02  0.8656143E-01
       -1   -1    0    0    0  501  0.00000000000E+00  0.00000000000E+00  0.52827919036E+03  0.52827919038E+03  0.50400001928E-02 0. -1.
        1   -1    0    0  501    0  0.00000000000E+00  0.00000000000E+00 -0.17037350989E+04  0.17037350989E+04  0.50400001928E-02 0.  1.
    10030    2    1    2    0    0  0.00000000000E+00  0.00000000000E+00 -0.11754559086E+04  0.22320142893E+04  0.18974169797E+04 0.  0.
        1    1    3    3  502    0  0.59517295986E+03  0.69288261632E+03 -0.28613716505E+03  0.95717900593E+03  0.50400001928E-02 0.  1.
       -1    1    3    3    0  502 -0.59517295986E+03 -0.69288261632E+03 -0.88931874351E+03  0.12748352834E+04  0.50400001928E-02 0. -1.
</event>
<event>
 5   0  0.6395992E-05  0.1905810E+04  0.7818609E-02  0.8651970E-01
        2   -1    0    0  501    0  0.00000000000E+00  0.00000000000E+00  0.13871233385E+04  0.13871233385E+04  0.25500000920E-02 0. -1.
       -2   -1    0    0    0  501  0.00000000000E+00  0.00000000000E+00 -0.65461254333E+03  0.65461254334E+03  0.25500000920E-02 0.  1.
    10030    2    1    2    0    0  0.00000000000E+00  0.00000000000E+00  0.73251079520E+03  0.20417358819E+04  0.19058104172E+04 0.  0.
        4    1    3    3  502    0  0.52515406538E+03  0.60934766986E+03  0.91350609400E+03  0.12172043262E+04  0.12699999809E+01 0. -1.
       -4    1    3    3    0  502 -0.52515406538E+03 -0.60934766986E+03 -0.18099529880E+03  0.82453155563E+03  0.12699999809E+01 0.  1.
</event>
<event>
 5   0  0.6361762E-05  0.1900286E+04  0.7818609E-02  0.8654714E-01
        2   -1    0    0  501    0  0.00000000000E+00  0.00000000000E+00  0.93417951109E+03  0.93417951109E+03  0.25500000920E-02 0.  1.
       -2   -1    0    0    0  501  0.00000000000E+00  0.00000000000E+00 -0.96637903634E+03  0.96637903634E+03  0.25500000920E-02 0. -1.
    10030    2    1    2    0    0  0.00000000000E+00  0.00000000000E+00 -0.32199525254E+02  0.19005585474E+04  0.19002857635E+04 0.  0.
        1    1    3    3  502    0  0.22245275743E+03  0.83109371417E+02 -0.93622046657E+03  0.96586808569E+03  0.50400001928E-02 0. -1.
       -1    1    3    3    0  502 -0.22245275743E+03 -0.83109371417E+02  0.90402094132E+03  0.93469046174E+03  0.50400001928E-02 0.  1.
</event>
<event>
 5   0  0.6452182E-05  0.1899943E+04  0.7818609E-02  0.8654885E-01
       -2   -1    0    0    0  501  0.00000000000E+00  0.00000000000E+00  0.25735102613E+03  0.25735102614E+03  0.25500000920E-02 0. -1.
        2   -1    0    0  501    0  0.00000000000E+00  0.00000000000E+00 -0.35066725127E+04  0.35066725127E+04  0.25500000920E-02 0.  1.
    10030    2    1    2    0    0  0.00000000000E+00  0.00000000000E+00 -0.32493214866E+04  0.37640235388E+04  0.18999429144E+04 0.  0.
        3    1    3    3  502    0  0.83156873267E+03  0.18651743635E+03 -0.79317720702E+03  0.11642273846E+04  0.10100000352E+00 0. -1.
       -3    1    3    3    0  502 -0.83156873267E+03 -0.18651743635E+03 -0.24561442795E+04  0.25997961542E+04  0.10100000352E+00 0.  1.
</event>
<event>
 5   0  0.3147063E-05  0.1896823E+04  0.7818609E-02  0.8656440E-01
        1   -1    0    0  501    0  0.00000000000E+00  0.00000000000E+00  0.62724896086E+03  0.62724896088E+03  0.50400001928E-02 0.  1.
       -1   -1    0    0    0  501  0.00000000000E+00  0.00000000000E+00 -0.14340141731E+04  0.14340141731E+04  0.50400001928E-02 0. -1.
    10030    2    1    2    0    0  0.00000000000E+00  0.00000000000E+00 -0.80676521221E+03  0.20612631340E+04  0.18968225009E+04 0.  0.
        5    1    3    3  502    0  0.83250851593E+03 -0.31251406656E+03 -0.45060068022E+02  0.89038641647E+03  0.46999998093E+01 0. -1.
       -5    1    3    3    0  502 -0.83250851593E+03  0.31251406656E+03 -0.76170514419E+03  0.11708767175E+04  0.46999998093E+01 0.  1.
</event>
<event>
 5   0  0.3086139E-05  0.1919718E+04  0.7818609E-02  0.8645103E-01
        1   -1    0    0  501    0  0.00000000000E+00  0.00000000000E+00  0.10724163638E+04  0.10724163638E+04  0.50400001928E-02 0. -1.
       -1   -1    0    0    0  501  0.00000000000E+00  0.00000000000E+00 -0.85911501914E+03  0.85911501916E+03  0.50400001928E-02 0.  1.
    10030    2    1    2    0    0  0.00000000000E+00  0.00000000000E+00  0.21330134467E+03  0.19315313830E+04  0.19197176927E+04 0.  0.
        2    1    3    3  502    0  0.88777096056E+03 -0.36493589239E+03  0.10295095474E+03  0.96535712721E+03  0.25500000920E-02 0. -1.
       -2    1    3    3    0  502 -0.88777096056E+03  0.36493589239E+03  0.11035038993E+03  0.96617425578E+03  0.25500000920E-02 0.  1.
</event>
<event>
 5   0  0.3083469E-05  0.1893767E+04  0.7818609E-02  0.8657965E-01
       -1   -1    0    0    0  501  0.00000000000E+00  0.00000000000E+00  0.10625723488E+04  0.10625723488E+04  0.50400001928E-02 0. -1.
        1   -1    0    0  501    0  0.00000000000E+00  0.00000000000E+00 -0.84379065467E+03  0.84379065468E+03  0.50400001928E-02 0.  1.
    10030    2    1    2    0    0  0.00000000000E+00  0.00000000000E+00  0.21878169415E+03  0.19063630035E+04  0.18937672696E+04 0.  0.
        3    1    3    3  502    0  0.23556074305E+03  0.52545856318E+03  0.86605044399E+03  0.10400187244E+04  0.10100000352E+00 0. -1.
       -3    1    3    3    0  502 -0.23556074305E+03 -0.52545856318E+03 -0.64726874984E+03  0.86634427915E+03  0.10100000352E+00 0.  1.
</event>
<event>
 5   0  0.6423388E-05  0.1793456E+04  0.7818609E-02  0.8709787E-01
        2   -1    0    0  501    0  0.00000000000E+00  0.00000000000E+00  0.20123312692E+04  0.20123312692E+04  0.25500000920E-02 0.  1.
       -2   -1    0    0    0  501  0.00000000000E+00  0.00000000000E+00 -0.39959661670E+03  0.39959661671E+03  0.25500000920E-02 0. -1.
    10030    2    1    2    0    0  0.00000000000E+00  0.00000000000E+00  0.16127346525E+04  0.24119278859E+04  0.17934556218E+04 0.  0.
        2    1    3    3  502    0 -0.79160082285E+03 -0.35218414766E+02  0.13709616164E+04  0.15834796977E+04  0.25500000920E-02 0. -1.
       -2    1    3    3    0  502  0.79160082285E+03  0.35218414766E+02  0.24177303609E+03  0.82844818816E+03  0.25500000920E-02 0.  1.
</event>
<event>
 5   0  0.6395992E-05  0.1899883E+04  0.7818609E-02  0.8654915E-01
        2   -1    0    0  501    0  0.00000000000E+00  0.00000000000E+00  0.54022954210E+03  0.54022954211E+03  0.25500000920E-02 0. -1.
       -2   -1    0    0    0  501  0.00000000000E+00  0.00000000000E+00 -0.16703800128E+04  0.16703800128E+04  0.25500000920E-02 0.  1.
    10030    2    1    2    0    0  0.00000000000E+00  0.00000000000E+00 -0.11301504707E+04  0.22106095549E+04  0.18998827642E+04 0.  0.
        4    1    3    3  502    0 -0.63087080127E+03 -0.66469282764E+03 -0.27401895752E+03  0.95650537113E+03  0.12699999809E+01 0. -1.
       -4    1    3    3    0  502  0.63087080127E+03  0.66469282764E+03 -0.85613151317E+03  0.12541041838E+04  0.12699999809E+01 0.  1.
</event>
<event>
 5   0  0.3086139E-05  0.1899158E+04  0.7818609E-02  0.8655276E-01
       -1   -1    0    0    0  501  0.00000000000E+00  0.00000000000E+00  0.78301141006E+03  0.78301141008E+03  0.50400001928E-02 0.  1.
        1   -1    0    0  501    0  0.00000000000E+00  0.00000000000E+00 -0.11515800677E+04  0.11515800677E+04  0.50400001928E-02 0. -1.
    10030    2    1    2    0    0  0.00000000000E+00  0.00000000000E+00 -0.36856865763E+03  0.19345914778E+04  0.18991580583E+04 0.  0.
        2    1    3    3  502    0  0.57333986769E+03  0.63966421360E+03 -0.59657190747E+03  0.10458426989E+04  0.25500000920E-02 0.  1.
       -2    1    3    3    0  502 -0.57333986769E+03 -0.63966421360E+03  0.22800324983E+03  0.88874877889E+03  0.25500000920E-02 0. -1.
</event>
<event>
 5   0  0.3147063E-05  0.1863915E+04  0.7818609E-02  0.8673030E-01
       -1   -1    0    0    0  501  0.00000000000E+00  0.00000000000E+00  0.92706316075E+03  0.92706316076E+03  0.50400001928E-02 0. -1.
        1   -1    0    0  501    0  0.00000000000E+00  0.00000000000E+00 -0.93687778611E+03  0.93687778613E+03  0.50400001928E-02 0.  1.
    10030    2    1    2    0    0  0.00000000000E+00  0.00000000000E+00 -0.98146253659E+01  0.18639409469E+04  0.18639151071E+04 0.  0.
        5    1    3    3  502    0 -0.15326523516E+03  0.40488371372E+03  0.82039300980E+03  0.92762483498E+03  0.46999998093E+01 0. -1.
       -5    1    3    3    0  502  0.15326523516E+03 -0.40488371372E+03 -0.83020763516E+03  0.93631611191E+03  0.46999998093E+01 0.  1.
</event>
<event>
 5   0  0.3086139E-05  0.1900782E+04  0.7818609E-02  0.8654467E-01
        1   -1    0    0  501    0  0.00000000000E+00  0.00000000000E+00  0.79811284980E+03  0.79811284982E+03  0.50400001928E-02 0. -1.
       -1   -1    0    0    0  501  0.00000000000E+00  0.00000000000E+00 -0.11317240424E+04  0.11317240424E+04  0.50400001928E-02 0.  1.
    10030    2    1    2    0    0  0.00000000000E+00  0.00000000000E+00 -0.33361119258E+03  0.19298368922E+04  0.19007824712E+04 0.  0.
        2    1    3    3  502    0  0.92217818770E+03  0.18901478773E+03 -0.34023093828E+02  0.94196431502E+03  0.25500000920E-02 0. -1.
       -2    1    3    3    0  502 -0.92217818770E+03 -0.18901478773E+03 -0.29958809875E+03  0.98787257719E+03  0.25500000920E-02 0.  1.
</event>
<event>
 5   0  0.6423388E-05  0.1901915E+04  0.7818609E-02  0.8653904E-01
       -2   -1    0    0    0  501  0.00000000000E+00  0.00000000000E+00  0.71948004103E+03  0.71948004103E+03  0.25500000920E-02 0. -1.
        2   -1    0    0  501    0  0.00000000000E+00  0.00000000000E+00 -0.12569074310E+04  0.12569074310E+04  0.25500000920E-02 0.  1.
    10030    2    1    2    0    0  0.00000000000E+00  0.00000000000E+00 -0.53742738997E+03  0.19763874720E+04  0.19019146248E+04 0.  0.
        2    1    3    3  502    0  0.66896894211E+03  0.43740863381E+03  0.26670325198E+03  0.84260096313E+03  0.25500000920E-02 0. -1.
       -2    1    3    3    0  502 -0.66896894211E+03 -0.43740863381E+03 -0.80413064195E+03  0.11337865089E+04  0.25500000920E-02 0.  1.
</event>
<event>
 5   0  0.6452182E-05  0.1897003E+04  0.7818609E-02  0.8656350E-01
       -2   -1    0    0    0  501  0.00000000000E+00  0.00000000000E+00  0.62932170466E+03  0.62932170466E+03  0.25500000920E-02 0. -1.
        2   -1    0    0  501    0  0.00000000000E+00  0.00000000000E+00 -0.14295633802E+04  0.14295633802E+04  0.25500000920E-02 0.  1.
    10030    2    1    2    0    0  0.00000000000E+00  0.00000000000E+00 -0.80024167552E+03  0.20588850848E+04  0.18970031769E+04 0.  0.
        3    1    3    3  502    0 -0.74506155349E+03 -0.42665281521E+03  0.37399886351E+02  0.85938821549E+03  0.10100000352E+00 0. -1.
       -3    1    3    3    0  502  0.74506155349E+03  0.42665281521E+03 -0.83764156187E+03  0.11994968694E+04  0.10100000352E+00 0.  1.
</event>
<event>
 5   0  0.6423388E-05  0.1902167E+04  0.7818609E-02  0.8653778E-01
        2   -1    0    0  501    0  0.00000000000E+00  0.00000000000E+00  0.13202054056E+04  0.13202054056E+04  0.25500000920E-02 0.  1.
       -2   -1    0    0    0  501  0.00000000000E+00  0.00000000000E+00 -0.68516623844E+03  0.68516623845E+03  0.25500000920E-02 0. -1.
    10030    2    1    2    0    0  0.00000000000E+00  0.00000000000E+00  0.63503916721E+03  0.20053716441E+04  0.19021673657E+04 0.  0.
        2    1    3    3  502    0 -0.11102526796E+03 -0.93707144061E+03  0.44284167249E+03  0.10423714510E+04  0.25500000920E-02 0. -1.
       -2    1    3    3    0  502  0.11102526796E+03  0.93707144061E+03  0.19219749472E+03  0.96300019311E+03  0.25500000920E-02 0.  1.
</event>
<event>
 5   0  0.3083469E-05  0.1905999E+04  0.7818609E-02  0.8651876E-01
        1   -1    0    0  501    0  0.00000000000E+00  0.00000000000E+00  0.16324671841E+04  0.16324671841E+04  0.50400001928E-02 0.  1.
       -1   -1    0    0    0  501  0.00000000000E+00  0.00000000000E+00 -0.55634079563E+03  0.55634079566E+03  0.50400001928E-02 0. -1.
    10030    2    1    2    0    0  0.00000000000E+00  0.00000000000E+00  0.10761263885E+04  0.21888079798E+04  0.19059990473E+04 0.  0.
        3    1    3    3  502    0  0.73375891318E+03  0.59196467501E+03  0.69794683416E+03  0.11730107044E+04  0.10100000352E+00 0.  1.
       -3    1    3    3    0  502 -0.73375891318E+03 -0.59196467501E+03  0.37817955431E+03  0.10157972754E+04  0.10100000352E+00 0. -1.
</event>
<event>
 5   0  0.3147063E-05  0.1909879E+04  0.7818609E-02  0.8649955E-01
        1   -1    0    0  501    0  0.00000000000E+00  0.00000000000E+00  0.13024517776E+04  0.13024517776E+04  0.50400001928E-02 0. -1.
       -1   -1    0    0    0  501  0.00000000000E+00  0.00000000000E+00 -0.70014812292E+03  0.70014812293E+03  0.50400001928E-02 0.  1.
    10030    2    1    2    0    0  0.00000000000E+00  0.00000000000E+00  0.60230365471E+03  0.20025999006E+04  0.19098787054E+04 0.  0.
        5    1    3    3  502    0  0.28190173961E+03  0.65621358740E+03  0.96580421106E+03  0.12012013683E+04  0.46999998093E+01 0. -1.
       -5    1    3    3    0  502 -0.28190173961E+03 -0.65621358740E+03 -0.36350055635E+03  0.80139853228E+03  0.46999998093E+01 0.  1.
</event>
<event>
 5   0  0.6098377E-05  0.1909330E+04  0.7818609E-02  0.8650226E-01
       -2   -1    0    0    0  501  0.00000000000E+00  0.00000000000E+00  0.41966113534E+03  0.41966113535E+03  0.25500000920E-02 0.  1.
        2   -1    0    0  501    0  0.00000000000E+00  0.00000000000E+00 -0.21717165022E+04  0.21717165022E+04  0.25500000920E-02 0. -1.
    10030    2    1    2    0    0  0.00000000000E+00  0.00000000000E+00 -0.17520553668E+04  0.25913776375E+04  0.19093297389E+04 0.  0.
        5    1    3    3  502    0 -0.44300206962E+03  0.46162308610E+03 -0.18376590981E+04  0.19458570754E+04  0.46999998093E+01 0. -1.
       -5    1    3    3    0  502  0.44300206962E+03 -0.46162308610E+03  0.85603731210E+02  0.64552056211E+03  0.46999998093E+01 0.  1.
</event>
<event>
 5   0  0.3147063E-05  0.1914594E+04  0.7818609E-02  0.8647626E-01
        1   -1    0    0  501    0  0.00000000000E+00  0.00000000000E+00  0.12270834525E+04  0.12270834525E+04  0.50400001928E-02 0.  1.
       -1   -1    0    0    0  501  0.00000000000E+00  0.00000000000E+00 -0.74682603034E+03  0.74682603036E+03  0.50400001928E-02 0. -1.
    10030    2    1    2    0    0  0.00000000000E+00  0.00000000000E+00  0.48025742216E+03  0.19739094829E+04  0.19145943317E+04 0.  0.
        5    1    3    3  502    0 -0.39706196168E+03  0.21636156423E+02  0.11378928299E+04  0.12053831370E+04  0.46999998093E+01 0.  1.
       -5    1    3    3    0  502  0.39706196168E+03 -0.21636156423E+02 -0.65763540776E+03  0.76852634582E+03  0.46999998093E+01 0. -1.
</event>
<event>
 5   0  0.3086139E-05  0.1886717E+04  0.7818609E-02  0.8661497E-01
       -1   -1    0    0    0  501  0.00000000000E+00  0.00000000000E+00  0.92057178283E+03  0.92057178284E+03  0.50400001928E-02 0. -1.
        1   -1    0    0  501    0  0.00000000000E+00  0.00000000000E+00 -0.96670908467E+03  0.96670908468E+03  0.50400001928E-02 0.  1.
    10030    2    1    2    0    0  0.00000000000E+00  0.00000000000E+00 -0.46137301836E+02  0.18872808675E+04  0.18867168368E+04 0.  0.
        2    1    3    3  502    0 -0.49377857330E+03  0.80094876855E+03  0.44692992878E+02  0.94198390268E+03  0.25500000920E-02 0. -1.
       -2    1    3    3    0  502  0.49377857330E+03 -0.80094876855E+03 -0.90830294714E+02  0.94529696484E+03  0.25500000920E-02 0.  1.
</event>
<event>
 5   0  0.6098377E-05  0.1894389E+04  0.7818609E-02  0.8657654E-01
       -2   -1    0    0    0  501  0.00000000000E+00  0.00000000000E+00  0.51614071953E+03  0.51614071954E+03  0.25500000920E-02 0.  1.
        2   -1    0    0  501    0  0.00000000000E+00  0.00000000000E+00 -0.17382416714E+04  0.17382416714E+04  0.25500000920E-02 0. -1.
    10030    2    1    2    0    0  0.00000000000E+00  0.00000000000E+00 -0.12221009519E+04  0.22543823910E+04  0.18943888798E+04 0.  0.
        5    1    3    3  502    0  0.60336116959E+03  0.10708414637E+03 -0.14705494221E+04  0.15931256725E+04  0.46999998093E+01 0. -1.
       -5    1    3    3    0  502 -0.60336116959E+03 -0.10708414637E+03  0.24844847024E+03  0.66125671848E+03  0.46999998093E+01 0.  1.
</event>
<event>
 5   0  0.3203527E-05  0.1892968E+04  0.7818609E-02  0.8658365E-01
        1   -1    0    0  501    0  0.00000000000E+00  0.00000000000E+00  0.16953605906E+04  0.16953605906E+04  0.50400001928E-02 0. -1.
       -1   -1    0    0    0  501  0.00000000000E+00  0.00000000000E+00 -0.52840182267E+03  0.52840182269E+03  0.50400001928E-02 0.  1.
    10030    2    1    2    0    0  0.00000000000E+00  0.00000000000E+00  0.11669587679E+04  0.22237624133E+04  0.18929676449E+04 0.  0.
        1    1    3    3  502    0 -0.13828163786E+03  0.70687523428E+03  0.13048148828E+04  0.14904148035E+04  0.50400001928E-02 0. -1.
       -1    1    3    3    0  502  0.13828163786E+03 -0.70687523428E+03 -0.13785611492E+03  0.73334760971E+03  0.50400001928E-02 0.  1.
</event>
<event>
 5   0  0.6452182E-05  0.1895778E+04  0.7818609E-02  0.8656961E-01
        2   -1    0    0  501    0  0.00000000000E+00  0.00000000000E+00  0.21488937194E+04  0.21488937194E+04  0.25500000920E-02 0.  1.
       -2   -1    0    0    0  501  0.00000000000E+00  0.00000000000E+00 -0.41811912026E+03  0.41811912026E+03  0.25500000920E-02 0. -1.
    10030    2    1    2    0    0  0.00000000000E+00  0.00000000000E+00  0.17307745992E+04  0.25670128397E+04  0.18957779949E+04 0.  0.
        3    1    3    3  502    0 -0.41016571394E+03  0.75493354686E+03  0.14075778939E+04  0.16490712873E+04  0.10100000352E+00 0.  1.
       -3    1    3    3    0  502  0.41016571394E+03 -0.75493354686E+03  0.32319670526E+03  0.91794155237E+03  0.10100000352E+00 0. -1.
</event>
<event>
 5   0  0.6361762E-05  0.1896627E+04  0.7818609E-02  0.8656537E-01
       -2   -1    0    0    0  501  0.00000000000E+00  0.00000000000E+00  0.12911493197E+04  0.12911493197E+04  0.25500000920E-02 0. -1.
        2   -1    0    0  501    0  0.00000000000E+00  0.00000000000E+00 -0.69651024844E+03  0.69651024844E+03  0.25500000920E-02 0.  1.
    10030    2    1    2    0    0  0.00000000000E+00  0.00000000000E+00  0.59463907124E+03  0.19876595681E+04  0.18966272522E+04 0.  0.
        1    1    3    3  502    0  0.27901015565E+03  0.23642041539E+03  0.12142764120E+04  0.12681516016E+04  0.50400001928E-02 0. -1.
       -1    1    3    3    0  502 -0.27901015565E+03 -0.23642041539E+03 -0.61963734079E+03  0.71950796653E+03  0.50400001928E-02 0.  1.
</event>
<event>
 5   0  0.6452182E-05  0.1902260E+04  0.7818609E-02  0.8653732E-01
        2   -1    0    0  501    0  0.00000000000E+00  0.00000000000E+00  0.11671216002E+04  0.11671216002E+04  0.25500000920E-02 0. -1.
       -2   -1    0    0    0  501  0.00000000000E+00  0.00000000000E+00 -0.77511093054E+03  0.77511093054E+03  0.25500000920E-02 0.  1.
    10030    2    1    2    0    0  0.00000000000E+00  0.00000000000E+00  0.39201066964E+03  0.19422325307E+04  0.19022604549E+04 0.  0.
        3    1    3    3  502    0 -0.16585592022E+03 -0.45244042573E+03  0.10332597075E+04  0.11401035736E+04  0.10100000352E+00 0. -1.
       -3    1    3    3    0  502  0.16585592022E+03  0.45244042573E+03 -0.64124903788E+03  0.80212895714E+03  0.10100000352E+00 0.  1.
</event>
<event>
 5   0  0.3086139E-05  0.1898987E+04  0.7818609E-02  0.8655361E-01
       -1   -1    0    0    0  501  0.00000000000E+00  0.00000000000E+00  0.90230236800E+03  0.90230236801E+03  0.50400001928E-02 0. -1.
        1   -1    0    0  501    0  0.00000000000E+00  0.00000000000E+00 -0.99915293355E+03  0.99915293356E+03  0.50400001928E-02 0.  1.
    10030    2    1    2    0    0  0.00000000000E+00  0.00000000000E+00 -0.96850565551E+02  0.19014553016E+04  0.18989871595E+04 0.  0.
        2    1    3    3  502    0  0.50699995757E+03  0.37490795410E+03  0.66237983615E+03  0.91452281457E+03  0.25500000920E-02 0. -1.
       -2    1    3    3    0  502 -0.50699995757E+03 -0.37490795410E+03 -0.75923040171E+03  0.98693248700E+03  0.25500000920E-02 0.  1.
</event>
<event>
 5   0  0.6395992E-05  0.1898315E+04  0.7818609E-02  0.8655695E-01
       -2   -1    0    0    0  501  0.00000000000E+00  0.00000000000E+00  0.57555774213E+03  0.57555774214E+03  0.25500000920E-02 0. -1.
        2   -1    0    0  501    0  0.00000000000E+00  0.00000000000E+00 -0.15652645626E+04  0.15652645626E+04  0.25500000920E-02 0.  1.
    10030    2    1    2    0    0  0.00000000000E+00  0.00000000000E+00 -0.98970682046E+03  0.21408223047E+04  0.18983151872E+04 0.  0.
        4    1    3    3  502    0  0.42620783525E+03 -0.33157726086E+03  0.38544227683E+03  0.66344853637E+03  0.12699999809E+01 0. -1.
       -4    1    3    3    0  502 -0.42620783525E+03  0.33157726086E+03 -0.13751490973E+04  0.14773737684E+04  0.12699999809E+01 0.  1.
</event>
<event>
 5   0  0.3147063E-05  0.1898315E+04  0.7818609E-02  0.8655696E-01
        1   -1    0    0  501    0  0.00000000000E+00  0.00000000000E+00  0.70202497974E+03  0.70202497976E+03  0.50400001928E-02 0. -1.
       -1   -1    0    0    0  501  0.00000000000E+00  0.00000000000E+00 -0.12832877411E+04  0.12832877411E+04  0.50400001928E-02 0.  1.
    10030    2    1    2    0    0  0.00000000000E+00  0.00000000000E+00 -0.58126276133E+03  0.19853127208E+04  0.18983150955E+04 0.  0.
        5    1    3    3  502    0 -0.63191219885E+02  0.76633684010E+03  0.29129760764E+03  0.82227834033E+03  0.46999998093E+01 0. -1.
       -5    1    3    3    0  502  0.63191219885E+02 -0.76633684010E+03 -0.87256036897E+03  0.11630343805E+04  0.46999998093E+01 0.  1.
</event>
<event>
 5   0  0.2279625E-05  0.1901435E+04  0.7818609E-02  0.8654142E-01
       -4   -1    0    0    0  501  0.00000000000E+00  0.00000000000E+00  0.61566924685E+03  0.61567055673E+03  0.12699999809E+01 0. -1.
        4   -1    0    0  501    0  0.00000000000E+00  0.00000000000E+00 -0.14680966709E+04  0.14680972202E+04  0.12699999809E+01 0.  1.
    10030    2    1    2    0    0  0.00000000000E+00  0.00000000000E+00 -0.85242742401E+03  0.20837677769E+04  0.19014351514E+04 0.  0.
        5    1    3    3  502    0 -0.95378925678E+02  0.77585382292E+02 -0.14593355554E+04  0.14645132243E+04  0.46999998093E+01 0.  1.
       -5    1    3    3    0  502  0.95378925678E+02 -0.77585382292E+02  0.60690813136E+03  0.61925455260E+03  0.46999998093E+01 0. -1.
</event>
<event>
 5   0  0.2279625E-05  0.1899641E+04  0.7818609E-02  0.8655035E-01
        3   -1    0    0  501    0  0.00000000000E+00  0.00000000000E+00  0.91103907522E+03  0.91103908082E+03  0.10100000352E+00 0. -1.
       -3   -1    0    0    0  501  0.00000000000E+00  0.00000000000E+00 -0.99025291020E+03  0.99025291535E+03  0.10100000352E+00 0.  1.
    10030    2    1    2    0    0  0.00000000000E+00  0.00000000000E+00 -0.79213834978E+02  0.19012919962E+04  0.18996411301E+04 0.  0.
        5    1    3    3  502    0 -0.87823936546E+03  0.35826214572E+03  0.10244677216E+02  0.94856902306E+03  0.46999998093E+01 0. -1.
       -5    1    3    3    0  502  0.87823936546E+03 -0.35826214572E+03 -0.89458512194E+02  0.95272297311E+03  0.46999998093E+01 0.  1.
</event>
<event>
 5   0  0.3086139E-05  0.1900765E+04  0.7818609E-02  0.8654476E-01
        1   -1    0    0  501    0  0.00000000000E+00  0.00000000000E+00  0.70295175936E+03  0.70295175938E+03  0.50400001928E-02 0. -1.
       -1   -1    0    0    0  501  0.00000000000E+00  0.00000000000E+00 -0.12849061384E+04  0.12849061384E+04  0.50400001928E-02 0.  1.
    10030    2    1    2    0    0  0.00000000000E+00  0.00000000000E+00 -0.58195437903E+03  0.19878578978E+04  0.19007651413E+04 0.  0.
        2    1    3    3  502    0 -0.46152739377E+03  0.44832438639E+03  0.44051733968E+03  0.77978062120E+03  0.25500000920E-02 0. -1.
       -2    1    3    3    0  502  0.46152739377E+03 -0.44832438639E+03 -0.10224717187E+04  0.12080772766E+04  0.25500000920E-02 0.  1.
</event>
<event>
 5   0  0.3083469E-05  0.1897500E+04  0.7818609E-02  0.8656102E-01
       -1   -1    0    0    0  501  0.00000000000E+00  0.00000000000E+00  0.70243415087E+03  0.70243415089E+03  0.50400001928E-02 0.  1.
        1   -1    0    0  501    0  0.00000000000E+00  0.00000000000E+00 -0.12814388388E+04  0.12814388388E+04  0.50400001928E-02 0. -1.
    10030    2    1    2    0    0  0.00000000000E+00  0.00000000000E+00 -0.57900468796E+03  0.19838729897E+04  0.18974998315E+04 0.  0.
        3    1    3    3  502    0  0.90201214523E+03  0.28632147838E+03 -0.21920724681E+03  0.97142046838E+03  0.10100000352E+00 0.  1.
       -3    1    3    3    0  502 -0.90201214523E+03 -0.28632147838E+03 -0.35979744115E+03  0.10124525213E+04  0.10100000352E+00 0. -1.
</event>
<event>
 5   0  0.3147063E-05  0.1903877E+04  0.7818609E-02  0.8652929E-01
       -1   -1    0    0    0  501  0.00000000000E+00  0.00000000000E+00  0.16163991304E+04  0.16163991304E+04  0.50400001928E-02 0.  1.
        1   -1    0    0  501    0  0.00000000000E+00  0.00000000000E+00 -0.56062100308E+03  0.56062100310E+03  0.50400001928E-02 0. -1.
    10030    2    1    2    0    0  0.00000000000E+00  0.00000000000E+00  0.10557781274E+04  0.21770201335E+04  0.19038774140E+04 0.  0.
        5    1    3    3  502    0 -0.57488916657E+03  0.74842288553E+03  0.67039106750E+03  0.11576185221E+04  0.46999998093E+01 0. -1.
       -5    1    3    3    0  502  0.57488916657E+03 -0.74842288553E+03  0.38538705986E+03  0.10194016114E+04  0.46999998093E+01 0.  1.
</event>
<event>
 5   0  0.6098377E-05  0.1896865E+04  0.7818609E-02  0.8656419E-01
       -2   -1    0    0    0  501  0.00000000000E+00  0.00000000000E+00  0.96988853986E+03  0.96988853986E+03  0.25500000920E-02 0. -1.
        2   -1    0    0  501    0  0.00000000000E+00  0.00000000000E+00 -0.92745063562E+03  0.92745063563E+03  0.25500000920E-02 0.  1.
    10030    2    1    2    0    0  0.00000000000E+00  0.00000000000E+00  0.42437904235E+02  0.18973391755E+04  0.18968645105E+04 0.  0.
        5    1    3    3  502    0 -0.50875221835E+03  0.45189927394E+03 -0.63959746956E+03  0.93388906543E+03  0.46999998093E+01 0.  1.
       -5    1    3    3    0  502  0.50875221835E+03 -0.45189927394E+03  0.68203537379E+03  0.96345011006E+03  0.46999998093E+01 0. -1.
</event>
<event>
 5   0  0.3203527E-05  0.1895252E+04  0.7818609E-02  0.8657223E-01
       -1   -1    0    0    0  501  0.00000000000E+00  0.00000000000E+00  0.78519174479E+03  0.78519174481E+03  0.50400001928E-02 0. -1.
        1   -1    0    0  501    0  0.00000000000E+00  0.00000000000E+00 -0.11436632324E+04  0.11436632324E+04  0.50400001928E-02 0.  1.
    10030    2    1    2    0    0  0.00000000000E+00  0.00000000000E+00 -0.35847148758E+03  0.19288549772E+04  0.18952518871E+04 0.  0.
        1    1    3    3  502    0 -0.77554979632E+03  0.51409754778E+03  0.34493789901E+01  0.93047604668E+03  0.50400001928E-02 0. -1.
       -1    1    3    3    0  502  0.77554979632E+03 -0.51409754778E+03 -0.36192086657E+03  0.99837893051E+03  0.50400001928E-02 0.  1.
</event>
<event>
 5   0  0.3147063E-05  0.1906796E+04  0.7818609E-02  0.8651481E-01
       -1   -1    0    0    0  501  0.00000000000E+00  0.00000000000E+00  0.10982461144E+04  0.10982461144E+04  0.50400001928E-02 0. -1.
        1   -1    0    0  501    0  0.00000000000E+00  0.00000000000E+00 -0.82765359631E+03  0.82765359633E+03  0.50400001928E-02 0.  1.
    10030    2    1    2    0    0  0.00000000000E+00  0.00000000000E+00  0.27059251808E+03  0.19258997107E+04  0.19067955803E+04 0.  0.
        5    1    3    3  502    0 -0.36111748830E+03  0.79770764473E+03 -0.24557857310E+03  0.90943622777E+03  0.46999998093E+01 0.  1.
       -5    1    3    3    0  502  0.36111748830E+03 -0.79770764473E+03  0.51617109118E+03  0.10164634830E+04  0.46999998093E+01 0. -1.
</event>
<event>
 5   0  0.3144958E-05  0.1868947E+04  0.7818609E-02  0.8670470E-01
        1   -1    0    0  501    0  0.00000000000E+00  0.00000000000E+00  0.13374934466E+04  0.13374934466E+04  0.50400001928E-02 0. -1.
       -1   -1    0    0    0  501  0.00000000000E+00  0.00000000000E+00 -0.65289312934E+03  0.65289312936E+03  0.50400001928E-02 0.  1.
    10030    2    1    2    0    0  0.00000000000E+00  0.00000000000E+00  0.68460031723E+03  0.19903865759E+04  0.18689465287E+04 0.  0.
        4    1    3    3  502    0  0.75468748253E+03 -0.18326724214E+03  0.89577988391E+03  0.11855645455E+04  0.12699999809E+01 0. -1.
       -4    1    3    3    0  502 -0.75468748253E+03  0.18326724214E+03 -0.21117956667E+03  0.80482203039E+03  0.12699999809E+01 0.  1.
</event>
<event>
 5   0  0.3086139E-05  0.1893697E+04  0.7818609E-02  0.8658000E-01
        1   -1    0    0  501    0  0.00000000000E+00  0.00000000000E+00  0.54064298228E+03  0.54064298231E+03  0.50400001928E-02 0. -1.
       -1   -1    0    0    0  501  0.00000000000E+00  0.00000000000E+00 -0.16582520140E+04  0.16582520140E+04  0.50400001928E-02 0.  1.
    10030    2    1    2    0    0  0.00000000000E+00  0.00000000000E+00 -0.11176090317E+04  0.21988949963E+04  0.18936972454E+04 0.  0.
        2    1    3    3  502    0 -0.89803042121E+03 -0.19624482712E+03 -0.82244688541E+03  0.12334462084E+04  0.25500000920E-02 0.  1.
       -2    1    3    3    0  502  0.89803042121E+03  0.19624482712E+03 -0.29516214633E+03  0.96544878798E+03  0.25500000920E-02 0. -1.
</event>
<event>
 5   0  0.6423388E-05  0.1902530E+04  0.7818609E-02  0.8653598E-01
        2   -1    0    0  501    0  0.00000000000E+00  0.00000000000E+00  0.21803774663E+04  0.21803774663E+04  0.25500000920E-02 0.  1.
       -2   -1    0    0    0  501  0.00000000000E+00  0.00000000000E+00 -0.41502210283E+03  0.41502210284E+03  0.25500000920E-02 0. -1.
    10030    2    1    2    0    0  0.00000000000E+00  0.00000000000E+00  0.17653553635E+04  0.25953995691E+04  0.19025297275E+04 0.  0.
        2    1    3    3  502    0  0.80752904278E+03 -0.49862750220E+03  0.79456051019E+03  0.12377636872E+04  0.25500000920E-02 0.  1.
       -2    1    3    3    0  502 -0.80752904278E+03  0.49862750220E+03  0.97079485328E+03  0.13576358820E+04  0.25500000920E-02 0. -1.
</event>
<event>
 5   0  0.6452182E-05  0.1893846E+04  0.7818609E-02  0.8657926E-01
        2   -1    0    0  501    0  0.00000000000E+00  0.00000000000E+00  0.11796204861E+04  0.11796204861E+04  0.25500000920E-02 0. -1.
       -2   -1    0    0    0  501  0.00000000000E+00  0.00000000000E+00 -0.76012873827E+03  0.76012873827E+03  0.25500000920E-02 0.  1.
    10030    2    1    2    0    0  0.00000000000E+00  0.00000000000E+00  0.41949174780E+03  0.19397492243E+04  0.18938462786E+04 0.  0.
        3    1    3    3  502    0  0.31578965531E+03  0.31919954272E+03  0.10636507634E+04  0.11545407794E+04  0.10100000352E+00 0. -1.
       -3    1    3    3    0  502 -0.31578965531E+03 -0.31919954272E+03 -0.64415901562E+03  0.78520844499E+03  0.10100000352E+00 0.  1.
</event>
<event>
 5   0  0.6395992E-05  0.1899165E+04  0.7818609E-02  0.8655272E-01
       -2   -1    0    0    0  501  0.00000000000E+00  0.00000000000E+00  0.80975772374E+03  0.80975772374E+03  0.25500000920E-02 0.  1.
        2   -1    0    0  501    0  0.00000000000E+00  0.00000000000E+00 -0.11135520098E+04  0.11135520098E+04  0.25500000920E-02 0. -1.
    10030    2    1    2    0    0  0.00000000000E+00  0.00000000000E+00 -0.30379428601E+03  0.19233097335E+04  0.18991654385E+04 0.  0.
        4    1    3    3  502    0 -0.17563699144E+03 -0.83853337901E+03  0.26284460532E+03  0.89614478737E+03  0.12699999809E+01 0.  1.
       -4    1    3    3    0  502  0.17563699144E+03  0.83853337901E+03 -0.56663889133E+03  0.10271649461E+04  0.12699999809E+01 0. -1.
</event>
<event>
 5   0  0.3147063E-05  0.1907089E+04  0.7818609E-02  0.8651336E-01
       -1   -1    0    0    0  501  0.00000000000E+00  0.00000000000E+00  0.10233843484E+04  0.10233843484E+04  0.50400001928E-02 0.  1.
        1   -1    0    0  501    0  0.00000000000E+00  0.00000000000E+00 -0.88847059794E+03  0.88847059796E+03  0.50400001928E-02 0. -1.
    10030    2    1    2    0    0  0.00000000000E+00  0.00000000000E+00  0.13491375043E+03  0.19118549463E+04  0.19070887803E+04 0.  0.
        5    1    3    3  502    0  0.43384853218E+03 -0.23170358803E+03  0.88639115834E+03  0.10137171584E+04  0.46999998093E+01 0.  1.
       -5    1    3    3    0  502 -0.43384853218E+03  0.23170358803E+03 -0.75147740791E+03  0.89813778797E+03  0.46999998093E+01 0. -1.
</event>
<event>
 5   0  0.6361762E-05  0.1888684E+04  0.7818609E-02  0.8660510E-01
        2   -1    0    0  501    0  0.00000000000E+00  0.00000000000E+00  0.62866025773E+03  0.62866025774E+03  0.25500000920E-02 0.  1.
       -2   -1    0    0    0  501  0.00000000000E+00  0.00000000000E+00 -0.14185433438E+04  0.14185433438E+04  0.25500000920E-02 0. -1.
    10030    2    1    2    0    0  0.00000000000E+00  0.00000000000E+00 -0.78988308607E+03  0.20472036016E+04  0.18886840118E+04 0.  0.
        1    1    3    3  502    0 -0.11879080192E+03  0.85441122893E+03  0.21564619412E+02  0.86289908771E+03  0.50400001928E-02 0.  1.
       -1    1    3    3    0  502  0.11879080192E+03 -0.85441122893E+03 -0.81144770549E+03  0.11843045138E+04  0.50400001928E-02 0. -1.
</event>
<event>
 5   0  0.6098377E-05  0.1912577E+04  0.7818609E-02  0.8648621E-01
        2   -1    0    0  501    0  0.00000000000E+00  0.00000000000E+00  0.12510036947E+04  0.12510036947E+04  0.25500000920E-02 0.  1.
       -2   -1    0    0    0  501  0.00000000000E+00  0.00000000000E+00 -0.73100303997E+03  0.73100303998E+03  0.25500000920E-02 0. -1.
    10030    2    1    2    0    0  0.00000000000E+00  0.00000000000E+00  0.52000065474E+03  0.19820067347E+04  0.19125767999E+04 0.  0.
        5    1    3    3  502    0  0.91077952663E+03  0.23234842849E+03  0.44234314058E+03  0.10388429537E+04  0.46999998093E+01 0. -1.
       -5    1    3    3    0  502 -0.91077952663E+03 -0.23234842849E+03  0.77657514153E+02  0.94316378103E+03  0.46999998093E+01 0.  1.
</event>
<event>
 5   0  0.3144958E-05  0.1897223E+04  0.7818609E-02  0.8656240E-01
        1   -1    0    0  501    0  0.00000000000E+00  0.00000000000E+00  0.15693027721E+04  0.15693027721E+04  0.50400001928E-02 0.  1.
       -1   -1    0    0    0  501  0.00000000000E+00  0.00000000000E+00 -0.57341657551E+03  0.57341657554E+03  0.50400001928E-02 0. -1.
    10030    2    1    2    0    0  0.00000000000E+00  0.00000000000E+00  0.99588619657E+03  0.21427193476E+04  0.18972234676E+04 0.  0.
        4    1    3    3  502    0  0.84994997089E+03  0.17342056005E+03  0.64376603210E+02  0.86984803478E+03  0.12699999809E+01 0. -1.
       -4    1    3    3    0  502 -0.84994997089E+03 -0.17342056005E+03  0.93150959336E+03  0.12728713129E+04  0.12699999809E+01 0.  1.
</event>
<event>
 5   0  0.3086139E-05  0.1880022E+04  0.7818609E-02  0.8664865E-01
       -1   -1    0    0    0  501  0.00000000000E+00  0.00000000000E+00  0.48878027752E+03  0.48878027755E+03  0.50400001928E-02 0. -1.
        1   -1    0    0  501    0  0.00000000000E+00  0.00000000000E+00 -0.18078066750E+04  0.18078066750E+04  0.50400001928E-02 0.  1.
    10030    2    1    2    0    0  0.00000000000E+00  0.00000000000E+00 -0.13190263975E+04  0.22965869525E+04  0.18800215407E+04 0.  0.
        2    1    3    3  502    0 -0.53838884170E+03 -0.50274452558E+02 -0.15988003173E+04  0.16877655406E+04  0.25500000920E-02 0.  1.
       -2    1    3    3    0  502  0.53838884170E+03  0.50274452558E+02  0.27977391981E+03  0.60882141196E+03  0.25500000920E-02 0. -1.
</event>
<event>
 5   0  0.3086139E-05  0.1894542E+04  0.7818609E-02  0.8657578E-01
       -1   -1    0    0    0  501  0.00000000000E+00  0.00000000000E+00  0.61640104847E+03  0.61640104849E+03  0.50400001928E-02 0. -1.
        1   -1    0    0  501    0  0.00000000000E+00  0.00000000000E+00 -0.14557442801E+04  0.14557442801E+04  0.50400001928E-02 0.  1.
    10030    2    1    2    0    0  0.00000000000E+00  0.00000000000E+00 -0.83934323166E+03  0.20721453286E+04  0.18945419506E+04 0.  0.
        2    1    3    3  502    0  0.25513103983E+03 -0.38712128488E+03 -0.13231654065E+04  0.14020418787E+04  0.25500000920E-02 0.  1.
       -2    1    3    3    0  502 -0.25513103983E+03  0.38712128488E+03  0.48382217485E+03  0.67010344991E+03  0.25500000920E-02 0. -1.
</event>
<event>
 5   0  0.3147063E-05  0.1928297E+04  0.7818609E-02  0.8640898E-01
       -1   -1    0    0    0  501  0.00000000000E+00  0.00000000000E+00  0.11698335875E+04  0.11698335876E+04  0.50400001928E-02 0. -1.
        1   -1    0    0  501    0  0.00000000000E+00  0.00000000000E+00 -0.79462802950E+03  0.79462802951E+03  0.50400001928E-02 0.  1.
    10030    2    1    2    0    0  0.00000000000E+00  0.00000000000E+00  0.37520555805E+03  0.19644616171E+04  0.19282972370E+04 0.  0.
        5    1    3    3  502    0 -0.41352606432E+03  0.77926847605E+03 -0.20866171877E+03  0.90654562297E+03  0.46999998093E+01 0.  1.
       -5    1    3    3    0  502  0.41352606432E+03 -0.77926847605E+03  0.58386727682E+03  0.10579159941E+04  0.46999998093E+01 0. -1.
</event>
<event>
 5   0  0.3086139E-05  0.1900139E+04  0.7818609E-02  0.8654787E-01
        1   -1    0    0  501    0  0.00000000000E+00  0.00000000000E+00  0.90721187383E+03  0.90721187385E+03  0.50400001928E-02 0.  1.
       -1   -1    0    0    0  501  0.00000000000E+00  0.00000000000E+00 -0.99495164135E+03  0.99495164137E+03  0.50400001928E-02 0. -1.
    10030    2    1    2    0    0  0.00000000000E+00  0.00000000000E+00 -0.87739767522E+02  0.19021635152E+04  0.19001388822E+04 0.  0.
        2    1    3    3  502    0  0.50754853674E+03  0.61095329911E+03 -0.56573378990E+03  0.97515340940E+03  0.25500000920E-02 0.  1.
       -2    1    3    3    0  502 -0.50754853674E+03 -0.61095329911E+03  0.47799402237E+03  0.92701010581E+03  0.25500000920E-02 0. -1.
</event>
<event>
 5   0  0.6423388E-05  0.1912246E+04  0.7818609E-02  0.8648785E-01
       -2   -1    0    0    0  501  0.00000000000E+00  0.00000000000E+00  0.94009631083E+03  0.94009631084E+03  0.25500000920E-02 0. -1.
        2   -1    0    0  501    0  0.00000000000E+00  0.00000000000E+00 -0.97242318361E+03  0.97242318361E+03  0.25500000920E-02 0.  1.
    10030    2    1    2    0    0  0.00000000000E+00  0.00000000000E+00 -0.32326872773E+02  0.19125194944E+04  0.19122462681E+04 0.  0.
        2    1    3    3  502    0  0.67812268023E+03 -0.50587255250E+03 -0.46166398910E+03  0.96378993959E+03  0.25500000920E-02 0.  1.
       -2    1    3    3    0  502 -0.67812268023E+03  0.50587255250E+03  0.42933711632E+03  0.94872955486E+03  0.25500000920E-02 0. -1.
</event>
<event>
 5   0  0.6423388E-05  0.1900330E+04  0.7818609E-02  0.8654692E-01
       -2   -1    0    0    0  501  0.00000000000E+00  0.00000000000E+00  0.86432745067E+03  0.86432745067E+03  0.25500000920E-02 0.  1.
        2   -1    0    0  501    0  0.00000000000E+00  0.00000000000E+00 -0.10445270335E+04  0.10445270335E+04  0.25500000920E-02 0. -1.
    10030    2    1    2    0    0  0.00000000000E+00  0.00000000000E+00 -0.18019958279E+03  0.19088544841E+04  0.19003298535E+04 0.  0.
        2    1    3    3  502    0  0.25468568638E+03  0.51003427546E+03  0.67345063049E+03  0.88234659443E+03  0.25500000920E-02 0.  1.
       -2    1    3    3    0  502 -0.25468568638E+03 -0.51003427546E+03 -0.85365021328E+03  0.10265078897E+04  0.25500000920E-02 0. -1.
</event>
<event>
 5   0  0.6452182E-05  0.1903662E+04  0.7818609E-02  0.8653036E-01
        2   -1    0    0  501    0  0.00000000000E+00  0.00000000000E+00  0.11295300695E+04  0.11295300695E+04  0.25500000920E-02 0. -1.
       -2   -1    0    0    0  501  0.00000000000E+00  0.00000000000E+00 -0.80208766327E+03  0.80208766328E+03  0.25500000920E-02 0.  1.
    10030    2    1    2    0    0  0.00000000000E+00  0.00000000000E+00  0.32744240621E+03  0.19316177328E+04  0.19036618755E+04 0.  0.
        3    1    3    3  502    0 -0.69561998367E+03  0.57861530708E+03 -0.13608231406E+03  0.91498701722E+03  0.10100000352E+00 0.  1.
       -3    1    3    3    0  502  0.69561998367E+03 -0.57861530708E+03  0.46352472027E+03  0.10166307155E+04  0.10100000352E+00 0. -1.
</event>
<event>
 5   0  0.3203527E-05  0.1899797E+04  0.7818609E-02  0.8654957E-01
       -1   -1    0    0    0  501  0.00000000000E+00  0.00000000000E+00  0.76376320350E+03  0.76376320352E+03  0.50400001928E-02 0. -1.
        1   -1    0    0  501    0  0.00000000000E+00  0.00000000000E+00 -0.11813964652E+04  0.11813964652E+04  0.50400001928E-02 0.  1.
    10030    2    1    2    0    0  0.00000000000E+00  0.00000000000E+00 -0.41763326170E+03  0.19451596687E+04  0.18997969880E+04 0.  0.
        1    1    3    3  502    0  0.73816599815E+03  0.60831189208E+02 -0.81775934975E+03  0.11033221780E+04  0.50400001928E-02 0.  1.
       -1    1    3    3    0  502 -0.73816599815E+03 -0.60831189208E+02  0.40012608804E+03  0.84183749071E+03  0.50400001928E-02 0. -1.
</event>
<event>
 5   0  0.3086139E-05  0.1904686E+04  0.7818609E-02  0.8652528E-01
        1   -1    0    0  501    0  0.00000000000E+00  0.00000000000E+00  0.14582966706E+04  0.14582966706E+04  0.50400001928E-02 0.  1.
       -1   -1    0    0    0  501  0.00000000000E+00  0.00000000000E+00 -0.62192881619E+03  0.62192881621E+03  0.50400001928E-02 0. -1.
    10030    2    1    2    0    0  0.00000000000E+00  0.00000000000E+00  0.83636785442E+03  0.20802254868E+04  0.19046855090E+04 0.  0.
        2    1    3    3  502    0  0.11730061889E+03  0.50354590351E+02  0.14489106233E+04  0.14545229507E+04  0.25500000920E-02 0.  1.
       -2    1    3    3    0  502 -0.11730061889E+03 -0.50354590351E+02 -0.61254276886E+03  0.62570253608E+03  0.25500000920E-02 0. -1.
</event>
<event>
 5   0  0.3086139E-05  0.1901852E+04  0.7818609E-02  0.8653935E-01
       -1   -1    0    0    0  501  0.00000000000E+00  0.00000000000E+00  0.61338269687E+03  0.61338269689E+03  0.50400001928E-02 0. -1.
        1   -1    0    0  501    0  0.00000000000E+00  0.00000000000E+00 -0.14742185607E+04  0.14742185607E+04  0.50400001928E-02 0.  1.
    10030    2    1    2    0    0  0.00000000000E+00  0.00000000000E+00 -0.86083586385E+03  0.20876012576E+04  0.19018518939E+04 0.  0.
        2    1    3    3  502    0 -0.79984589715E+03  0.19313680669E+03 -0.95363231681E+03  0.12595514602E+04  0.25500000920E-02 0. -1.
       -2    1    3    3    0  502  0.79984589715E+03 -0.19313680669E+03  0.92796452964E+02  0.82804979740E+03  0.25500000920E-02 0.  1.
</event>
<event>
 5   0  0.6452182E-05  0.1895593E+04  0.7818609E-02  0.8657053E-01
       -2   -1    0    0    0  501  0.00000000000E+00  0.00000000000E+00  0.75468512348E+03  0.75468512348E+03  0.25500000920E-02 0.  1.
        2   -1    0    0  501    0  0.00000000000E+00  0.00000000000E+00 -0.11903215752E+04  0.11903215752E+04  0.25500000920E-02 0. -1.
    10030    2    1    2    0    0  0.00000000000E+00  0.00000000000E+00 -0.43563645176E+03  0.19450066987E+04  0.18955927674E+04 0.  0.
        3    1    3    3  502    0 -0.22845292710E+03  0.59049400537E+03  0.50586446463E+03  0.81041518807E+03  0.10100000352E+00 0.  1.
       -3    1    3    3    0  502  0.22845292710E+03 -0.59049400537E+03 -0.94150091638E+03  0.11345915106E+04  0.10100000352E+00 0. -1.
</event>
<event>
 5   0  0.6423388E-05  0.1905056E+04  0.7818609E-02  0.8652344E-01
       -2   -1    0    0    0  501  0.00000000000E+00  0.00000000000E+00  0.29033809031E+03  0.29033809033E+03  0.25500000920E-02 0.  1.
        2   -1    0    0  501    0  0.00000000000E+00  0.00000000000E+00 -0.31250093426E+04  0.31250093426E+04  0.25500000920E-02 0. -1.
    10030    2    1    2    0    0  0.00000000000E+00  0.00000000000E+00 -0.28346712523E+04  0.34153474329E+04  0.19050556367E+04 0.  0.
        2    1    3    3  502    0 -0.68693101395E+03  0.38849605137E+02 -0.25982949244E+04  0.26878467263E+04  0.25500000920E-02 0. -1.
       -2    1    3    3    0  502  0.68693101395E+03 -0.38849605137E+02 -0.23637632784E+03  0.72750070661E+03  0.25500000920E-02 0.  1.
</event>
<event>
 5   0  0.6423388E-05  0.1895386E+04  0.7818609E-02  0.8657156E-01
       -2   -1    0    0    0  501  0.00000000000E+00  0.00000000000E+00  0.61826356523E+03  0.61826356523E+03  0.25500000920E-02 0.  1.
        2   -1    0    0  501    0  0.00000000000E+00  0.00000000000E+00 -0.14526523727E+04  0.14526523727E+04  0.25500000920E-02 0. -1.
    10030    2    1    2    0    0  0.00000000000E+00  0.00000000000E+00 -0.83438880746E+03  0.20709159379E+04  0.18953860134E+04 0.  0.
        2    1    3    3  502    0 -0.75550876078E+03  0.51652846590E+03 -0.14838838831E+03  0.92715384781E+03  0.25500000920E-02 0.  1.
       -2    1    3    3    0  502  0.75550876078E+03 -0.51652846590E+03 -0.68600041915E+03  0.11437620901E+04  0.25500000920E-02 0. -1.
</event>
<event>
 5   0  0.3144958E-05  0.1898001E+04  0.7818609E-02  0.8655852E-01
       -1   -1    0    0    0  501  0.00000000000E+00  0.00000000000E+00  0.34030792610E+03  0.34030792614E+03  0.50400001928E-02 0.  1.
        1   -1    0    0  501    0  0.00000000000E+00  0.00000000000E+00 -0.26464337526E+04  0.26464337526E+04  0.50400001928E-02 0. -1.
    10030    2    1    2    0    0  0.00000000000E+00  0.00000000000E+00 -0.23061258265E+04  0.29867416787E+04  0.18980014562E+04 0.  0.
        4    1    3    3  502    0 -0.21440643184E+02 -0.25072379368E+03 -0.25929755029E+04  0.26051575180E+04  0.12699999809E+01 0. -1.
       -4    1    3    3    0  502  0.21440643184E+02  0.25072379368E+03  0.28684967648E+03  0.38158416069E+03  0.12699999809E+01 0.  1.
</event>
<event>
 5   0  0.2279625E-05  0.1901844E+04  0.7818609E-02  0.8653939E-01
       -3   -1    0    0    0  501  0.00000000000E+00  0.00000000000E+00  0.95806810511E+03  0.95806811044E+03  0.10100000352E+00 0.  1.
        3   -1    0    0  501    0  0.00000000000E+00  0.00000000000E+00 -0.94382953022E+03  0.94382953562E+03  0.10100000352E+00 0. -1.
    10030    2    1    2    0    0  0.00000000000E+00  0.00000000000E+00  0.14238574893E+02  0.19018976461E+04  0.19018443467E+04 0.  0.
        1    1    3    3  502    0 -0.62022761202E+03 -0.23696112631E+03 -0.67364946095E+03  0.94585224129E+03  0.50400001928E-02 0. -1.
       -1    1    3    3    0  502  0.62022761202E+03  0.23696112631E+03  0.68788803584E+03  0.95604540477E+03  0.50400001928E-02 0.  1.
</event>
<event>
 5   0  0.6361762E-05  0.1902239E+04  0.7818609E-02  0.8653743E-01
        2   -1    0    0  501    0  0.00000000000E+00  0.00000000000E+00  0.12704628067E+04  0.12704628067E+04  0.25500000920E-02 0.  1.
       -2   -1    0    0    0  501  0.00000000000E+00  0.00000000000E+00 -0.71204652006E+03  0.71204652006E+03  0.25500000920E-02 0. -1.
    10030    2    1    2    0    0  0.00000000000E+00  0.00000000000E+00  0.55841628668E+03  0.19825093268E+04  0.19022393334E+04 0.  0.
        1    1    3    3  502    0 -0.20955350862E+03  0.58248401436E+03 -0.47336270132E+03  0.77927693857E+03  0.50400001928E-02 0. -1.
       -1    1    3    3    0  502  0.20955350862E+03 -0.58248401436E+03  0.10317789880E+04  0.12032323882E+04  0.50400001928E-02 0.  1.
</event>
<event>
 5   0  0.6452182E-05  0.1864470E+04  0.7818609E-02  0.8672747E-01
       -2   -1    0    0    0  501  0.00000000000E+00  0.00000000000E+00  0.62423052041E+03  0.62423052042E+03  0.25500000920E-02 0. -1.
        2   -1    0    0  501    0  0.00000000000E+00  0.00000000000E+00 -0.13922134859E+04  0.13922134859E+04  0.25500000920E-02 0.  1.
    10030    2    1    2    0    0  0.00000000000E+00  0.00000000000E+00 -0.76798296548E+03  0.20164440063E+04  0.18644700575E+04 0.  0.
        3    1    3    3  502    0 -0.29375541087E+02 -0.91538962953E+02 -0.13868380292E+04  0.13901661892E+04  0.10100000352E+00 0.  1.
       -3    1    3    3    0  502  0.29375541087E+02  0.91538962953E+02  0.61885506371E+03  0.62627781713E+03  0.10100000352E+00 0. -1.
</event>
<event>
 5   0  0.3086139E-05  0.1909919E+04  0.7818609E-02  0.8649935E-01
       -1   -1    0    0    0  501  0.00000000000E+00  0.00000000000E+00  0.15948508979E+04  0.15948508979E+04  0.50400001928E-02 0.  1.
        1   -1    0    0  501    0  0.00000000000E+00  0.00000000000E+00 -0.57180719719E+03  0.57180719721E+03  0.50400001928E-02 0. -1.
    10030    2    1    2    0    0  0.00000000000E+00  0.00000000000E+00  0.10230437007E+04  0.21666580951E+04  0.19099185552E+04 0.  0.
        2    1    3    3  502    0  0.85501216142E+03 -0.26860848853E+03  0.13741817330E+03  0.90668631325E+03  0.25500000920E-02 0. -1.
       -2    1    3    3    0  502 -0.85501216142E+03  0.26860848853E+03  0.88562552738E+03  0.12599717818E+04  0.25500000920E-02 0.  1.
</event>
<event>
 5   0  0.6452182E-05  0.1909692E+04  0.7818609E-02  0.8650047E-01
        2   -1    0    0  501    0  0.00000000000E+00  0.00000000000E+00  0.93618069473E+03  0.93618069474E+03  0.25500000920E-02 0.  1.
       -2   -1    0    0    0  501  0.00000000000E+00  0.00000000000E+00 -0.97388312456E+03  0.97388312457E+03  0.25500000920E-02 0. -1.
    10030    2    1    2    0    0  0.00000000000E+00  0.00000000000E+00 -0.37702429830E+02  0.19100638193E+04  0.19096916821E+04 0.  0.
        3    1    3    3  502    0 -0.52270352127E+03 -0.53854380230E+03 -0.60929003552E+03  0.96668648264E+03  0.10100000352E+00 0. -1.
       -3    1    3    3    0  502  0.52270352127E+03  0.53854380230E+03  0.57158760569E+03  0.94337733666E+03  0.10100000352E+00 0.  1.
</event>
<event>
 5   0  0.6423388E-05  0.1784360E+04  0.7818609E-02  0.8714661E-01
       -2   -1    0    0    0  501  0.00000000000E+00  0.00000000000E+00  0.80564578938E+03  0.80564578939E+03  0.25500000920E-02 0. -1.
        2   -1    0    0  501    0  0.00000000000E+00  0.00000000000E+00 -0.98800875313E+03  0.98800875313E+03  0.25500000920E-02 0.  1.
    10030    2    1    2    0    0  0.00000000000E+00  0.00000000000E+00 -0.18236296374E+03  0.17936545425E+04  0.17843599321E+04 0.  0.
        2    1    3    3  502    0  0.38301229075E+03 -0.46473823902E+03 -0.75286941170E+03  0.96410186015E+03  0.25500000920E-02 0.  1.
       -2    1    3    3    0  502 -0.38301229075E+03  0.46473823902E+03  0.57050644795E+03  0.82955268237E+03  0.25500000920E-02 0. -1.
</event>
<event>
 5   0  0.6098377E-05  0.1900733E+04  0.7818609E-02  0.8654491E-01
        2   -1    0    0  501    0  0.00000000000E+00  0.00000000000E+00  0.21360287745E+04  0.21360287745E+04  0.25500000920E-02 0. -1.
       -2   -1    0    0    0  501  0.00000000000E+00  0.00000000000E+00 -0.42283929693E+03  0.42283929694E+03  0.25500000920E-02 0.  1.
    10030    2    1    2    0    0  0.00000000000E+00  0.00000000000E+00  0.17131894775E+04  0.25588680714E+04  0.19007334429E+04 0.  0.
        5    1    3    3  502    0  0.21393607725E+03  0.44850641814E+03  0.19471827762E+04  0.20095943636E+04  0.46999998093E+01 0. -1.
       -5    1    3    3    0  502 -0.21393607725E+03 -0.44850641814E+03 -0.23399329868E+03  0.54927370781E+03  0.46999998093E+01 0.  1.
</event>
<event>
 5   0  0.3147063E-05  0.1875390E+04  0.7818609E-02  0.8667204E-01
        1   -1    0    0  501    0  0.00000000000E+00  0.00000000000E+00  0.12919052148E+04  0.12919052148E+04  0.50400001928E-02 0. -1.
       -1   -1    0    0    0  501  0.00000000000E+00  0.00000000000E+00 -0.68060123085E+03  0.68060123086E+03  0.50400001928E-02 0.  1.
    10030    2    1    2    0    0  0.00000000000E+00  0.00000000000E+00  0.61130398392E+03  0.19725064456E+04  0.18753903906E+04 0.  0.
        5    1    3    3  502    0  0.26227920350E+03  0.83366747530E+03  0.66303953995E+03  0.10970120152E+04  0.46999998093E+01 0.  1.
       -5    1    3    3    0  502 -0.26227920350E+03 -0.83366747530E+03 -0.51735556033E+02  0.87549443043E+03  0.46999998093E+01 0. -1.
</event>
<event>
 5   0  0.3147063E-05  0.1896713E+04  0.7818609E-02  0.8656494E-01
        1   -1    0    0  501    0  0.00000000000E+00  0.00000000000E+00  0.10466556162E+04  0.10466556163E+04  0.50400001928E-02 0.  1.
       -1   -1    0    0    0  501  0.00000000000E+00  0.00000000000E+00 -0.85928915222E+03  0.85928915224E+03  0.50400001928E-02 0. -1.
    10030    2    1    2    0    0  0.00000000000E+00  0.00000000000E+00  0.18736646402E+03  0.19059447685E+04  0.18967127533E+04 0.  0.
        5    1    3    3  502    0  0.66812903493E+02 -0.90921610834E+03  0.35614380213E+03  0.97877392361E+03  0.46999998093E+01 0.  1.
       -5    1    3    3    0  502 -0.66812903493E+02  0.90921610834E+03 -0.16877733811E+03  0.92717084488E+03  0.46999998093E+01 0. -1.
</event>
<event>
 5   0  0.6361762E-05  0.1898397E+04  0.7818609E-02  0.8655655E-01
       -2   -1    0    0    0  501  0.00000000000E+00  0.00000000000E+00  0.43720436328E+03  0.43720436329E+03  0.25500000920E-02 0.  1.
        2   -1    0    0  501    0  0.00000000000E+00  0.00000000000E+00 -0.20607711524E+04  0.20607711524E+04  0.25500000920E-02 0. -1.
    10030    2    1    2    0    0  0.00000000000E+00  0.00000000000E+00 -0.16235667891E+04  0.24979755157E+04  0.18983973657E+04 0.  0.
        1    1    3    3  502    0  0.54708726666E+02 -0.69248833863E+03  0.39394318776E+02  0.69576221246E+03  0.50400001928E-02 0.  1.
       -1    1    3    3    0  502 -0.54708726666E+02  0.69248833863E+03 -0.16629611079E+04  0.18022133032E+04  0.50400001928E-02 0. -1.
</event>
<event>
 5   0  0.3144958E-05  0.1892708E+04  0.7818609E-02  0.8658495E-01
       -1   -1    0    0    0  501  0.00000000000E+00  0.00000000000E+00  0.55704167462E+03  0.55704167464E+03  0.50400001928E-02 0.  1.
        1   -1    0    0  501    0  0.00000000000E+00  0.00000000000E+00 -0.16077530445E+04  0.16077530445E+04  0.50400001928E-02 0. -1.
    10030    2    1    2    0    0  0.00000000000E+00  0.00000000000E+00 -0.10507113699E+04  0.21647947192E+04  0.18927075298E+04 0.  0.
        4    1    3    3  502    0 -0.81216318118E+03 -0.42779078259E+03 -0.78859307546E+03  0.12101630626E+04  0.12699999809E+01 0.  1.
       -4    1    3    3    0  502  0.81216318118E+03  0.42779078259E+03 -0.26211829444E+03  0.95463165656E+03  0.12699999809E+01 0. -1.
</event>
<event>
 5   0  0.6423388E-05  0.1887103E+04  0.7818609E-02  0.8661303E-01
        2   -1    0    0  501    0  0.00000000000E+00  0.00000000000E+00  0.12388569005E+04  0.12388569005E+04  0.25500000920E-02 0.  1.
       -2   -1    0    0    0  501  0.00000000000E+00  0.00000000000E+00 -0.71863811836E+03  0.71863811836E+03  0.25500000920E-02 0. -1.
    10030    2    1    2    0    0  0.00000000000E+00  0.00000000000E+00  0.52021878213E+03  0.19574950189E+04  0.18871033802E+04 0.  0.
        2    1    3    3  502    0 -0.15536998695E+03 -0.24386873985E+03  0.11917643043E+04  0.12263416947E+04  0.25500000920E-02 0.  1.
       -2    1    3    3    0  502  0.15536998695E+03  0.24386873985E+03 -0.67154552216E+03  0.73115332418E+03  0.25500000920E-02 0. -1.
</event>
<event>
 5   0  0.3203527E-05  0.1867858E+04  0.7818609E-02  0.8671023E-01
       -1   -1    0    0    0  501  0.00000000000E+00  0.00000000000E+00  0.47215493471E+03  0.47215493474E+03  0.50400001928E-02 0. -1.
        1   -1    0    0  501    0  0.00000000000E+00  0.00000000000E+00 -0.18473241885E+04  0.18473241885E+04  0.50400001928E-02 0.  1.
    10030    2    1    2    0    0  0.00000000000E+00  0.00000000000E+00 -0.13751692538E+04  0.23194791232E+04  0.18678578443E+04 0.  0.
        1    1    3    3  502    0  0.25919546259E+03 -0.47416594765E+03 -0.16334696590E+04  0.17205344404E+04  0.50400001928E-02 0.  1.
       -1    1    3    3    0  502 -0.25919546259E+03  0.47416594765E+03  0.25830040521E+03  0.59894468284E+03  0.50400001928E-02 0. -1.
</event>
<event>
 5   0  0.6395992E-05  0.1900983E+04  0.7818609E-02  0.8654367E-01
       -2   -1    0    0    0  501  0.00000000000E+00  0.00000000000E+00  0.33773060587E+03  0.33773060588E+03  0.25500000920E-02 0. -1.
        2   -1    0    0  501    0  0.00000000000E+00  0.00000000000E+00 -0.26750143822E+04  0.26750143822E+04  0.25500000920E-02 0.  1.
    10030    2    1    2    0    0  0.00000000000E+00  0.00000000000E+00 -0.23372837763E+04  0.30127449880E+04  0.19009831435E+04 0.  0.
        4    1    3    3  502    0  0.81881856751E+03 -0.45400545575E+03 -0.14283219334E+04  0.17078319468E+04  0.12699999809E+01 0.  1.
       -4    1    3    3    0  502 -0.81881856751E+03  0.45400545575E+03 -0.90896184292E+03  0.13049130412E+04  0.12699999809E+01 0. -1.
</event>
<event>
 5   0  0.3144958E-05  0.1902686E+04  0.7818609E-02  0.8653520E-01
       -1   -1    0    0    0  501  0.00000000000E+00  0.00000000000E+00  0.65831286472E+03  0.65831286474E+03  0.50400001928E-02 0. -1.
        1   -1    0    0  501    0  0.00000000000E+00  0.00000000000E+00 -0.13748077044E+04  0.13748077044E+04  0.50400001928E-02 0.  1.
    10030    2    1    2    0    0  0.00000000000E+00  0.00000000000E+00 -0.71649483971E+03  0.20331205692E+04  0.19026860996E+04 0.  0.
        4    1    3    3  502    0  0.68912945041E+03 -0.40553121117E+03 -0.90904158745E+03  0.12106664211E+04  0.12699999809E+01 0.  1.
       -4    1    3    3    0  502 -0.68912945041E+03  0.40553121117E+03  0.19254674775E+03  0.82245414804E+03  0.12699999809E+01 0. -1.
</event>
<event>
 5   0  0.6098377E-05  0.1897602E+04  0.7818609E-02  0.8656051E-01
       -2   -1    0    0    0  501  0.00000000000E+00  0.00000000000E+00  0.11286510764E+04  0.11286510764E+04  0.25500000920E-02 0. -1.
        2   -1    0    0  501    0  0.00000000000E+00  0.00000000000E+00 -0.79761000957E+03  0.79761000957E+03  0.25500000920E-02 0.  1.
    10030    2    1    2    0    0  0.00000000000E+00  0.00000000000E+00  0.33104106679E+03  0.19262610859E+04  0.18976020614E+04 0.  0.
        5    1    3    3  502    0 -0.34868042363E+03  0.57103053526E+03 -0.51735577046E+03  0.84577360638E+03  0.46999998093E+01 0.  1.
       -5    1    3    3    0  502  0.34868042363E+03 -0.57103053526E+03  0.84839683725E+03  0.10804874796E+04  0.46999998093E+01 0. -1.
</event>
<event>
 5   0  0.3144958E-05  0.1904722E+04  0.7818609E-02  0.8652509E-01
        1   -1    0    0  501    0  0.00000000000E+00  0.00000000000E+00  0.67905318485E+03  0.67905318487E+03  0.50400001928E-02 0.  1.
       -1   -1    0    0    0  501  0.00000000000E+00  0.00000000000E+00 -0.13356714181E+04  0.13356714182E+04  0.50400001928E-02 0. -1.
    10030    2    1    2    0    0  0.00000000000E+00  0.00000000000E+00 -0.65661823329E+03  0.20147246030E+04  0.19047224789E+04 0.  0.
        4    1    3    3  502    0  0.30322429015E+02  0.86467542541E+03 -0.74929889019E+03  0.11445669403E+04  0.12699999809E+01 0. -1.
       -4    1    3    3    0  502 -0.30322429015E+02 -0.86467542541E+03  0.92680656893E+02  0.87015766276E+03  0.12699999809E+01 0.  1.
</event>
<event>
 5   0  0.3147063E-05  0.1899987E+04  0.7818609E-02  0.8654863E-01
       -1   -1    0    0    0  501  0.00000000000E+00  0.00000000000E+00  0.69486031270E+03  0.69486031272E+03  0.50400001928E-02 0.  1.
        1   -1    0    0  501    0  0.00000000000E+00  0.00000000000E+00 -0.12988048482E+04  0.12988048482E+04  0.50400001928E-02 0. -1.
    10030    2    1    2    0    0  0.00000000000E+00  0.00000000000E+00 -0.60394453545E+03  0.19936651609E+04  0.18999873083E+04 0.  0.
        5    1    3    3  502    0  0.25726633208E+03 -0.27654573619E+03 -0.12166157291E+04  0.12739071520E+04  0.46999998093E+01 0. -1.
       -5    1    3    3    0  502 -0.25726633208E+03  0.27654573619E+03  0.61267119360E+03  0.71975800884E+03  0.46999998093E+01 0.  1.
</event>
<event>
 5   0  0.6361762E-05  0.1901630E+04  0.7818609E-02  0.8654045E-01
       -2   -1    0    0    0  501  0.00000000000E+00  0.00000000000E+00  0.83433597587E+03  0.83433597587E+03  0.25500000920E-02 0. -1.
        2   -1    0    0  501    0  0.00000000000E+00  0.00000000000E+00 -0.10835555251E+04  0.10835555251E+04  0.25500000920E-02 0.  1.
    10030    2    1    2    0    0  0.00000000000E+00  0.00000000000E+00 -0.24921954926E+03  0.19178915010E+04  0.19016302022E+04 0.  0.
        1    1    3    3  502    0 -0.87511730524E+03 -0.25501010657E+03 -0.39745765878E+03  0.99440084620E+03  0.50400001928E-02 0.  1.
       -1    1    3    3    0  502  0.87511730524E+03  0.25501010657E+03  0.14823810952E+03  0.92349065481E+03  0.50400001928E-02 0. -1.
</event>
<event>
 5   0  0.3147063E-05  0.1900468E+04  0.7818609E-02  0.8654623E-01
        1   -1    0    0  501    0  0.00000000000E+00  0.00000000000E+00  0.13879114055E+04  0.13879114055E+04  0.50400001928E-02 0.  1.
       -1   -1    0    0    0  501  0.00000000000E+00  0.00000000000E+00 -0.65057836203E+03  0.65057836205E+03  0.50400001928E-02 0. -1.
    10030    2    1    2    0    0  0.00000000000E+00  0.00000000000E+00  0.73733304349E+03  0.20384897676E+04  0.19004684990E+04 0.  0.
        5    1    3    3  502    0 -0.34936919713E+03  0.10368424565E+02  0.13164425498E+04  0.13620607244E+04  0.46999998093E+01 0.  1.
       -5    1    3    3    0  502  0.34936919713E+03 -0.10368424565E+02 -0.57910950630E+03  0.67642904315E+03  0.46999998093E+01 0. -1.
</event>
<event>
 5   0  0.6361762E-05  0.1905373E+04  0.7818609E-02  0.8652187E-01
        2   -1    0    0  501    0  0.00000000000E+00  0.00000000000E+00  0.12220229500E+04  0.12220229500E+04  0.25500000920E-02 0.  1.
       -2   -1    0    0    0  501  0.00000000000E+00  0.00000000000E+00 -0.74271226396E+03  0.74271226396E+03  0.25500000920E-02 0. -1.
    10030    2    1    2    0    0  0.00000000000E+00  0.00000000000E+00  0.47931068606E+03  0.19647352140E+04  0.19053728578E+04 0.  0.
        1    1    3    3  502    0 -0.50201792008E+03 -0.49410995820E+03  0.90107917313E+03  0.11437265054E+04  0.50400001928E-02 0.  1.
       -1    1    3    3    0  502  0.50201792008E+03  0.49410995820E+03 -0.42176848707E+03  0.82100870859E+03  0.50400001928E-02 0. -1.
</event>
<event>
 5   0  0.3083469E-05  0.1898786E+04  0.7818609E-02  0.8655461E-01
       -1   -1    0    0    0  501  0.00000000000E+00  0.00000000000E+00  0.58909511458E+03  0.58909511461E+03  0.50400001928E-02 0.  1.
        1   -1    0    0  501    0  0.00000000000E+00  0.00000000000E+00 -0.15300535160E+04  0.15300535160E+04  0.50400001928E-02 0. -1.
    10030    2    1    2    0    0  0.00000000000E+00  0.00000000000E+00 -0.94095840138E+03  0.21191486306E+04  0.18987859820E+04 0.  0.
        3    1    3    3  502    0 -0.64182208635E+03  0.69752328864E+03 -0.41066125747E+03  0.10330135562E+04  0.10100000352E+00 0. -1.
       -3    1    3    3    0  502  0.64182208635E+03 -0.69752328864E+03 -0.53029714390E+03  0.10861350744E+04  0.10100000352E+00 0.  1.
</event>
<event>
 5   0  0.3147063E-05  0.1900615E+04  0.7818609E-02  0.8654550E-01
       -1   -1    0    0    0  501  0.00000000000E+00  0.00000000000E+00  0.64229244818E+03  0.64229244820E+03  0.50400001928E-02 0. -1.
        1   -1    0    0  501    0  0.00000000000E+00  0.00000000000E+00 -0.14060329999E+04  0.14060329999E+04  0.50400001928E-02 0.  1.
    10030    2    1    2    0    0  0.00000000000E+00  0.00000000000E+00 -0.76374055167E+03  0.20483254481E+04  0.19006150349E+04 0.  0.
        5    1    3    3  502    0  0.89599766438E+03  0.31435613396E+03 -0.34110614288E+03  0.10089633711E+04  0.46999998093E+01 0. -1.
       -5    1    3    3    0  502 -0.89599766438E+03 -0.31435613396E+03 -0.42263440879E+03  0.10393620770E+04  0.46999998093E+01 0.  1.
</event>
<event>
 5   0  0.6395992E-05  0.1910988E+04  0.7818609E-02  0.8649406E-01
       -2   -1    0    0    0  501  0.00000000000E+00  0.00000000000E+00  0.61901727035E+03  0.61901727035E+03  0.25500000920E-02 0. -1.
        2   -1    0    0  501    0  0.00000000000E+00  0.00000000000E+00 -0.14748676599E+04  0.14748676599E+04  0.25500000920E-02 0.  1.
    10030    2    1    2    0    0  0.00000000000E+00  0.00000000000E+00 -0.85585038951E+03  0.20938849302E+04  0.19109877581E+04 0.  0.
        4    1    3    3  502    0  0.49482223574E+03  0.80567825506E+03 -0.57895991154E+03  0.11086760968E+04  0.12699999809E+01 0.  1.
       -4    1    3    3    0  502 -0.49482223574E+03 -0.80567825506E+03 -0.27689047797E+03  0.98520883337E+03  0.12699999809E+01 0. -1.
</event>
<event>
 5   0  0.6423388E-05  0.1897950E+04  0.7818609E-02  0.8655878E-01
       -2   -1    0    0    0  501  0.00000000000E+00  0.00000000000E+00  0.82969941086E+03  0.82969941086E+03  0.25500000920E-02 0.  1.
        2   -1    0    0  501    0  0.00000000000E+00  0.00000000000E+00 -0.10853969722E+04  0.10853969722E+04  0.25500000920E-02 0. -1.
    10030    2    1    2    0    0  0.00000000000E+00  0.00000000000E+00 -0.25569756135E+03  0.19150963831E+04  0.18979496604E+04 0.  0.
        2    1    3    3  502    0  0.23151623054E+03  0.47720127250E+03 -0.92187123787E+03  0.10635635377E+04  0.25500000920E-02 0. -1.
       -2    1    3    3    0  502 -0.23151623054E+03 -0.47720127250E+03  0.66617367652E+03  0.85153284539E+03  0.25500000920E-02 0.  1.
</event>
<event>
 5   0  0.3144958E-05  0.1895249E+04  0.7818609E-02  0.8657225E-01
       -1   -1    0    0    0  501  0.00000000000E+00  0.00000000000E+00  0.63582149342E+03  0.63582149344E+03  0.50400001928E-02 0. -1.
        1   -1    0    0  501    0  0.00000000000E+00  0.00000000000E+00 -0.14123342031E+04  0.14123342031E+04  0.50400001928E-02 0.  1.
    10030    2    1    2    0    0  0.00000000000E+00  0.00000000000E+00 -0.77651270966E+03  0.20481556965E+04  0.18952492630E+04 0.  0.
        4    1    3    3  502    0  0.10512692762E+01  0.44656882659E+03 -0.12914905181E+04  0.13665190058E+04  0.12699999809E+01 0.  1.
       -4    1    3    3    0  502 -0.10512692762E+01 -0.44656882659E+03  0.51497780843E+03  0.68163669071E+03  0.12699999809E+01 0. -1.
</event>
<event>
 5   0  0.6098377E-05  0.1903387E+04  0.7818609E-02  0.8653172E-01
        2   -1    0    0  501    0  0.00000000000E+00  0.00000000000E+00  0.92805264037E+03  0.92805264037E+03  0.25500000920E-02 0. -1.
       -2   -1    0    0    0  501  0.00000000000E+00  0.00000000000E+00 -0.97593702645E+03  0.97593702645E+03  0.25500000920E-02 0.  1.
    10030    2    1    2    0    0  0.00000000000E+00  0.00000000000E+00 -0.47884386083E+02  0.19039896668E+04  0.19033874374E+04 0.  0.
        5    1    3    3  502    0 -0.87435176309E+03 -0.11000812515E+03  0.33548479805E+03  0.94295542468E+03  0.46999998093E+01 0. -1.
       -5    1    3    3    0  502  0.87435176309E+03  0.11000812515E+03 -0.38336918414E+03  0.96103424214E+03  0.46999998093E+01 0.  1.
</event>
<event>
 5   0  0.3203527E-05  0.1899736E+04  0.7818609E-02  0.8654988E-01
        1   -1    0    0  501    0  0.00000000000E+00  0.00000000000E+00  0.11431110643E+04  0.11431110643E+04  0.50400001928E-02 0. -1.
       -1   -1    0    0    0  501  0.00000000000E+00  0.00000000000E+00 -0.78929249612E+03  0.78929249614E+03  0.50400001928E-02 0.  1.
    10030    2    1    2    0    0  0.00000000000E+00  0.00000000000E+00  0.35381856813E+03  0.19324035604E+04  0.18997357556E+04 0.  0.
        1    1    3    3  502    0 -0.83435045757E+03 -0.27529338996E+02 -0.28403925774E+03  0.88180318128E+03  0.50400001928E-02 0.  1.
       -1    1    3    3    0  502  0.83435045757E+03  0.27529338996E+02  0.63785782587E+03  0.10506003791E+04  0.50400001928E-02 0. -1.
</event>
<event>
 5   0  0.6395992E-05  0.1902198E+04  0.7818609E-02  0.8653763E-01
        2   -1    0    0  501    0  0.00000000000E+00  0.00000000000E+00  0.78321130637E+03  0.78321130637E+03  0.25500000920E-02 0. -1.
       -2   -1    0    0    0  501  0.00000000000E+00  0.00000000000E+00 -0.11549749258E+04  0.11549749258E+04  0.25500000920E-02 0.  1.
    10030    2    1    2    0    0  0.00000000000E+00  0.00000000000E+00 -0.37176361938E+03  0.19381862321E+04  0.19021981184E+04 0.  0.
        4    1    3    3  502    0 -0.10293552977E+03 -0.41344755224E+03  0.68053103967E+03  0.80290641459E+03  0.12699999809E+01 0. -1.
       -4    1    3    3    0  502  0.10293552977E+03  0.41344755224E+03 -0.10522946590E+04  0.11352798175E+04  0.12699999809E+01 0.  1.
</event>
<event>
 5   0  0.3086139E-05  0.1879734E+04  0.7818609E-02  0.8665011E-01
        1   -1    0    0  501    0  0.00000000000E+00  0.00000000000E+00  0.14461135706E+04  0.14461135706E+04  0.50400001928E-02 0.  1.
       -1   -1    0    0    0  501  0.00000000000E+00  0.00000000000E+00 -0.61084388183E+03  0.61084388185E+03  0.50400001928E-02 0. -1.
    10030    2    1    2    0    0  0.00000000000E+00  0.00000000000E+00  0.83526968875E+03  0.20569574524E+04  0.18797336269E+04 0.  0.
        2    1    3    3  502    0 -0.74661094316E+02 -0.60099601323E+03 -0.36886280754E+03  0.70910525151E+03  0.25500000920E-02 0. -1.
       -2    1    3    3    0  502  0.74661094316E+02  0.60099601323E+03  0.12041324963E+04  0.13478522009E+04  0.25500000920E-02 0.  1.
</event>
<event>
 5   0  0.3086139E-05  0.1893797E+04  0.7818609E-02  0.8657950E-01
       -1   -1    0    0    0  501  0.00000000000E+00  0.00000000000E+00  0.10284712501E+04  0.10284712502E+04  0.50400001928E-02 0.  1.
        1   -1    0    0  501    0  0.00000000000E+00  0.00000000000E+00 -0.87179588610E+03  0.87179588612E+03  0.50400001928E-02 0. -1.
    10030    2    1    2    0    0  0.00000000000E+00  0.00000000000E+00  0.15667536404E+03  0.19002671363E+04  0.18937972488E+04 0.  0.
        2    1    3    3  502    0  0.61070559614E+03 -0.69754387787E+03  0.27157863062E+03  0.96606611541E+03  0.25500000920E-02 0.  1.
       -2    1    3    3    0  502 -0.61070559614E+03  0.69754387787E+03 -0.11490326658E+03  0.93420102087E+03  0.25500000920E-02 0. -1.
</event>
<event>
 5   0  0.6423388E-05  0.1892584E+04  0.7818609E-02  0.8658556E-01
        2   -1    0    0  501    0  0.00000000000E+00  0.00000000000E+00  0.10982317263E+04  0.10982317263E+04  0.25500000920E-02 0.  1.
       -2   -1    0    0    0  501  0.00000000000E+00  0.00000000000E+00 -0.81537339554E+03  0.81537339554E+03  0.25500000920E-02 0. -1.
    10030    2    1    2    0    0  0.00000000000E+00  0.00000000000E+00  0.28285833079E+03  0.19136051219E+04  0.18925844042E+04 0.  0.
        2    1    3    3  502    0 -0.91828082946E+03 -0.21954944231E+03  0.77263359922E+02  0.94731793299E+03  0.25500000920E-02 0. -1.
       -2    1    3    3    0  502  0.91828082946E+03  0.21954944231E+03  0.20559497087E+03  0.96628718889E+03  0.25500000920E-02 0.  1.
</event>
<event>
 5   0  0.3147063E-05  0.1897446E+04  0.7818609E-02  0.8656129E-01
       -1   -1    0    0    0  501  0.00000000000E+00  0.00000000000E+00  0.82526291277E+03  0.82526291278E+03  0.50400001928E-02 0.  1.
        1   -1    0    0  501    0  0.00000000000E+00  0.00000000000E+00 -0.10906526810E+04  0.10906526810E+04  0.50400001928E-02 0. -1.
    10030    2    1    2    0    0  0.00000000000E+00  0.00000000000E+00 -0.26538976819E+03  0.19159155937E+04  0.18974458710E+04 0.  0.
        5    1    3    3  502    0 -0.21041116660E+03 -0.81852616895E+03  0.30254049086E+03  0.89766964241E+03  0.46999998093E+01 0.  1.
       -5    1    3    3    0  502  0.21041116660E+03  0.81852616895E+03 -0.56793025904E+03  0.10182459513E+04  0.46999998093E+01 0. -1.
</event>
<event>
 5   0  0.3144958E-05  0.1904466E+04  0.7818609E-02  0.8652636E-01
        1   -1    0    0  501    0  0.00000000000E+00  0.00000000000E+00  0.26892266892E+04  0.26892266892E+04  0.50400001928E-02 0.  1.
       -1   -1    0    0    0  501  0.00000000000E+00  0.00000000000E+00 -0.33717798869E+03  0.33717798873E+03  0.50400001928E-02 0. -1.
    10030    2    1    2    0    0  0.00000000000E+00  0.00000000000E+00  0.23520487005E+04  0.30264046779E+04  0.19044663780E+04 0.  0.
        4    1    3    3  502    0  0.87737282051E+03  0.35288741660E+03  0.99882737727E+03  0.13754891266E+04  0.12699999809E+01 0. -1.
       -4    1    3    3    0  502 -0.87737282051E+03 -0.35288741660E+03  0.13532213232E+04  0.16509155513E+04  0.12699999809E+01 0.  1.
</event>
<event>
 5   0  0.3147063E-05  0.1904601E+04  0.7818609E-02  0.8652570E-01
       -1   -1    0    0    0  501  0.00000000000E+00  0.00000000000E+00  0.52485931499E+03  0.52485931501E+03  0.50400001928E-02 0. -1.
        1   -1    0    0  501    0  0.00000000000E+00  0.00000000000E+00 -0.17278460696E+04  0.17278460696E+04  0.50400001928E-02 0.  1.
    10030    2    1    2    0    0  0.00000000000E+00  0.00000000000E+00 -0.12029867546E+04  0.22527053846E+04  0.19046008553E+04 0.  0.
        5    1    3    3  502    0  0.98518705103E+01  0.34642294190E+03 -0.16505967268E+04  0.16865934776E+04  0.46999998093E+01 0.  1.
       -5    1    3    3    0  502 -0.98518705103E+01 -0.34642294190E+03  0.44760997223E+03  0.56611190701E+03  0.46999998093E+01 0. -1.
</event>
<event>
 5   0  0.6423388E-05  0.1909735E+04  0.7818609E-02  0.8650026E-01
       -2   -1    0    0    0  501  0.00000000000E+00  0.00000000000E+00  0.86093789673E+03  0.86093789674E+03  0.25500000920E-02 0. -1.
        2   -1    0    0  501    0  0.00000000000E+00  0.00000000000E+00 -0.10590444100E+04  0.10590444100E+04  0.25500000920E-02 0.  1.
    10030    2    1    2    0    0  0.00000000000E+00  0.00000000000E+00 -0.19810651331E+03  0.19199823068E+04  0.19097345019E+04 0.  0.
        2    1    3    3  502    0  0.54587693226E+03 -0.92144728072E+02 -0.88123788881E+03  0.10406980795E+04  0.25500000920E-02 0.  1.
       -2    1    3    3    0  502 -0.54587693226E+03  0.92144728072E+02  0.68313137550E+03  0.87928422724E+03  0.25500000920E-02 0. -1.
</event>
<event>
 5   0  0.6423388E-05  0.1900735E+04  0.7818609E-02  0.8654490E-01
        2   -1    0    0  501    0  0.00000000000E+00  0.00000000000E+00  0.95198207053E+03  0.95198207054E+03  0.25500000920E-02 0. -1.
       -2   -1    0    0    0  501  0.00000000000E+00  0.00000000000E+00 -0.94875607687E+03  0.94875607688E+03  0.25500000920E-02 0.  1.
    10030    2    1    2    0    0  0.00000000000E+00  0.00000000000E+00  0.32259936618E+01  0.19007381474E+04  0.19007354098E+04 0.  0.
        2    1    3    3  502    0  0.26769215609E+03  0.72107415959E+03 -0.55659183834E+03  0.94942167058E+03  0.25500000920E-02 0.  1.
       -2    1    3    3    0  502 -0.26769215609E+03 -0.72107415959E+03  0.55981783200E+03  0.95131647683E+03  0.25500000920E-02 0. -1.
</event>
<event>
 5   0  0.3203527E-05  0.1897824E+04  0.7818609E-02  0.8655940E-01
       -1   -1    0    0    0  501  0.00000000000E+00  0.00000000000E+00  0.84916565583E+03  0.84916565585E+03  0.50400001928E-02 0. -1.
        1   -1    0    0  501    0  0.00000000000E+00  0.00000000000E+00 -0.10603752802E+04  0.10603752802E+04  0.50400001928E-02 0.  1.
    10030    2    1    2    0    0  0.00000000000E+00  0.00000000000E+00 -0.21120962433E+03  0.19095409360E+04  0.18978243019E+04 0.  0.
        1    1    3    3  502    0 -0.33101860641E+03  0.74769397479E+03 -0.59004864314E+03  0.10083536081E+04  0.50400001928E-02 0.  1.
       -1    1    3    3    0  502  0.33101860641E+03 -0.74769397479E+03  0.37883901882E+03  0.90118732788E+03  0.50400001928E-02 0. -1.
</event>
<event>
 5   0  0.6452182E-05  0.1900598E+04  0.7818609E-02  0.8654559E-01
       -2   -1    0    0    0  501  0.00000000000E+00  0.00000000000E+00  0.68795777673E+03  0.68795777674E+03  0.25500000920E-02 0. -1.
        2   -1    0    0  501    0  0.00000000000E+00  0.00000000000E+00 -0.13126799102E+04  0.13126799102E+04  0.25500000920E-02 0.  1.
    10030    2    1    2    0    0  0.00000000000E+00  0.00000000000E+00 -0.62472213344E+03  0.20006376869E+04  0.19005981717E+04 0.  0.
        3    1    3    3  502    0 -0.91437243155E+03 -0.25524673192E+03 -0.26720182967E+03  0.98621735217E+03  0.10100000352E+00 0.  1.
       -3    1    3    3    0  502  0.91437243155E+03  0.25524673192E+03 -0.35752030377E+03  0.10144203347E+04  0.10100000352E+00 0. -1.
</event>
<event>
 5   0  0.6452182E-05  0.1905138E+04  0.7818609E-02  0.8652303E-01
        2   -1    0    0  501    0  0.00000000000E+00  0.00000000000E+00  0.88600264991E+03  0.88600264991E+03  0.25500000920E-02 0. -1.
       -2   -1    0    0    0  501  0.00000000000E+00  0.00000000000E+00 -0.10241365541E+04  0.10241365542E+04  0.25500000920E-02 0.  1.
    10030    2    1    2    0    0  0.00000000000E+00  0.00000000000E+00 -0.13813390424E+03  0.19101392041E+04  0.19051380011E+04 0.  0.
        3    1    3    3  502    0 -0.13467162978E+03  0.86571105024E+03  0.30580708312E+03  0.92796015683E+03  0.10100000352E+00 0. -1.
       -3    1    3    3    0  502  0.13467162978E+03 -0.86571105024E+03 -0.44394098736E+03  0.98217904724E+03  0.10100000352E+00 0.  1.
</event>
<event>
 5   0  0.6395992E-05  0.1903083E+04  0.7818609E-02  0.8653323E-01
        2   -1    0    0  501    0  0.00000000000E+00  0.00000000000E+00  0.22710666318E+04  0.22710666318E+04  0.25500000920E-02 0.  1.
       -2   -1    0    0    0  501  0.00000000000E+00  0.00000000000E+00 -0.39868106245E+03  0.39868106246E+03  0.25500000920E-02 0. -1.
    10030    2    1    2    0    0  0.00000000000E+00  0.00000000000E+00  0.18723855693E+04  0.26697476942E+04  0.19030830331E+04 0.  0.
        4    1    3    3  502    0  0.35188071988E+03  0.68471250575E+03  0.17207612558E+04  0.18851186087E+04  0.12699999809E+01 0.  1.
       -4    1    3    3    0  502 -0.35188071988E+03 -0.68471250575E+03  0.15162431356E+03  0.78462908557E+03  0.12699999809E+01 0. -1.
</event>
<event>
 5   0  0.3144958E-05  0.1902742E+04  0.7818609E-02  0.8653493E-01
        1   -1    0    0  501    0  0.00000000000E+00  0.00000000000E+00  0.10190522085E+04  0.10190522085E+04  0.50400001928E-02 0.  1.
       -1   -1    0    0    0  501  0.00000000000E+00  0.00000000000E+00 -0.88818501710E+03  0.88818501711E+03  0.50400001928E-02 0. -1.
    10030    2    1    2    0    0  0.00000000000E+00  0.00000000000E+00  0.13086719141E+03  0.19072372256E+04  0.19027421299E+04 0.  0.
        4    1    3    3  502    0 -0.42934467245E+03 -0.58910192942E+03  0.67821027186E+03  0.99566496211E+03  0.12699999809E+01 0.  1.
       -4    1    3    3    0  502  0.42934467245E+03  0.58910192942E+03 -0.54734308045E+03  0.91157226352E+03  0.12699999809E+01 0. -1.
</event>
<event>
 5   0  0.3144958E-05  0.1904449E+04  0.7818609E-02  0.8652645E-01
       -1   -1    0    0    0  501  0.00000000000E+00  0.00000000000E+00  0.50535162003E+03  0.50535162005E+03  0.50400001928E-02 0.  1.
        1   -1    0    0  501    0  0.00000000000E+00  0.00000000000E+00 -0.17942577943E+04  0.17942577943E+04  0.50400001928E-02 0. -1.
    10030    2    1    2    0    0  0.00000000000E+00  0.00000000000E+00 -0.12889061743E+04  0.22996094144E+04  0.19044485639E+04 0.  0.
        4    1    3    3  502    0 -0.43084184833E+03 -0.63852113020E+03  0.31522847581E+02  0.77092751592E+03  0.12699999809E+01 0.  1.
       -4    1    3    3    0  502  0.43084184833E+03  0.63852113020E+03 -0.13204290218E+04  0.15286818984E+04  0.12699999809E+01 0. -1.
</event>
<event>
 5   0  0.6098377E-05  0.1891999E+04  0.7818609E-02  0.8658849E-01
        2   -1    0    0  501    0  0.00000000000E+00  0.00000000000E+00  0.15575562240E+04  0.15575562240E+04  0.25500000920E-02 0.  1.
       -2   -1    0    0    0  501  0.00000000000E+00  0.00000000000E+00 -0.57456354489E+03  0.57456354490E+03  0.25500000920E-02 0. -1.
    10030    2    1    2    0    0  0.00000000000E+00  0.00000000000E+00  0.98299267911E+03  0.21321197689E+04  0.18919989698E+04 0.  0.
        5    1    3    3  502    0  0.78990934608E+03  0.45237843402E+03  0.78164089495E+03  0.11998281549E+04  0.46999998093E+01 0.  1.
       -5    1    3    3    0  502 -0.78990934608E+03 -0.45237843402E+03  0.20135178417E+03  0.93229161403E+03  0.46999998093E+01 0. -1.
</event>
<event>
 5   0  0.3144958E-05  0.1868977E+04  0.7818609E-02  0.8670455E-01
       -1   -1    0    0    0  501  0.00000000000E+00  0.00000000000E+00  0.73233653626E+03  0.73233653628E+03  0.50400001928E-02 0.  1.
        1   -1    0    0  501    0  0.00000000000E+00  0.00000000000E+00 -0.11924417436E+04  0.11924417436E+04  0.50400001928E-02 0. -1.
    10030    2    1    2    0    0  0.00000000000E+00  0.00000000000E+00 -0.46010520730E+03  0.19247782799E+04  0.18689768925E+04 0.  0.
        4    1    3    3  502    0 -0.28633145663E+02 -0.89750747624E+03 -0.49648015404E+03  0.10260768408E+04  0.12699999809E+01 0. -1.
       -4    1    3    3    0  502  0.28633145663E+02  0.89750747624E+03  0.36374946739E+02  0.89870143907E+03  0.12699999809E+01 0.  1.
</event>
<event>
 5   0  0.6452182E-05  0.1902310E+04  0.7818609E-02  0.8653708E-01
        2   -1    0    0  501    0  0.00000000000E+00  0.00000000000E+00  0.17013725777E+04  0.17013725777E+04  0.25500000920E-02 0.  1.
       -2   -1    0    0    0  501  0.00000000000E+00  0.00000000000E+00 -0.53174441111E+03  0.53174441112E+03  0.25500000920E-02 0. -1.
    10030    2    1    2    0    0  0.00000000000E+00  0.00000000000E+00  0.11696281666E+04  0.22331169888E+04  0.19023095010E+04 0.  0.
        3    1    3    3  502    0  0.45994090892E+03 -0.81658681652E+03  0.39431075317E+03  0.10167795478E+04  0.10100000352E+00 0. -1.
       -3    1    3    3    0  502 -0.45994090892E+03  0.81658681652E+03  0.77531741343E+03  0.12163374410E+04  0.10100000352E+00 0.  1.
</event>
<event>
 5   0  0.6098377E-05  0.1916133E+04  0.7818609E-02  0.8646867E-01
        2   -1    0    0  501    0  0.00000000000E+00  0.00000000000E+00  0.26623215000E+04  0.26623215000E+04  0.25500000920E-02 0.  1.
       -2   -1    0    0    0  501  0.00000000000E+00  0.00000000000E+00 -0.34477102362E+03  0.34477102363E+03  0.25500000920E-02 0. -1.
    10030    2    1    2    0    0  0.00000000000E+00  0.00000000000E+00  0.23175504764E+04  0.30070925236E+04  0.19161328855E+04 0.  0.
        5    1    3    3  502    0 -0.56394121952E+03  0.62308533548E+03  0.18806856277E+04  0.20599188224E+04  0.46999998093E+01 0.  1.
       -5    1    3    3    0  502  0.56394121952E+03 -0.62308533548E+03  0.43686484862E+03  0.94717370124E+03  0.46999998093E+01 0. -1.
</event>
<event>
 5   0  0.3144958E-05  0.1905140E+04  0.7818609E-02  0.8652302E-01
        1   -1    0    0  501    0  0.00000000000E+00  0.00000000000E+00  0.17024449862E+04  0.17024449862E+04  0.50400001928E-02 0.  1.
       -1   -1    0    0    0  501  0.00000000000E+00  0.00000000000E+00 -0.53299225114E+03  0.53299225117E+03  0.50400001928E-02 0. -1.
    10030    2    1    2    0    0  0.00000000000E+00  0.00000000000E+00  0.11694527350E+04  0.22354372373E+04  0.19051403997E+04 0.  0.
        4    1    3    3  502    0 -0.56751904819E+03  0.18486126857E+03  0.14558207340E+04  0.15734253021E+04  0.12699999809E+01 0.  1.
       -4    1    3    3    0  502  0.56751904819E+03 -0.18486126857E+03 -0.28636799901E+03  0.66201193526E+03  0.12699999809E+01 0. -1.
</event>
<event>
 5   0  0.3083469E-05  0.1899609E+04  0.7818609E-02  0.8655051E-01
        1   -1    0    0  501    0  0.00000000000E+00  0.00000000000E+00  0.92996415141E+03  0.92996415142E+03  0.50400001928E-02 0. -1.
       -1   -1    0    0    0  501  0.00000000000E+00  0.00000000000E+00 -0.97006840233E+03  0.97006840234E+03  0.50400001928E-02 0.  1.
    10030    2    1    2    0    0  0.00000000000E+00  0.00000000000E+00 -0.40104250923E+02  0.19000325538E+04  0.18996092636E+04 0.  0.
        3    1    3    3  502    0  0.74694747927E+02  0.48715904823E+02  0.92576753328E+03  0.93005273002E+03  0.10100000352E+00 0. -1.
       -3    1    3    3    0  502 -0.74694747927E+02 -0.48715904823E+02 -0.96587178420E+03  0.96997982374E+03  0.10100000352E+00 0.  1.
</event>
<event>
 5   0  0.3144958E-05  0.1905366E+04  0.7818609E-02  0.8652190E-01
       -1   -1    0    0    0  501  0.00000000000E+00  0.00000000000E+00  0.98402120395E+03  0.98402120397E+03  0.50400001928E-02 0.  1.
        1   -1    0    0  501    0  0.00000000000E+00  0.00000000000E+00 -0.92234318969E+03  0.92234318971E+03  0.50400001928E-02 0. -1.
    10030    2    1    2    0    0  0.00000000000E+00  0.00000000000E+00  0.61678014261E+02  0.19063643937E+04  0.19053663753E+04 0.  0.
        4    1    3    3  502    0  0.53665740214E+03  0.15778607682E+03  0.80241479679E+03  0.97814555784E+03  0.12699999809E+01 0.  1.
       -4    1    3    3    0  502 -0.53665740214E+03 -0.15778607682E+03 -0.74073678253E+03  0.92821883584E+03  0.12699999809E+01 0. -1.
</event>
<event>
 5   0  0.6098377E-05  0.1870637E+04  0.7818609E-02  0.8669612E-01
        2   -1    0    0  501    0  0.00000000000E+00  0.00000000000E+00  0.96175531297E+03  0.96175531298E+03  0.25500000920E-02 0. -1.
       -2   -1    0    0    0  501  0.00000000000E+00  0.00000000000E+00 -0.90960877374E+03  0.90960877374E+03  0.25500000920E-02 0.  1.
    10030    2    1    2    0    0  0.00000000000E+00  0.00000000000E+00  0.52146539237E+02  0.18713640867E+04  0.18706374003E+04 0.  0.
        5    1    3    3  502    0 -0.83504747157E+03 -0.56521803620E+02 -0.39158141278E+03  0.92404387715E+03  0.46999998093E+01 0.  1.
       -5    1    3    3    0  502  0.83504747157E+03  0.56521803620E+02  0.44372795202E+03  0.94732020957E+03  0.46999998093E+01 0. -1.
</event>
<event>
 5   0  0.3144958E-05  0.1882722E+04  0.7818609E-02  0.8663505E-01
        1   -1    0    0  501    0  0.00000000000E+00  0.00000000000E+00  0.97481447009E+03  0.97481447011E+03  0.50400001928E-02 0.  1.
       -1   -1    0    0    0  501  0.00000000000E+00  0.00000000000E+00 -0.90905550039E+03  0.90905550041E+03  0.50400001928E-02 0. -1.
    10030    2    1    2    0    0  0.00000000000E+00  0.00000000000E+00  0.65758969698E+02  0.18838699705E+04  0.18827219188E+04 0.  0.
        4    1    3    3  502    0 -0.30496274964E+03 -0.47360933359E+03  0.78756135555E+03  0.96827815280E+03  0.12699999809E+01 0.  1.
       -4    1    3    3    0  502  0.30496274964E+03  0.47360933359E+03 -0.72180238586E+03  0.91559181771E+03  0.12699999809E+01 0. -1.
</event>
<event>
 5   0  0.3086139E-05  0.1908835E+04  0.7818609E-02  0.8650471E-01
       -1   -1    0    0    0  501  0.00000000000E+00  0.00000000000E+00  0.29285158008E+03  0.29285158013E+03  0.50400001928E-02 0.  1.
        1   -1    0    0  501    0  0.00000000000E+00  0.00000000000E+00 -0.31104941711E+04  0.31104941711E+04  0.50400001928E-02 0. -1.
    10030    2    1    2    0    0  0.00000000000E+00  0.00000000000E+00 -0.28176425910E+04  0.34033457512E+04  0.19088353862E+04 0.  0.
        2    1    3    3  502    0  0.37682010756E+03  0.22829509238E+03 -0.29183345237E+04  0.29514044852E+04  0.25500000920E-02 0. -1.
       -2    1    3    3    0  502 -0.37682010756E+03 -0.22829509238E+03  0.10069193270E+03  0.45194126608E+03  0.25500000920E-02 0.  1.
</event>
<event>
 5   0  0.3147063E-05  0.1909877E+04  0.7818609E-02  0.8649956E-01
       -1   -1    0    0    0  501  0.00000000000E+00  0.00000000000E+00  0.38548397879E+03  0.38548397882E+03  0.50400001928E-02 0. -1.
        1   -1    0    0  501    0  0.00000000000E+00  0.00000000000E+00 -0.23656171973E+04  0.23656171973E+04  0.50400001928E-02 0.  1.
    10030    2    1    2    0    0  0.00000000000E+00  0.00000000000E+00 -0.19801332185E+04  0.27511011761E+04  0.19098769903E+04 0.  0.
        5    1    3    3  502    0  0.11226812838E+03 -0.75872650877E+03 -0.18095039508E+04  0.19653489984E+04  0.46999998093E+01 0.  1.
       -5    1    3    3    0  502 -0.11226812838E+03  0.75872650877E+03 -0.17062926775E+03  0.78575217771E+03  0.46999998093E+01 0. -1.
</event>
<event>
 5   0  0.6423388E-05  0.1903819E+04  0.7818609E-02  0.8652958E-01
       -2   -1    0    0    0  501  0.00000000000E+00  0.00000000000E+00  0.57636397530E+03  0.57636397531E+03  0.25500000920E-02 0.  1.
        2   -1    0    0  501    0  0.00000000000E+00  0.00000000000E+00 -0.15721526179E+04  0.15721526179E+04  0.25500000920E-02 0. -1.
    10030    2    1    2    0    0  0.00000000000E+00  0.00000000000E+00 -0.99578864262E+03  0.21485165932E+04  0.19038194585E+04 0.  0.
        2    1    3    3  502    0 -0.50485091478E+01 -0.84941679290E+03 -0.13023376043E+02  0.84953162616E+03  0.25500000920E-02 0.  1.
       -2    1    3    3    0  502  0.50485091478E+01  0.84941679290E+03 -0.98276526658E+03  0.12989849671E+04  0.25500000920E-02 0. -1.
</event>
<event>
 5   0  0.6395992E-05  0.1898398E+04  0.7818609E-02  0.8655654E-01
       -2   -1    0    0    0  501  0.00000000000E+00  0.00000000000E+00  0.52176450473E+03  0.52176450473E+03  0.25500000920E-02 0.  1.
        2   -1    0    0  501    0  0.00000000000E+00  0.00000000000E+00 -0.17267925641E+04  0.17267925641E+04  0.25500000920E-02 0. -1.
    10030    2    1    2    0    0  0.00000000000E+00  0.00000000000E+00 -0.12050280594E+04  0.22485570688E+04  0.18983983428E+04 0.  0.
        4    1    3    3  502    0 -0.42542230550E+03 -0.55607824793E+03  0.15661584881E+03  0.71745194461E+03  0.12699999809E+01 0.  1.
       -4    1    3    3    0  502  0.42542230550E+03  0.55607824793E+03 -0.13616439082E+04  0.15311051242E+04  0.12699999809E+01 0. -1.
</event>
<event>
 5   0  0.6452182E-05  0.1900986E+04  0.7818609E-02  0.8654366E-01
        2   -1    0    0  501    0  0.00000000000E+00  0.00000000000E+00  0.14717445185E+04  0.14717445185E+04  0.25500000920E-02 0. -1.
       -2   -1    0    0    0  501  0.00000000000E+00  0.00000000000E+00 -0.61385471669E+03  0.61385471669E+03  0.25500000920E-02 0.  1.
    10030    2    1    2    0    0  0.00000000000E+00  0.00000000000E+00  0.85788980185E+03  0.20855992352E+04  0.19009863908E+04 0.  0.
        3    1    3    3  502    0 -0.19806585265E+03  0.10713805683E+03 -0.58416668228E+03  0.62606658440E+03  0.10100000352E+00 0.  1.
       -3    1    3    3    0  502  0.19806585265E+03 -0.10713805683E+03  0.14420564841E+04  0.14595326508E+04  0.10100000352E+00 0. -1.
</event>
<event>
 5   0  0.3203527E-05  0.1880149E+04  0.7818609E-02  0.8664801E-01
       -1   -1    0    0    0  501  0.00000000000E+00  0.00000000000E+00  0.12022140225E+04  0.12022140225E+04  0.50400001928E-02 0. -1.
        1   -1    0    0  501    0  0.00000000000E+00  0.00000000000E+00 -0.73509388311E+03  0.73509388312E+03  0.50400001928E-02 0.  1.
    10030    2    1    2    0    0  0.00000000000E+00  0.00000000000E+00  0.46712013938E+03  0.19373079056E+04  0.18801491155E+04 0.  0.
        1    1    3    3  502    0 -0.19466431062E+03  0.76632316151E+03 -0.29042177970E+03  0.84231240751E+03  0.50400001928E-02 0.  1.
       -1    1    3    3    0  502  0.19466431062E+03 -0.76632316151E+03  0.75754191907E+03  0.10949954981E+04  0.50400001928E-02 0. -1.
</event>
<event>
 5   0  0.3083469E-05  0.1900731E+04  0.7818609E-02  0.8654493E-01
        1   -1    0    0  501    0  0.00000000000E+00  0.00000000000E+00  0.10232493881E+04  0.10232493881E+04  0.50400001928E-02 0. -1.
       -1   -1    0    0    0  501  0.00000000000E+00  0.00000000000E+00 -0.88267305397E+03  0.88267305398E+03  0.50400001928E-02 0.  1.
    10030    2    1    2    0    0  0.00000000000E+00  0.00000000000E+00  0.14057633413E+03  0.19059224421E+04  0.19007310829E+04 0.  0.
        3    1    3    3  502    0  0.80456918984E+03 -0.35707777955E+03 -0.28896194718E+03  0.92646378181E+03  0.10100000352E+00 0.  1.
       -3    1    3    3    0  502 -0.80456918984E+03  0.35707777955E+03  0.42953828131E+03  0.97945866028E+03  0.10100000352E+00 0. -1.
</event>
<event>
 5   0  0.3147063E-05  0.1897429E+04  0.7818609E-02  0.8656137E-01
       -1   -1    0    0    0  501  0.00000000000E+00  0.00000000000E+00  0.49303042835E+03  0.49303042838E+03  0.50400001928E-02 0. -1.
        1   -1    0    0  501    0  0.00000000000E+00  0.00000000000E+00 -0.18255645314E+04  0.18255645314E+04  0.50400001928E-02 0.  1.
    10030    2    1    2    0    0  0.00000000000E+00  0.00000000000E+00 -0.13325341031E+04  0.23185949598E+04  0.18974286421E+04 0.  0.
        5    1    3    3  502    0  0.31940259397E+03  0.36335950036E+03  0.33095722530E+03  0.58617652504E+03  0.46999998093E+01 0. -1.
       -5    1    3    3    0  502 -0.31940259397E+03 -0.36335950036E+03 -0.16634913284E+04  0.17324184348E+04  0.46999998093E+01 0.  1.
</event>
<event>
 5   0  0.3147063E-05  0.1936682E+04  0.7818609E-02  0.8636810E-01
        1   -1    0    0  501    0  0.00000000000E+00  0.00000000000E+00  0.63259907689E+03  0.63259907691E+03  0.50400001928E-02 0.  1.
       -1   -1    0    0    0  501  0.00000000000E+00  0.00000000000E+00 -0.14822720233E+04  0.14822720233E+04  0.50400001928E-02 0. -1.
    10030    2    1    2    0    0  0.00000000000E+00  0.00000000000E+00 -0.84967294639E+03  0.21148711002E+04  0.19366816090E+04 0.  0.
        5    1    3    3  502    0  0.16400277080E+03  0.15824517634E+03 -0.14525562839E+04  0.14703333951E+04  0.46999998093E+01 0. -1.
       -5    1    3    3    0  502 -0.16400277080E+03 -0.15824517634E+03  0.60288333754E+03  0.64453770514E+03  0.46999998093E+01 0.  1.
</event>
<event>
 5   0  0.6423388E-05  0.1909135E+04  0.7818609E-02  0.8650323E-01
        2   -1    0    0  501    0  0.00000000000E+00  0.00000000000E+00  0.77120288610E+03  0.77120288611E+03  0.25500000920E-02 0. -1.
       -2   -1    0    0    0  501  0.00000000000E+00  0.00000000000E+00 -0.11815292648E+04  0.11815292648E+04  0.25500000920E-02 0.  1.
    10030    2    1    2    0    0  0.00000000000E+00  0.00000000000E+00 -0.41032637868E+03  0.19527321509E+04  0.19091346511E+04 0.  0.
        2    1    3    3  502    0  0.30589200603E+03  0.64158253158E+03 -0.85689589514E+03  0.11133142590E+04  0.25500000920E-02 0.  1.
       -2    1    3    3    0  502 -0.30589200603E+03 -0.64158253158E+03  0.44656951646E+03  0.83941789189E+03  0.25500000920E-02 0. -1.
</event>
<event>
 5   0  0.6423388E-05  0.1902012E+04  0.7818609E-02  0.8653856E-01
        2   -1    0    0  501    0  0.00000000000E+00  0.00000000000E+00  0.20964266016E+04  0.20964266016E+04  0.25500000920E-02 0. -1.
       -2   -1    0    0    0  501  0.00000000000E+00  0.00000000000E+00 -0.43140645477E+03  0.43140645477E+03  0.25500000920E-02 0.  1.
    10030    2    1    2    0    0  0.00000000000E+00  0.00000000000E+00  0.16650201468E+04  0.25278330563E+04  0.19020115329E+04 0.  0.
        2    1    3    3  502    0  0.55005902541E+03 -0.57472628619E+03  0.13996262013E+03  0.80775291427E+03  0.25500000920E-02 0.  1.
       -2    1    3    3    0  502 -0.55005902541E+03  0.57472628619E+03  0.15250575267E+04  0.17200801421E+04  0.25500000920E-02 0. -1.
</event>
<event>
 5   0  0.3083469E-05  0.1900776E+04  0.7818609E-02  0.8654470E-01
        1   -1    0    0  501    0  0.00000000000E+00  0.00000000000E+00  0.10190099199E+04  0.10190099199E+04  0.50400001928E-02 0. -1.
       -1   -1    0    0    0  501  0.00000000000E+00  0.00000000000E+00 -0.88638732675E+03  0.88638732676E+03  0.50400001928E-02 0.  1.
    10030    2    1    2    0    0  0.00000000000E+00  0.00000000000E+00  0.13262259315E+03  0.19053972467E+04  0.19007761350E+04 0.  0.
        3    1    3    3  502    0 -0.94626989170E+03  0.48077493848E+02 -0.80263612075E+01  0.94752445141E+03  0.10100000352E+00 0.  1.
       -3    1    3    3    0  502  0.94626989170E+03 -0.48077493848E+02  0.14064895436E+03  0.95787279527E+03  0.10100000352E+00 0. -1.
</event>
<event>
 5   0  0.3203527E-05  0.1900871E+04  0.7818609E-02  0.8654423E-01
       -1   -1    0    0    0  501  0.00000000000E+00  0.00000000000E+00  0.78523907959E+03  0.78523907960E+03  0.50400001928E-02 0. -1.
        1   -1    0    0  501    0  0.00000000000E+00  0.00000000000E+00 -0.11503860599E+04  0.11503860599E+04  0.50400001928E-02 0.  1.
    10030    2    1    2    0    0  0.00000000000E+00  0.00000000000E+00 -0.36514698032E+03  0.19356251395E+04  0.19008714747E+04 0.  0.
        1    1    3    3  502    0  0.60000802167E+03 -0.91081590827E+02 -0.92739904316E+03  0.11083205617E+04  0.50400001928E-02 0.  1.
       -1    1    3    3    0  502 -0.60000802167E+03  0.91081590827E+02  0.56225206284E+03  0.82730457780E+03  0.50400001928E-02 0. -1.
</event>
<event>
 5   0  0.6452182E-05  0.1906886E+04  0.7818609E-02  0.8651436E-01
       -2   -1    0    0    0  501  0.00000000000E+00  0.00000000000E+00  0.15607026286E+04  0.15607026286E+04  0.25500000920E-02 0.  1.
        2   -1    0    0  501    0  0.00000000000E+00  0.00000000000E+00 -0.58246452871E+03  0.58246452872E+03  0.25500000920E-02 0. -1.
    10030    2    1    2    0    0  0.00000000000E+00  0.00000000000E+00  0.97823809989E+03  0.21431671573E+04  0.19068863847E+04 0.  0.
        3    1    3    3  502    0  0.39264641932E+03 -0.47150381646E+03 -0.33107817019E+03  0.69720859470E+03  0.10100000352E+00 0. -1.
       -3    1    3    3    0  502 -0.39264641932E+03  0.47150381646E+03  0.13093162701E+04  0.14459585626E+04  0.10100000352E+00 0.  1.
</event>
<event>
 5   0  0.6098377E-05  0.1895044E+04  0.7818609E-02  0.8657327E-01
        2   -1    0    0  501    0  0.00000000000E+00  0.00000000000E+00  0.10242045914E+04  0.10242045914E+04  0.25500000920E-02 0. -1.
       -2   -1    0    0    0  501  0.00000000000E+00  0.00000000000E+00 -0.87658112589E+03  0.87658112589E+03  0.25500000920E-02 0.  1.
    10030    2    1    2    0    0  0.00000000000E+00  0.00000000000E+00  0.14762346555E+03  0.19007857173E+04  0.18950444996E+04 0.  0.
        5    1    3    3  502    0 -0.42465817662E+03 -0.43802082136E+03 -0.65335326044E+03  0.89391799391E+03  0.46999998093E+01 0.  1.
       -5    1    3    3    0  502  0.42465817662E+03  0.43802082136E+03  0.80097672599E+03  0.10068677234E+04  0.46999998093E+01 0. -1.
</event>
<event>
 5   0  0.3086139E-05  0.1894598E+04  0.7818609E-02  0.8657550E-01
        1   -1    0    0  501    0  0.00000000000E+00  0.00000000000E+00  0.71331902154E+03  0.71331902156E+03  0.50400001928E-02 0. -1.
       -1   -1    0    0    0  501  0.00000000000E+00  0.00000000000E+00 -0.12580284309E+04  0.12580284309E+04  0.50400001928E-02 0.  1.
    10030    2    1    2    0    0  0.00000000000E+00  0.00000000000E+00 -0.54470940935E+03  0.19713474525E+04  0.18945982259E+04 0.  0.
        2    1    3    3  502    0 -0.49330130773E+03  0.60690783011E+03  0.28379963290E+03  0.83200091713E+03  0.25500000920E-02 0. -1.
       -2    1    3    3    0  502  0.49330130773E+03 -0.60690783011E+03 -0.82850904225E+03  0.11393465353E+04  0.25500000920E-02 0.  1.
</event>
<event>
 5   0  0.3086139E-05  0.1893763E+04  0.7818609E-02  0.8657967E-01
        1   -1    0    0  501    0  0.00000000000E+00  0.00000000000E+00  0.40831858539E+03  0.40831858543E+03  0.50400001928E-02 0. -1.
       -1   -1    0    0    0  501  0.00000000000E+00  0.00000000000E+00 -0.21957965562E+04  0.21957965562E+04  0.50400001928E-02 0.  1.
    10030    2    1    2    0    0  0.00000000000E+00  0.00000000000E+00 -0.17874779708E+04  0.26041151417E+04  0.18937629669E+04 0.  0.
        2    1    3    3  502    0  0.52386836970E+03 -0.23079768120E+03 -0.19308959265E+04  0.20139674072E+04  0.25500000920E-02 0.  1.
       -2    1    3    3    0  502 -0.52386836970E+03  0.23079768120E+03  0.14341795568E+03  0.59014773441E+03  0.25500000920E-02 0. -1.
</event>
<event>
 5   0  0.3083469E-05  0.1826132E+04  0.7818609E-02  0.8692525E-01
        1   -1    0    0  501    0  0.00000000000E+00  0.00000000000E+00  0.23305344184E+04  0.23305344184E+04  0.50400001928E-02 0. -1.
       -1   -1    0    0    0  501  0.00000000000E+00  0.00000000000E+00 -0.35772457385E+03  0.35772457389E+03  0.50400001928E-02 0.  1.
    10030    2    1    2    0    0  0.00000000000E+00  0.00000000000E+00  0.19728098446E+04  0.26882589923E+04  0.18261319029E+04 0.  0.
        3    1    3    3  502    0  0.21431432652E+03  0.73631494934E+03  0.25685949971E+03  0.80874417955E+03  0.10100000352E+00 0.  1.
       -3    1    3    3    0  502 -0.21431432652E+03 -0.73631494934E+03  0.17159503449E+04  0.18795148128E+04  0.10100000352E+00 0. -1.
</event>
<event>
 5   0  0.6452182E-05  0.1949336E+04  0.7818609E-02  0.8630681E-01
       -2   -1    0    0    0  501  0.00000000000E+00  0.00000000000E+00  0.12848570998E+04  0.12848570998E+04  0.25500000920E-02 0. -1.
        2   -1    0    0  501    0  0.00000000000E+00  0.00000000000E+00 -0.73936469983E+03  0.73936469984E+03  0.25500000920E-02 0.  1.
    10030    2    1    2    0    0  0.00000000000E+00  0.00000000000E+00  0.54549240000E+03  0.20242217997E+04  0.19493362808E+04 0.  0.
        3    1    3    3  502    0 -0.65368994209E+03  0.65951795760E+03  0.58027074654E+03  0.10949833909E+04  0.10100000352E+00 0. -1.
       -3    1    3    3    0  502  0.65368994209E+03 -0.65951795760E+03 -0.34778346543E+02  0.92923840880E+03  0.10100000352E+00 0.  1.
</event>
<event>
 5   0  0.3147063E-05  0.1897347E+04  0.7818609E-02  0.8656178E-01
       -1   -1    0    0    0  501  0.00000000000E+00  0.00000000000E+00  0.70588079378E+03  0.70588079380E+03  0.50400001928E-02 0.  1.
        1   -1    0    0  501    0  0.00000000000E+00  0.00000000000E+00 -0.12749766916E+04  0.12749766916E+04  0.50400001928E-02 0. -1.
    10030    2    1    2    0    0  0.00000000000E+00  0.00000000000E+00 -0.56909589778E+03  0.19808574854E+04  0.18973471576E+04 0.  0.
        5    1    3    3  502    0  0.89918761426E+03 -0.27331837610E+03 -0.41953769565E+03  0.10292109931E+04  0.46999998093E+01 0. -1.
       -5    1    3    3    0  502 -0.89918761426E+03  0.27331837610E+03 -0.14955820214E+03  0.95164649223E+03  0.46999998093E+01 0.  1.
</event>
<event>
 5   0  0.3086139E-05  0.1900130E+04  0.7818609E-02  0.8654792E-01
       -1   -1    0    0    0  501  0.00000000000E+00  0.00000000000E+00  0.33046873296E+03  0.33046873300E+03  0.50400001928E-02 0. -1.
        1   -1    0    0  501    0  0.00000000000E+00  0.00000000000E+00 -0.27313422863E+04  0.27313422863E+04  0.50400001928E-02 0.  1.
    10030    2    1    2    0    0  0.00000000000E+00  0.00000000000E+00 -0.24008735533E+04  0.30618110193E+04  0.19001297058E+04 0.  0.
        2    1    3    3  502    0 -0.49010274813E+02  0.21387229398E+03  0.28908223060E+03  0.36292134302E+03  0.25500000920E-02 0. -1.
       -2    1    3    3    0  502  0.49010274813E+02 -0.21387229398E+03 -0.26899557839E+04  0.26988896763E+04  0.25500000920E-02 0.  1.
</event>
<event>
 5   0  0.6452182E-05  0.1925841E+04  0.7818609E-02  0.8642099E-01
       -2   -1    0    0    0  501  0.00000000000E+00  0.00000000000E+00  0.48127681512E+03  0.48127681512E+03  0.25500000920E-02 0. -1.
        2   -1    0    0  501    0  0.00000000000E+00  0.00000000000E+00 -0.19265752116E+04  0.19265752116E+04  0.25500000920E-02 0.  1.
    10030    2    1    2    0    0  0.00000000000E+00  0.00000000000E+00 -0.14452983965E+04  0.24078520268E+04  0.19258410962E+04 0.  0.
        3    1    3    3  502    0  0.32098463828E+03 -0.90251542862E+03 -0.84547497962E+03  0.12776514346E+04  0.10100000352E+00 0. -1.
       -3    1    3    3    0  502 -0.32098463828E+03  0.90251542862E+03 -0.59982341689E+03  0.11302005922E+04  0.10100000352E+00 0.  1.
</event>
<event>
 5   0  0.6098377E-05  0.1899494E+04  0.7818609E-02  0.8655108E-01
       -2   -1    0    0    0  501  0.00000000000E+00  0.00000000000E+00  0.79069390789E+03  0.79069390789E+03  0.25500000920E-02 0.  1.
        2   -1    0    0  501    0  0.00000000000E+00  0.00000000000E+00 -0.11407943047E+04  0.11407943047E+04  0.25500000920E-02 0. -1.
    10030    2    1    2    0    0  0.00000000000E+00  0.00000000000E+00 -0.35010039678E+03  0.19314882126E+04  0.18994937292E+04 0.  0.
        5    1    3    3  502    0 -0.24694923777E+03 -0.50901290069E+02 -0.11061271359E+04  0.11345105544E+04  0.46999998093E+01 0. -1.
       -5    1    3    3    0  502  0.24694923777E+03  0.50901290069E+02  0.75602673909E+03  0.79697765815E+03  0.46999998093E+01 0.  1.
</event>
<event>
 5   0  0.6098377E-05  0.1856233E+04  0.7818609E-02  0.8676954E-01
        2   -1    0    0  501    0  0.00000000000E+00  0.00000000000E+00  0.13446456892E+04  0.13446456892E+04  0.25500000920E-02 0. -1.
       -2   -1    0    0    0  501  0.00000000000E+00  0.00000000000E+00 -0.64061523828E+03  0.64061523828E+03  0.25500000920E-02 0.  1.
    10030    2    1    2    0    0  0.00000000000E+00  0.00000000000E+00  0.70403045091E+03  0.19852609275E+04  0.18562333028E+04 0.  0.
        5    1    3    3  502    0  0.51181679055E+02 -0.22771704151E+03 -0.60870275533E+03  0.65193231981E+03  0.46999998093E+01 0.  1.
       -5    1    3    3    0  502 -0.51181679055E+02  0.22771704151E+03  0.13127332062E+04  0.13333286077E+04  0.46999998093E+01 0. -1.
</event>
<event>
 5   0  0.6098377E-05  0.1897852E+04  0.7818609E-02  0.8655926E-01
        2   -1    0    0  501    0  0.00000000000E+00  0.00000000000E+00  0.81302786415E+03  0.81302786415E+03  0.25500000920E-02 0. -1.
       -2   -1    0    0    0  501  0.00000000000E+00  0.00000000000E+00 -0.11075397034E+04  0.11075397034E+04  0.25500000920E-02 0.  1.
    10030    2    1    2    0    0  0.00000000000E+00  0.00000000000E+00 -0.29451183925E+03  0.19205675676E+04  0.18978520907E+04 0.  0.
        5    1    3    3  502    0 -0.77929503349E+03  0.43391482908E+03 -0.47494599957E+03  0.10105338295E+04  0.46999998093E+01 0. -1.
       -5    1    3    3    0  502  0.77929503349E+03 -0.43391482908E+03  0.18043416033E+03  0.91003373802E+03  0.46999998093E+01 0.  1.
</event>
<event>
 5   0  0.6423388E-05  0.1893386E+04  0.7818609E-02  0.8658155E-01
       -2   -1    0    0    0  501  0.00000000000E+00  0.00000000000E+00  0.25767881273E+04  0.25767881273E+04  0.25500000920E-02 0.  1.
        2   -1    0    0  501    0  0.00000000000E+00  0.00000000000E+00 -0.34780818670E+03  0.34780818671E+03  0.25500000920E-02 0. -1.
    10030    2    1    2    0    0  0.00000000000E+00  0.00000000000E+00  0.22289799406E+04  0.29245963140E+04  0.18933863907E+04 0.  0.
        2    1    3    3  502    0 -0.23510987277E+03 -0.48378335493E+03 -0.88846395883E+02  0.54517581462E+03  0.25500000920E-02 0. -1.
       -2    1    3    3    0  502  0.23510987277E+03  0.48378335493E+03  0.23178263365E+04  0.23794204994E+04  0.25500000920E-02 0.  1.
</event>
<event>
 5   0  0.6395992E-05  0.1915235E+04  0.7818609E-02  0.8647310E-01
        2   -1    0    0  501    0  0.00000000000E+00  0.00000000000E+00  0.18676872927E+04  0.18676872927E+04  0.25500000920E-02 0.  1.
       -2   -1    0    0    0  501  0.00000000000E+00  0.00000000000E+00 -0.49099823957E+03  0.49099823958E+03  0.25500000920E-02 0. -1.
    10030    2    1    2    0    0  0.00000000000E+00  0.00000000000E+00  0.13766890531E+04  0.23586855322E+04  0.19152348919E+04 0.  0.
        4    1    3    3  502    0  0.16527572306E+03  0.52128528921E+03  0.16564741322E+04  0.17444089489E+04  0.12699999809E+01 0.  1.
       -4    1    3    3    0  502 -0.16527572306E+03 -0.52128528921E+03 -0.27978507916E+03  0.61427658331E+03  0.12699999809E+01 0. -1.
</event>
<event>
 5   0  0.6098377E-05  0.2025699E+04  0.7818609E-02  0.8594699E-01
        2   -1    0    0  501    0  0.00000000000E+00  0.00000000000E+00  0.14546602384E+04  0.14546602384E+04  0.25500000920E-02 0.  1.
       -2   -1    0    0    0  501  0.00000000000E+00  0.00000000000E+00 -0.70522601426E+03  0.70522601427E+03  0.25500000920E-02 0. -1.
    10030    2    1    2    0    0  0.00000000000E+00  0.00000000000E+00  0.74943422415E+03  0.21598862527E+04  0.20256991307E+04 0.  0.
        5    1    3    3  502    0 -0.58059666002E+03 -0.37546381092E+03  0.11638636861E+04  0.13537600691E+04  0.46999998093E+01 0.  1.
       -5    1    3    3    0  502  0.58059666002E+03  0.37546381092E+03 -0.41442946193E+03  0.80612618357E+03  0.46999998093E+01 0. -1.
</event>
<event>
 5   0  0.6098377E-05  0.1902298E+04  0.7818609E-02  0.8653713E-01
       -2   -1    0    0    0  501  0.00000000000E+00  0.00000000000E+00  0.62120480945E+03  0.62120480945E+03  0.25500000920E-02 0.  1.
        2   -1    0    0  501    0  0.00000000000E+00  0.00000000000E+00 -0.14563384360E+04  0.14563384360E+04  0.25500000920E-02 0. -1.
    10030    2    1    2    0    0  0.00000000000E+00  0.00000000000E+00 -0.83513362658E+03  0.20775432455E+04  0.19022980215E+04 0.  0.
        5    1    3    3  502    0 -0.22594866431E+03 -0.89150642051E+03 -0.68245075871E+03  0.11452500272E+04  0.46999998093E+01 0.  1.
       -5    1    3    3    0  502  0.22594866431E+03  0.89150642051E+03 -0.15268286787E+03  0.93229321829E+03  0.46999998093E+01 0. -1.
</event>
<event>
 5   0  0.6361762E-05  0.1896002E+04  0.7818609E-02  0.8656849E-01
        2   -1    0    0  501    0  0.00000000000E+00  0.00000000000E+00  0.61278670602E+03  0.61278670603E+03  0.25500000920E-02 0.  1.
       -2   -1    0    0    0  501  0.00000000000E+00  0.00000000000E+00 -0.14665886279E+04  0.14665886279E+04  0.25500000920E-02 0. -1.
    10030    2    1    2    0    0  0.00000000000E+00  0.00000000000E+00 -0.85380192189E+03  0.20793753339E+04  0.18960021249E+04 0.  0.
        1    1    3    3  502    0 -0.64808210509E+03 -0.66852491351E+02 -0.11821443044E+04  0.13497943647E+04  0.50400001928E-02 0. -1.
       -1    1    3    3    0  502  0.64808210509E+03  0.66852491351E+02  0.32834238249E+03  0.72958096926E+03  0.50400001928E-02 0.  1.
</event>
<event>
 5   0  0.2279625E-05  0.1904892E+04  0.7818609E-02  0.8652425E-01
       -3   -1    0    0    0  501  0.00000000000E+00  0.00000000000E+00  0.17657715348E+04  0.17657715377E+04  0.10100000352E+00 0. -1.
        3   -1    0    0  501    0  0.00000000000E+00  0.00000000000E+00 -0.51374346666E+03  0.51374347659E+03  0.10100000352E+00 0.  1.
    10030    2    1    2    0    0  0.00000000000E+00  0.00000000000E+00  0.12520280682E+04  0.22795150143E+04  0.19048922324E+04 0.  0.
        5    1    3    3  502    0  0.72353555651E+03  0.33631016243E+03  0.12484208993E+04  0.14816156920E+04  0.46999998093E+01 0. -1.
       -5    1    3    3    0  502 -0.72353555651E+03 -0.33631016243E+03  0.36071688483E+01  0.79789932231E+03  0.46999998093E+01 0.  1.
</event>
<event>
 5   0  0.6361762E-05  0.1902601E+04  0.7818609E-02  0.8653563E-01
        2   -1    0    0  501    0  0.00000000000E+00  0.00000000000E+00  0.22131056225E+04  0.22131056225E+04  0.25500000920E-02 0.  1.
       -2   -1    0    0    0  501  0.00000000000E+00  0.00000000000E+00 -0.40891503739E+03  0.40891503740E+03  0.25500000920E-02 0. -1.
    10030    2    1    2    0    0  0.00000000000E+00  0.00000000000E+00  0.18041905852E+04  0.26220206599E+04  0.19026005029E+04 0.  0.
        1    1    3    3  502    0 -0.42380081810E+03 -0.10134510180E+03  0.20674821916E+04  0.21129033521E+04  0.50400001928E-02 0.  1.
       -1    1    3    3    0  502  0.42380081810E+03  0.10134510180E+03 -0.26329160640E+03  0.50911730780E+03  0.50400001928E-02 0. -1.
</event>
<event>
 5   0  0.3086139E-05  0.1896571E+04  0.7818609E-02  0.8656565E-01
        1   -1    0    0  501    0  0.00000000000E+00  0.00000000000E+00  0.27393401850E+04  0.27393401850E+04  0.50400001928E-02 0. -1.
       -1   -1    0    0    0  501  0.00000000000E+00  0.00000000000E+00 -0.32827064352E+03  0.32827064355E+03  0.50400001928E-02 0.  1.
    10030    2    1    2    0    0  0.00000000000E+00  0.00000000000E+00  0.24110695415E+04  0.30676108286E+04  0.18965705528E+04 0.  0.
        2    1    3    3  502    0  0.61210868724E+03 -0.69623794506E+03  0.88277053952E+03  0.12801203641E+04  0.25500000920E-02 0. -1.
       -2    1    3    3    0  502 -0.61210868724E+03  0.69623794506E+03  0.15282990020E+04  0.17874904645E+04  0.25500000920E-02 0.  1.
</event>
<event>
 5   0  0.6452182E-05  0.1903126E+04  0.7818609E-02  0.8653302E-01
        2   -1    0    0  501    0  0.00000000000E+00  0.00000000000E+00  0.16854679207E+04  0.16854679207E+04  0.25500000920E-02 0.  1.
       -2   -1    0    0    0  501  0.00000000000E+00  0.00000000000E+00 -0.53722303410E+03  0.53722303410E+03  0.25500000920E-02 0. -1.
    10030    2    1    2    0    0  0.00000000000E+00  0.00000000000E+00  0.11482448866E+04  0.22226909548E+04  0.19031260497E+04 0.  0.
        3    1    3    3  502    0 -0.33901471533E+03 -0.88803977606E+03  0.62538528556E+03  0.11378279249E+04  0.10100000352E+00 0.  1.
       -3    1    3    3    0  502  0.33901471533E+03  0.88803977606E+03  0.52285960105E+03  0.10848630299E+04  0.10100000352E+00 0. -1.
</event>
<event>
 5   0  0.3144958E-05  0.1892002E+04  0.7818609E-02  0.8658848E-01
        1   -1    0    0  501    0  0.00000000000E+00  0.00000000000E+00  0.19967314310E+04  0.19967314310E+04  0.50400001928E-02 0. -1.
       -1   -1    0    0    0  501  0.00000000000E+00  0.00000000000E+00 -0.44819150306E+03  0.44819150309E+03  0.50400001928E-02 0.  1.
    10030    2    1    2    0    0  0.00000000000E+00  0.00000000000E+00  0.15485399279E+04  0.24449229341E+04  0.18920021790E+04 0.  0.
        4    1    3    3  502    0  0.55404578737E+03  0.60663548334E+03  0.16823355336E+03  0.83861641143E+03  0.12699999809E+01 0.  1.
       -4    1    3    3    0  502 -0.55404578737E+03 -0.60663548334E+03  0.13803063745E+04  0.16063065226E+04  0.12699999809E+01 0. -1.
</event>
<event>
 5   0  0.3203527E-05  0.1889190E+04  0.7818609E-02  0.8660256E-01
        1   -1    0    0  501    0  0.00000000000E+00  0.00000000000E+00  0.13936855426E+04  0.13936855426E+04  0.50400001928E-02 0. -1.
       -1   -1    0    0    0  501  0.00000000000E+00  0.00000000000E+00 -0.64021612872E+03  0.64021612874E+03  0.50400001928E-02 0.  1.
    10030    2    1    2    0    0  0.00000000000E+00  0.00000000000E+00  0.75346941388E+03  0.20339016714E+04  0.18891902633E+04 0.  0.
        1    1    3    3  502    0  0.10850106708E+03  0.45240478240E+03 -0.50831759764E+03  0.68907862308E+03  0.50400001928E-02 0.  1.
       -1    1    3    3    0  502 -0.10850106708E+03 -0.45240478240E+03  0.12617870115E+04  0.13448230483E+04  0.50400001928E-02 0. -1.
</event>
<event>
 5   0  0.3147063E-05  0.1900945E+04  0.7818609E-02  0.8654386E-01
        1   -1    0    0  501    0  0.00000000000E+00  0.00000000000E+00  0.12635147923E+04  0.12635147923E+04  0.50400001928E-02 0.  1.
       -1   -1    0    0    0  501  0.00000000000E+00  0.00000000000E+00 -0.71498806708E+03  0.71498806710E+03  0.50400001928E-02 0. -1.
    10030    2    1    2    0    0  0.00000000000E+00  0.00000000000E+00  0.54852672526E+03  0.19785028594E+04  0.19009450272E+04 0.  0.
        5    1    3    3  502    0 -0.33196862775E+02 -0.93996525567E+03  0.41673965208E+03  0.10287520309E+04  0.46999998093E+01 0.  1.
       -5    1    3    3    0  502  0.33196862775E+02  0.93996525567E+03  0.13178707318E+03  0.94975082849E+03  0.46999998093E+01 0. -1.
</event>
<event>
 5   0  0.6395992E-05  0.1906384E+04  0.7818609E-02  0.8651685E-01
        2   -1    0    0  501    0  0.00000000000E+00  0.00000000000E+00  0.11341970093E+04  0.11341970093E+04  0.25500000920E-02 0.  1.
       -2   -1    0    0    0  501  0.00000000000E+00  0.00000000000E+00 -0.80107336754E+03  0.80107336754E+03  0.25500000920E-02 0. -1.
    10030    2    1    2    0    0  0.00000000000E+00  0.00000000000E+00  0.33312364181E+03  0.19352703769E+04  0.19063840303E+04 0.  0.
        4    1    3    3  502    0 -0.33426304299E+03  0.65560738877E+02 -0.73717668727E+03  0.81207208642E+03  0.12699999809E+01 0. -1.
       -4    1    3    3    0  502  0.33426304299E+03 -0.65560738877E+02  0.10703003291E+04  0.11231982905E+04  0.12699999809E+01 0.  1.
</event>
<event>
 5   0  0.3086139E-05  0.1907567E+04  0.7818609E-02  0.8651099E-01
       -1   -1    0    0    0  501  0.00000000000E+00  0.00000000000E+00  0.52358708482E+03  0.52358708485E+03  0.50400001928E-02 0.  1.
        1   -1    0    0  501    0  0.00000000000E+00  0.00000000000E+00 -0.17374426045E+04  0.17374426045E+04  0.50400001928E-02 0. -1.
    10030    2    1    2    0    0  0.00000000000E+00  0.00000000000E+00 -0.12138555197E+04  0.22610296894E+04  0.19075665214E+04 0.  0.
        2    1    3    3  502    0  0.53636923708E+03  0.29907388730E+03  0.25806611203E+03  0.66613457104E+03  0.25500000920E-02 0.  1.
       -2    1    3    3    0  502 -0.53636923708E+03 -0.29907388730E+03 -0.14719216317E+04  0.15948951183E+04  0.25500000920E-02 0. -1.
</event>
<event>
 5   0  0.6423388E-05  0.1900593E+04  0.7818609E-02  0.8654561E-01
       -2   -1    0    0    0  501  0.00000000000E+00  0.00000000000E+00  0.83698294421E+03  0.83698294422E+03  0.25500000920E-02 0. -1.
        2   -1    0    0  501    0  0.00000000000E+00  0.00000000000E+00 -0.10789512291E+04  0.10789512291E+04  0.25500000920E-02 0.  1.
    10030    2    1    2    0    0  0.00000000000E+00  0.00000000000E+00 -0.24196828485E+03  0.19159341733E+04  0.19005933562E+04 0.  0.
        2    1    3    3  502    0  0.86331594701E+03  0.27560378520E+03 -0.40928540226E+03  0.99437739882E+03  0.25500000920E-02 0. -1.
       -2    1    3    3    0  502 -0.86331594701E+03 -0.27560378520E+03  0.16731711741E+03  0.92155677446E+03  0.25500000920E-02 0.  1.
</event>
<event>
 5   0  0.6361762E-05  0.1909318E+04  0.7818609E-02  0.8650232E-01
       -2   -1    0    0    0  501  0.00000000000E+00  0.00000000000E+00  0.43909726755E+03  0.43909726755E+03  0.25500000920E-02 0. -1.
        2   -1    0    0  501    0  0.00000000000E+00  0.00000000000E+00 -0.20755626673E+04  0.20755626673E+04  0.25500000920E-02 0.  1.
    10030    2    1    2    0    0  0.00000000000E+00  0.00000000000E+00 -0.16364653998E+04  0.25146599349E+04  0.19093180938E+04 0.  0.
        1    1    3    3  502    0 -0.15221353081E+03  0.36491920488E+03 -0.19626532321E+04  0.20020845872E+04  0.50400001928E-02 0.  1.
       -1    1    3    3    0  502  0.15221353081E+03 -0.36491920488E+03  0.32618783230E+03  0.51257534764E+03  0.50400001928E-02 0. -1.
</event>
<event>
 5   0  0.6098377E-05  0.1899804E+04  0.7818609E-02  0.8654954E-01
       -2   -1    0    0    0  501  0.00000000000E+00  0.00000000000E+00  0.56108599903E+03  0.56108599904E+03  0.25500000920E-02 0.  1.
        2   -1    0    0  501    0  0.00000000000E+00  0.00000000000E+00 -0.16081566255E+04  0.16081566255E+04  0.25500000920E-02 0. -1.
    10030    2    1    2    0    0  0.00000000000E+00  0.00000000000E+00 -0.10470706265E+04  0.21692426245E+04  0.18998043761E+04 0.  0.
        5    1    3    3  502    0  0.69903014374E+03  0.40768320427E+03  0.44450031788E+02  0.81046075304E+03  0.46999998093E+01 0.  1.
       -5    1    3    3    0  502 -0.69903014374E+03 -0.40768320427E+03 -0.10915206582E+04  0.13587818715E+04  0.46999998093E+01 0. -1.
</event>
<event>
 5   0  0.3086139E-05  0.1896962E+04  0.7818609E-02  0.8656370E-01
        1   -1    0    0  501    0  0.00000000000E+00  0.00000000000E+00  0.13401133486E+04  0.13401133486E+04  0.50400001928E-02 0.  1.
       -1   -1    0    0    0  501  0.00000000000E+00  0.00000000000E+00 -0.67129838630E+03  0.67129838632E+03  0.50400001928E-02 0. -1.
    10030    2    1    2    0    0  0.00000000000E+00  0.00000000000E+00  0.66881496232E+03  0.20114117349E+04  0.18969617059E+04 0.  0.
        2    1    3    3  502    0 -0.77459100167E+02 -0.12604831502E+03  0.13278033559E+04  0.13360201502E+04  0.25500000920E-02 0.  1.
       -2    1    3    3    0  502  0.77459100167E+02  0.12604831502E+03 -0.65898839353E+03  0.67539158474E+03  0.25500000920E-02 0. -1.
</event>
<event>
 5   0  0.3144958E-05  0.1901252E+04  0.7818609E-02  0.8654233E-01
        1   -1    0    0  501    0  0.00000000000E+00  0.00000000000E+00  0.77782074454E+03  0.77782074456E+03  0.50400001928E-02 0. -1.
       -1   -1    0    0    0  501  0.00000000000E+00  0.00000000000E+00 -0.11618228508E+04  0.11618228508E+04  0.50400001928E-02 0.  1.
    10030    2    1    2    0    0  0.00000000000E+00  0.00000000000E+00 -0.38400210625E+03  0.19396435954E+04  0.19012521294E+04 0.  0.
        4    1    3    3  502    0 -0.31774625899E+03  0.19574912518E+03  0.69995776985E+03  0.79323571376E+03  0.12699999809E+01 0. -1.
       -4    1    3    3    0  502  0.31774625899E+03 -0.19574912518E+03 -0.10839598761E+04  0.11464078816E+04  0.12699999809E+01 0.  1.
</event>
<event>
 5   0  0.6395992E-05  0.1900144E+04  0.7818609E-02  0.8654785E-01
       -2   -1    0    0    0  501  0.00000000000E+00  0.00000000000E+00  0.48085974637E+03  0.48085974637E+03  0.25500000920E-02 0.  1.
        2   -1    0    0  501    0  0.00000000000E+00  0.00000000000E+00 -0.18771302234E+04  0.18771302234E+04  0.25500000920E-02 0. -1.
    10030    2    1    2    0    0  0.00000000000E+00  0.00000000000E+00 -0.13962704770E+04  0.23579899698E+04  0.19001435347E+04 0.  0.
        4    1    3    3  502    0  0.16205929723E+03  0.20512240311E+02  0.46330106683E+03  0.49125701954E+03  0.12699999809E+01 0.  1.
       -4    1    3    3    0  502 -0.16205929723E+03 -0.20512240311E+02 -0.18595715439E+04  0.18667329502E+04  0.12699999809E+01 0. -1.
</event>
<event>
 5   0  0.6452182E-05  0.1912924E+04  0.7818609E-02  0.8648450E-01
        2   -1    0    0  501    0  0.00000000000E+00  0.00000000000E+00  0.15787244767E+04  0.15787244767E+04  0.25500000920E-02 0. -1.
       -2   -1    0    0    0  501  0.00000000000E+00  0.00000000000E+00 -0.57946776667E+03  0.57946776668E+03  0.25500000920E-02 0.  1.
    10030    2    1    2    0    0  0.00000000000E+00  0.00000000000E+00  0.99925670999E+03  0.21581922433E+04  0.19129244070E+04 0.  0.
        3    1    3    3  502    0 -0.11855161831E+03  0.94860338231E+03  0.53379437226E+03  0.10949152046E+04  0.10100000352E+00 0.  1.
       -3    1    3    3    0  502  0.11855161831E+03 -0.94860338231E+03  0.46546233774E+03  0.10632770388E+04  0.10100000352E+00 0. -1.
</event>
<event>
 5   0  0.3203527E-05  0.1904856E+04  0.7818609E-02  0.8652443E-01
        1   -1    0    0  501    0  0.00000000000E+00  0.00000000000E+00  0.20462997177E+04  0.20462997177E+04  0.50400001928E-02 0.  1.
       -1   -1    0    0    0  501  0.00000000000E+00  0.00000000000E+00 -0.44329704544E+03  0.44329704547E+03  0.50400001928E-02 0. -1.
    10030    2    1    2    0    0  0.00000000000E+00  0.00000000000E+00  0.16030026723E+04  0.24895967632E+04  0.19048555000E+04 0.  0.
        1    1    3    3  502    0 -0.12671443607E+03 -0.31548698937E+03 -0.36128701582E+03  0.49610169985E+03  0.50400001928E-02 0. -1.
       -1    1    3    3    0  502  0.12671443607E+03  0.31548698937E+03  0.19642896881E+04  0.19934950633E+04  0.50400001928E-02 0.  1.
</event>
<event>
 5   0  0.3083469E-05  0.1868411E+04  0.7818609E-02  0.8670742E-01
        1   -1    0    0  501    0  0.00000000000E+00  0.00000000000E+00  0.10747096219E+04  0.10747096219E+04  0.50400001928E-02 0. -1.
       -1   -1    0    0    0  501  0.00000000000E+00  0.00000000000E+00 -0.81207076672E+03  0.81207076674E+03  0.50400001928E-02 0.  1.
    10030    2    1    2    0    0  0.00000000000E+00  0.00000000000E+00  0.26263885515E+03  0.18867803886E+04  0.18684113751E+04 0.  0.
        3    1    3    3  502    0  0.55392743579E+03  0.66749960744E+03 -0.21900462894E+03  0.89462526667E+03  0.10100000352E+00 0.  1.
       -3    1    3    3    0  502 -0.55392743579E+03 -0.66749960744E+03  0.48164348408E+03  0.99215512196E+03  0.10100000352E+00 0. -1.
</event>
<event>
 5   0  0.3086139E-05  0.1896820E+04  0.7818609E-02  0.8656441E-01
        1   -1    0    0  501    0  0.00000000000E+00  0.00000000000E+00  0.18936659129E+04  0.18936659129E+04  0.50400001928E-02 0. -1.
       -1   -1    0    0    0  501  0.00000000000E+00  0.00000000000E+00 -0.47499494528E+03  0.47499494531E+03  0.50400001928E-02 0.  1.
    10030    2    1    2    0    0  0.00000000000E+00  0.00000000000E+00  0.14186709676E+04  0.23686608582E+04  0.18968202199E+04 0.  0.
        2    1    3    3  502    0  0.75365789138E+03 -0.22704310543E+03  0.48636374096E+02  0.78861542329E+03  0.25500000920E-02 0.  1.
       -2    1    3    3    0  502 -0.75365789138E+03  0.22704310543E+03  0.13700345935E+04  0.15800454349E+04  0.25500000920E-02 0. -1.
</event>
<event>
 5   0  0.3086139E-05  0.1898012E+04  0.7818609E-02  0.8655846E-01
       -1   -1    0    0    0  501  0.00000000000E+00  0.00000000000E+00  0.12856728075E+04  0.12856728075E+04  0.50400001928E-02 0. -1.
        1   -1    0    0  501    0  0.00000000000E+00  0.00000000000E+00 -0.70049903967E+03  0.70049903969E+03  0.50400001928E-02 0.  1.
    10030    2    1    2    0    0  0.00000000000E+00  0.00000000000E+00  0.58517376784E+03  0.19861718472E+04  0.18980121886E+04 0.  0.
        2    1    3    3  502    0  0.15349428263E+03  0.53174920856E+03  0.10992994252E+04  0.12307627480E+04  0.25500000920E-02 0. -1.
       -2    1    3    3    0  502 -0.15349428263E+03 -0.53174920856E+03 -0.51412565737E+03  0.75540909921E+03  0.25500000920E-02 0.  1.
</event>
<event>
 5   0  0.6098377E-05  0.1903229E+04  0.7818609E-02  0.8653251E-01
       -2   -1    0    0    0  501  0.00000000000E+00  0.00000000000E+00  0.70164573418E+03  0.70164573419E+03  0.25500000920E-02 0.  1.
        2   -1    0    0  501    0  0.00000000000E+00  0.00000000000E+00 -0.12906375710E+04  0.12906375710E+04  0.25500000920E-02 0. -1.
    10030    2    1    2    0    0  0.00000000000E+00  0.00000000000E+00 -0.58899183683E+03  0.19922833052E+04  0.19032291991E+04 0.  0.
        5    1    3    3  502    0  0.83729212143E+03  0.23524837757E+03 -0.69876380617E+03  0.11156580312E+04  0.46999998093E+01 0. -1.
       -5    1    3    3    0  502 -0.83729212143E+03 -0.23524837757E+03  0.10977196934E+03  0.87662527400E+03  0.46999998093E+01 0.  1.
</event>
<event>
 5   0  0.3147063E-05  0.1891740E+04  0.7818609E-02  0.8658979E-01
        1   -1    0    0  501    0  0.00000000000E+00  0.00000000000E+00  0.12199882664E+04  0.12199882665E+04  0.50400001928E-02 0.  1.
       -1   -1    0    0    0  501  0.00000000000E+00  0.00000000000E+00 -0.73334287052E+03  0.73334287054E+03  0.50400001928E-02 0. -1.
    10030    2    1    2    0    0  0.00000000000E+00  0.00000000000E+00  0.48664539592E+03  0.19533311370E+04  0.18917396199E+04 0.  0.
        5    1    3    3  502    0  0.16200502975E+03 -0.66054672841E+03  0.92205199247E+03  0.11457615707E+04  0.46999998093E+01 0.  1.
       -5    1    3    3    0  502 -0.16200502975E+03  0.66054672841E+03 -0.43540659655E+03  0.80756956629E+03  0.46999998093E+01 0. -1.
</event>
<event>
 5   0  0.3083469E-05  0.1898679E+04  0.7818609E-02  0.8655514E-01
        1   -1    0    0  501    0  0.00000000000E+00  0.00000000000E+00  0.67137369417E+03  0.67137369419E+03  0.50400001928E-02 0.  1.
       -1   -1    0    0    0  501  0.00000000000E+00  0.00000000000E+00 -0.13423896649E+04  0.13423896649E+04  0.50400001928E-02 0. -1.
    10030    2    1    2    0    0  0.00000000000E+00  0.00000000000E+00 -0.67101597073E+03  0.20137633591E+04  0.18986786019E+04 0.  0.
        3    1    3    3  502    0  0.49885240414E+03  0.11491663243E+03  0.51244241765E+03  0.72433196473E+03  0.10100000352E+00 0.  1.
       -3    1    3    3    0  502 -0.49885240414E+03 -0.11491663243E+03 -0.11834583884E+04  0.12894313944E+04  0.10100000352E+00 0. -1.
</event>
<event>
 5   0  0.3147063E-05  0.1895937E+04  0.7818609E-02  0.8656882E-01
       -1   -1    0    0    0  501  0.00000000000E+00  0.00000000000E+00  0.78141524430E+03  0.78141524432E+03  0.50400001928E-02 0.  1.
        1   -1    0    0  501    0  0.00000000000E+00  0.00000000000E+00 -0.11500210383E+04  0.11500210383E+04  0.50400001928E-02 0. -1.
    10030    2    1    2    0    0  0.00000000000E+00  0.00000000000E+00 -0.36860579403E+03  0.19314362827E+04  0.18959366768E+04 0.  0.
        5    1    3    3  502    0  0.94653073738E+03 -0.96145475786E+01 -0.23633770505E+03  0.97564874681E+03  0.46999998093E+01 0. -1.
       -5    1    3    3    0  502 -0.94653073738E+03  0.96145475786E+01 -0.13226808898E+03  0.95578753585E+03  0.46999998093E+01 0.  1.
</event>
<event>
 5   0  0.3203527E-05  0.1901027E+04  0.7818609E-02  0.8654345E-01
       -1   -1    0    0    0  501  0.00000000000E+00  0.00000000000E+00  0.12431801902E+04  0.12431801902E+04  0.50400001928E-02 0.  1.
        1   -1    0    0  501    0  0.00000000000E+00  0.00000000000E+00 -0.72674590154E+03  0.72674590156E+03  0.50400001928E-02 0. -1.
    10030    2    1    2    0    0  0.00000000000E+00  0.00000000000E+00  0.51643428862E+03  0.19699260917E+04  0.19010272045E+04 0.  0.
        1    1    3    3  502    0 -0.29816410360E+03 -0.80436671097E+03 -0.16597024419E+03  0.87375841076E+03  0.50400001928E-02 0. -1.
       -1    1    3    3    0  502  0.29816410360E+03  0.80436671097E+03  0.68240453281E+03  0.10961676810E+04  0.50400001928E-02 0.  1.
</event>
<event>
 5   0  0.6423388E-05  0.1909683E+04  0.7818609E-02  0.8650052E-01
        2   -1    0    0  501    0  0.00000000000E+00  0.00000000000E+00  0.10913717976E+04  0.10913717976E+04  0.25500000920E-02 0.  1.
       -2   -1    0    0    0  501  0.00000000000E+00  0.00000000000E+00 -0.83539091336E+03  0.83539091336E+03  0.25500000920E-02 0. -1.
    10030    2    1    2    0    0  0.00000000000E+00  0.00000000000E+00  0.25598088425E+03  0.19267627110E+04  0.19096827829E+04 0.  0.
        2    1    3    3  502    0  0.43529936233E+02  0.48174502805E+02  0.10891419664E+04  0.10910755524E+04  0.25500000920E-02 0.  1.
       -2    1    3    3    0  502 -0.43529936233E+02 -0.48174502805E+02 -0.83316108218E+03  0.83568715853E+03  0.25500000920E-02 0. -1.
</event>
<event>
 5   0  0.6361762E-05  0.1906805E+04  0.7818609E-02  0.8651476E-01
       -2   -1    0    0    0  501  0.00000000000E+00  0.00000000000E+00  0.74348572114E+03  0.74348572114E+03  0.25500000920E-02 0. -1.
        2   -1    0    0  501    0  0.00000000000E+00  0.00000000000E+00 -0.12225880617E+04  0.12225880617E+04  0.25500000920E-02 0.  1.
    10030    2    1    2    0    0  0.00000000000E+00  0.00000000000E+00 -0.47910234053E+03  0.19660737828E+04  0.19068054612E+04 0.  0.
        1    1    3    3  502    0 -0.15090246486E+03 -0.34398187593E+03 -0.11430770126E+04  0.12032124258E+04  0.50400001928E-02 0.  1.
       -1    1    3    3    0  502  0.15090246486E+03  0.34398187593E+03  0.66397467206E+03  0.76286135701E+03  0.50400001928E-02 0. -1.
</event>
<event>
 5   0  0.2279625E-05  0.1899550E+04  0.7818609E-02  0.8655080E-01
       -3   -1    0    0    0  501  0.00000000000E+00  0.00000000000E+00  0.57478491519E+03  0.57478492407E+03  0.10100000352E+00 0.  1.
        3   -1    0    0  501    0  0.00000000000E+00  0.00000000000E+00 -0.15694093874E+04  0.15694093906E+04  0.10100000352E+00 0. -1.
    10030    2    1    2    0    0  0.00000000000E+00  0.00000000000E+00 -0.99462447219E+03  0.21441943147E+04  0.18995503201E+04 0.  0.
        2    1    3    3  502    0 -0.62691256237E+03 -0.41460070457E+03  0.15812513313E+03  0.76806032498E+03  0.25500000920E-02 0. -1.
       -2    1    3    3    0  502  0.62691256237E+03  0.41460070457E+03 -0.11527496053E+04  0.13761339897E+04  0.25500000920E-02 0.  1.
</event>
<event>
 5   0  0.3086139E-05  0.1904087E+04  0.7818609E-02  0.8652825E-01
       -1   -1    0    0    0  501  0.00000000000E+00  0.00000000000E+00  0.81146720760E+03  0.81146720762E+03  0.50400001928E-02 0.  1.
        1   -1    0    0  501    0  0.00000000000E+00  0.00000000000E+00 -0.11169729143E+04  0.11169729143E+04  0.50400001928E-02 0. -1.
    10030    2    1    2    0    0  0.00000000000E+00  0.00000000000E+00 -0.30550570670E+03  0.19284401219E+04  0.19040870692E+04 0.  0.
        2    1    3    3  502    0  0.65751771761E+03  0.40977685976E+03  0.40762322019E+03  0.87544463754E+03  0.25500000920E-02 0.  1.
       -2    1    3    3    0  502 -0.65751771761E+03 -0.40977685976E+03 -0.71312892689E+03  0.10529954844E+04  0.25500000920E-02 0. -1.
</event>
<event>
 5   0  0.3083469E-05  0.1880553E+04  0.7818609E-02  0.8664597E-01
        1   -1    0    0  501    0  0.00000000000E+00  0.00000000000E+00  0.86595257603E+03  0.86595257604E+03  0.50400001928E-02 0.  1.
       -1   -1    0    0    0  501  0.00000000000E+00  0.00000000000E+00 -0.10209799748E+04  0.10209799748E+04  0.50400001928E-02 0. -1.
    10030    2    1    2    0    0  0.00000000000E+00  0.00000000000E+00 -0.15502739880E+03  0.18869325509E+04  0.18805533646E+04 0.  0.
        3    1    3    3  502    0  0.69586361502E+03 -0.56944622035E+03 -0.35344666088E+03  0.96613649184E+03  0.10100000352E+00 0. -1.
       -3    1    3    3    0  502 -0.69586361502E+03  0.56944622035E+03  0.19841926208E+03  0.92079605904E+03  0.10100000352E+00 0.  1.
</event>
<event>
 5   0  0.6423388E-05  0.1900860E+04  0.7818609E-02  0.8654428E-01
        2   -1    0    0  501    0  0.00000000000E+00  0.00000000000E+00  0.13631691174E+04  0.13631691174E+04  0.25500000920E-02 0. -1.
       -2   -1    0    0    0  501  0.00000000000E+00  0.00000000000E+00 -0.66265961784E+03  0.66265961785E+03  0.25500000920E-02 0.  1.
    10030    2    1    2    0    0  0.00000000000E+00  0.00000000000E+00  0.70050949955E+03  0.20258287352E+04  0.19008599384E+04 0.  0.
        2    1    3    3  502    0 -0.69589305755E+03  0.30171385096E+03  0.96063704970E+03  0.12239779151E+04  0.25500000920E-02 0. -1.
       -2    1    3    3    0  502  0.69589305755E+03 -0.30171385096E+03 -0.26012755015E+03  0.80185082014E+03  0.25500000920E-02 0.  1.
</event>
<event>
 5   0  0.6361762E-05  0.1892001E+04  0.7818609E-02  0.8658848E-01
       -2   -1    0    0    0  501  0.00000000000E+00  0.00000000000E+00  0.55538637796E+03  0.55538637797E+03  0.25500000920E-02 0. -1.
        2   -1    0    0  501    0  0.00000000000E+00  0.00000000000E+00 -0.16113411367E+04  0.16113411367E+04  0.25500000920E-02 0.  1.
    10030    2    1    2    0    0  0.00000000000E+00  0.00000000000E+00 -0.10559547588E+04  0.21667275147E+04  0.18920009700E+04 0.  0.
        1    1    3    3  502    0  0.55262268090E+02 -0.85315560334E+03 -0.64221251521E+02  0.85735218607E+03  0.50400001928E-02 0. -1.
       -1    1    3    3    0  502 -0.55262268090E+02  0.85315560334E+03 -0.99173350723E+03  0.13093753286E+04  0.50400001928E-02 0.  1.
</event>
<event>
 5   0  0.3203527E-05  0.1892440E+04  0.7818609E-02  0.8658628E-01
        1   -1    0    0  501    0  0.00000000000E+00  0.00000000000E+00  0.22775617249E+04  0.22775617249E+04  0.50400001928E-02 0. -1.
       -1   -1    0    0    0  501  0.00000000000E+00  0.00000000000E+00 -0.39311013602E+03  0.39311013605E+03  0.50400001928E-02 0.  1.
    10030    2    1    2    0    0  0.00000000000E+00  0.00000000000E+00  0.18844515889E+04  0.26706718609E+04  0.18924403288E+04 0.  0.
        1    1    3    3  502    0  0.29331774540E+03 -0.67394340521E+03  0.17831797084E+04  0.19287210492E+04  0.50400001928E-02 0. -1.
       -1    1    3    3    0  502 -0.29331774540E+03  0.67394340521E+03  0.10127188043E+03  0.74195081170E+03  0.50400001928E-02 0.  1.
</event>
<event>
 5   0  0.6423388E-05  0.1903138E+04  0.7818609E-02  0.8653296E-01
        2   -1    0    0  501    0  0.00000000000E+00  0.00000000000E+00  0.96808958808E+03  0.96808958808E+03  0.25500000920E-02 0. -1.
       -2   -1    0    0    0  501  0.00000000000E+00  0.00000000000E+00 -0.93532996670E+03  0.93532996671E+03  0.25500000920E-02 0.  1.
    10030    2    1    2    0    0  0.00000000000E+00  0.00000000000E+00  0.32759621376E+02  0.19034195548E+04  0.19031376221E+04 0.  0.
        2    1    3    3  502    0  0.67686876306E+03  0.95192807213E+02  0.67849767814E+03  0.96310544189E+03  0.25500000920E-02 0. -1.
       -2    1    3    3    0  502 -0.67686876306E+03 -0.95192807213E+02 -0.64573805676E+03  0.94031411290E+03  0.25500000920E-02 0.  1.
</event>
<event>
 5   0  0.3144958E-05  0.1915761E+04  0.7818609E-02  0.8647051E-01
       -1   -1    0    0    0  501  0.00000000000E+00  0.00000000000E+00  0.52798271796E+03  0.52798271799E+03  0.50400001928E-02 0. -1.
        1   -1    0    0  501    0  0.00000000000E+00  0.00000000000E+00 -0.17378130271E+04  0.17378130271E+04  0.50400001928E-02 0.  1.
    10030    2    1    2    0    0  0.00000000000E+00  0.00000000000E+00 -0.12098303092E+04  0.22657957451E+04  0.19157612016E+04 0.  0.
        4    1    3    3  502    0 -0.74300159029E+03  0.57203928701E+03 -0.37359473592E+03  0.10093834498E+04  0.12699999809E+01 0. -1.
       -4    1    3    3    0  502  0.74300159029E+03 -0.57203928701E+03 -0.83623557324E+03  0.12564122953E+04  0.12699999809E+01 0.  1.
</event>
<event>
 5   0  0.3083469E-05  0.1896497E+04  0.7818609E-02  0.8656602E-01
       -1   -1    0    0    0  501  0.00000000000E+00  0.00000000000E+00  0.76779828862E+03  0.76779828864E+03  0.50400001928E-02 0.  1.
        1   -1    0    0  501    0  0.00000000000E+00  0.00000000000E+00 -0.11711081129E+04  0.11711081129E+04  0.50400001928E-02 0. -1.
    10030    2    1    2    0    0  0.00000000000E+00  0.00000000000E+00 -0.40330982429E+03  0.19389064016E+04  0.18964965646E+04 0.  0.
        3    1    3    3  502    0 -0.80595503432E+03 -0.93340466161E+01 -0.71234929278E+03  0.10756821867E+04  0.10100000352E+00 0. -1.
       -3    1    3    3    0  502  0.80595503432E+03  0.93340466161E+01  0.30903946848E+03  0.86322421482E+03  0.10100000352E+00 0.  1.
</event>
<event>
 5   0  0.6098377E-05  0.1908703E+04  0.7818609E-02  0.8650536E-01
       -2   -1    0    0    0  501  0.00000000000E+00  0.00000000000E+00  0.68677336082E+03  0.68677336082E+03  0.25500000920E-02 0.  1.
        2   -1    0    0  501    0  0.00000000000E+00  0.00000000000E+00 -0.13261825912E+04  0.13261825912E+04  0.25500000920E-02 0. -1.
    10030    2    1    2    0    0  0.00000000000E+00  0.00000000000E+00 -0.63940923042E+03  0.20129559521E+04  0.19087030940E+04 0.  0.
        5    1    3    3  502    0 -0.80997473210E+02 -0.70486526638E+03  0.35341146100E+03  0.79266473694E+03  0.46999998093E+01 0.  1.
       -5    1    3    3    0  502  0.80997473210E+02  0.70486526638E+03 -0.99282069142E+03  0.12202912151E+04  0.46999998093E+01 0. -1.
</event>
<event>
 5   0  0.6423388E-05  0.1900775E+04  0.7818609E-02  0.8654471E-01
       -2   -1    0    0    0  501  0.00000000000E+00  0.00000000000E+00  0.27820464305E+03  0.27820464306E+03  0.25500000920E-02 0.  1.
        2   -1    0    0  501    0  0.00000000000E+00  0.00000000000E+00 -0.32466615727E+04  0.32466615727E+04  0.25500000920E-02 0. -1.
    10030    2    1    2    0    0  0.00000000000E+00  0.00000000000E+00 -0.29684569297E+04  0.35248662158E+04  0.19007749198E+04 0.  0.
        2    1    3    3  502    0 -0.74832126484E+01  0.75936042527E+03 -0.42451569959E+03  0.86999875468E+03  0.25500000920E-02 0. -1.
       -2    1    3    3    0  502  0.74832126484E+01 -0.75936042527E+03 -0.25439412301E+04  0.26548674611E+04  0.25500000920E-02 0.  1.
</event>
<event>
 5   0  0.2279625E-05  0.1892751E+04  0.7818609E-02  0.8658473E-01
       -3   -1    0    0    0  501  0.00000000000E+00  0.00000000000E+00  0.13514666055E+04  0.13514666093E+04  0.10100000352E+00 0.  1.
        3   -1    0    0  501    0  0.00000000000E+00  0.00000000000E+00 -0.66270730312E+03  0.66270731081E+03  0.10100000352E+00 0. -1.
    10030    2    1    2    0    0  0.00000000000E+00  0.00000000000E+00  0.68875930236E+03  0.20141739201E+04  0.18927512260E+04 0.  0.
        3    1    3    3  502    0 -0.29916279537E+03  0.53343294755E+03 -0.42415409294E+03  0.74428206510E+03  0.10100000352E+00 0. -1.
       -3    1    3    3    0  502  0.29916279537E+03 -0.53343294755E+03  0.11129133953E+04  0.12698918550E+04  0.10100000352E+00 0.  1.
</event>
<event>
 5   0  0.3147063E-05  0.1894650E+04  0.7818609E-02  0.8657524E-01
       -1   -1    0    0    0  501  0.00000000000E+00  0.00000000000E+00  0.66994929916E+03  0.66994929918E+03  0.50400001928E-02 0.  1.
        1   -1    0    0  501    0  0.00000000000E+00  0.00000000000E+00 -0.13395411707E+04  0.13395411707E+04  0.50400001928E-02 0. -1.
    10030    2    1    2    0    0  0.00000000000E+00  0.00000000000E+00 -0.66959187150E+03  0.20094904698E+04  0.18946500136E+04 0.  0.
        5    1    3    3  502    0 -0.40550583183E+03  0.40468110124E+03 -0.11349796468E+04  0.12713782529E+04  0.46999998093E+01 0. -1.
       -5    1    3    3    0  502  0.40550583183E+03 -0.40468110124E+03  0.46538777531E+03  0.73811221692E+03  0.46999998093E+01 0.  1.
</event>
<event>
 5   0  0.3086139E-05  0.1904621E+04  0.7818609E-02  0.8652560E-01
       -1   -1    0    0    0  501  0.00000000000E+00  0.00000000000E+00  0.78988719184E+03  0.78988719185E+03  0.50400001928E-02 0.  1.
        1   -1    0    0  501    0  0.00000000000E+00  0.00000000000E+00 -0.11481326238E+04  0.11481326238E+04  0.50400001928E-02 0. -1.
    10030    2    1    2    0    0  0.00000000000E+00  0.00000000000E+00 -0.35824543198E+03  0.19380198157E+04  0.19046209640E+04 0.  0.
        2    1    3    3  502    0  0.31691672581E+01 -0.70453264360E+03 -0.83107568198E+03  0.10895242442E+04  0.25500000920E-02 0. -1.
       -2    1    3    3    0  502 -0.31691672581E+01  0.70453264360E+03  0.47283024999E+03  0.84849557149E+03  0.25500000920E-02 0.  1.
</event>
<event>
 5   0  0.3203527E-05  0.1909625E+04  0.7818609E-02  0.8650080E-01
       -1   -1    0    0    0  501  0.00000000000E+00  0.00000000000E+00  0.92844732070E+03  0.92844732072E+03  0.50400001928E-02 0.  1.
        1   -1    0    0  501    0  0.00000000000E+00  0.00000000000E+00 -0.98192607903E+03  0.98192607904E+03  0.50400001928E-02 0. -1.
    10030    2    1    2    0    0  0.00000000000E+00  0.00000000000E+00 -0.53478758328E+02  0.19103733998E+04  0.19096247142E+04 0.  0.
        1    1    3    3  502    0  0.89575976431E+03  0.33053061667E+03 -0.21206089654E+02  0.95503180165E+03  0.50400001928E-02 0.  1.
       -1    1    3    3    0  502 -0.89575976431E+03 -0.33053061667E+03 -0.32272668674E+02  0.95534159811E+03  0.50400001928E-02 0. -1.
</event>
<event>
 5   0  0.6423388E-05  0.1897441E+04  0.7818609E-02  0.8656131E-01
       -2   -1    0    0    0  501  0.00000000000E+00  0.00000000000E+00  0.79763317536E+03  0.79763317537E+03  0.25500000920E-02 0. -1.
        2   -1    0    0  501    0  0.00000000000E+00  0.00000000000E+00 -0.11284268863E+04  0.11284268863E+04  0.25500000920E-02 0.  1.
    10030    2    1    2    0    0  0.00000000000E+00  0.00000000000E+00 -0.33079371090E+03  0.19260600616E+04  0.18974411405E+04 0.  0.
        2    1    3    3  502    0 -0.35305620906E+03  0.26866856260E+03  0.68584517744E+03  0.81683235166E+03  0.25500000920E-02 0. -1.
       -2    1    3    3    0  502  0.35305620906E+03 -0.26866856260E+03 -0.10166388883E+04  0.11092277100E+04  0.25500000920E-02 0.  1.
</event>
<event>
 5   0  0.3203527E-05  0.1905423E+04  0.7818609E-02  0.8652162E-01
        1   -1    0    0  501    0  0.00000000000E+00  0.00000000000E+00  0.15075824209E+04  0.15075824209E+04  0.50400001928E-02 0. -1.
       -1   -1    0    0    0  501  0.00000000000E+00  0.00000000000E+00 -0.60206275379E+03  0.60206275381E+03  0.50400001928E-02 0.  1.
    10030    2    1    2    0    0  0.00000000000E+00  0.00000000000E+00  0.90551966711E+03  0.21096451747E+04  0.19054230228E+04 0.  0.
        1    1    3    3  502    0  0.39753212545E+03  0.18524116151E+03  0.13891699809E+04  0.14567564363E+04  0.50400001928E-02 0. -1.
       -1    1    3    3    0  502 -0.39753212545E+03 -0.18524116151E+03 -0.48365031383E+03  0.65288873843E+03  0.50400001928E-02 0.  1.
</event>
<event>
 5   0  0.6098377E-05  0.1877433E+04  0.7818609E-02  0.8666172E-01
        2   -1    0    0  501    0  0.00000000000E+00  0.00000000000E+00  0.14808628429E+04  0.14808628429E+04  0.25500000920E-02 0. -1.
       -2   -1    0    0    0  501  0.00000000000E+00  0.00000000000E+00 -0.59505066322E+03  0.59505066323E+03  0.25500000920E-02 0.  1.
    10030    2    1    2    0    0  0.00000000000E+00  0.00000000000E+00  0.88581217972E+03  0.20759135062E+04  0.18774327331E+04 0.  0.
        5    1    3    3  502    0  0.29132735186E+03  0.84871309269E+03  0.74769331732E+03  0.11680123828E+04  0.46999998093E+01 0. -1.
       -5    1    3    3    0  502 -0.29132735186E+03 -0.84871309269E+03  0.13811886240E+03  0.90790112336E+03  0.46999998093E+01 0.  1.
</event>
<event>
 5   0  0.3083469E-05  0.1893397E+04  0.7818609E-02  0.8658150E-01
        1   -1    0    0  501    0  0.00000000000E+00  0.00000000000E+00  0.72722681048E+03  0.72722681050E+03  0.50400001928E-02 0. -1.
       -1   -1    0    0    0  501  0.00000000000E+00  0.00000000000E+00 -0.12324055450E+04  0.12324055450E+04  0.50400001928E-02 0.  1.
    10030    2    1    2    0    0  0.00000000000E+00  0.00000000000E+00 -0.50517873450E+03  0.19596323555E+04  0.18933973209E+04 0.  0.
        3    1    3    3  502    0 -0.19475174865E+03 -0.69977329026E+03 -0.88097561887E+03  0.11418095080E+04  0.10100000352E+00 0.  1.
       -3    1    3    3    0  502  0.19475174865E+03  0.69977329026E+03  0.37579688437E+03  0.81782284748E+03  0.10100000352E+00 0. -1.
</event>
<event>
 5   0  0.2279625E-05  0.1924884E+04  0.7818609E-02  0.8642568E-01
        3   -1    0    0  501    0  0.00000000000E+00  0.00000000000E+00  0.93975546911E+03  0.93975547454E+03  0.10100000352E+00 0. -1.
       -3   -1    0    0    0  501  0.00000000000E+00  0.00000000000E+00 -0.98567669952E+03  0.98567670470E+03  0.10100000352E+00 0.  1.
    10030    2    1    2    0    0  0.00000000000E+00  0.00000000000E+00 -0.45921230416E+02  0.19254321792E+04  0.19248844946E+04 0.  0.
        1    1    3    3  502    0  0.15986659857E+03 -0.82056903407E+03 -0.49996547339E+03  0.97409257446E+03  0.50400001928E-02 0.  1.
       -1    1    3    3    0  502 -0.15986659857E+03  0.82056903407E+03  0.45404424298E+03  0.95133960477E+03  0.50400001928E-02 0. -1.
</event>
<event>
 5   0  0.3147063E-05  0.1891831E+04  0.7818609E-02  0.8658933E-01
        1   -1    0    0  501    0  0.00000000000E+00  0.00000000000E+00  0.85028239717E+03  0.85028239719E+03  0.50400001928E-02 0. -1.
       -1   -1    0    0    0  501  0.00000000000E+00  0.00000000000E+00 -0.10523048042E+04  0.10523048042E+04  0.50400001928E-02 0.  1.
    10030    2    1    2    0    0  0.00000000000E+00  0.00000000000E+00 -0.20202240702E+03  0.19025872014E+04  0.18918311251E+04 0.  0.
        5    1    3    3  502    0  0.81011869552E+03 -0.22774623939E+03 -0.53540858316E+03  0.99741921543E+03  0.46999998093E+01 0.  1.
       -5    1    3    3    0  502 -0.81011869552E+03  0.22774623939E+03  0.33338617614E+03  0.90516798597E+03  0.46999998093E+01 0. -1.
</event>
<event>
 5   0  0.6423388E-05  0.1897341E+04  0.7818609E-02  0.8656181E-01
       -2   -1    0    0    0  501  0.00000000000E+00  0.00000000000E+00  0.39459522304E+03  0.39459522304E+03  0.25500000920E-02 0. -1.
        2   -1    0    0  501    0  0.00000000000E+00  0.00000000000E+00 -0.22807558610E+04  0.22807558610E+04  0.25500000920E-02 0.  1.
    10030    2    1    2    0    0  0.00000000000E+00  0.00000000000E+00 -0.18861606380E+04  0.26753510841E+04  0.18973406312E+04 0.  0.
        2    1    3    3  502    0  0.14473136387E+03 -0.80709427363E+03 -0.27034009682E+03  0.86338409887E+03  0.25500000920E-02 0. -1.
       -2    1    3    3    0  502 -0.14473136387E+03  0.80709427363E+03 -0.16158205412E+04  0.18119669852E+04  0.25500000920E-02 0.  1.
</event>
<event>
 5   0  0.2279625E-05  0.1898526E+04  0.7818609E-02  0.8655590E-01
        3   -1    0    0  501    0  0.00000000000E+00  0.00000000000E+00  0.52658063625E+03  0.52658064594E+03  0.10100000352E+00 0. -1.
       -3   -1    0    0    0  501  0.00000000000E+00  0.00000000000E+00 -0.17112296343E+04  0.17112296373E+04  0.10100000352E+00 0.  1.
    10030    2    1    2    0    0  0.00000000000E+00  0.00000000000E+00 -0.11846489981E+04  0.22378102832E+04  0.18985261692E+04 0.  0.
        3    1    3    3  502    0 -0.88980700609E+03  0.33050562772E+03 -0.60468215878E+03  0.11254470229E+04  0.10100000352E+00 0.  1.
       -3    1    3    3    0  502  0.88980700609E+03 -0.33050562772E+03 -0.57996683929E+03  0.11123632603E+04  0.10100000352E+00 0. -1.
</event>
<event>
 5   0  0.3203527E-05  0.1899574E+04  0.7818609E-02  0.8655069E-01
       -1   -1    0    0    0  501  0.00000000000E+00  0.00000000000E+00  0.41853495944E+03  0.41853495947E+03  0.50400001928E-02 0.  1.
        1   -1    0    0  501    0  0.00000000000E+00  0.00000000000E+00 -0.21553639239E+04  0.21553639239E+04  0.50400001928E-02 0. -1.
    10030    2    1    2    0    0  0.00000000000E+00  0.00000000000E+00 -0.17368289645E+04  0.25738988834E+04  0.18995737969E+04 0.  0.
        1    1    3    3  502    0  0.65258768940E+03 -0.25330636816E+03 -0.17382071086E+04  0.18738726640E+04  0.50400001928E-02 0. -1.
       -1    1    3    3    0  502 -0.65258768940E+03  0.25330636816E+03  0.13781441177E+01  0.70002621938E+03  0.50400001928E-02 0.  1.
</event>
<event>
 5   0  0.6423388E-05  0.1903235E+04  0.7818609E-02  0.8653248E-01
       -2   -1    0    0    0  501  0.00000000000E+00  0.00000000000E+00  0.62752597982E+03  0.62752597982E+03  0.25500000920E-02 0. -1.
        2   -1    0    0  501    0  0.00000000000E+00  0.00000000000E+00 -0.14430895678E+04  0.14430895678E+04  0.25500000920E-02 0.  1.
    10030    2    1    2    0    0  0.00000000000E+00  0.00000000000E+00 -0.81556358802E+03  0.20706155477E+04  0.19032353454E+04 0.  0.
        2    1    3    3  502    0 -0.15522910440E+03  0.53073967763E+03 -0.12503568213E+04  0.13671769676E+04  0.25500000920E-02 0.  1.
       -2    1    3    3    0  502  0.15522910440E+03 -0.53073967763E+03  0.43479323323E+03  0.70343858007E+03  0.25500000920E-02 0. -1.
</event>
<event>
 5   0  0.3086139E-05  0.1985098E+04  0.7818609E-02  0.8613620E-01
       -1   -1    0    0    0  501  0.00000000000E+00  0.00000000000E+00  0.10239239165E+04  0.10239239165E+04  0.50400001928E-02 0. -1.
        1   -1    0    0  501    0  0.00000000000E+00  0.00000000000E+00 -0.96213577670E+03  0.96213577672E+03  0.50400001928E-02 0.  1.
    10030    2    1    2    0    0  0.00000000000E+00  0.00000000000E+00  0.61788139760E+02  0.19860596932E+04  0.19850983176E+04 0.  0.
        2    1    3    3  502    0 -0.58520134589E+03 -0.45808644945E+03  0.68912607991E+03  0.10135080485E+04  0.25500000920E-02 0. -1.
       -2    1    3    3    0  502  0.58520134589E+03  0.45808644945E+03 -0.62733794015E+03  0.97255164467E+03  0.25500000920E-02 0.  1.
</event>
<event>
 5   0  0.3086139E-05  0.1899388E+04  0.7818609E-02  0.8655161E-01
        1   -1    0    0  501    0  0.00000000000E+00  0.00000000000E+00  0.64741456459E+03  0.64741456461E+03  0.50400001928E-02 0.  1.
       -1   -1    0    0    0  501  0.00000000000E+00  0.00000000000E+00 -0.13931088652E+04  0.13931088652E+04  0.50400001928E-02 0. -1.
    10030    2    1    2    0    0  0.00000000000E+00  0.00000000000E+00 -0.74569430063E+03  0.20405234298E+04  0.18993882904E+04 0.  0.
        2    1    3    3  502    0 -0.80563472604E+03  0.50285824175E+03 -0.37038646589E+03  0.10193624759E+04  0.25500000920E-02 0. -1.
       -2    1    3    3    0  502  0.80563472604E+03 -0.50285824175E+03 -0.37530783475E+03  0.10211609540E+04  0.25500000920E-02 0.  1.
</event>
<event>
 5   0  0.3144958E-05  0.1897602E+04  0.7818609E-02  0.8656051E-01
        1   -1    0    0  501    0  0.00000000000E+00  0.00000000000E+00  0.92764195720E+03  0.92764195722E+03  0.50400001928E-02 0. -1.
       -1   -1    0    0    0  501  0.00000000000E+00  0.00000000000E+00 -0.97044306237E+03  0.97044306239E+03  0.50400001928E-02 0.  1.
    10030    2    1    2    0    0  0.00000000000E+00  0.00000000000E+00 -0.42801105169E+02  0.18980850196E+04  0.18976023838E+04 0.  0.
        4    1    3    3  502    0 -0.13266898562E+03 -0.47131549100E+03 -0.83430814504E+03  0.96737327107E+03  0.12699999809E+01 0.  1.
       -4    1    3    3    0  502  0.13266898562E+03  0.47131549100E+03  0.79150703987E+03  0.93071174854E+03  0.12699999809E+01 0. -1.
</event>
<event>
 5   0  0.3144958E-05  0.1906145E+04  0.7818609E-02  0.8651804E-01
        1   -1    0    0  501    0  0.00000000000E+00  0.00000000000E+00  0.70513703209E+03  0.70513703211E+03  0.50400001928E-02 0. -1.
       -1   -1    0    0    0  501  0.00000000000E+00  0.00000000000E+00 -0.12881847409E+04  0.12881847409E+04  0.50400001928E-02 0.  1.
    10030    2    1    2    0    0  0.00000000000E+00  0.00000000000E+00 -0.58304770885E+03  0.19933217731E+04  0.19061445538E+04 0.  0.
        4    1    3    3  502    0  0.15693283084E+03  0.81922618780E+03  0.19063327575E+03  0.85562966224E+03  0.12699999809E+01 0. -1.
       -4    1    3    3    0  502 -0.15693283084E+03 -0.81922618780E+03 -0.77368098460E+03  0.11376921108E+04  0.12699999809E+01 0.  1.
</event>
<event>
 5   0  0.3147063E-05  0.1893299E+04  0.7818609E-02  0.8658199E-01
        1   -1    0    0  501    0  0.00000000000E+00  0.00000000000E+00  0.19151914990E+04  0.19151914990E+04  0.50400001928E-02 0. -1.
       -1   -1    0    0    0  501  0.00000000000E+00  0.00000000000E+00 -0.46791439994E+03  0.46791439997E+03  0.50400001928E-02 0.  1.
    10030    2    1    2    0    0  0.00000000000E+00  0.00000000000E+00  0.14472770991E+04  0.23831058990E+04  0.18932994281E+04 0.  0.
        5    1    3    3  502    0  0.93340915364E+03  0.12442700734E+02  0.92152415532E+03  0.13117302801E+04  0.46999998093E+01 0. -1.
       -5    1    3    3    0  502 -0.93340915364E+03 -0.12442700734E+02  0.52575294378E+03  0.10713756189E+04  0.46999998093E+01 0.  1.
</event>
<event>
 5   0  0.3083469E-05  0.1904694E+04  0.7818609E-02  0.8652523E-01
        1   -1    0    0  501    0  0.00000000000E+00  0.00000000000E+00  0.18757319881E+04  0.18757319881E+04  0.50400001928E-02 0.  1.
       -1   -1    0    0    0  501  0.00000000000E+00  0.00000000000E+00 -0.48352581574E+03  0.48352581576E+03  0.50400001928E-02 0. -1.
    10030    2    1    2    0    0  0.00000000000E+00  0.00000000000E+00  0.13922061724E+04  0.23592578039E+04  0.19046940329E+04 0.  0.
        3    1    3    3  502    0 -0.46694751024E+03  0.38537339780E+03  0.16066718539E+04  0.17169586743E+04  0.10100000352E+00 0.  1.
       -3    1    3    3    0  502  0.46694751024E+03 -0.38537339780E+03 -0.21446568153E+03  0.64229912954E+03  0.10100000352E+00 0. -1.
</event>
<event>
 5   0  0.6098377E-05  0.1902353E+04  0.7818609E-02  0.8653686E-01
        2   -1    0    0  501    0  0.00000000000E+00  0.00000000000E+00  0.19505549421E+04  0.19505549421E+04  0.25500000920E-02 0. -1.
       -2   -1    0    0    0  501  0.00000000000E+00  0.00000000000E+00 -0.46383574335E+03  0.46383574335E+03  0.25500000920E-02 0.  1.
    10030    2    1    2    0    0  0.00000000000E+00  0.00000000000E+00  0.14867191988E+04  0.24143906855E+04  0.19023533862E+04 0.  0.
        5    1    3    3  502    0  0.30285754121E+03  0.15100446216E+03  0.18715492426E+04  0.19019052803E+04  0.46999998093E+01 0. -1.
       -5    1    3    3    0  502 -0.30285754121E+03 -0.15100446216E+03 -0.38483004383E+03  0.51248540515E+03  0.46999998093E+01 0.  1.
</event>
<event>
 5   0  0.3147063E-05  0.1910308E+04  0.7818609E-02  0.8649742E-01
        1   -1    0    0  501    0  0.00000000000E+00  0.00000000000E+00  0.61733330224E+03  0.61733330226E+03  0.50400001928E-02 0. -1.
       -1   -1    0    0    0  501  0.00000000000E+00  0.00000000000E+00 -0.14778387557E+04  0.14778387557E+04  0.50400001928E-02 0.  1.
    10030    2    1    2    0    0  0.00000000000E+00  0.00000000000E+00 -0.86050545350E+03  0.20951720580E+04  0.19103079116E+04 0.  0.
        5    1    3    3  502    0 -0.70370512549E+03  0.30655920661E+03 -0.10536954856E+04  0.13036394123E+04  0.46999998093E+01 0. -1.
       -5    1    3    3    0  502  0.70370512549E+03 -0.30655920661E+03  0.19319003210E+03  0.79153264576E+03  0.46999998093E+01 0.  1.
</event>
<event>
 5   0  0.6361762E-05  0.1898887E+04  0.7818609E-02  0.8655410E-01
        2   -1    0    0  501    0  0.00000000000E+00  0.00000000000E+00  0.91837549395E+03  0.91837549395E+03  0.25500000920E-02 0.  1.
       -2   -1    0    0    0  501  0.00000000000E+00  0.00000000000E+00 -0.98156287376E+03  0.98156287376E+03  0.25500000920E-02 0. -1.
    10030    2    1    2    0    0  0.00000000000E+00  0.00000000000E+00 -0.63187379809E+02  0.18999383677E+04  0.18988873469E+04 0.  0.
        1    1    3    3  502    0 -0.18012873344E+03  0.47883387403E+03  0.76867089200E+03  0.92335430890E+03  0.50400001928E-02 0.  1.
       -1    1    3    3    0  502  0.18012873344E+03 -0.47883387403E+03 -0.83185827181E+03  0.97658405881E+03  0.50400001928E-02 0. -1.
</event>
<event>
 5   0  0.3083469E-05  0.1894600E+04  0.7818609E-02  0.8657549E-01
       -1   -1    0    0    0  501  0.00000000000E+00  0.00000000000E+00  0.72503335813E+03  0.72503335815E+03  0.50400001928E-02 0.  1.
        1   -1    0    0  501    0  0.00000000000E+00  0.00000000000E+00 -0.12377043384E+04  0.12377043384E+04  0.50400001928E-02 0. -1.
    10030    2    1    2    0    0  0.00000000000E+00  0.00000000000E+00 -0.51267098029E+03  0.19627376966E+04  0.18945996230E+04 0.  0.
        3    1    3    3  502    0 -0.21860930795E+03 -0.66841450031E+03 -0.91383339355E+03  0.11531086051E+04  0.10100000352E+00 0. -1.
       -3    1    3    3    0  502  0.21860930795E+03  0.66841450031E+03  0.40116241327E+03  0.80962909148E+03  0.10100000352E+00 0.  1.
</event>
<event>
 5   0  0.3144958E-05  0.1894590E+04  0.7818609E-02  0.8657554E-01
       -1   -1    0    0    0  501  0.00000000000E+00  0.00000000000E+00  0.17633290865E+04  0.17633290865E+04  0.50400001928E-02 0. -1.
        1   -1    0    0  501    0  0.00000000000E+00  0.00000000000E+00 -0.50890529582E+03  0.50890529585E+03  0.50400001928E-02 0.  1.
    10030    2    1    2    0    0  0.00000000000E+00  0.00000000000E+00  0.12544237907E+04  0.22722343824E+04  0.18945896764E+04 0.  0.
        4    1    3    3  502    0  0.33403363557E+03  0.83506904838E+03  0.27053104800E+03  0.93920575279E+03  0.12699999809E+01 0. -1.
       -4    1    3    3    0  502 -0.33403363557E+03 -0.83506904838E+03  0.98389274269E+03  0.13330286296E+04  0.12699999809E+01 0.  1.
</event>
<event>
 5   0  0.6361762E-05  0.1901660E+04  0.7818609E-02  0.8654031E-01
       -2   -1    0    0    0  501  0.00000000000E+00  0.00000000000E+00  0.84778289736E+03  0.84778289736E+03  0.25500000920E-02 0. -1.
        2   -1    0    0  501    0  0.00000000000E+00  0.00000000000E+00 -0.10664023158E+04  0.10664023158E+04  0.25500000920E-02 0.  1.
    10030    2    1    2    0    0  0.00000000000E+00  0.00000000000E+00 -0.21861941844E+03  0.19141852132E+04  0.19016599539E+04 0.  0.
        1    1    3    3  502    0 -0.32970502417E+03  0.88727001844E+03 -0.20003747881E+03  0.96745464056E+03  0.50400001928E-02 0. -1.
       -1    1    3    3    0  502  0.32970502417E+03 -0.88727001844E+03 -0.18581939633E+02  0.94673057260E+03  0.50400001928E-02 0.  1.
</event>
<event>
 5   0  0.6452182E-05  0.1898293E+04  0.7818609E-02  0.8655707E-01
        2   -1    0    0  501    0  0.00000000000E+00  0.00000000000E+00  0.20341491071E+04  0.20341491071E+04  0.25500000920E-02 0.  1.
       -2   -1    0    0    0  501  0.00000000000E+00  0.00000000000E+00 -0.44287740016E+03  0.44287740016E+03  0.25500000920E-02 0. -1.
    10030    2    1    2    0    0  0.00000000000E+00  0.00000000000E+00  0.15912717069E+04  0.24770265072E+04  0.18982925676E+04 0.  0.
        3    1    3    3  502    0 -0.18815230183E+03  0.69828030047E+03  0.15977674139E+04  0.17538122436E+04  0.10100000352E+00 0.  1.
       -3    1    3    3    0  502  0.18815230183E+03 -0.69828030047E+03 -0.64957069861E+01  0.72321426363E+03  0.10100000352E+00 0. -1.
</event>
<event>
 5   0  0.6361762E-05  0.1900292E+04  0.7818609E-02  0.8654711E-01
       -2   -1    0    0    0  501  0.00000000000E+00  0.00000000000E+00  0.80014868087E+03  0.80014868087E+03  0.25500000920E-02 0. -1.
        2   -1    0    0  501    0  0.00000000000E+00  0.00000000000E+00 -0.11282615054E+04  0.11282615054E+04  0.25500000920E-02 0.  1.
    10030    2    1    2    0    0  0.00000000000E+00  0.00000000000E+00 -0.32811282456E+03  0.19284101863E+04  0.19002915095E+04 0.  0.
        1    1    3    3  502    0  0.11524023756E+03  0.71235194041E+03 -0.79130553356E+03  0.10709295247E+04  0.50400001928E-02 0.  1.
       -1    1    3    3    0  502 -0.11524023756E+03 -0.71235194041E+03  0.46319270900E+03  0.85748066162E+03  0.50400001928E-02 0. -1.
</event>
<event>
 5   0  0.6452182E-05  0.1908718E+04  0.7818609E-02  0.8650529E-01
       -2   -1    0    0    0  501  0.00000000000E+00  0.00000000000E+00  0.62753841251E+03  0.62753841251E+03  0.25500000920E-02 0.  1.
        2   -1    0    0  501    0  0.00000000000E+00  0.00000000000E+00 -0.14513872740E+04  0.14513872740E+04  0.25500000920E-02 0. -1.
    10030    2    1    2    0    0  0.00000000000E+00  0.00000000000E+00 -0.82384886149E+03  0.20789256865E+04  0.19087181729E+04 0.  0.
        3    1    3    3  502    0 -0.86999096686E+03  0.33866697300E+03 -0.62762938128E+03  0.11249436659E+04  0.10100000352E+00 0.  1.
       -3    1    3    3    0  502  0.86999096686E+03 -0.33866697300E+03 -0.19621948021E+03  0.95398202060E+03  0.10100000352E+00 0. -1.
</event>
<event>
 5   0  0.6423388E-05  0.1898403E+04  0.7818609E-02  0.8655652E-01
       -2   -1    0    0    0  501  0.00000000000E+00  0.00000000000E+00  0.80314305858E+03  0.80314305859E+03  0.25500000920E-02 0.  1.
        2   -1    0    0  501    0  0.00000000000E+00  0.00000000000E+00 -0.11218214107E+04  0.11218214107E+04  0.25500000920E-02 0. -1.
    10030    2    1    2    0    0  0.00000000000E+00  0.00000000000E+00 -0.31867835216E+03  0.19249644693E+04  0.18984025695E+04 0.  0.
        2    1    3    3  502    0 -0.45659284963E+03  0.83215912855E+03 -0.16354857910E+03  0.96317910240E+03  0.25500000920E-02 0. -1.
       -2    1    3    3    0  502  0.45659284963E+03 -0.83215912855E+03 -0.15512977306E+03  0.96178536694E+03  0.25500000920E-02 0.  1.
</event>
<event>
 5   0  0.6361762E-05  0.1902376E+04  0.7818609E-02  0.8653675E-01
        2   -1    0    0  501    0  0.00000000000E+00  0.00000000000E+00  0.18088568730E+04  0.18088568730E+04  0.25500000920E-02 0.  1.
       -2   -1    0    0    0  501  0.00000000000E+00  0.00000000000E+00 -0.50018263171E+03  0.50018263172E+03  0.25500000920E-02 0. -1.
    10030    2    1    2    0    0  0.00000000000E+00  0.00000000000E+00  0.13086742413E+04  0.23090395048E+04  0.19023761890E+04 0.  0.
        1    1    3    3  502    0 -0.76264880274E+03 -0.35215013361E+03  0.11959486598E+04  0.14614842147E+04  0.50400001928E-02 0.  1.
       -1    1    3    3    0  502  0.76264880274E+03  0.35215013361E+03  0.11272558150E+03  0.84755529004E+03  0.50400001928E-02 0. -1.
</event>
<event>
 5   0  0.3147063E-05  0.1905804E+04  0.7818609E-02  0.8651973E-01
       -1   -1    0    0    0  501  0.00000000000E+00  0.00000000000E+00  0.93540869208E+03  0.93540869209E+03  0.50400001928E-02 0.  1.
        1   -1    0    0  501    0  0.00000000000E+00  0.00000000000E+00 -0.97072283039E+03  0.97072283041E+03  0.50400001928E-02 0. -1.
    10030    2    1    2    0    0  0.00000000000E+00  0.00000000000E+00 -0.35314138317E+02  0.19061315225E+04  0.19058043689E+04 0.  0.
        5    1    3    3  502    0  0.53208208737E+03  0.70586218191E+03  0.33828000460E+03  0.94647145708E+03  0.46999998093E+01 0.  1.
       -5    1    3    3    0  502 -0.53208208737E+03 -0.70586218191E+03 -0.37359414291E+03  0.95966006542E+03  0.46999998093E+01 0. -1.
</event>
<event>
 5   0  0.3147063E-05  0.1891825E+04  0.7818609E-02  0.8658936E-01
       -1   -1    0    0    0  501  0.00000000000E+00  0.00000000000E+00  0.41025940301E+03  0.41025940305E+03  0.50400001928E-02 0. -1.
        1   -1    0    0  501    0  0.00000000000E+00  0.00000000000E+00 -0.21809376900E+04  0.21809376900E+04  0.50400001928E-02 0.  1.
    10030    2    1    2    0    0  0.00000000000E+00  0.00000000000E+00 -0.17706782870E+04  0.25911970930E+04  0.18918247221E+04 0.  0.
        5    1    3    3  502    0 -0.74736709034E+03  0.92531806702E+02 -0.16693048524E+04  0.18313165983E+04  0.46999998093E+01 0.  1.
       -5    1    3    3    0  502  0.74736709034E+03 -0.92531806702E+02 -0.10137343451E+03  0.75988049468E+03  0.46999998093E+01 0. -1.
</event>
<event>
 5   0  0.6423388E-05  0.1936002E+04  0.7818609E-02  0.8637141E-01
       -2   -1    0    0    0  501  0.00000000000E+00  0.00000000000E+00  0.10075460475E+04  0.10075460475E+04  0.25500000920E-02 0.  1.
        2   -1    0    0  501    0  0.00000000000E+00  0.00000000000E+00 -0.93000772078E+03  0.93000772079E+03  0.25500000920E-02 0. -1.
    10030    2    1    2    0    0  0.00000000000E+00  0.00000000000E+00  0.77538326752E+02  0.19375537683E+04  0.19360016563E+04 0.  0.
        2    1    3    3  502    0 -0.30263248022E+03 -0.82715812146E+03  0.44064884714E+03  0.98485957500E+03  0.25500000920E-02 0.  1.
       -2    1    3    3    0  502  0.30263248022E+03  0.82715812146E+03 -0.36311052039E+03  0.95269419333E+03  0.25500000920E-02 0. -1.
</event>
<event>
 5   0  0.3083469E-05  0.1888445E+04  0.7818609E-02  0.8660629E-01
        1   -1    0    0  501    0  0.00000000000E+00  0.00000000000E+00  0.58785119642E+03  0.58785119644E+03  0.50400001928E-02 0.  1.
       -1   -1    0    0    0  501  0.00000000000E+00  0.00000000000E+00 -0.15166362158E+04  0.15166362158E+04  0.50400001928E-02 0. -1.
    10030    2    1    2    0    0  0.00000000000E+00  0.00000000000E+00 -0.92878501938E+03  0.21044874123E+04  0.18884453013E+04 0.  0.
        3    1    3    3  502    0 -0.53378944869E+03 -0.76120720311E+01  0.40353092286E+03  0.66919827785E+03  0.10100000352E+00 0.  1.
       -3    1    3    3    0  502  0.53378944869E+03  0.76120720311E+01 -0.13323159422E+04  0.14352891344E+04  0.10100000352E+00 0. -1.
</event>
<event>
 5   0  0.3147063E-05  0.1963305E+04  0.7818609E-02  0.8623971E-01
        1   -1    0    0  501    0  0.00000000000E+00  0.00000000000E+00  0.12461201149E+04  0.12461201149E+04  0.50400001928E-02 0. -1.
       -1   -1    0    0    0  501  0.00000000000E+00  0.00000000000E+00 -0.77331398335E+03  0.77331398337E+03  0.50400001928E-02 0.  1.
    10030    2    1    2    0    0  0.00000000000E+00  0.00000000000E+00  0.47280613154E+03  0.20194340983E+04  0.19633054880E+04 0.  0.
        5    1    3    3  502    0 -0.62450158762E+01  0.16358179305E+03  0.12319697362E+04  0.12428071146E+04  0.46999998093E+01 0. -1.
       -5    1    3    3    0  502  0.62450158762E+01 -0.16358179305E+03 -0.75916360461E+03  0.77662698370E+03  0.46999998093E+01 0.  1.
</event>
<event>
 5   0  0.2279625E-05  0.1934527E+04  0.7818609E-02  0.8637858E-01
       -4   -1    0    0    0  501  0.00000000000E+00  0.00000000000E+00  0.48652567076E+03  0.48652732832E+03  0.12699999809E+01 0. -1.
        4   -1    0    0  501    0  0.00000000000E+00  0.00000000000E+00 -0.19230147344E+04  0.19230151538E+04  0.12699999809E+01 0.  1.
    10030    2    1    2    0    0  0.00000000000E+00  0.00000000000E+00 -0.14364890637E+04  0.24095424821E+04  0.19345268525E+04 0.  0.
        2    1    3    3  502    0  0.48941807658E+03  0.25235160608E+02 -0.17569371787E+04  0.18240052404E+04  0.25500000920E-02 0.  1.
       -2    1    3    3    0  502 -0.48941807658E+03 -0.25235160608E+02  0.32044811504E+03  0.58553724173E+03  0.25500000920E-02 0. -1.
</event>
<event>
 5   0  0.6452182E-05  0.1898416E+04  0.7818609E-02  0.8655645E-01
        2   -1    0    0  501    0  0.00000000000E+00  0.00000000000E+00  0.15164730667E+04  0.15164730667E+04  0.25500000920E-02 0.  1.
       -2   -1    0    0    0  501  0.00000000000E+00  0.00000000000E+00 -0.59413929754E+03  0.59413929754E+03  0.25500000920E-02 0. -1.
    10030    2    1    2    0    0  0.00000000000E+00  0.00000000000E+00  0.92233376919E+03  0.21106123643E+04  0.18984164376E+04 0.  0.
        3    1    3    3  502    0  0.41129560102E+03 -0.31617510182E+03  0.13449166314E+04  0.14415032161E+04  0.10100000352E+00 0.  1.
       -3    1    3    3    0  502 -0.41129560102E+03  0.31617510182E+03 -0.42258286226E+03  0.66910914812E+03  0.10100000352E+00 0. -1.
</event>
<event>
 5   0  0.3147063E-05  0.1901057E+04  0.7818609E-02  0.8654330E-01
       -1   -1    0    0    0  501  0.00000000000E+00  0.00000000000E+00  0.70584384433E+03  0.70584384434E+03  0.50400001928E-02 0.  1.
        1   -1    0    0  501    0  0.00000000000E+00  0.00000000000E+00 -0.12800342469E+04  0.12800342470E+04  0.50400001928E-02 0. -1.
    10030    2    1    2    0    0  0.00000000000E+00  0.00000000000E+00 -0.57419040262E+03  0.19858780913E+04  0.19010568574E+04 0.  0.
        5    1    3    3  502    0  0.30970566422E+03  0.81197996036E+03  0.11512089101E+03  0.87664357867E+03  0.46999998093E+01 0.  1.
       -5    1    3    3    0  502 -0.30970566422E+03 -0.81197996036E+03 -0.68931129363E+03  0.11092345126E+04  0.46999998093E+01 0. -1.
</event>
<event>
 5   0  0.6423388E-05  0.1898789E+04  0.7818609E-02  0.8655459E-01
        2   -1    0    0  501    0  0.00000000000E+00  0.00000000000E+00  0.17712111975E+04  0.17712111975E+04  0.25500000920E-02 0.  1.
       -2   -1    0    0    0  501  0.00000000000E+00  0.00000000000E+00 -0.50888922705E+03  0.50888922706E+03  0.25500000920E-02 0. -1.
    10030    2    1    2    0    0  0.00000000000E+00  0.00000000000E+00  0.12623219705E+04  0.22801004246E+04  0.18987894009E+04 0.  0.
        2    1    3    3  502    0  0.94128215633E+03  0.11665040307E+03  0.68111967276E+03  0.11677086208E+04  0.25500000920E-02 0.  1.
       -2    1    3    3    0  502 -0.94128215633E+03 -0.11665040307E+03  0.58120229771E+03  0.11123918038E+04  0.25500000920E-02 0. -1.
</event>
<event>
 5   0  0.3203527E-05  0.1894325E+04  0.7818609E-02  0.8657687E-01
       -1   -1    0    0    0  501  0.00000000000E+00  0.00000000000E+00  0.75599636035E+03  0.75599636037E+03  0.50400001928E-02 0.  1.
        1   -1    0    0  501    0  0.00000000000E+00  0.00000000000E+00 -0.11866676132E+04  0.11866676132E+04  0.50400001928E-02 0. -1.
    10030    2    1    2    0    0  0.00000000000E+00  0.00000000000E+00 -0.43067125281E+03  0.19426639735E+04  0.18943245725E+04 0.  0.
        1    1    3    3  502    0 -0.66327173761E+03 -0.51204415174E+03  0.23751829509E+03  0.87093831686E+03  0.50400001928E-02 0. -1.
       -1    1    3    3    0  502  0.66327173761E+03  0.51204415174E+03 -0.66818954790E+03  0.10717256567E+04  0.50400001928E-02 0.  1.
</event>
<event>
 5   0  0.6452182E-05  0.1898308E+04  0.7818609E-02  0.8655699E-01
        2   -1    0    0  501    0  0.00000000000E+00  0.00000000000E+00  0.99773693587E+03  0.99773693587E+03  0.25500000920E-02 0.  1.
       -2   -1    0    0    0  501  0.00000000000E+00  0.00000000000E+00 -0.90293634198E+03  0.90293634199E+03  0.25500000920E-02 0. -1.
    10030    2    1    2    0    0  0.00000000000E+00  0.00000000000E+00  0.94800593883E+02  0.19006732779E+04  0.18983076033E+04 0.  0.
        3    1    3    3  502    0 -0.62109981411E+03 -0.10938277654E+03 -0.66282377035E+03  0.91491252677E+03  0.10100000352E+00 0. -1.
       -3    1    3    3    0  502  0.62109981411E+03  0.10938277654E+03  0.75762436424E+03  0.98576075109E+03  0.10100000352E+00 0.  1.
</event>
<event>
 5   0  0.3086139E-05  0.1905892E+04  0.7818609E-02  0.8651929E-01
        1   -1    0    0  501    0  0.00000000000E+00  0.00000000000E+00  0.74971266131E+03  0.74971266132E+03  0.50400001928E-02 0. -1.
       -1   -1    0    0    0  501  0.00000000000E+00  0.00000000000E+00 -0.12112720381E+04  0.12112720381E+04  0.50400001928E-02 0.  1.
    10030    2    1    2    0    0  0.00000000000E+00  0.00000000000E+00 -0.46155937679E+03  0.19609846994E+04  0.19058918996E+04 0.  0.
        2    1    3    3  502    0  0.56545980473E+03  0.73316556795E+03  0.11912684729E+01  0.92589306074E+03  0.25500000920E-02 0. -1.
       -2    1    3    3    0  502 -0.56545980473E+03 -0.73316556795E+03 -0.46275064526E+03  0.10350916387E+04  0.25500000920E-02 0.  1.
</event>
<event>
 5   0  0.3083469E-05  0.1926315E+04  0.7818609E-02  0.8641867E-01
       -1   -1    0    0    0  501  0.00000000000E+00  0.00000000000E+00  0.16181582994E+04  0.16181582994E+04  0.50400001928E-02 0.  1.
        1   -1    0    0  501    0  0.00000000000E+00  0.00000000000E+00 -0.57328922912E+03  0.57328922914E+03  0.50400001928E-02 0. -1.
    10030    2    1    2    0    0  0.00000000000E+00  0.00000000000E+00  0.10448690703E+04  0.21914475286E+04  0.19263153678E+04 0.  0.
        3    1    3    3  502    0 -0.24555741762E+03  0.66773327510E+03  0.12610286567E+04  0.14478810224E+04  0.10100000352E+00 0.  1.
       -3    1    3    3    0  502  0.24555741762E+03 -0.66773327510E+03 -0.21615958638E+03  0.74356650611E+03  0.10100000352E+00 0. -1.
</event>
<event>
 5   0  0.3147063E-05  0.1897680E+04  0.7818609E-02  0.8656012E-01
        1   -1    0    0  501    0  0.00000000000E+00  0.00000000000E+00  0.56216086166E+03  0.56216086168E+03  0.50400001928E-02 0.  1.
       -1   -1    0    0    0  501  0.00000000000E+00  0.00000000000E+00 -0.16014949311E+04  0.16014949311E+04  0.50400001928E-02 0. -1.
    10030    2    1    2    0    0  0.00000000000E+00  0.00000000000E+00 -0.10393340695E+04  0.21636557928E+04  0.18976804478E+04 0.  0.
        5    1    3    3  502    0  0.83252860957E+02  0.76756158973E+03 -0.11485072415E+04  0.13838976865E+04  0.46999998093E+01 0. -1.
       -5    1    3    3    0  502 -0.83252860957E+02 -0.76756158973E+03  0.10917317204E+03  0.77975810632E+03  0.46999998093E+01 0.  1.
</event>
<event>
 5   0  0.3086139E-05  0.1911557E+04  0.7818609E-02  0.8649125E-01
        1   -1    0    0  501    0  0.00000000000E+00  0.00000000000E+00  0.10653384769E+04  0.10653384770E+04  0.50400001928E-02 0.  1.
       -1   -1    0    0    0  501  0.00000000000E+00  0.00000000000E+00 -0.85748561521E+03  0.85748561523E+03  0.50400001928E-02 0. -1.
    10030    2    1    2    0    0  0.00000000000E+00  0.00000000000E+00  0.20785286173E+03  0.19228240922E+04  0.19115568726E+04 0.  0.
        2    1    3    3  502    0 -0.22770628555E+03 -0.29866634215E+02  0.10371720412E+04  0.10622937500E+04  0.25500000920E-02 0.  1.
       -2    1    3    3    0  502  0.22770628555E+03  0.29866634215E+02 -0.82931917946E+03  0.86053034215E+03  0.25500000920E-02 0. -1.
</event>
<event>
 5   0  0.6395992E-05  0.1898392E+04  0.7818609E-02  0.8655657E-01
       -2   -1    0    0    0  501  0.00000000000E+00  0.00000000000E+00  0.55208743211E+03  0.55208743211E+03  0.25500000920E-02 0. -1.
        2   -1    0    0  501    0  0.00000000000E+00  0.00000000000E+00 -0.16319384281E+04  0.16319384281E+04  0.25500000920E-02 0.  1.
    10030    2    1    2    0    0  0.00000000000E+00  0.00000000000E+00 -0.10798509960E+04  0.21840258602E+04  0.18983916310E+04 0.  0.
        4    1    3    3  502    0 -0.62376807842E+02 -0.82852689634E+01  0.54968427145E+03  0.55327563024E+03  0.12699999809E+01 0. -1.
       -4    1    3    3    0  502  0.62376807842E+02  0.82852689634E+01 -0.16295352674E+04  0.16307502300E+04  0.12699999809E+01 0.  1.
</event>
<event>
 5   0  0.3144958E-05  0.1898600E+04  0.7818609E-02  0.8655553E-01
       -1   -1    0    0    0  501  0.00000000000E+00  0.00000000000E+00  0.61870288532E+03  0.61870288534E+03  0.50400001928E-02 0. -1.
        1   -1    0    0  501    0  0.00000000000E+00  0.00000000000E+00 -0.14565483887E+04  0.14565483887E+04  0.50400001928E-02 0.  1.
    10030    2    1    2    0    0  0.00000000000E+00  0.00000000000E+00 -0.83784550336E+03  0.20752512740E+04  0.18986002114E+04 0.  0.
        4    1    3    3  502    0 -0.41573649048E+03 -0.84403757639E+03 -0.28095313399E+03  0.98192287695E+03  0.12699999809E+01 0. -1.
       -4    1    3    3    0  502  0.41573649048E+03  0.84403757639E+03 -0.55689236937E+03  0.10933283971E+04  0.12699999809E+01 0.  1.
</event>
<event>
 5   0  0.3147063E-05  0.1892209E+04  0.7818609E-02  0.8658744E-01
       -1   -1    0    0    0  501  0.00000000000E+00  0.00000000000E+00  0.12952497833E+04  0.12952497833E+04  0.50400001928E-02 0. -1.
        1   -1    0    0  501    0  0.00000000000E+00  0.00000000000E+00 -0.69107417357E+03  0.69107417359E+03  0.50400001928E-02 0.  1.
    10030    2    1    2    0    0  0.00000000000E+00  0.00000000000E+00  0.60417560972E+03  0.19863239569E+04  0.18922089457E+04 0.  0.
        5    1    3    3  502    0 -0.13426632623E+02 -0.74349867913E+02  0.12920657067E+04  0.12942812900E+04  0.46999998093E+01 0. -1.
       -5    1    3    3    0  502  0.13426632623E+02  0.74349867913E+02 -0.68789009694E+03  0.69204266689E+03  0.46999998093E+01 0.  1.
</event>
<event>
 5   0  0.2279625E-05  0.1880880E+04  0.7818609E-02  0.8664433E-01
       -4   -1    0    0    0  501  0.00000000000E+00  0.00000000000E+00  0.11093775498E+04  0.11093782767E+04  0.12699999809E+01 0.  1.
        4   -1    0    0  501    0  0.00000000000E+00  0.00000000000E+00 -0.79722693405E+03  0.79722794562E+03  0.12699999809E+01 0. -1.
    10030    2    1    2    0    0  0.00000000000E+00  0.00000000000E+00  0.31215061573E+03  0.19066062223E+04  0.18808799218E+04 0.  0.
        5    1    3    3  502    0 -0.27677445561E+03 -0.16018967671E+03 -0.74040817980E+03  0.80653034321E+03  0.46999998093E+01 0. -1.
       -5    1    3    3    0  502  0.27677445561E+03  0.16018967671E+03  0.10525587955E+04  0.11000758791E+04  0.46999998093E+01 0.  1.
</event>
<event>
 5   0  0.6361762E-05  0.1901347E+04  0.7818609E-02  0.8654186E-01
       -2   -1    0    0    0  501  0.00000000000E+00  0.00000000000E+00  0.41505476355E+03  0.41505476355E+03  0.25500000920E-02 0.  1.
        2   -1    0    0  501    0  0.00000000000E+00  0.00000000000E+00 -0.21774949979E+04  0.21774949979E+04  0.25500000920E-02 0. -1.
    10030    2    1    2    0    0  0.00000000000E+00  0.00000000000E+00 -0.17624402343E+04  0.25925497614E+04  0.19013465454E+04 0.  0.
        1    1    3    3  502    0 -0.90089534036E+03  0.11525219923E+03 -0.12641866297E+04  0.15566191951E+04  0.50400001928E-02 0. -1.
       -1    1    3    3    0  502  0.90089534036E+03 -0.11525219923E+03 -0.49825360456E+03  0.10359305663E+04  0.50400001928E-02 0.  1.
</event>
<event>
 5   0  0.6452182E-05  0.1882045E+04  0.7818609E-02  0.8663846E-01
       -2   -1    0    0    0  501  0.00000000000E+00  0.00000000000E+00  0.34511907999E+03  0.34511908000E+03  0.25500000920E-02 0. -1.
        2   -1    0    0  501    0  0.00000000000E+00  0.00000000000E+00 -0.25658486432E+04  0.25658486432E+04  0.25500000920E-02 0.  1.
    10030    2    1    2    0    0  0.00000000000E+00  0.00000000000E+00 -0.22207295632E+04  0.29109677232E+04  0.18820449763E+04 0.  0.
        3    1    3    3  502    0 -0.53460566946E+03  0.23784847100E+03  0.29534717775E+02  0.58587321729E+03  0.10100000352E+00 0. -1.
       -3    1    3    3    0  502  0.53460566946E+03 -0.23784847100E+03 -0.22502642810E+04  0.23250945059E+04  0.10100000352E+00 0.  1.
</event>
<event>
 5   0  0.6452182E-05  0.1905995E+04  0.7818609E-02  0.8651878E-01
        2   -1    0    0  501    0  0.00000000000E+00  0.00000000000E+00  0.12261130494E+04  0.12261130494E+04  0.25500000920E-02 0. -1.
       -2   -1    0    0    0  501  0.00000000000E+00  0.00000000000E+00 -0.74071849645E+03  0.74071849645E+03  0.25500000920E-02 0.  1.
    10030    2    1    2    0    0  0.00000000000E+00  0.00000000000E+00  0.48539455296E+03  0.19668315459E+04  0.19059953982E+04 0.  0.
        3    1    3    3  502    0 -0.86795514397E+03  0.14742943436E+03  0.61920329370E+03  0.10763337304E+04  0.10100000352E+00 0.  1.
       -3    1    3    3    0  502  0.86795514397E+03 -0.14742943436E+03 -0.13380874074E+03  0.89049781547E+03  0.10100000352E+00 0. -1.
</event>
<event>
 5   0  0.3144958E-05  0.1898872E+04  0.7818609E-02  0.8655418E-01
       -1   -1    0    0    0  501  0.00000000000E+00  0.00000000000E+00  0.54786149683E+03  0.54786149685E+03  0.50400001928E-02 0. -1.
        1   -1    0    0  501    0  0.00000000000E+00  0.00000000000E+00 -0.16453585330E+04  0.16453585330E+04  0.50400001928E-02 0.  1.
    10030    2    1    2    0    0  0.00000000000E+00  0.00000000000E+00 -0.10974970362E+04  0.21932200299E+04  0.18988718638E+04 0.  0.
        4    1    3    3  502    0 -0.17354083246E+03  0.88741114050E+03 -0.88312806574E+03  0.12639350245E+04  0.12699999809E+01 0. -1.
       -4    1    3    3    0  502  0.17354083246E+03 -0.88741114050E+03 -0.21436897047E+03  0.92928500538E+03  0.12699999809E+01 0.  1.
</event>
<event>
 5   0  0.6361762E-05  0.1898104E+04  0.7818609E-02  0.8655801E-01
       -2   -1    0    0    0  501  0.00000000000E+00  0.00000000000E+00  0.30174919536E+03  0.30174919537E+03  0.25500000920E-02 0.  1.
        2   -1    0    0  501    0  0.00000000000E+00  0.00000000000E+00 -0.29849280772E+04  0.29849280772E+04  0.25500000920E-02 0. -1.
    10030    2    1    2    0    0  0.00000000000E+00  0.00000000000E+00 -0.26831788818E+04  0.32866772726E+04  0.18981039440E+04 0.  0.
        1    1    3    3  502    0  0.29377627128E+03  0.60314553610E+03 -0.25039417344E+04  0.25922602578E+04  0.50400001928E-02 0. -1.
       -1    1    3    3    0  502 -0.29377627128E+03 -0.60314553610E+03 -0.17923714748E+03  0.69441701473E+03  0.50400001928E-02 0.  1.
</event>
<event>
 5   0  0.3086139E-05  0.1904962E+04  0.7818609E-02  0.8652390E-01
        1   -1    0    0  501    0  0.00000000000E+00  0.00000000000E+00  0.17031786497E+04  0.17031786497E+04  0.50400001928E-02 0. -1.
       -1   -1    0    0    0  501  0.00000000000E+00  0.00000000000E+00 -0.53266295613E+03  0.53266295615E+03  0.50400001928E-02 0.  1.
    10030    2    1    2    0    0  0.00000000000E+00  0.00000000000E+00  0.11705156936E+04  0.22358416059E+04  0.19049621250E+04 0.  0.
        2    1    3    3  502    0  0.14225583420E+03 -0.39637258333E+03 -0.41745852834E+03  0.59297518504E+03  0.25500000920E-02 0.  1.
       -2    1    3    3    0  502 -0.14225583420E+03  0.39637258333E+03  0.15879742220E+04  0.16428664209E+04  0.25500000920E-02 0. -1.
</event>
<event>
 5   0  0.3203527E-05  0.1889067E+04  0.7818609E-02  0.8660317E-01
       -1   -1    0    0    0  501  0.00000000000E+00  0.00000000000E+00  0.59834216920E+03  0.59834216923E+03  0.50400001928E-02 0. -1.
        1   -1    0    0  501    0  0.00000000000E+00  0.00000000000E+00 -0.14910262110E+04  0.14910262110E+04  0.50400001928E-02 0.  1.
    10030    2    1    2    0    0  0.00000000000E+00  0.00000000000E+00 -0.89268404181E+03  0.20893683803E+04  0.18890673439E+04 0.  0.
        1    1    3    3  502    0  0.30443497681E+03  0.17840727368E+03  0.52270464552E+03  0.63065835195E+03  0.50400001928E-02 0. -1.
       -1    1    3    3    0  502 -0.30443497681E+03 -0.17840727368E+03 -0.14153886873E+04  0.14587100283E+04  0.50400001928E-02 0.  1.
</event>
<event>
 5   0  0.3147063E-05  0.1896142E+04  0.7818609E-02  0.8656779E-01
        1   -1    0    0  501    0  0.00000000000E+00  0.00000000000E+00  0.10029865276E+04  0.10029865276E+04  0.50400001928E-02 0.  1.
       -1   -1    0    0    0  501  0.00000000000E+00  0.00000000000E+00 -0.89616196110E+03  0.89616196112E+03  0.50400001928E-02 0. -1.
    10030    2    1    2    0    0  0.00000000000E+00  0.00000000000E+00  0.10682456645E+03  0.18991484887E+04  0.18961417389E+04 0.  0.
        5    1    3    3  502    0 -0.13641816692E+02 -0.38175463055E+03 -0.81565804552E+03  0.90069019887E+03  0.46999998093E+01 0. -1.
       -5    1    3    3    0  502  0.13641816692E+02  0.38175463055E+03  0.92248261198E+03  0.99845828982E+03  0.46999998093E+01 0.  1.
</event>
<event>
 5   0  0.6423388E-05  0.1901874E+04  0.7818609E-02  0.8653924E-01
       -2   -1    0    0    0  501  0.00000000000E+00  0.00000000000E+00  0.11310336688E+04  0.11310336688E+04  0.25500000920E-02 0.  1.
        2   -1    0    0  501    0  0.00000000000E+00  0.00000000000E+00 -0.79951720230E+03  0.79951720231E+03  0.25500000920E-02 0. -1.
    10030    2    1    2    0    0  0.00000000000E+00  0.00000000000E+00  0.33151646654E+03  0.19305508712E+04  0.19018736810E+04 0.  0.
        2    1    3    3  502    0 -0.79001073874E+03 -0.51014916911E+03  0.22521599273E+02  0.94067867229E+03  0.25500000920E-02 0.  1.
       -2    1    3    3    0  502  0.79001073874E+03  0.51014916911E+03  0.30899486726E+03  0.98987219886E+03  0.25500000920E-02 0. -1.
</event>
<event>
 5   0  0.6361762E-05  0.1903666E+04  0.7818609E-02  0.8653034E-01
       -2   -1    0    0    0  501  0.00000000000E+00  0.00000000000E+00  0.13121263321E+04  0.13121263321E+04  0.25500000920E-02 0. -1.
        2   -1    0    0  501    0  0.00000000000E+00  0.00000000000E+00 -0.69047158513E+03  0.69047158513E+03  0.25500000920E-02 0.  1.
    10030    2    1    2    0    0  0.00000000000E+00  0.00000000000E+00  0.62165474693E+03  0.20025979172E+04  0.19036658829E+04 0.  0.
        1    1    3    3  502    0  0.17487389455E+02 -0.90441673661E+03  0.62237815283E+03  0.10980118430E+04  0.50400001928E-02 0. -1.
       -1    1    3    3    0  502 -0.17487389455E+02  0.90441673661E+03 -0.72340589571E+00  0.90458607418E+03  0.50400001928E-02 0.  1.
</event>
<event>
 5   0  0.6098377E-05  0.1902005E+04  0.7818609E-02  0.8653859E-01
       -2   -1    0    0    0  501  0.00000000000E+00  0.00000000000E+00  0.14113178217E+04  0.14113178217E+04  0.25500000920E-02 0. -1.
        2   -1    0    0  501    0  0.00000000000E+00  0.00000000000E+00 -0.64082331433E+03  0.64082331434E+03  0.25500000920E-02 0.  1.
    10030    2    1    2    0    0  0.00000000000E+00  0.00000000000E+00  0.77049450736E+03  0.20521411360E+04  0.19020045889E+04 0.  0.
        5    1    3    3  502    0 -0.92870797021E+03  0.18738909175E+03  0.47402282552E+03  0.10594021402E+04  0.46999998093E+01 0.  1.
       -5    1    3    3    0  502  0.92870797021E+03 -0.18738909175E+03  0.29647168184E+03  0.99273899579E+03  0.46999998093E+01 0. -1.
</event>
<event>
 5   0  0.2279625E-05  0.1901436E+04  0.7818609E-02  0.8654142E-01
       -3   -1    0    0    0  501  0.00000000000E+00  0.00000000000E+00  0.46104606223E+03  0.46104607329E+03  0.10100000352E+00 0.  1.
        3   -1    0    0  501    0  0.00000000000E+00  0.00000000000E+00 -0.19604650220E+04  0.19604650246E+04  0.10100000352E+00 0. -1.
    10030    2    1    2    0    0  0.00000000000E+00  0.00000000000E+00 -0.14994189598E+04  0.24215110979E+04  0.19014359785E+04 0.  0.
        5    1    3    3  502    0 -0.56714411591E+03  0.70967956924E+03 -0.11066239953E+04  0.14317598598E+04  0.46999998093E+01 0. -1.
       -5    1    3    3    0  502  0.56714411591E+03 -0.70967956924E+03 -0.39279496449E+03  0.98975123811E+03  0.46999998093E+01 0.  1.
</event>
<event>
 5   0  0.2279625E-05  0.1892592E+04  0.7818609E-02  0.8658552E-01
       -4   -1    0    0    0  501  0.00000000000E+00  0.00000000000E+00  0.61230122127E+03  0.61230253834E+03  0.12699999809E+01 0. -1.
        4   -1    0    0  501    0  0.00000000000E+00  0.00000000000E+00 -0.14624737501E+04  0.14624743015E+04  0.12699999809E+01 0.  1.
    10030    2    1    2    0    0  0.00000000000E+00  0.00000000000E+00 -0.85017252884E+03  0.20747768399E+04  0.18925922980E+04 0.  0.
        5    1    3    3  502    0  0.10389589180E+03  0.59799942439E+03  0.37078526518E+03  0.71126751000E+03  0.46999998093E+01 0. -1.
       -5    1    3    3    0  502 -0.10389589180E+03 -0.59799942439E+03 -0.12209577940E+04  0.13635093299E+04  0.46999998093E+01 0.  1.
</event>
<event>
 5   0  0.6395992E-05  0.1906846E+04  0.7818609E-02  0.8651456E-01
        2   -1    0    0  501    0  0.00000000000E+00  0.00000000000E+00  0.77624990648E+03  0.77624990648E+03  0.25500000920E-02 0. -1.
       -2   -1    0    0    0  501  0.00000000000E+00  0.00000000000E+00 -0.11710340355E+04  0.11710340355E+04  0.25500000920E-02 0.  1.
    10030    2    1    2    0    0  0.00000000000E+00  0.00000000000E+00 -0.39478412901E+03  0.19472839420E+04  0.19068456262E+04 0.  0.
        4    1    3    3  502    0  0.41490490111E+03 -0.51704540422E+03  0.50236304390E+03  0.83177657322E+03  0.12699999809E+01 0. -1.
       -4    1    3    3    0  502 -0.41490490111E+03  0.51704540422E+03 -0.89714717291E+03  0.11155073688E+04  0.12699999809E+01 0.  1.
</event>
<event>
 5   0  0.6361762E-05  0.1901434E+04  0.7818609E-02  0.8654143E-01
        2   -1    0    0  501    0  0.00000000000E+00  0.00000000000E+00  0.12973792098E+04  0.12973792098E+04  0.25500000920E-02 0. -1.
       -2   -1    0    0    0  501  0.00000000000E+00  0.00000000000E+00 -0.69668345652E+03  0.69668345652E+03  0.25500000920E-02 0.  1.
    10030    2    1    2    0    0  0.00000000000E+00  0.00000000000E+00  0.60069575328E+03  0.19940626663E+04  0.19014338088E+04 0.  0.
        1    1    3    3  502    0 -0.71443546857E+03  0.15479403287E+03 -0.33711523314E+03  0.80500056633E+03  0.50400001928E-02 0.  1.
       -1    1    3    3    0  502  0.71443546857E+03 -0.15479403287E+03  0.93781098643E+03  0.11890621000E+04  0.50400001928E-02 0. -1.
</event>
<event>
 5   0  0.3203527E-05  0.1894654E+04  0.7818609E-02  0.8657522E-01
       -1   -1    0    0    0  501  0.00000000000E+00  0.00000000000E+00  0.66723143282E+03  0.66723143284E+03  0.50400001928E-02 0.  1.
        1   -1    0    0  501    0  0.00000000000E+00  0.00000000000E+00 -0.13450030141E+04  0.13450030141E+04  0.50400001928E-02 0. -1.
    10030    2    1    2    0    0  0.00000000000E+00  0.00000000000E+00 -0.67777158131E+03  0.20122344470E+04  0.18946538347E+04 0.  0.
        1    1    3    3  502    0 -0.29840053169E+03  0.40420874533E+03  0.51407447316E+03  0.71881858010E+03  0.50400001928E-02 0.  1.
       -1    1    3    3    0  502  0.29840053169E+03 -0.40420874533E+03 -0.11918460545E+04  0.12934158669E+04  0.50400001928E-02 0. -1.
</event>
<event>
 5   0  0.3147063E-05  0.1898512E+04  0.7818609E-02  0.8655597E-01
        1   -1    0    0  501    0  0.00000000000E+00  0.00000000000E+00  0.83102255847E+03  0.83102255848E+03  0.50400001928E-02 0.  1.
       -1   -1    0    0    0  501  0.00000000000E+00  0.00000000000E+00 -0.10843114098E+04  0.10843114098E+04  0.50400001928E-02 0. -1.
    10030    2    1    2    0    0  0.00000000000E+00  0.00000000000E+00 -0.25328885131E+03  0.19153339683E+04  0.18985123038E+04 0.  0.
        5    1    3    3  502    0  0.91637911975E+03 -0.21994471325E+03 -0.11887785246E+02  0.94249126120E+03  0.46999998093E+01 0.  1.
       -5    1    3    3    0  502 -0.91637911975E+03  0.21994471325E+03 -0.24140106607E+03  0.97284270707E+03  0.46999998093E+01 0. -1.
</event>
<event>
 5   0  0.6098377E-05  0.1908575E+04  0.7818609E-02  0.8650600E-01
       -2   -1    0    0    0  501  0.00000000000E+00  0.00000000000E+00  0.11509376884E+04  0.11509376884E+04  0.25500000920E-02 0.  1.
        2   -1    0    0  501    0  0.00000000000E+00  0.00000000000E+00 -0.79123753634E+03  0.79123753635E+03  0.25500000920E-02 0. -1.
    10030    2    1    2    0    0  0.00000000000E+00  0.00000000000E+00  0.35970015206E+03  0.19421752248E+04  0.19085754908E+04 0.  0.
        5    1    3    3  502    0  0.42840423812E+03 -0.66930788959E+03  0.71748803594E+03  0.10706607371E+04  0.46999998093E+01 0.  1.
       -5    1    3    3    0  502 -0.42840423812E+03  0.66930788959E+03 -0.35778788387E+03  0.87151448763E+03  0.46999998093E+01 0. -1.
</event>
<event>
 5   0  0.6098377E-05  0.1897010E+04  0.7818609E-02  0.8656346E-01
        2   -1    0    0  501    0  0.00000000000E+00  0.00000000000E+00  0.82864862343E+03  0.82864862343E+03  0.25500000920E-02 0.  1.
       -2   -1    0    0    0  501  0.00000000000E+00  0.00000000000E+00 -0.10856976307E+04  0.10856976307E+04  0.25500000920E-02 0. -1.
    10030    2    1    2    0    0  0.00000000000E+00  0.00000000000E+00 -0.25704900726E+03  0.19143462541E+04  0.18970101182E+04 0.  0.
        5    1    3    3  502    0  0.10378962084E+03 -0.90135191884E+03 -0.40751473542E+03  0.99463456434E+03  0.46999998093E+01 0. -1.
       -5    1    3    3    0  502 -0.10378962084E+03  0.90135191884E+03  0.15046572816E+03  0.91971168979E+03  0.46999998093E+01 0.  1.
</event>
<event>
 5   0  0.6098377E-05  0.1895377E+04  0.7818609E-02  0.8657161E-01
        2   -1    0    0  501    0  0.00000000000E+00  0.00000000000E+00  0.48036378300E+03  0.48036378301E+03  0.25500000920E-02 0.  1.
       -2   -1    0    0    0  501  0.00000000000E+00  0.00000000000E+00 -0.18696523421E+04  0.18696523421E+04  0.25500000920E-02 0. -1.
    10030    2    1    2    0    0  0.00000000000E+00  0.00000000000E+00 -0.13892885591E+04  0.23500161251E+04  0.18953767667E+04 0.  0.
        5    1    3    3  502    0  0.79296572466E+03 -0.17603604453E+03 -0.12999077533E+04  0.15328292750E+04  0.46999998093E+01 0. -1.
       -5    1    3    3    0  502 -0.79296572466E+03  0.17603604453E+03 -0.89380805838E+02  0.81718685006E+03  0.46999998093E+01 0.  1.
</event>
<event>
 5   0  0.6395992E-05  0.1901439E+04  0.7818609E-02  0.8654140E-01
        2   -1    0    0  501    0  0.00000000000E+00  0.00000000000E+00  0.26196394253E+04  0.26196394253E+04  0.25500000920E-02 0. -1.
       -2   -1    0    0    0  501  0.00000000000E+00  0.00000000000E+00 -0.34503514618E+03  0.34503514619E+03  0.25500000920E-02 0.  1.
    10030    2    1    2    0    0  0.00000000000E+00  0.00000000000E+00  0.22746042791E+04  0.29646745714E+04  0.19014391098E+04 0.  0.
        4    1    3    3  502    0  0.14462637953E+03  0.35678814369E+03  0.24926643648E+04  0.25222196212E+04  0.12699999809E+01 0. -1.
       -4    1    3    3    0  502 -0.14462637953E+03 -0.35678814369E+03 -0.21806008571E+03  0.44245495027E+03  0.12699999809E+01 0.  1.
</event>
<event>
 5   0  0.6395992E-05  0.1905121E+04  0.7818609E-02  0.8652312E-01
       -2   -1    0    0    0  501  0.00000000000E+00  0.00000000000E+00  0.50417784312E+03  0.50417784312E+03  0.25500000920E-02 0.  1.
        2   -1    0    0  501    0  0.00000000000E+00  0.00000000000E+00 -0.17997049431E+04  0.17997049431E+04  0.25500000920E-02 0. -1.
    10030    2    1    2    0    0  0.00000000000E+00  0.00000000000E+00 -0.12955270999E+04  0.23038827862E+04  0.19051208428E+04 0.  0.
        4    1    3    3  502    0  0.69990437332E+03  0.63683964774E+03 -0.77989906166E+03  0.12262442775E+04  0.12699999809E+01 0. -1.
       -4    1    3    3    0  502 -0.69990437332E+03 -0.63683964774E+03 -0.51562803829E+03  0.10776385087E+04  0.12699999809E+01 0.  1.
</event>
<event>
 5   0  0.3147063E-05  0.1876226E+04  0.7818609E-02  0.8666781E-01
        1   -1    0    0  501    0  0.00000000000E+00  0.00000000000E+00  0.18537476126E+04  0.18537476126E+04  0.50400001928E-02 0.  1.
       -1   -1    0    0    0  501  0.00000000000E+00  0.00000000000E+00 -0.47474444641E+03  0.47474444643E+03  0.50400001928E-02 0. -1.
    10030    2    1    2    0    0  0.00000000000E+00  0.00000000000E+00  0.13790031662E+04  0.23284920590E+04  0.18762264087E+04 0.  0.
        5    1    3    3  502    0 -0.38851783692E+03  0.55597069989E+03  0.14937797606E+04  0.16405638031E+04  0.46999998093E+01 0.  1.
       -5    1    3    3    0  502  0.38851783692E+03 -0.55597069989E+03 -0.11477659441E+03  0.68792825597E+03  0.46999998093E+01 0. -1.
</event>
<event>
 5   0  0.6452182E-05  0.1891360E+04  0.7818609E-02  0.8659169E-01
       -2   -1    0    0    0  501  0.00000000000E+00  0.00000000000E+00  0.12693928520E+04  0.12693928520E+04  0.25500000920E-02 0. -1.
        2   -1    0    0  501    0  0.00000000000E+00  0.00000000000E+00 -0.70451855081E+03  0.70451855082E+03  0.25500000920E-02 0.  1.
    10030    2    1    2    0    0  0.00000000000E+00  0.00000000000E+00  0.56487430117E+03  0.19739114028E+04  0.18913601587E+04 0.  0.
        3    1    3    3  502    0  0.19660082416E+03  0.38416196028E+03 -0.59576424979E+03  0.73564077328E+03  0.10100000352E+00 0.  1.
       -3    1    3    3    0  502 -0.19660082416E+03 -0.38416196028E+03  0.11606385510E+04  0.12382706295E+04  0.10100000352E+00 0. -1.
</event>
<event>
 5   0  0.6423388E-05  0.1902537E+04  0.7818609E-02  0.8653595E-01
        2   -1    0    0  501    0  0.00000000000E+00  0.00000000000E+00  0.96570333931E+03  0.96570333931E+03  0.25500000920E-02 0.  1.
       -2   -1    0    0    0  501  0.00000000000E+00  0.00000000000E+00 -0.93704947258E+03  0.93704947259E+03  0.25500000920E-02 0. -1.
    10030    2    1    2    0    0  0.00000000000E+00  0.00000000000E+00  0.28653866726E+02  0.19027528119E+04  0.19025370480E+04 0.  0.
        2    1    3    3  502    0 -0.33224135828E+01 -0.61073196084E+03  0.74372935370E+03  0.96236059665E+03  0.25500000920E-02 0.  1.
       -2    1    3    3    0  502  0.33224135828E+01  0.61073196084E+03 -0.71507548698E+03  0.94039221525E+03  0.25500000920E-02 0. -1.
</event>
<event>
 5   0  0.3083469E-05  0.1896874E+04  0.7818609E-02  0.8656414E-01
       -1   -1    0    0    0  501  0.00000000000E+00  0.00000000000E+00  0.13395400798E+04  0.13395400798E+04  0.50400001928E-02 0.  1.
        1   -1    0    0  501    0  0.00000000000E+00  0.00000000000E+00 -0.67152371322E+03  0.67152371324E+03  0.50400001928E-02 0. -1.
    10030    2    1    2    0    0  0.00000000000E+00  0.00000000000E+00  0.66801636662E+03  0.20110637931E+04  0.18968741956E+04 0.  0.
        3    1    3    3  502    0 -0.41461284772E+03 -0.53934060872E+03 -0.36663872085E+03  0.77279755922E+03  0.10100000352E+00 0. -1.
       -3    1    3    3    0  502  0.41461284772E+03  0.53934060872E+03  0.10346550875E+04  0.12382662339E+04  0.10100000352E+00 0.  1.
</event>
<event>
 5   0  0.6098377E-05  0.1995765E+04  0.7818609E-02  0.8608603E-01
        2   -1    0    0  501    0  0.00000000000E+00  0.00000000000E+00  0.19965934173E+04  0.19965934173E+04  0.25500000920E-02 0. -1.
       -2   -1    0    0    0  501  0.00000000000E+00  0.00000000000E+00 -0.49873398208E+03  0.49873398209E+03  0.25500000920E-02 0.  1.
    10030    2    1    2    0    0  0.00000000000E+00  0.00000000000E+00  0.14978594352E+04  0.24953273994E+04  0.19957645007E+04 0.  0.
        5    1    3    3  502    0  0.25146334119E+03  0.47289568823E+03 -0.30377227878E+03  0.61576280439E+03  0.46999998093E+01 0.  1.
       -5    1    3    3    0  502 -0.25146334119E+03 -0.47289568823E+03  0.18016317140E+04  0.18795645950E+04  0.46999998093E+01 0. -1.
</event>
<event>
 5   0  0.6423388E-05  0.1895935E+04  0.7818609E-02  0.8656882E-01
       -2   -1    0    0    0  501  0.00000000000E+00  0.00000000000E+00  0.68130743210E+03  0.68130743211E+03  0.25500000920E-02 0.  1.
        2   -1    0    0  501    0  0.00000000000E+00  0.00000000000E+00 -0.13189970049E+04  0.13189970049E+04  0.25500000920E-02 0. -1.
    10030    2    1    2    0    0  0.00000000000E+00  0.00000000000E+00 -0.63768957284E+03  0.20003044371E+04  0.18959350858E+04 0.  0.
        2    1    3    3  502    0 -0.44632030169E+02  0.24854699262E+03  0.64516916789E+03  0.69282817557E+03  0.25500000920E-02 0.  1.
       -2    1    3    3    0  502  0.44632030169E+02 -0.24854699262E+03 -0.12828587407E+04  0.13074762615E+04  0.25500000920E-02 0. -1.
</event>
<event>
 5   0  0.3203527E-05  0.1877414E+04  0.7818609E-02  0.8666181E-01
        1   -1    0    0  501    0  0.00000000000E+00  0.00000000000E+00  0.89893120145E+03  0.89893120146E+03  0.50400001928E-02 0.  1.
       -1   -1    0    0    0  501  0.00000000000E+00  0.00000000000E+00 -0.98024313026E+03  0.98024313028E+03  0.50400001928E-02 0. -1.
    10030    2    1    2    0    0  0.00000000000E+00  0.00000000000E+00 -0.81311928814E+02  0.18791743317E+04  0.18774143228E+04 0.  0.
        1    1    3    3  502    0 -0.43264085983E+03 -0.83234299900E+03 -0.60091649252E+01  0.93808799783E+03  0.50400001928E-02 0.  1.
       -1    1    3    3    0  502  0.43264085983E+03  0.83234299900E+03 -0.75302763889E+02  0.94108633391E+03  0.50400001928E-02 0. -1.
</event>
<event>
 5   0  0.6098377E-05  0.1896228E+04  0.7818609E-02  0.8656736E-01
       -2   -1    0    0    0  501  0.00000000000E+00  0.00000000000E+00  0.65709993933E+03  0.65709993933E+03  0.25500000920E-02 0.  1.
        2   -1    0    0  501    0  0.00000000000E+00  0.00000000000E+00 -0.13680112656E+04  0.13680112656E+04  0.25500000920E-02 0. -1.
    10030    2    1    2    0    0  0.00000000000E+00  0.00000000000E+00 -0.71091132627E+03  0.20251112049E+04  0.18962279606E+04 0.  0.
        5    1    3    3  502    0 -0.18502615844E+03 -0.34041489391E+03 -0.12795913745E+04  0.13369716358E+04  0.46999998093E+01 0. -1.
       -5    1    3    3    0  502  0.18502615844E+03  0.34041489391E+03  0.56868004824E+03  0.68813956910E+03  0.46999998093E+01 0.  1.
</event>
<event>
 5   0  0.2279625E-05  0.1769805E+04  0.7818609E-02  0.8722524E-01
        4   -1    0    0  501    0  0.00000000000E+00  0.00000000000E+00  0.84110553734E+03  0.84110649613E+03  0.12699999809E+01 0.  1.
       -4   -1    0    0    0  501  0.00000000000E+00  0.00000000000E+00 -0.93097814314E+03  0.93097900938E+03  0.12699999809E+01 0. -1.
    10030    2    1    2    0    0  0.00000000000E+00  0.00000000000E+00 -0.89872605803E+02  0.17720855055E+04  0.17698050609E+04 0.  0.
        2    1    3    3  502    0 -0.69880888058E+03  0.13424281281E+03 -0.57163453602E+03  0.91275463688E+03  0.25500000920E-02 0. -1.
       -2    1    3    3    0  502  0.69880888058E+03 -0.13424281281E+03  0.48176193022E+03  0.85933086863E+03  0.25500000920E-02 0.  1.
</event>
<event>
 5   0  0.6452182E-05  0.1893056E+04  0.7818609E-02  0.8658321E-01
       -2   -1    0    0    0  501  0.00000000000E+00  0.00000000000E+00  0.11066757221E+04  0.11066757221E+04  0.25500000920E-02 0.  1.
        2   -1    0    0  501    0  0.00000000000E+00  0.00000000000E+00 -0.80955501576E+03  0.80955501576E+03  0.25500000920E-02 0. -1.
    10030    2    1    2    0    0  0.00000000000E+00  0.00000000000E+00  0.29712070638E+03  0.19162307379E+04  0.18930556058E+04 0.  0.
        3    1    3    3  502    0  0.16278011055E+03  0.81203159697E+03 -0.31533179898E+03  0.88618668040E+03  0.10100000352E+00 0. -1.
       -3    1    3    3    0  502 -0.16278011055E+03 -0.81203159697E+03  0.61245250536E+03  0.10300440575E+04  0.10100000352E+00 0.  1.
</event>
<event>
 5   0  0.3086139E-05  0.1898245E+04  0.7818609E-02  0.8655730E-01
        1   -1    0    0  501    0  0.00000000000E+00  0.00000000000E+00  0.17867472027E+04  0.17867472027E+04  0.50400001928E-02 0. -1.
       -1   -1    0    0    0  501  0.00000000000E+00  0.00000000000E+00 -0.50417533488E+03  0.50417533491E+03  0.50400001928E-02 0.  1.
    10030    2    1    2    0    0  0.00000000000E+00  0.00000000000E+00  0.12825718678E+04  0.22909225376E+04  0.18982453680E+04 0.  0.
        2    1    3    3  502    0 -0.39001654517E+03  0.98197141353E+02 -0.39625031113E+03  0.56459710693E+03  0.25500000920E-02 0.  1.
       -2    1    3    3    0  502  0.39001654517E+03 -0.98197141353E+02  0.16788221790E+04  0.17263254307E+04  0.25500000920E-02 0. -1.
</event>
<event>
 5   0  0.3147063E-05  0.1897355E+04  0.7818609E-02  0.8656174E-01
       -1   -1    0    0    0  501  0.00000000000E+00  0.00000000000E+00  0.94729115615E+03  0.94729115616E+03  0.50400001928E-02 0.  1.
        1   -1    0    0  501    0  0.00000000000E+00  0.00000000000E+00 -0.95006575498E+03  0.95006575499E+03  0.50400001928E-02 0. -1.
    10030    2    1    2    0    0  0.00000000000E+00  0.00000000000E+00 -0.27745988323E+01  0.18973569112E+04  0.18973548824E+04 0.  0.
        5    1    3    3  502    0 -0.81629512927E+03  0.45445052523E+02 -0.48259858545E+03  0.94938215464E+03  0.46999998093E+01 0.  1.
       -5    1    3    3    0  502  0.81629512927E+03 -0.45445052523E+02  0.47982398661E+03  0.94797475652E+03  0.46999998093E+01 0. -1.
</event>
<event>
 5   0  0.6423388E-05  0.1884183E+04  0.7818609E-02  0.8662770E-01
        2   -1    0    0  501    0  0.00000000000E+00  0.00000000000E+00  0.32383214852E+04  0.32383214852E+04  0.25500000920E-02 0. -1.
       -2   -1    0    0    0  501  0.00000000000E+00  0.00000000000E+00 -0.27407311440E+03  0.27407311441E+03  0.25500000920E-02 0.  1.
    10030    2    1    2    0    0  0.00000000000E+00  0.00000000000E+00  0.29642483708E+04  0.35123945996E+04  0.18841834888E+04 0.  0.
        2    1    3    3  502    0  0.91906179268E+03 -0.19662830575E+02  0.10979305909E+04  0.14319611685E+04  0.25500000920E-02 0.  1.
       -2    1    3    3    0  502 -0.91906179268E+03  0.19662830575E+02  0.18663177799E+04  0.20804334311E+04  0.25500000920E-02 0. -1.
</event>
<event>
 5   0  0.6361762E-05  0.1899670E+04  0.7818609E-02  0.8655021E-01
        2   -1    0    0  501    0  0.00000000000E+00  0.00000000000E+00  0.10578929314E+04  0.10578929314E+04  0.25500000920E-02 0. -1.
       -2   -1    0    0    0  501  0.00000000000E+00  0.00000000000E+00 -0.85281418625E+03  0.85281418625E+03  0.25500000920E-02 0.  1.
    10030    2    1    2    0    0  0.00000000000E+00  0.00000000000E+00  0.20507874520E+03  0.19107071177E+04  0.18996695497E+04 0.  0.
        1    1    3    3  502    0  0.40527405267E+03  0.76880433082E+03  0.48801402787E+03  0.99672706810E+03  0.50400001928E-02 0. -1.
       -1    1    3    3    0  502 -0.40527405267E+03 -0.76880433082E+03 -0.28293528268E+03  0.91398004960E+03  0.50400001928E-02 0.  1.
</event>
<event>
 5   0  0.3086139E-05  0.1903381E+04  0.7818609E-02  0.8653175E-01
        1   -1    0    0  501    0  0.00000000000E+00  0.00000000000E+00  0.98810317851E+03  0.98810317852E+03  0.50400001928E-02 0. -1.
       -1   -1    0    0    0  501  0.00000000000E+00  0.00000000000E+00 -0.91661970999E+03  0.91661971000E+03  0.50400001928E-02 0.  1.
    10030    2    1    2    0    0  0.00000000000E+00  0.00000000000E+00  0.71483468518E+02  0.19047228885E+04  0.19033810432E+04 0.  0.
        2    1    3    3  502    0 -0.89429325109E+03 -0.30073462700E+03 -0.88897724558E+02  0.94768377651E+03  0.25500000920E-02 0.  1.
       -2    1    3    3    0  502  0.89429325109E+03  0.30073462700E+03  0.16038119308E+03  0.95703911201E+03  0.25500000920E-02 0. -1.
</event>
<event>
 5   0  0.3083469E-05  0.1897319E+04  0.7818609E-02  0.8656192E-01
       -1   -1    0    0    0  501  0.00000000000E+00  0.00000000000E+00  0.70419661859E+03  0.70419661861E+03  0.50400001928E-02 0. -1.
        1   -1    0    0  501    0  0.00000000000E+00  0.00000000000E+00 -0.12779883409E+04  0.12779883409E+04  0.50400001928E-02 0.  1.
    10030    2    1    2    0    0  0.00000000000E+00  0.00000000000E+00 -0.57379172229E+03  0.19821849595E+04  0.18973192333E+04 0.  0.
        3    1    3    3  502    0  0.21312060890E+03 -0.54744917039E+03  0.49129356949E+03  0.76582659246E+03  0.10100000352E+00 0. -1.
       -3    1    3    3    0  502 -0.21312060890E+03  0.54744917039E+03 -0.10650852918E+04  0.12163583670E+04  0.10100000352E+00 0.  1.
</event>
<event>
 5   0  0.6423388E-05  0.1897150E+04  0.7818609E-02  0.8656276E-01
        2   -1    0    0  501    0  0.00000000000E+00  0.00000000000E+00  0.14521418405E+04  0.14521418405E+04  0.25500000920E-02 0. -1.
       -2   -1    0    0    0  501  0.00000000000E+00  0.00000000000E+00 -0.61963270545E+03  0.61963270545E+03  0.25500000920E-02 0.  1.
    10030    2    1    2    0    0  0.00000000000E+00  0.00000000000E+00  0.83250913505E+03  0.20717745460E+04  0.18971500492E+04 0.  0.
        2    1    3    3  502    0 -0.93519438241E+03  0.12651285874E+02  0.24342823749E+03  0.96643980399E+03  0.25500000920E-02 0. -1.
       -2    1    3    3    0  502  0.93519438241E+03 -0.12651285874E+02  0.58908089756E+03  0.11053347420E+04  0.25500000920E-02 0.  1.
</event>
<event>
 5   0  0.3203527E-05  0.1896083E+04  0.7818609E-02  0.8656809E-01
        1   -1    0    0  501    0  0.00000000000E+00  0.00000000000E+00  0.21893478448E+04  0.21893478448E+04  0.50400001928E-02 0. -1.
       -1   -1    0    0    0  501  0.00000000000E+00  0.00000000000E+00 -0.41052515564E+03  0.41052515567E+03  0.50400001928E-02 0.  1.
    10030    2    1    2    0    0  0.00000000000E+00  0.00000000000E+00  0.17788226892E+04  0.25998730005E+04  0.18960826615E+04 0.  0.
        1    1    3    3  502    0 -0.66062591760E+03 -0.66078698885E+03  0.66952449687E+03  0.11494908001E+04  0.50400001928E-02 0. -1.
       -1    1    3    3    0  502  0.66062591760E+03  0.66078698885E+03  0.11092981923E+04  0.14503822003E+04  0.50400001928E-02 0.  1.
</event>
<event>
 5   0  0.3203527E-05  0.1880643E+04  0.7818609E-02  0.8664552E-01
        1   -1    0    0  501    0  0.00000000000E+00  0.00000000000E+00  0.16289971969E+04  0.16289971969E+04  0.50400001928E-02 0.  1.
       -1   -1    0    0    0  501  0.00000000000E+00  0.00000000000E+00 -0.54279072761E+03  0.54279072764E+03  0.50400001928E-02 0. -1.
    10030    2    1    2    0    0  0.00000000000E+00  0.00000000000E+00  0.10862064693E+04  0.21717879245E+04  0.18806430537E+04 0.  0.
        1    1    3    3  502    0 -0.18563154771E+03 -0.12874079787E+03  0.15971944476E+04  0.16130912460E+04  0.50400001928E-02 0.  1.
       -1    1    3    3    0  502  0.18563154771E+03  0.12874079787E+03 -0.51098797833E+03  0.55869667850E+03  0.50400001928E-02 0. -1.
</event>
<event>
 5   0  0.3086139E-05  0.1904485E+04  0.7818609E-02  0.8652627E-01
        1   -1    0    0  501    0  0.00000000000E+00  0.00000000000E+00  0.14580172677E+04  0.14580172677E+04  0.50400001928E-02 0.  1.
       -1   -1    0    0    0  501  0.00000000000E+00  0.00000000000E+00 -0.62191681255E+03  0.62191681257E+03  0.50400001928E-02 0. -1.
    10030    2    1    2    0    0  0.00000000000E+00  0.00000000000E+00  0.83610045511E+03  0.20799340802E+04  0.19044846566E+04 0.  0.
        2    1    3    3  502    0  0.40682363990E+03 -0.41760696593E+03  0.12403149999E+04  0.13705044148E+04  0.25500000920E-02 0.  1.
       -2    1    3    3    0  502 -0.40682363990E+03  0.41760696593E+03 -0.40421454479E+03  0.70942966544E+03  0.25500000920E-02 0. -1.
</event>
<event>
 5   0  0.6395992E-05  0.1894594E+04  0.7818609E-02  0.8657552E-01
       -2   -1    0    0    0  501  0.00000000000E+00  0.00000000000E+00  0.15631456657E+04  0.15631456657E+04  0.25500000920E-02 0. -1.
        2   -1    0    0  501    0  0.00000000000E+00  0.00000000000E+00 -0.57408074190E+03  0.57408074190E+03  0.25500000920E-02 0.  1.
    10030    2    1    2    0    0  0.00000000000E+00  0.00000000000E+00  0.98906492381E+03  0.21372264076E+04  0.18945942293E+04 0.  0.
        4    1    3    3  502    0 -0.48678394613E+03 -0.61019510551E+03  0.10999932215E+04  0.13488081321E+04  0.12699999809E+01 0. -1.
       -4    1    3    3    0  502  0.48678394613E+03  0.61019510551E+03 -0.11092829770E+03  0.78841827549E+03  0.12699999809E+01 0.  1.
</event>
<event>
 5   0  0.2279625E-05  0.1896344E+04  0.7818609E-02  0.8656679E-01
       -4   -1    0    0    0  501  0.00000000000E+00  0.00000000000E+00  0.85160958420E+03  0.85161053117E+03  0.12699999809E+01 0.  1.
        4   -1    0    0  501    0  0.00000000000E+00  0.00000000000E+00 -0.10556809808E+04  0.10556817447E+04  0.12699999809E+01 0. -1.
    10030    2    1    2    0    0  0.00000000000E+00  0.00000000000E+00 -0.20407139661E+03  0.19072922759E+04  0.18963435055E+04 0.  0.
        4    1    3    3  502    0 -0.64434592988E+03 -0.30291976877E+03  0.52774726335E+03  0.88626229218E+03  0.12699999809E+01 0.  1.
       -4    1    3    3    0  502  0.64434592988E+03  0.30291976877E+03 -0.73181865995E+03  0.10210299837E+04  0.12699999809E+01 0. -1.
</event>
<event>
 5   0  0.6395992E-05  0.1903645E+04  0.7818609E-02  0.8653044E-01
       -2   -1    0    0    0  501  0.00000000000E+00  0.00000000000E+00  0.45241110089E+03  0.45241110090E+03  0.25500000920E-02 0.  1.
        2   -1    0    0  501    0  0.00000000000E+00  0.00000000000E+00 -0.20025279463E+04  0.20025279463E+04  0.25500000920E-02 0. -1.
    10030    2    1    2    0    0  0.00000000000E+00  0.00000000000E+00 -0.15501168454E+04  0.24549390472E+04  0.19036447912E+04 0.  0.
        4    1    3    3  502    0  0.47117188078E+03 -0.49898552117E+03  0.75466083595E+02  0.69042467674E+03  0.12699999809E+01 0.  1.
       -4    1    3    3    0  502 -0.47117188078E+03  0.49898552117E+03 -0.16255829290E+04  0.17645143705E+04  0.12699999809E+01 0. -1.
</event>
<event>
 5   0  0.6361762E-05  0.1897615E+04  0.7818609E-02  0.8656045E-01
       -2   -1    0    0    0  501  0.00000000000E+00  0.00000000000E+00  0.71792592523E+03  0.71792592524E+03  0.25500000920E-02 0.  1.
        2   -1    0    0  501    0  0.00000000000E+00  0.00000000000E+00 -0.12539388878E+04  0.12539388878E+04  0.25500000920E-02 0. -1.
    10030    2    1    2    0    0  0.00000000000E+00  0.00000000000E+00 -0.53601296252E+03  0.19718648130E+04  0.18976145406E+04 0.  0.
        1    1    3    3  502    0 -0.26670462593E+02  0.88517588730E+03 -0.62190183822E+03  0.10821319520E+04  0.50400001928E-02 0. -1.
       -1    1    3    3    0  502  0.26670462593E+02 -0.88517588730E+03  0.85888875697E+02  0.88973286104E+03  0.50400001928E-02 0.  1.
</event>
<event>
 5   0  0.6098377E-05  0.1925240E+04  0.7818609E-02  0.8642394E-01
       -2   -1    0    0    0  501  0.00000000000E+00  0.00000000000E+00  0.35561640513E+03  0.35561640514E+03  0.25500000920E-02 0. -1.
        2   -1    0    0  501    0  0.00000000000E+00  0.00000000000E+00 -0.26057221132E+04  0.26057221132E+04  0.25500000920E-02 0.  1.
    10030    2    1    2    0    0  0.00000000000E+00  0.00000000000E+00 -0.22501057081E+04  0.29613385184E+04  0.19252402766E+04 0.  0.
        5    1    3    3  502    0  0.11908200327E+03  0.22239149087E+03  0.30385003012E+03  0.39494990760E+03  0.46999998093E+01 0. -1.
       -5    1    3    3    0  502 -0.11908200327E+03 -0.22239149087E+03 -0.25539557382E+04  0.25663886108E+04  0.46999998093E+01 0.  1.
</event>
<event>
 5   0  0.6452182E-05  0.1895977E+04  0.7818609E-02  0.8656861E-01
        2   -1    0    0  501    0  0.00000000000E+00  0.00000000000E+00  0.14846119633E+04  0.14846119633E+04  0.25500000920E-02 0. -1.
       -2   -1    0    0    0  501  0.00000000000E+00  0.00000000000E+00 -0.60533166913E+03  0.60533166914E+03  0.25500000920E-02 0.  1.
    10030    2    1    2    0    0  0.00000000000E+00  0.00000000000E+00  0.87928029420E+03  0.20899436325E+04  0.18959774659E+04 0.  0.
        3    1    3    3  502    0 -0.88007001323E+02 -0.61268694767E+03 -0.35183572763E+03  0.71198238572E+03  0.10100000352E+00 0.  1.
       -3    1    3    3    0  502  0.88007001323E+02  0.61268694767E+03  0.12311160218E+04  0.13779612468E+04  0.10100000352E+00 0. -1.
</event>
<event>
 5   0  0.6395992E-05  0.1910608E+04  0.7818609E-02  0.8649594E-01
        2   -1    0    0  501    0  0.00000000000E+00  0.00000000000E+00  0.10182184947E+04  0.10182184947E+04  0.25500000920E-02 0.  1.
       -2   -1    0    0    0  501  0.00000000000E+00  0.00000000000E+00 -0.89627690587E+03  0.89627690588E+03  0.25500000920E-02 0. -1.
    10030    2    1    2    0    0  0.00000000000E+00  0.00000000000E+00  0.12194158882E+03  0.19144954006E+04  0.19106079890E+04 0.  0.
        4    1    3    3  502    0 -0.84548926404E+03 -0.22753323164E+03 -0.32188072279E+03  0.93286241199E+03  0.12699999809E+01 0. -1.
       -4    1    3    3    0  502  0.84548926404E+03  0.22753323164E+03  0.44382231161E+03  0.98163298859E+03  0.12699999809E+01 0.  1.
</event>
<event>
 5   0  0.3083469E-05  0.1903500E+04  0.7818609E-02  0.8653116E-01
       -1   -1    0    0    0  501  0.00000000000E+00  0.00000000000E+00  0.87324242601E+03  0.87324242602E+03  0.50400001928E-02 0. -1.
        1   -1    0    0  501    0  0.00000000000E+00  0.00000000000E+00 -0.10373159965E+04  0.10373159965E+04  0.50400001928E-02 0.  1.
    10030    2    1    2    0    0  0.00000000000E+00  0.00000000000E+00 -0.16407357048E+03  0.19105584225E+04  0.19035002888E+04 0.  0.
        3    1    3    3  502    0 -0.78447482776E+03  0.20997455042E+03  0.41612832760E+03  0.91249814380E+03  0.10100000352E+00 0. -1.
       -3    1    3    3    0  502  0.78447482776E+03 -0.20997455042E+03 -0.58020189808E+03  0.99806027871E+03  0.10100000352E+00 0.  1.
</event>
<event>
 5   0  0.3086139E-05  0.1905264E+04  0.7818609E-02  0.8652240E-01
        1   -1    0    0  501    0  0.00000000000E+00  0.00000000000E+00  0.79184521083E+03  0.79184521084E+03  0.50400001928E-02 0.  1.
       -1   -1    0    0    0  501  0.00000000000E+00  0.00000000000E+00 -0.11460676696E+04  0.11460676696E+04  0.50400001928E-02 0. -1.
    10030    2    1    2    0    0  0.00000000000E+00  0.00000000000E+00 -0.35422245877E+03  0.19379128805E+04  0.19052644913E+04 0.  0.
        2    1    3    3  502    0 -0.85739073820E+03  0.25068373212E+03 -0.51376167087E+03  0.10304912741E+04  0.25500000920E-02 0. -1.
       -2    1    3    3    0  502  0.85739073820E+03 -0.25068373212E+03  0.15953921210E+03  0.90742160637E+03  0.25500000920E-02 0.  1.
</event>
<event>
 5   0  0.3147063E-05  0.1894802E+04  0.7818609E-02  0.8657448E-01
       -1   -1    0    0    0  501  0.00000000000E+00  0.00000000000E+00  0.59388373707E+03  0.59388373709E+03  0.50400001928E-02 0.  1.
        1   -1    0    0  501    0  0.00000000000E+00  0.00000000000E+00 -0.15113535675E+04  0.15113535675E+04  0.50400001928E-02 0. -1.
    10030    2    1    2    0    0  0.00000000000E+00  0.00000000000E+00 -0.91746983046E+03  0.21052373046E+04  0.18948016305E+04 0.  0.
        5    1    3    3  502    0 -0.63453987771E+03  0.47593036176E+03  0.11687072780E+03  0.80176768622E+03  0.46999998093E+01 0.  1.
       -5    1    3    3    0  502  0.63453987771E+03 -0.47593036176E+03 -0.10343405583E+04  0.13034696184E+04  0.46999998093E+01 0. -1.
</event>
<event>
 5   0  0.6395992E-05  0.1900097E+04  0.7818609E-02  0.8654808E-01
       -2   -1    0    0    0  501  0.00000000000E+00  0.00000000000E+00  0.21423120176E+04  0.21423120176E+04  0.25500000920E-02 0.  1.
        2   -1    0    0  501    0  0.00000000000E+00  0.00000000000E+00 -0.42131687969E+03  0.42131687970E+03  0.25500000920E-02 0. -1.
    10030    2    1    2    0    0  0.00000000000E+00  0.00000000000E+00  0.17209951379E+04  0.25636288973E+04  0.19000970655E+04 0.  0.
        4    1    3    3  502    0 -0.34933950535E+03 -0.39311907460E+03 -0.20700756775E+03  0.56518531723E+03  0.12699999809E+01 0. -1.
       -4    1    3    3    0  502  0.34933950535E+03  0.39311907460E+03  0.19280027057E+04  0.19984435801E+04  0.12699999809E+01 0.  1.
</event>
<event>
 5   0  0.3203527E-05  0.1828386E+04  0.7818609E-02  0.8691348E-01
       -1   -1    0    0    0  501  0.00000000000E+00  0.00000000000E+00  0.73577169702E+03  0.73577169704E+03  0.50400001928E-02 0. -1.
        1   -1    0    0  501    0  0.00000000000E+00  0.00000000000E+00 -0.11358803295E+04  0.11358803296E+04  0.50400001928E-02 0.  1.
    10030    2    1    2    0    0  0.00000000000E+00  0.00000000000E+00 -0.40010863252E+03  0.18716520266E+04  0.18283857336E+04 0.  0.
        1    1    3    3  502    0 -0.73760248653E+03  0.10745440980E+03 -0.74186617362E+03  0.10516507490E+04  0.50400001928E-02 0.  1.
       -1    1    3    3    0  502  0.73760248653E+03 -0.10745440980E+03  0.34175754110E+03  0.82000127758E+03  0.50400001928E-02 0. -1.
</event>
<event>
 5   0  0.3147063E-05  0.1903964E+04  0.7818609E-02  0.8652886E-01
        1   -1    0    0  501    0  0.00000000000E+00  0.00000000000E+00  0.11396242433E+04  0.11396242434E+04  0.50400001928E-02 0.  1.
       -1   -1    0    0    0  501  0.00000000000E+00  0.00000000000E+00 -0.79523566430E+03  0.79523566431E+03  0.50400001928E-02 0. -1.
    10030    2    1    2    0    0  0.00000000000E+00  0.00000000000E+00  0.34438857905E+03  0.19348599077E+04  0.19039641197E+04 0.  0.
        5    1    3    3  502    0  0.21130656089E+02 -0.17077842791E+03 -0.77928734658E+03  0.79807432899E+03  0.46999998093E+01 0. -1.
       -5    1    3    3    0  502 -0.21130656089E+02  0.17077842791E+03  0.11236759256E+04  0.11367855787E+04  0.46999998093E+01 0.  1.
</event>
<event>
 5   0  0.3203527E-05  0.1901341E+04  0.7818609E-02  0.8654189E-01
       -1   -1    0    0    0  501  0.00000000000E+00  0.00000000000E+00  0.83046188724E+03  0.83046188725E+03  0.50400001928E-02 0.  1.
        1   -1    0    0  501    0  0.00000000000E+00  0.00000000000E+00 -0.10882787987E+04  0.10882787987E+04  0.50400001928E-02 0. -1.
    10030    2    1    2    0    0  0.00000000000E+00  0.00000000000E+00 -0.25781691147E+03  0.19187406860E+04  0.19013406481E+04 0.  0.
        1    1    3    3  502    0 -0.36120155250E+03  0.19712976701E+03 -0.99375028819E+03  0.10755772133E+04  0.50400001928E-02 0. -1.
       -1    1    3    3    0  502  0.36120155250E+03 -0.19712976701E+03  0.73593337672E+03  0.84316347263E+03  0.50400001928E-02 0.  1.
</event>
<event>
 5   0  0.3086139E-05  0.1892065E+04  0.7818609E-02  0.8658816E-01
       -1   -1    0    0    0  501  0.00000000000E+00  0.00000000000E+00  0.98512884333E+03  0.98512884334E+03  0.50400001928E-02 0.  1.
        1   -1    0    0  501    0  0.00000000000E+00  0.00000000000E+00 -0.90848791774E+03  0.90848791776E+03  0.50400001928E-02 0. -1.
    10030    2    1    2    0    0  0.00000000000E+00  0.00000000000E+00  0.76640925587E+02  0.18936167611E+04  0.18920651697E+04 0.  0.
        2    1    3    3  502    0 -0.39671095824E+03  0.43693438080E+03  0.77830924923E+03  0.97675817117E+03  0.25500000920E-02 0.  1.
       -2    1    3    3    0  502  0.39671095824E+03 -0.43693438080E+03 -0.70166832365E+03  0.91685858992E+03  0.25500000920E-02 0. -1.
</event>
<event>
 5   0  0.6098377E-05  0.1897958E+04  0.7818609E-02  0.8655873E-01
       -2   -1    0    0    0  501  0.00000000000E+00  0.00000000000E+00  0.18635066940E+04  0.18635066940E+04  0.25500000920E-02 0. -1.
        2   -1    0    0  501    0  0.00000000000E+00  0.00000000000E+00 -0.48326155516E+03  0.48326155516E+03  0.25500000920E-02 0.  1.
    10030    2    1    2    0    0  0.00000000000E+00  0.00000000000E+00  0.13802451389E+04  0.23467682492E+04  0.18979580006E+04 0.  0.
        5    1    3    3  502    0  0.18669491563E+03 -0.79647180290E+03  0.95437374167E+02  0.82362170123E+03  0.46999998093E+01 0.  1.
       -5    1    3    3    0  502 -0.18669491563E+03  0.79647180290E+03  0.12848077647E+04  0.15231465480E+04  0.46999998093E+01 0. -1.
</event>
<event>
 5   0  0.6395992E-05  0.1896976E+04  0.7818609E-02  0.8656363E-01
       -2   -1    0    0    0  501  0.00000000000E+00  0.00000000000E+00  0.40138875097E+03  0.40138875098E+03  0.25500000920E-02 0.  1.
        2   -1    0    0  501    0  0.00000000000E+00  0.00000000000E+00 -0.22412924938E+04  0.22412924938E+04  0.25500000920E-02 0. -1.
    10030    2    1    2    0    0  0.00000000000E+00  0.00000000000E+00 -0.18399037428E+04  0.26426812448E+04  0.18969761144E+04 0.  0.
        4    1    3    3  502    0 -0.83595080840E+03 -0.17431077556E+03 -0.14950684911E+04  0.17217518423E+04  0.12699999809E+01 0. -1.
       -4    1    3    3    0  502  0.83595080840E+03  0.17431077556E+03 -0.34483525169E+03  0.92092940243E+03  0.12699999809E+01 0.  1.
</event>
<event>
 5   0  0.3083469E-05  0.1899026E+04  0.7818609E-02  0.8655341E-01
        1   -1    0    0  501    0  0.00000000000E+00  0.00000000000E+00  0.14918210356E+04  0.14918210356E+04  0.50400001928E-02 0.  1.
       -1   -1    0    0    0  501  0.00000000000E+00  0.00000000000E+00 -0.60434516510E+03  0.60434516512E+03  0.50400001928E-02 0. -1.
    10030    2    1    2    0    0  0.00000000000E+00  0.00000000000E+00  0.88747587051E+03  0.20961662007E+04  0.18990258872E+04 0.  0.
        3    1    3    3  502    0  0.29110608637E+03 -0.51307559335E+03  0.12650102498E+04  0.13957937743E+04  0.10100000352E+00 0. -1.
       -3    1    3    3    0  502 -0.29110608637E+03  0.51307559335E+03 -0.37753437928E+03  0.70037242646E+03  0.10100000352E+00 0.  1.
</event>
<event>
 5   0  0.3086139E-05  0.1895870E+04  0.7818609E-02  0.8656915E-01
        1   -1    0    0  501    0  0.00000000000E+00  0.00000000000E+00  0.88917419905E+03  0.88917419907E+03  0.50400001928E-02 0.  1.
       -1   -1    0    0    0  501  0.00000000000E+00  0.00000000000E+00 -0.10105787097E+04  0.10105787097E+04  0.50400001928E-02 0. -1.
    10030    2    1    2    0    0  0.00000000000E+00  0.00000000000E+00 -0.12140451060E+03  0.18997529087E+04  0.18958697368E+04 0.  0.
        2    1    3    3  502    0 -0.79301004055E+02  0.53178831355E+03 -0.84300166890E+03  0.99986962822E+03  0.25500000920E-02 0. -1.
       -2    1    3    3    0  502  0.79301004055E+02 -0.53178831355E+03  0.72159715830E+03  0.89988328051E+03  0.25500000920E-02 0.  1.
</event>
<event>
 5   0  0.6395992E-05  0.1895599E+04  0.7818609E-02  0.8657050E-01
       -2   -1    0    0    0  501  0.00000000000E+00  0.00000000000E+00  0.79073203688E+03  0.79073203688E+03  0.25500000920E-02 0.  1.
        2   -1    0    0  501    0  0.00000000000E+00  0.00000000000E+00 -0.11360664557E+04  0.11360664557E+04  0.25500000920E-02 0. -1.
    10030    2    1    2    0    0  0.00000000000E+00  0.00000000000E+00 -0.34533441878E+03  0.19267984925E+04  0.18955992641E+04 0.  0.
        4    1    3    3  502    0 -0.30182159292E+03 -0.21831650909E+03  0.71320687709E+03  0.80462664294E+03  0.12699999809E+01 0.  1.
       -4    1    3    3    0  502  0.30182159292E+03  0.21831650909E+03 -0.10585412959E+04  0.11221718496E+04  0.12699999809E+01 0. -1.
</event>
<event>
 5   0  0.3203527E-05  0.1910696E+04  0.7818609E-02  0.8649551E-01
        1   -1    0    0  501    0  0.00000000000E+00  0.00000000000E+00  0.14613520786E+04  0.14613520786E+04  0.50400001928E-02 0.  1.
       -1   -1    0    0    0  501  0.00000000000E+00  0.00000000000E+00 -0.62455134464E+03  0.62455134466E+03  0.50400001928E-02 0. -1.
    10030    2    1    2    0    0  0.00000000000E+00  0.00000000000E+00  0.83680073393E+03  0.20859034232E+04  0.19106955861E+04 0.  0.
        1    1    3    3  502    0  0.49859255507E+03 -0.52937008019E+03 -0.25797901983E+03  0.77160896344E+03  0.50400001928E-02 0. -1.
       -1    1    3    3    0  502 -0.49859255507E+03  0.52937008019E+03  0.10947797538E+04  0.13142944598E+04  0.50400001928E-02 0.  1.
</event>
<event>
 5   0  0.6361762E-05  0.1893581E+04  0.7818609E-02  0.8658058E-01
        2   -1    0    0  501    0  0.00000000000E+00  0.00000000000E+00  0.17161550367E+04  0.17161550367E+04  0.25500000920E-02 0.  1.
       -2   -1    0    0    0  501  0.00000000000E+00  0.00000000000E+00 -0.52233747300E+03  0.52233747301E+03  0.25500000920E-02 0. -1.
    10030    2    1    2    0    0  0.00000000000E+00  0.00000000000E+00  0.11938175637E+04  0.22384925097E+04  0.18935808250E+04 0.  0.
        1    1    3    3  502    0  0.52684562888E+03 -0.78017351912E+03  0.71615374489E+03  0.11828411656E+04  0.50400001928E-02 0. -1.
       -1    1    3    3    0  502 -0.52684562888E+03  0.78017351912E+03  0.47766381883E+03  0.10556513442E+04  0.50400001928E-02 0.  1.
</event>
<event>
 5   0  0.3203527E-05  0.1896967E+04  0.7818609E-02  0.8656368E-01
        1   -1    0    0  501    0  0.00000000000E+00  0.00000000000E+00  0.72538383984E+03  0.72538383985E+03  0.50400001928E-02 0.  1.
       -1   -1    0    0    0  501  0.00000000000E+00  0.00000000000E+00 -0.12401997730E+04  0.12401997730E+04  0.50400001928E-02 0. -1.
    10030    2    1    2    0    0  0.00000000000E+00  0.00000000000E+00 -0.51481593317E+03  0.19655836129E+04  0.18969669196E+04 0.  0.
        1    1    3    3  502    0  0.44068786821E+03 -0.83694125010E+03 -0.33026801434E+03  0.10018749496E+04  0.50400001928E-02 0.  1.
       -1    1    3    3    0  502 -0.44068786821E+03  0.83694125010E+03 -0.18454791884E+03  0.96370866328E+03  0.50400001928E-02 0. -1.
</event>
<event>
 5   0  0.3203527E-05  0.1899911E+04  0.7818609E-02  0.8654901E-01
       -1   -1    0    0    0  501  0.00000000000E+00  0.00000000000E+00  0.47682867386E+03  0.47682867389E+03  0.50400001928E-02 0. -1.
        1   -1    0    0  501    0  0.00000000000E+00  0.00000000000E+00 -0.18925358911E+04  0.18925358911E+04  0.50400001928E-02 0.  1.
    10030    2    1    2    0    0  0.00000000000E+00  0.00000000000E+00 -0.14157072172E+04  0.23693645650E+04  0.18999109234E+04 0.  0.
        1    1    3    3  502    0  0.27956367782E+03  0.84828919416E+03 -0.11113125371E+04  0.14257510168E+04  0.50400001928E-02 0.  1.
       -1    1    3    3    0  502 -0.27956367782E+03 -0.84828919416E+03 -0.30439468011E+03  0.94361354812E+03  0.50400001928E-02 0. -1.
</event>
<event>
 5   0  0.6098377E-05  0.1826043E+04  0.7818609E-02  0.8692572E-01
        2   -1    0    0  501    0  0.00000000000E+00  0.00000000000E+00  0.11213845265E+04  0.11213845265E+04  0.25500000920E-02 0.  1.
       -2   -1    0    0    0  501  0.00000000000E+00  0.00000000000E+00 -0.74337385411E+03  0.74337385411E+03  0.25500000920E-02 0. -1.
    10030    2    1    2    0    0  0.00000000000E+00  0.00000000000E+00  0.37801067237E+03  0.18647583806E+04  0.18260426473E+04 0.  0.
        5    1    3    3  502    0  0.38098713743E+03 -0.78737889242E+03 -0.78208566915E+02  0.87821147172E+03  0.46999998093E+01 0. -1.
       -5    1    3    3    0  502 -0.38098713743E+03  0.78737889242E+03  0.45621923929E+03  0.98654690888E+03  0.46999998093E+01 0.  1.
</event>
<event>
 5   0  0.3147063E-05  0.1906578E+04  0.7818609E-02  0.8651589E-01
        1   -1    0    0  501    0  0.00000000000E+00  0.00000000000E+00  0.69751911859E+03  0.69751911861E+03  0.50400001928E-02 0. -1.
       -1   -1    0    0    0  501  0.00000000000E+00  0.00000000000E+00 -0.13028461228E+04  0.13028461228E+04  0.50400001928E-02 0.  1.
    10030    2    1    2    0    0  0.00000000000E+00  0.00000000000E+00 -0.60532700417E+03  0.20003652414E+04  0.19065781696E+04 0.  0.
        5    1    3    3  502    0 -0.16499221945E+03  0.84498950431E+03  0.12674717801E+03  0.87023941074E+03  0.46999998093E+01 0. -1.
       -5    1    3    3    0  502  0.16499221945E+03 -0.84498950431E+03 -0.73207418217E+03  0.11301258306E+04  0.46999998093E+01 0.  1.
</event>
<event>
 5   0  0.6452182E-05  0.1900236E+04  0.7818609E-02  0.8654739E-01
        2   -1    0    0  501    0  0.00000000000E+00  0.00000000000E+00  0.19407003185E+04  0.19407003185E+04  0.25500000920E-02 0. -1.
       -2   -1    0    0    0  501  0.00000000000E+00  0.00000000000E+00 -0.46515401434E+03  0.46515401435E+03  0.25500000920E-02 0.  1.
    10030    2    1    2    0    0  0.00000000000E+00  0.00000000000E+00  0.14755463041E+04  0.24058543328E+04  0.19002363472E+04 0.  0.
        3    1    3    3  502    0  0.33434029012E+01  0.66337571051E+03 -0.12339135849E+03  0.67476214267E+03  0.10100000352E+00 0.  1.
       -3    1    3    3    0  502 -0.33434029012E+01 -0.66337571051E+03  0.15989376626E+04  0.17310921901E+04  0.10100000352E+00 0. -1.
</event>
<event>
 5   0  0.6395992E-05  0.1892496E+04  0.7818609E-02  0.8658601E-01
       -2   -1    0    0    0  501  0.00000000000E+00  0.00000000000E+00  0.42278437515E+03  0.42278437516E+03  0.25500000920E-02 0. -1.
        2   -1    0    0  501    0  0.00000000000E+00  0.00000000000E+00 -0.21178286973E+04  0.21178286973E+04  0.25500000920E-02 0.  1.
    10030    2    1    2    0    0  0.00000000000E+00  0.00000000000E+00 -0.16950443222E+04  0.25406130725E+04  0.18924955826E+04 0.  0.
        4    1    3    3  502    0 -0.13146028889E+03  0.43973741826E+03 -0.19583943998E+04  0.20114574424E+04  0.12699999809E+01 0.  1.
       -4    1    3    3    0  502  0.13146028889E+03 -0.43973741826E+03  0.26335007762E+03  0.52915563009E+03  0.12699999809E+01 0. -1.
</event>
<event>
 5   0  0.6452182E-05  0.1886109E+04  0.7818609E-02  0.8661802E-01
       -2   -1    0    0    0  501  0.00000000000E+00  0.00000000000E+00  0.98671052817E+03  0.98671052817E+03  0.25500000920E-02 0. -1.
        2   -1    0    0  501    0  0.00000000000E+00  0.00000000000E+00 -0.90133034465E+03  0.90133034465E+03  0.25500000920E-02 0.  1.
    10030    2    1    2    0    0  0.00000000000E+00  0.00000000000E+00  0.85380183523E+02  0.18880408728E+04  0.18861093716E+04 0.  0.
        3    1    3    3  502    0 -0.49793100912E+03  0.20215410208E+03  0.81843566634E+03  0.97910087375E+03  0.10100000352E+00 0. -1.
       -3    1    3    3    0  502  0.49793100912E+03 -0.20215410208E+03 -0.73305548282E+03  0.90893999908E+03  0.10100000352E+00 0.  1.
</event>
<event>
 5   0  0.6361762E-05  0.1897030E+04  0.7818609E-02  0.8656336E-01
       -2   -1    0    0    0  501  0.00000000000E+00  0.00000000000E+00  0.18396400099E+04  0.18396400099E+04  0.25500000920E-02 0.  1.
        2   -1    0    0  501    0  0.00000000000E+00  0.00000000000E+00 -0.48905280865E+03  0.48905280866E+03  0.25500000920E-02 0. -1.
    10030    2    1    2    0    0  0.00000000000E+00  0.00000000000E+00  0.13505872012E+04  0.23286928186E+04  0.18970304307E+04 0.  0.
        1    1    3    3  502    0 -0.82311972745E+03  0.93768302156E+02  0.12423117838E+04  0.14932036527E+04  0.50400001928E-02 0.  1.
       -1    1    3    3    0  502  0.82311972745E+03 -0.93768302156E+02  0.10827541741E+03  0.83548916584E+03  0.50400001928E-02 0. -1.
</event>
<event>
 5   0  0.3086139E-05  0.1864942E+04  0.7818609E-02  0.8672506E-01
       -1   -1    0    0    0  501  0.00000000000E+00  0.00000000000E+00  0.54102416226E+03  0.54102416228E+03  0.50400001928E-02 0. -1.
        1   -1    0    0  501    0  0.00000000000E+00  0.00000000000E+00 -0.16071417993E+04  0.16071417994E+04  0.50400001928E-02 0.  1.
    10030    2    1    2    0    0  0.00000000000E+00  0.00000000000E+00 -0.10661176371E+04  0.21481659616E+04  0.18649424073E+04 0.  0.
        2    1    3    3  502    0  0.12739185113E+03 -0.19214704212E+03  0.50767939886E+03  0.55757290246E+03  0.25500000920E-02 0. -1.
       -2    1    3    3    0  502 -0.12739185113E+03  0.19214704212E+03 -0.15737970359E+04  0.15905930592E+04  0.25500000920E-02 0.  1.
</event>
<event>
 5   0  0.3144958E-05  0.1900021E+04  0.7818609E-02  0.8654846E-01
        1   -1    0    0  501    0  0.00000000000E+00  0.00000000000E+00  0.13970057181E+04  0.13970057181E+04  0.50400001928E-02 0.  1.
       -1   -1    0    0    0  501  0.00000000000E+00  0.00000000000E+00 -0.64603887745E+03  0.64603887747E+03  0.50400001928E-02 0. -1.
    10030    2    1    2    0    0  0.00000000000E+00  0.00000000000E+00  0.75096684067E+03  0.20430445956E+04  0.19000210588E+04 0.  0.
        4    1    3    3  502    0  0.60990961758E+03 -0.53086229603E+03 -0.16076921346E+03  0.82441062091E+03  0.12699999809E+01 0. -1.
       -4    1    3    3    0  502 -0.60990961758E+03  0.53086229603E+03  0.91173605413E+03  0.12186339747E+04  0.12699999809E+01 0.  1.
</event>
<event>
 5   0  0.6098377E-05  0.1896880E+04  0.7818609E-02  0.8656411E-01
       -2   -1    0    0    0  501  0.00000000000E+00  0.00000000000E+00  0.12393523916E+04  0.12393523916E+04  0.25500000920E-02 0.  1.
        2   -1    0    0  501    0  0.00000000000E+00  0.00000000000E+00 -0.72581365470E+03  0.72581365471E+03  0.25500000920E-02 0. -1.
    10030    2    1    2    0    0  0.00000000000E+00  0.00000000000E+00  0.51353873694E+03  0.19651660463E+04  0.18968804800E+04 0.  0.
        5    1    3    3  502    0  0.59462627522E+03 -0.73309590424E+03  0.16121686719E+03  0.95761316838E+03  0.46999998093E+01 0. -1.
       -5    1    3    3    0  502 -0.59462627522E+03  0.73309590424E+03  0.35232186975E+03  0.10075528780E+04  0.46999998093E+01 0.  1.
</event>
<event>
 5   0  0.3203527E-05  0.1894252E+04  0.7818609E-02  0.8657723E-01
       -1   -1    0    0    0  501  0.00000000000E+00  0.00000000000E+00  0.14063926873E+04  0.14063926873E+04  0.50400001928E-02 0. -1.
        1   -1    0    0  501    0  0.00000000000E+00  0.00000000000E+00 -0.63783572770E+03  0.63783572772E+03  0.50400001928E-02 0.  1.
    10030    2    1    2    0    0  0.00000000000E+00  0.00000000000E+00  0.76855695963E+03  0.20442284151E+04  0.18942518346E+04 0.  0.
        1    1    3    3  502    0 -0.46743463375E+03  0.72966522083E+03  0.79682961732E+03  0.11772187182E+04  0.50400001928E-02 0. -1.
       -1    1    3    3    0  502  0.46743463375E+03 -0.72966522083E+03 -0.28272657687E+02  0.86700969690E+03  0.50400001928E-02 0.  1.
</event>
<event>
 5   0  0.3144958E-05  0.1901324E+04  0.7818609E-02  0.8654198E-01
        1   -1    0    0  501    0  0.00000000000E+00  0.00000000000E+00  0.21319503867E+04  0.21319503867E+04  0.50400001928E-02 0. -1.
       -1   -1    0    0    0  501  0.00000000000E+00  0.00000000000E+00 -0.42391152710E+03  0.42391152713E+03  0.50400001928E-02 0.  1.
    10030    2    1    2    0    0  0.00000000000E+00  0.00000000000E+00  0.17080388596E+04  0.25558619138E+04  0.19013241114E+04 0.  0.
        4    1    3    3  502    0  0.58500519496E+02  0.72521904764E+03  0.16765354543E+04  0.18276043665E+04  0.12699999809E+01 0. -1.
       -4    1    3    3    0  502 -0.58500519496E+02 -0.72521904764E+03  0.31503405284E+02  0.72825754736E+03  0.12699999809E+01 0.  1.
</event>
<event>
 5   0  0.3147063E-05  0.1899753E+04  0.7818609E-02  0.8654980E-01
        1   -1    0    0  501    0  0.00000000000E+00  0.00000000000E+00  0.12784661135E+04  0.12784661135E+04  0.50400001928E-02 0. -1.
       -1   -1    0    0    0  501  0.00000000000E+00  0.00000000000E+00 -0.70574028813E+03  0.70574028815E+03  0.50400001928E-02 0.  1.
    10030    2    1    2    0    0  0.00000000000E+00  0.00000000000E+00  0.57272582538E+03  0.19842064017E+04  0.18997526611E+04 0.  0.
        5    1    3    3  502    0 -0.63751234750E+03 -0.64545043460E+03 -0.76000844138E+01  0.90725305621E+03  0.46999998093E+01 0.  1.
       -5    1    3    3    0  502  0.63751234750E+03  0.64545043460E+03  0.58032590979E+03  0.10769533455E+04  0.46999998093E+01 0. -1.
</event>
<event>
 5   0  0.6395992E-05  0.1907226E+04  0.7818609E-02  0.8651268E-01
        2   -1    0    0  501    0  0.00000000000E+00  0.00000000000E+00  0.83728543566E+03  0.83728543567E+03  0.25500000920E-02 0. -1.
       -2   -1    0    0    0  501  0.00000000000E+00  0.00000000000E+00 -0.10861027524E+04  0.10861027524E+04  0.25500000920E-02 0.  1.
    10030    2    1    2    0    0  0.00000000000E+00  0.00000000000E+00 -0.24881731671E+03  0.19233881880E+04  0.19072262752E+04 0.  0.
        4    1    3    3  502    0 -0.13574935412E+03 -0.22866608809E+03  0.79913573334E+03  0.84222063628E+03  0.12699999809E+01 0. -1.
       -4    1    3    3    0  502  0.13574935412E+03  0.22866608809E+03 -0.10479530500E+04  0.10811675518E+04  0.12699999809E+01 0.  1.
</event>
<event>
 5   0  0.3203527E-05  0.1904529E+04  0.7818609E-02  0.8652605E-01
       -1   -1    0    0    0  501  0.00000000000E+00  0.00000000000E+00  0.10390523347E+04  0.10390523347E+04  0.50400001928E-02 0.  1.
        1   -1    0    0  501    0  0.00000000000E+00  0.00000000000E+00 -0.87272536754E+03  0.87272536755E+03  0.50400001928E-02 0. -1.
    10030    2    1    2    0    0  0.00000000000E+00  0.00000000000E+00  0.16632696715E+03  0.19117777023E+04  0.19045286353E+04 0.  0.
        1    1    3    3  502    0  0.92567147526E+03 -0.24719350076E+02  0.30610928551E+03  0.97528540494E+03  0.50400001928E-02 0.  1.
       -1    1    3    3    0  502 -0.92567147526E+03  0.24719350076E+02 -0.13978231836E+03  0.93649229732E+03  0.50400001928E-02 0. -1.
</event>
<event>
 5   0  0.6423388E-05  0.1889923E+04  0.7818609E-02  0.8659889E-01
       -2   -1    0    0    0  501  0.00000000000E+00  0.00000000000E+00  0.10161678003E+04  0.10161678003E+04  0.25500000920E-02 0.  1.
        2   -1    0    0  501    0  0.00000000000E+00  0.00000000000E+00 -0.87874509218E+03  0.87874509219E+03  0.25500000920E-02 0. -1.
    10030    2    1    2    0    0  0.00000000000E+00  0.00000000000E+00  0.13742270808E+03  0.18949128924E+04  0.18899232443E+04 0.  0.
        2    1    3    3  502    0 -0.62985246715E+03  0.62170509153E+03  0.40082765522E+03  0.97154215575E+03  0.25500000920E-02 0.  1.
       -2    1    3    3    0  502  0.62985246715E+03 -0.62170509153E+03 -0.26340494714E+03  0.92337073670E+03  0.25500000920E-02 0. -1.
</event>
<event>
 5   0  0.6098377E-05  0.1904196E+04  0.7818609E-02  0.8652771E-01
       -2   -1    0    0    0  501  0.00000000000E+00  0.00000000000E+00  0.61467051638E+03  0.61467051639E+03  0.25500000920E-02 0. -1.
        2   -1    0    0  501    0  0.00000000000E+00  0.00000000000E+00 -0.14747582917E+04  0.14747582917E+04  0.25500000920E-02 0.  1.
    10030    2    1    2    0    0  0.00000000000E+00  0.00000000000E+00 -0.86008777534E+03  0.20894288081E+04  0.19041958310E+04 0.  0.
        5    1    3    3  502    0 -0.19647778025E+03 -0.39767984433E+03 -0.13544400547E+04  0.14252307632E+04  0.46999998093E+01 0.  1.
       -5    1    3    3    0  502  0.19647778025E+03  0.39767984433E+03  0.49435227935E+03  0.66419804488E+03  0.46999998093E+01 0. -1.
</event>
<event>
 5   0  0.3083469E-05  0.1897006E+04  0.7818609E-02  0.8656348E-01
        1   -1    0    0  501    0  0.00000000000E+00  0.00000000000E+00  0.16741836962E+04  0.16741836962E+04  0.50400001928E-02 0. -1.
       -1   -1    0    0    0  501  0.00000000000E+00  0.00000000000E+00 -0.53737085504E+03  0.53737085506E+03  0.50400001928E-02 0.  1.
    10030    2    1    2    0    0  0.00000000000E+00  0.00000000000E+00  0.11368128412E+04  0.22115545513E+04  0.18970055607E+04 0.  0.
        3    1    3    3  502    0 -0.18414302599E+03  0.82809635917E+03  0.10630264223E+04  0.13600284625E+04  0.10100000352E+00 0. -1.
       -3    1    3    3    0  502  0.18414302599E+03 -0.82809635917E+03  0.73786418890E+02  0.85152608880E+03  0.10100000352E+00 0.  1.
</event>
<event>
 5   0  0.3147063E-05  0.1895929E+04  0.7818609E-02  0.8656886E-01
        1   -1    0    0  501    0  0.00000000000E+00  0.00000000000E+00  0.77195153121E+03  0.77195153123E+03  0.50400001928E-02 0. -1.
       -1   -1    0    0    0  501  0.00000000000E+00  0.00000000000E+00 -0.11641096775E+04  0.11641096775E+04  0.50400001928E-02 0.  1.
    10030    2    1    2    0    0  0.00000000000E+00  0.00000000000E+00 -0.39215814632E+03  0.19360612088E+04  0.18959285304E+04 0.  0.
        5    1    3    3  502    0 -0.36763414179E+03 -0.65043890998E+03  0.39969908011E+03  0.84735298575E+03  0.46999998093E+01 0. -1.
       -5    1    3    3    0  502  0.36763414179E+03  0.65043890998E+03 -0.79185722643E+03  0.10887082230E+04  0.46999998093E+01 0.  1.
</event>
<event>
 5   0  0.6423388E-05  0.1893130E+04  0.7818609E-02  0.8658284E-01
        2   -1    0    0  501    0  0.00000000000E+00  0.00000000000E+00  0.17013183163E+04  0.17013183163E+04  0.25500000920E-02 0.  1.
       -2   -1    0    0    0  501  0.00000000000E+00  0.00000000000E+00 -0.52664176567E+03  0.52664176567E+03  0.25500000920E-02 0. -1.
    10030    2    1    2    0    0  0.00000000000E+00  0.00000000000E+00  0.11746765506E+04  0.22279600820E+04  0.18931299819E+04 0.  0.
        2    1    3    3  502    0 -0.69713993811E+03  0.10196908689E+02 -0.16611072061E+03  0.71672926671E+03  0.25500000920E-02 0. -1.
       -2    1    3    3    0  502  0.69713993811E+03 -0.10196908689E+02  0.13407872713E+04  0.15112308153E+04  0.25500000920E-02 0.  1.
</event>
<event>
 5   0  0.3144958E-05  0.1901110E+04  0.7818609E-02  0.8654304E-01
        1   -1    0    0  501    0  0.00000000000E+00  0.00000000000E+00  0.11374696582E+04  0.11374696582E+04  0.50400001928E-02 0.  1.
       -1   -1    0    0    0  501  0.00000000000E+00  0.00000000000E+00 -0.79435538990E+03  0.79435538991E+03  0.50400001928E-02 0. -1.
    10030    2    1    2    0    0  0.00000000000E+00  0.00000000000E+00  0.34311426829E+03  0.19318250481E+04  0.19011103638E+04 0.  0.
        4    1    3    3  502    0  0.27518357376E+03  0.89987493380E+03  0.35026254959E+02  0.94166307519E+03  0.12699999809E+01 0. -1.
       -4    1    3    3    0  502 -0.27518357376E+03 -0.89987493380E+03  0.30808801333E+03  0.99016197292E+03  0.12699999809E+01 0.  1.
</event>
<event>
 5   0  0.6452182E-05  0.1903567E+04  0.7818609E-02  0.8653083E-01
        2   -1    0    0  501    0  0.00000000000E+00  0.00000000000E+00  0.16080795707E+04  0.16080795708E+04  0.25500000920E-02 0. -1.
       -2   -1    0    0    0  501  0.00000000000E+00  0.00000000000E+00 -0.56333791351E+03  0.56333791351E+03  0.25500000920E-02 0.  1.
    10030    2    1    2    0    0  0.00000000000E+00  0.00000000000E+00  0.10447416572E+04  0.21714174843E+04  0.19035673775E+04 0.  0.
        3    1    3    3  502    0  0.25857689692E+02  0.80629938758E+03 -0.53777678655E+02  0.80850440410E+03  0.10100000352E+00 0.  1.
       -3    1    3    3    0  502 -0.25857689692E+02 -0.80629938758E+03  0.10985193359E+04  0.13629130802E+04  0.10100000352E+00 0. -1.
</event>
<event>
 5   0  0.6098377E-05  0.1846996E+04  0.7818609E-02  0.8681699E-01
       -2   -1    0    0    0  501  0.00000000000E+00  0.00000000000E+00  0.52860779054E+03  0.52860779054E+03  0.25500000920E-02 0.  1.
        2   -1    0    0  501    0  0.00000000000E+00  0.00000000000E+00 -0.16133856639E+04  0.16133856639E+04  0.25500000920E-02 0. -1.
    10030    2    1    2    0    0  0.00000000000E+00  0.00000000000E+00 -0.10847778733E+04  0.21419934544E+04  0.18469956481E+04 0.  0.
        5    1    3    3  502    0  0.59235078727E+03 -0.19071769046E+03 -0.13336984182E+04  0.14717425907E+04  0.46999998093E+01 0. -1.
       -5    1    3    3    0  502 -0.59235078727E+03  0.19071769046E+03  0.24892054486E+03  0.67025086370E+03  0.46999998093E+01 0.  1.
</event>
<event>
 5   0  0.6361762E-05  0.1903419E+04  0.7818609E-02  0.8653156E-01
       -2   -1    0    0    0  501  0.00000000000E+00  0.00000000000E+00  0.60140727873E+03  0.60140727873E+03  0.25500000920E-02 0.  1.
        2   -1    0    0  501    0  0.00000000000E+00  0.00000000000E+00 -0.15060530146E+04  0.15060530146E+04  0.25500000920E-02 0. -1.
    10030    2    1    2    0    0  0.00000000000E+00  0.00000000000E+00 -0.90464573585E+03  0.21074602933E+04  0.19034192866E+04 0.  0.
        1    1    3    3  502    0 -0.77640253515E+03  0.47915260503E+03 -0.75221416327E+03  0.11824611042E+04  0.50400001928E-02 0. -1.
       -1    1    3    3    0  502  0.77640253515E+03 -0.47915260503E+03 -0.15243157258E+03  0.92499918911E+03  0.50400001928E-02 0.  1.
</event>
<event>
 5   0  0.3144958E-05  0.1891453E+04  0.7818609E-02  0.8659122E-01
        1   -1    0    0  501    0  0.00000000000E+00  0.00000000000E+00  0.96179728800E+03  0.96179728802E+03  0.50400001928E-02 0.  1.
       -1   -1    0    0    0  501  0.00000000000E+00  0.00000000000E+00 -0.92992436564E+03  0.92992436565E+03  0.50400001928E-02 0. -1.
    10030    2    1    2    0    0  0.00000000000E+00  0.00000000000E+00  0.31872922364E+02  0.18917216537E+04  0.18914531270E+04 0.  0.
        4    1    3    3  502    0 -0.29769810017E+03  0.27406509993E+03 -0.83897216469E+03  0.93145678583E+03  0.12699999809E+01 0. -1.
       -4    1    3    3    0  502  0.29769810017E+03 -0.27406509993E+03  0.87084508706E+03  0.96026486783E+03  0.12699999809E+01 0.  1.
</event>
<event>
 5   0  0.6361762E-05  0.1899116E+04  0.7818609E-02  0.8655297E-01
       -2   -1    0    0    0  501  0.00000000000E+00  0.00000000000E+00  0.52455974351E+03  0.52455974352E+03  0.25500000920E-02 0.  1.
        2   -1    0    0  501    0  0.00000000000E+00  0.00000000000E+00 -0.17188893733E+04  0.17188893733E+04  0.25500000920E-02 0. -1.
    10030    2    1    2    0    0  0.00000000000E+00  0.00000000000E+00 -0.11943296298E+04  0.22434491168E+04  0.18991157614E+04 0.  0.
        1    1    3    3  502    0  0.90982151573E+00  0.15920062226E+03 -0.17030111559E+04  0.17104363955E+04  0.50400001928E-02 0. -1.
       -1    1    3    3    0  502 -0.90982151573E+00 -0.15920062226E+03  0.50868152619E+03  0.53301272125E+03  0.50400001928E-02 0.  1.
</event>
<event>
 5   0  0.3203527E-05  0.1908483E+04  0.7818609E-02  0.8650646E-01
       -1   -1    0    0    0  501  0.00000000000E+00  0.00000000000E+00  0.70254839541E+03  0.70254839542E+03  0.50400001928E-02 0. -1.
        1   -1    0    0  501    0  0.00000000000E+00  0.00000000000E+00 -0.12961049587E+04  0.12961049587E+04  0.50400001928E-02 0.  1.
    10030    2    1    2    0    0  0.00000000000E+00  0.00000000000E+00 -0.59355656333E+03  0.19986533542E+04  0.19084826005E+04 0.  0.
        1    1    3    3  502    0  0.29916601535E+03  0.83686785134E+03  0.67098136538E+02  0.89126329740E+03  0.50400001928E-02 0. -1.
       -1    1    3    3    0  502 -0.29916601535E+03 -0.83686785134E+03 -0.66065469987E+03  0.11073900568E+04  0.50400001928E-02 0.  1.
</event>
<event>
 5   0  0.6395992E-05  0.1909375E+04  0.7818609E-02  0.8650204E-01
       -2   -1    0    0    0  501  0.00000000000E+00  0.00000000000E+00  0.10275186417E+04  0.10275186417E+04  0.25500000920E-02 0.  1.
        2   -1    0    0  501    0  0.00000000000E+00  0.00000000000E+00 -0.88701847816E+03  0.88701847817E+03  0.25500000920E-02 0. -1.
    10030    2    1    2    0    0  0.00000000000E+00  0.00000000000E+00  0.14050016352E+03  0.19145371199E+04  0.19093747896E+04 0.  0.
        4    1    3    3  502    0 -0.10661515675E+03 -0.14741618104E+03 -0.86947537597E+03  0.88830589574E+03  0.12699999809E+01 0. -1.
       -4    1    3    3    0  502  0.10661515675E+03  0.14741618104E+03  0.10099755395E+04  0.10262312241E+04  0.12699999809E+01 0.  1.
</event>
<event>
 5   0  0.3203527E-05  0.1900290E+04  0.7818609E-02  0.8654712E-01
        1   -1    0    0  501    0  0.00000000000E+00  0.00000000000E+00  0.92283978164E+03  0.92283978166E+03  0.50400001928E-02 0.  1.
       -1   -1    0    0    0  501  0.00000000000E+00  0.00000000000E+00 -0.97825859191E+03  0.97825859192E+03  0.50400001928E-02 0. -1.
    10030    2    1    2    0    0  0.00000000000E+00  0.00000000000E+00 -0.55418810264E+02  0.19010983736E+04  0.19002904466E+04 0.  0.
        1    1    3    3  502    0 -0.80162220225E+03 -0.72202048008E+02  0.47744552354E+03  0.93582344427E+03  0.50400001928E-02 0.  1.
       -1    1    3    3    0  502  0.80162220225E+03  0.72202048008E+02 -0.53286433381E+03  0.96527492930E+03  0.50400001928E-02 0. -1.
</event>
<event>
 5   0  0.6098377E-05  0.1880648E+04  0.7818609E-02  0.8664550E-01
        2   -1    0    0  501    0  0.00000000000E+00  0.00000000000E+00  0.10872327847E+04  0.10872327847E+04  0.25500000920E-02 0.  1.
       -2   -1    0    0    0  501  0.00000000000E+00  0.00000000000E+00 -0.81326560932E+03  0.81326560932E+03  0.25500000920E-02 0. -1.
    10030    2    1    2    0    0  0.00000000000E+00  0.00000000000E+00  0.27396717542E+03  0.19004983941E+04  0.18806477960E+04 0.  0.
        5    1    3    3  502    0 -0.84501150763E+03 -0.91244087680E+02  0.54349442291E+03  0.10088499439E+04  0.46999998093E+01 0.  1.
       -5    1    3    3    0  502  0.84501150763E+03  0.91244087680E+02 -0.26952724749E+03  0.89164845017E+03  0.46999998093E+01 0. -1.
</event>
<event>
 5   0  0.6098377E-05  0.1898421E+04  0.7818609E-02  0.8655643E-01
        2   -1    0    0  501    0  0.00000000000E+00  0.00000000000E+00  0.14582094870E+04  0.14582094870E+04  0.25500000920E-02 0. -1.
       -2   -1    0    0    0  501  0.00000000000E+00  0.00000000000E+00 -0.61788147474E+03  0.61788147475E+03  0.25500000920E-02 0.  1.
    10030    2    1    2    0    0  0.00000000000E+00  0.00000000000E+00  0.84032801221E+03  0.20760909617E+04  0.18984210579E+04 0.  0.
        5    1    3    3  502    0  0.67793622757E+03 -0.60464955875E+03  0.11911935961E+03  0.91619328168E+03  0.46999998093E+01 0.  1.
       -5    1    3    3    0  502 -0.67793622757E+03  0.60464955875E+03  0.72120865259E+03  0.11598976800E+04  0.46999998093E+01 0. -1.
</event>
<event>
 5   0  0.6423388E-05  0.1902972E+04  0.7818609E-02  0.8653378E-01
        2   -1    0    0  501    0  0.00000000000E+00  0.00000000000E+00  0.70135432507E+03  0.70135432507E+03  0.25500000920E-02 0.  1.
       -2   -1    0    0    0  501  0.00000000000E+00  0.00000000000E+00 -0.12908247845E+04  0.12908247845E+04  0.25500000920E-02 0. -1.
    10030    2    1    2    0    0  0.00000000000E+00  0.00000000000E+00 -0.58947045941E+03  0.19921791095E+04  0.19029719341E+04 0.  0.
        2    1    3    3  502    0  0.72784497122E+03  0.56511230124E+03 -0.54294757726E+03  0.10695336773E+04  0.25500000920E-02 0.  1.
       -2    1    3    3    0  502 -0.72784497122E+03 -0.56511230124E+03 -0.46522882151E+02  0.92264543228E+03  0.25500000920E-02 0. -1.
</event>
<event>
 5   0  0.6423388E-05  0.1901416E+04  0.7818609E-02  0.8654152E-01
        2   -1    0    0  501    0  0.00000000000E+00  0.00000000000E+00  0.86632709660E+03  0.86632709661E+03  0.25500000920E-02 0.  1.
       -2   -1    0    0    0  501  0.00000000000E+00  0.00000000000E+00 -0.10433072553E+04  0.10433072553E+04  0.25500000920E-02 0. -1.
    10030    2    1    2    0    0  0.00000000000E+00  0.00000000000E+00 -0.17698015869E+03  0.19096343519E+04  0.19014156256E+04 0.  0.
        2    1    3    3  502    0  0.81329646088E+03 -0.24914349072E+03 -0.51496863265E+03  0.99434214678E+03  0.25500000920E-02 0. -1.
       -2    1    3    3    0  502 -0.81329646088E+03  0.24914349072E+03  0.33798847395E+03  0.91529220513E+03  0.25500000920E-02 0.  1.
</event>
<event>
 5   0  0.6361762E-05  0.1905860E+04  0.7818609E-02  0.8651945E-01
       -2   -1    0    0    0  501  0.00000000000E+00  0.00000000000E+00  0.88244982794E+03  0.88244982794E+03  0.25500000920E-02 0. -1.
        2   -1    0    0  501    0  0.00000000000E+00  0.00000000000E+00 -0.10290395186E+04  0.10290395186E+04  0.25500000920E-02 0.  1.
    10030    2    1    2    0    0  0.00000000000E+00  0.00000000000E+00 -0.14658969069E+03  0.19114893466E+04  0.19058601692E+04 0.  0.
        1    1    3    3  502    0 -0.33956419937E+03  0.18364824937E+03 -0.94710014274E+03  0.10227556919E+04  0.50400001928E-02 0.  1.
       -1    1    3    3    0  502  0.33956419937E+03 -0.18364824937E+03  0.80051045206E+03  0.88873365463E+03  0.50400001928E-02 0. -1.
</event>
<event>
 5   0  0.3147063E-05  0.1871001E+04  0.7818609E-02  0.8669427E-01
       -1   -1    0    0    0  501  0.00000000000E+00  0.00000000000E+00  0.49181499913E+03  0.49181499915E+03  0.50400001928E-02 0. -1.
        1   -1    0    0  501    0  0.00000000000E+00  0.00000000000E+00 -0.17794515334E+04  0.17794515334E+04  0.50400001928E-02 0.  1.
    10030    2    1    2    0    0  0.00000000000E+00  0.00000000000E+00 -0.12876365343E+04  0.22712665326E+04  0.18710007529E+04 0.  0.
        5    1    3    3  502    0 -0.39942108919E+02  0.92813359886E+03 -0.77741424239E+03  0.12113720913E+04  0.46999998093E+01 0. -1.
       -5    1    3    3    0  502  0.39942108919E+02 -0.92813359886E+03 -0.51022229188E+03  0.10598944412E+04  0.46999998093E+01 0.  1.
</event>
<event>
 5   0  0.3083469E-05  0.1889957E+04  0.7818609E-02  0.8659872E-01
       -1   -1    0    0    0  501  0.00000000000E+00  0.00000000000E+00  0.52208114330E+03  0.52208114333E+03  0.50400001928E-02 0. -1.
        1   -1    0    0  501    0  0.00000000000E+00  0.00000000000E+00 -0.17104322680E+04  0.17104322680E+04  0.50400001928E-02 0.  1.
    10030    2    1    2    0    0  0.00000000000E+00  0.00000000000E+00 -0.11883511247E+04  0.22325134113E+04  0.18899570726E+04 0.  0.
        3    1    3    3  502    0 -0.72274469695E+03  0.57988772293E+03 -0.37523029164E+03  0.99971368408E+03  0.10100000352E+00 0. -1.
       -3    1    3    3    0  502  0.72274469695E+03 -0.57988772293E+03 -0.81312083306E+03  0.12327997273E+04  0.10100000352E+00 0.  1.
</event>
<event>
 5   0  0.6452182E-05  0.1902202E+04  0.7818609E-02  0.8653761E-01
        2   -1    0    0  501    0  0.00000000000E+00  0.00000000000E+00  0.14595014927E+04  0.14595014927E+04  0.25500000920E-02 0. -1.
       -2   -1    0    0    0  501  0.00000000000E+00  0.00000000000E+00 -0.61979586663E+03  0.61979586663E+03  0.25500000920E-02 0.  1.
    10030    2    1    2    0    0  0.00000000000E+00  0.00000000000E+00  0.83970562608E+03  0.20792973593E+04  0.19022018742E+04 0.  0.
        3    1    3    3  502    0  0.52283991118E+03 -0.59937815482E+03 -0.15021467830E+03  0.80943202616E+03  0.10100000352E+00 0.  1.
       -3    1    3    3    0  502 -0.52283991118E+03  0.59937815482E+03  0.98992030438E+03  0.12698653332E+04  0.10100000352E+00 0. -1.
</event>
<event>
 5   0  0.3203527E-05  0.1908784E+04  0.7818609E-02  0.8650496E-01
        1   -1    0    0  501    0  0.00000000000E+00  0.00000000000E+00  0.71220878206E+03  0.71220878207E+03  0.50400001928E-02 0. -1.
       -1   -1    0    0    0  501  0.00000000000E+00  0.00000000000E+00 -0.12789282559E+04  0.12789282559E+04  0.50400001928E-02 0.  1.
    10030    2    1    2    0    0  0.00000000000E+00  0.00000000000E+00 -0.56671947387E+03  0.19911370380E+04  0.19087838385E+04 0.  0.
        1    1    3    3  502    0 -0.48430593934E+03 -0.10976843088E+03 -0.11335464180E+04  0.12375495275E+04  0.50400001928E-02 0.  1.
       -1    1    3    3    0  502  0.48430593934E+03  0.10976843088E+03  0.56682694415E+03  0.75358751047E+03  0.50400001928E-02 0. -1.
</event>
<event>
 5   0  0.6423388E-05  0.1888813E+04  0.7818609E-02  0.8660445E-01
       -2   -1    0    0    0  501  0.00000000000E+00  0.00000000000E+00  0.79750270170E+03  0.79750270170E+03  0.25500000920E-02 0.  1.
        2   -1    0    0  501    0  0.00000000000E+00  0.00000000000E+00 -0.11183702833E+04  0.11183702833E+04  0.25500000920E-02 0. -1.
    10030    2    1    2    0    0  0.00000000000E+00  0.00000000000E+00 -0.32086758157E+03  0.19158729850E+04  0.18888126666E+04 0.  0.
        2    1    3    3  502    0  0.23589806627E+03  0.32649247008E+02 -0.10874137123E+04  0.11131857224E+04  0.25500000920E-02 0. -1.
       -2    1    3    3    0  502 -0.23589806627E+03 -0.32649247008E+02  0.76654613068E+03  0.80268726255E+03  0.25500000920E-02 0.  1.
</event>
<event>
 5   0  0.3144958E-05  0.1902436E+04  0.7818609E-02  0.8653645E-01
       -1   -1    0    0    0  501  0.00000000000E+00  0.00000000000E+00  0.20718152648E+04  0.20718152648E+04  0.50400001928E-02 0.  1.
        1   -1    0    0  501    0  0.00000000000E+00  0.00000000000E+00 -0.43672588007E+03  0.43672588010E+03  0.50400001928E-02 0. -1.
    10030    2    1    2    0    0  0.00000000000E+00  0.00000000000E+00  0.16350893847E+04  0.25085411449E+04  0.19024356440E+04 0.  0.
        4    1    3    3  502    0 -0.59253163195E+03  0.62716573642E+03  0.28947577504E+03  0.91007056486E+03  0.12699999809E+01 0. -1.
       -4    1    3    3    0  502  0.59253163195E+03 -0.62716573642E+03  0.13456136097E+04  0.15984705800E+04  0.12699999809E+01 0.  1.
</event>
<event>
 5   0  0.3203527E-05  0.1902812E+04  0.7818609E-02  0.8653458E-01
       -1   -1    0    0    0  501  0.00000000000E+00  0.00000000000E+00  0.13848872853E+04  0.13848872853E+04  0.50400001928E-02 0.  1.
        1   -1    0    0  501    0  0.00000000000E+00  0.00000000000E+00 -0.65360797896E+03  0.65360797898E+03  0.50400001928E-02 0. -1.
    10030    2    1    2    0    0  0.00000000000E+00  0.00000000000E+00  0.73127930637E+03  0.20384952643E+04  0.19028120030E+04 0.  0.
        1    1    3    3  502    0 -0.72748207506E+03 -0.84545552053E+02 -0.28494900773E+03  0.78585880217E+03  0.50400001928E-02 0. -1.
       -1    1    3    3    0  502  0.72748207506E+03  0.84545552053E+02  0.10162283141E+04  0.12526364622E+04  0.50400001928E-02 0.  1.
</event>
<event>
 5   0  0.3086139E-05  0.1898230E+04  0.7818609E-02  0.8655738E-01
        1   -1    0    0  501    0  0.00000000000E+00  0.00000000000E+00  0.67772945078E+03  0.67772945080E+03  0.50400001928E-02 0. -1.
       -1   -1    0    0    0  501  0.00000000000E+00  0.00000000000E+00 -0.13291722079E+04  0.13291722079E+04  0.50400001928E-02 0.  1.
    10030    2    1    2    0    0  0.00000000000E+00  0.00000000000E+00 -0.65144275710E+03  0.20069016587E+04  0.18982298601E+04 0.  0.
        2    1    3    3  502    0  0.86871026370E+03  0.25451212731E+03 -0.62733435513E+03  0.11013547741E+04  0.25500000920E-02 0.  1.
       -2    1    3    3    0  502 -0.86871026370E+03 -0.25451212731E+03 -0.24108401973E+02  0.90554688463E+03  0.25500000920E-02 0. -1.
</event>
<event>
 5   0  0.3083469E-05  0.1845704E+04  0.7818609E-02  0.8682365E-01
       -1   -1    0    0    0  501  0.00000000000E+00  0.00000000000E+00  0.52154422226E+03  0.52154422229E+03  0.50400001928E-02 0. -1.
        1   -1    0    0  501    0  0.00000000000E+00  0.00000000000E+00 -0.16329503299E+04  0.16329503299E+04  0.50400001928E-02 0.  1.
    10030    2    1    2    0    0  0.00000000000E+00  0.00000000000E+00 -0.11114061077E+04  0.21544945522E+04  0.18457039956E+04 0.  0.
        3    1    3    3  502    0 -0.42923560780E+03  0.19115748691E+02 -0.15090733670E+04  0.15690478183E+04  0.10100000352E+00 0.  1.
       -3    1    3    3    0  502  0.42923560780E+03 -0.19115748691E+02  0.39766725938E+03  0.58544673390E+03  0.10100000352E+00 0. -1.
</event>
<event>
 5   0  0.6395992E-05  0.1896696E+04  0.7818609E-02  0.8656503E-01
        2   -1    0    0  501    0  0.00000000000E+00  0.00000000000E+00  0.14282927879E+04  0.14282927879E+04  0.25500000920E-02 0. -1.
       -2   -1    0    0    0  501  0.00000000000E+00  0.00000000000E+00 -0.62967730279E+03  0.62967730279E+03  0.25500000920E-02 0.  1.
    10030    2    1    2    0    0  0.00000000000E+00  0.00000000000E+00  0.79861548511E+03  0.20579700907E+04  0.18966956005E+04 0.  0.
        4    1    3    3  502    0 -0.72690426852E+03  0.16203518177E+03 -0.23774090387E+03  0.78177206781E+03  0.12699999809E+01 0.  1.
       -4    1    3    3    0  502  0.72690426852E+03 -0.16203518177E+03  0.10363563890E+04  0.12761980229E+04  0.12699999809E+01 0. -1.
</event>
<event>
 5   0  0.6395992E-05  0.1901659E+04  0.7818609E-02  0.8654031E-01
        2   -1    0    0  501    0  0.00000000000E+00  0.00000000000E+00  0.76912539641E+03  0.76912539641E+03  0.25500000920E-02 0.  1.
       -2   -1    0    0    0  501  0.00000000000E+00  0.00000000000E+00 -0.11754606561E+04  0.11754606561E+04  0.25500000920E-02 0. -1.
    10030    2    1    2    0    0  0.00000000000E+00  0.00000000000E+00 -0.40633525973E+03  0.19445860526E+04  0.19016589001E+04 0.  0.
        4    1    3    3  502    0 -0.23241932673E+03 -0.55588903979E+03 -0.95532844270E+03  0.11294624449E+04  0.12699999809E+01 0. -1.
       -4    1    3    3    0  502  0.23241932673E+03  0.55588903979E+03  0.54899318297E+03  0.81512360771E+03  0.12699999809E+01 0.  1.
</event>
<event>
 5   0  0.3086139E-05  0.1895553E+04  0.7818609E-02  0.8657073E-01
        1   -1    0    0  501    0  0.00000000000E+00  0.00000000000E+00  0.15950732352E+04  0.15950732352E+04  0.50400001928E-02 0.  1.
       -1   -1    0    0    0  501  0.00000000000E+00  0.00000000000E+00 -0.56315907587E+03  0.56315907589E+03  0.50400001928E-02 0. -1.
    10030    2    1    2    0    0  0.00000000000E+00  0.00000000000E+00  0.10319141593E+04  0.21582323111E+04  0.18955526573E+04 0.  0.
        2    1    3    3  502    0 -0.88570797758E+03  0.81654401189E+02  0.88862825836E+03  0.12573011749E+04  0.25500000920E-02 0. -1.
       -2    1    3    3    0  502  0.88570797758E+03 -0.81654401189E+02  0.14328590097E+03  0.90093113622E+03  0.25500000920E-02 0.  1.
</event>
<event>
 5   0  0.6395992E-05  0.1896382E+04  0.7818609E-02  0.8656660E-01
        2   -1    0    0  501    0  0.00000000000E+00  0.00000000000E+00  0.12658611516E+04  0.12658611516E+04  0.25500000920E-02 0. -1.
       -2   -1    0    0    0  501  0.00000000000E+00  0.00000000000E+00 -0.71024050145E+03  0.71024050146E+03  0.25500000920E-02 0.  1.
    10030    2    1    2    0    0  0.00000000000E+00  0.00000000000E+00  0.55562065017E+03  0.19761016531E+04  0.18963816695E+04 0.  0.
        4    1    3    3  502    0  0.39586114242E+02 -0.52700526533E+03 -0.54253409385E+03  0.75739452468E+03  0.12699999809E+01 0.  1.
       -4    1    3    3    0  502 -0.39586114242E+02  0.52700526533E+03  0.10981547440E+04  0.12187071284E+04  0.12699999809E+01 0. -1.
</event>
<event>
 5   0  0.6361762E-05  0.1898344E+04  0.7818609E-02  0.8655681E-01
        2   -1    0    0  501    0  0.00000000000E+00  0.00000000000E+00  0.20195518562E+04  0.20195518562E+04  0.25500000920E-02 0.  1.
       -2   -1    0    0    0  501  0.00000000000E+00  0.00000000000E+00 -0.44610257777E+03  0.44610257778E+03  0.25500000920E-02 0. -1.
    10030    2    1    2    0    0  0.00000000000E+00  0.00000000000E+00  0.15734492785E+04  0.24656544340E+04  0.18983437929E+04 0.  0.
        1    1    3    3  502    0  0.13208161659E+03  0.93964948070E+03  0.75652575258E+03  0.12135558967E+04  0.50400001928E-02 0.  1.
       -1    1    3    3    0  502 -0.13208161659E+03 -0.93964948070E+03  0.81692352590E+03  0.12520985373E+04  0.50400001928E-02 0. -1.
</event>
<event>
 5   0  0.6395992E-05  0.1900942E+04  0.7818609E-02  0.8654388E-01
       -2   -1    0    0    0  501  0.00000000000E+00  0.00000000000E+00  0.43789034857E+03  0.43789034857E+03  0.25500000920E-02 0.  1.
        2   -1    0    0  501    0  0.00000000000E+00  0.00000000000E+00 -0.20630621112E+04  0.20630621112E+04  0.25500000920E-02 0. -1.
    10030    2    1    2    0    0  0.00000000000E+00  0.00000000000E+00 -0.16251717626E+04  0.25009524598E+04  0.19009418581E+04 0.  0.
        4    1    3    3  502    0  0.37795589902E+03 -0.59902193900E+03  0.21279336212E+02  0.70861298891E+03  0.12699999809E+01 0.  1.
       -4    1    3    3    0  502 -0.37795589902E+03  0.59902193900E+03 -0.16464510988E+04  0.17923394708E+04  0.12699999809E+01 0. -1.
</event>
<event>
 5   0  0.3147063E-05  0.1920945E+04  0.7818609E-02  0.8644500E-01
        1   -1    0    0  501    0  0.00000000000E+00  0.00000000000E+00  0.10436080901E+04  0.10436080901E+04  0.50400001928E-02 0. -1.
       -1   -1    0    0    0  501  0.00000000000E+00  0.00000000000E+00 -0.88395949737E+03  0.88395949739E+03  0.50400001928E-02 0.  1.
    10030    2    1    2    0    0  0.00000000000E+00  0.00000000000E+00  0.15964859271E+03  0.19275675875E+04  0.19209448538E+04 0.  0.
        5    1    3    3  502    0 -0.17487176418E+03 -0.93347736805E+03  0.22358393045E+03  0.97569052190E+03  0.46999998093E+01 0. -1.
       -5    1    3    3    0  502  0.17487176418E+03  0.93347736805E+03 -0.63935337746E+02  0.95187706558E+03  0.46999998093E+01 0.  1.
</event>
<event>
 5   0  0.6098377E-05  0.1905233E+04  0.7818609E-02  0.8652256E-01
       -2   -1    0    0    0  501  0.00000000000E+00  0.00000000000E+00  0.11189975263E+04  0.11189975263E+04  0.25500000920E-02 0.  1.
        2   -1    0    0  501    0  0.00000000000E+00  0.00000000000E+00 -0.81097420304E+03  0.81097420305E+03  0.25500000920E-02 0. -1.
    10030    2    1    2    0    0  0.00000000000E+00  0.00000000000E+00  0.30802332330E+03  0.19299717294E+04  0.19052329276E+04 0.  0.
        5    1    3    3  502    0  0.17661601938E+03 -0.92582878360E+03  0.29402315431E+03  0.98733168698E+03  0.46999998093E+01 0.  1.
       -5    1    3    3    0  502 -0.17661601938E+03  0.92582878360E+03  0.14000168988E+02  0.94264004242E+03  0.46999998093E+01 0. -1.
</event>
<event>
 5   0  0.3147063E-05  0.1884499E+04  0.7818609E-02  0.8662611E-01
       -1   -1    0    0    0  501  0.00000000000E+00  0.00000000000E+00  0.35707775289E+03  0.35707775293E+03  0.50400001928E-02 0.  1.
        1   -1    0    0  501    0  0.00000000000E+00  0.00000000000E+00 -0.24863898034E+04  0.24863898034E+04  0.50400001928E-02 0. -1.
    10030    2    1    2    0    0  0.00000000000E+00  0.00000000000E+00 -0.21293120505E+04  0.28434675564E+04  0.18844993859E+04 0.  0.
        5    1    3    3  502    0 -0.72606823524E+03 -0.30608521062E+03 -0.18442465514E+04  0.20055250361E+04  0.46999998093E+01 0. -1.
       -5    1    3    3    0  502  0.72606823524E+03  0.30608521062E+03 -0.28506549918E+03  0.83794252023E+03  0.46999998093E+01 0.  1.
</event>
<event>
 5   0  0.3083469E-05  0.1886814E+04  0.7818609E-02  0.8661448E-01
       -1   -1    0    0    0  501  0.00000000000E+00  0.00000000000E+00  0.86613042076E+03  0.86613042077E+03  0.50400001928E-02 0.  1.
        1   -1    0    0  501    0  0.00000000000E+00  0.00000000000E+00 -0.10275786614E+04  0.10275786614E+04  0.50400001928E-02 0. -1.
    10030    2    1    2    0    0  0.00000000000E+00  0.00000000000E+00 -0.16144824065E+03  0.18937090822E+04  0.18868143930E+04 0.  0.
        3    1    3    3  502    0  0.11816681425E+03  0.17894717777E+03 -0.10027931710E+04  0.10254655735E+04  0.10100000352E+00 0. -1.
       -3    1    3    3    0  502 -0.11816681425E+03 -0.17894717777E+03  0.84134493033E+03  0.86824350871E+03  0.10100000352E+00 0.  1.
</event>
<event>
 5   0  0.6098377E-05  0.1905461E+04  0.7818609E-02  0.8652143E-01
       -2   -1    0    0    0  501  0.00000000000E+00  0.00000000000E+00  0.53611040132E+03  0.53611040132E+03  0.25500000920E-02 0.  1.
        2   -1    0    0  501    0  0.00000000000E+00  0.00000000000E+00 -0.16931134219E+04  0.16931134219E+04  0.25500000920E-02 0. -1.
    10030    2    1    2    0    0  0.00000000000E+00  0.00000000000E+00 -0.11570030206E+04  0.22292238232E+04  0.19054613259E+04 0.  0.
        5    1    3    3  502    0 -0.93147894858E+03 -0.13197704599E+03 -0.75438831264E+03  0.12058999911E+04  0.46999998093E+01 0.  1.
       -5    1    3    3    0  502  0.93147894858E+03  0.13197704599E+03 -0.40261470794E+03  0.10233238321E+04  0.46999998093E+01 0. -1.
</event>
<event>
 5   0  0.3203527E-05  0.1902016E+04  0.7818609E-02  0.8653854E-01
        1   -1    0    0  501    0  0.00000000000E+00  0.00000000000E+00  0.22143010903E+04  0.22143010903E+04  0.50400001928E-02 0.  1.
       -1   -1    0    0    0  501  0.00000000000E+00  0.00000000000E+00 -0.40844302874E+03  0.40844302877E+03  0.50400001928E-02 0. -1.
    10030    2    1    2    0    0  0.00000000000E+00  0.00000000000E+00  0.18058580616E+04  0.26227441191E+04  0.19020156087E+04 0.  0.
        1    1    3    3  502    0 -0.24779932266E+03  0.27677180041E+03 -0.30425105131E+03  0.48018312763E+03  0.50400001928E-02 0. -1.
       -1    1    3    3    0  502  0.24779932266E+03 -0.27677180041E+03  0.21101091129E+04  0.21425609915E+04  0.50400001928E-02 0.  1.
</event>
<event>
 5   0  0.3144958E-05  0.1899896E+04  0.7818609E-02  0.8654908E-01
       -1   -1    0    0    0  501  0.00000000000E+00  0.00000000000E+00  0.65969515356E+03  0.65969515358E+03  0.50400001928E-02 0. -1.
        1   -1    0    0  501    0  0.00000000000E+00  0.00000000000E+00 -0.13679069440E+04  0.13679069440E+04  0.50400001928E-02 0.  1.
    10030    2    1    2    0    0  0.00000000000E+00  0.00000000000E+00 -0.70821179040E+03  0.20276020976E+04  0.18998963987E+04 0.  0.
        4    1    3    3  502    0 -0.74938493041E+03  0.43650756809E+02 -0.97540305003E+03  0.12308110681E+04  0.12699999809E+01 0.  1.
       -4    1    3    3    0  502  0.74938493041E+03 -0.43650756809E+02  0.26719125962E+03  0.79679102945E+03  0.12699999809E+01 0. -1.
</event>
<event>
 5   0  0.3147063E-05  0.1901220E+04  0.7818609E-02  0.8654249E-01
        1   -1    0    0  501    0  0.00000000000E+00  0.00000000000E+00  0.13947400963E+04  0.13947400963E+04  0.50400001928E-02 0.  1.
       -1   -1    0    0    0  501  0.00000000000E+00  0.00000000000E+00 -0.64790500331E+03  0.64790500333E+03  0.50400001928E-02 0. -1.
    10030    2    1    2    0    0  0.00000000000E+00  0.00000000000E+00  0.74683509294E+03  0.20426450996E+04  0.19012196998E+04 0.  0.
        5    1    3    3  502    0  0.31392714526E+03 -0.88435003348E+03  0.53639801126E+03  0.10809117220E+04  0.46999998093E+01 0. -1.
       -5    1    3    3    0  502 -0.31392714526E+03  0.88435003348E+03  0.21043708168E+03  0.96173337760E+03  0.46999998093E+01 0.  1.
</event>
<event>
 5   0  0.3203527E-05  0.1904226E+04  0.7818609E-02  0.8652756E-01
       -1   -1    0    0    0  501  0.00000000000E+00  0.00000000000E+00  0.43380397684E+03  0.43380397686E+03  0.50400001928E-02 0.  1.
        1   -1    0    0  501    0  0.00000000000E+00  0.00000000000E+00 -0.20896978095E+04  0.20896978095E+04  0.50400001928E-02 0. -1.
    10030    2    1    2    0    0  0.00000000000E+00  0.00000000000E+00 -0.16558938327E+04  0.25235017864E+04  0.19042260582E+04 0.  0.
        1    1    3    3  502    0  0.41294310490E+03 -0.65792098227E+03 -0.15575803483E+04  0.17405282440E+04  0.50400001928E-02 0. -1.
       -1    1    3    3    0  502 -0.41294310490E+03  0.65792098227E+03 -0.98313484362E+02  0.78297354235E+03  0.50400001928E-02 0.  1.
</event>
<event>
 5   0  0.3203527E-05  0.1917931E+04  0.7818609E-02  0.8645982E-01
       -1   -1    0    0    0  501  0.00000000000E+00  0.00000000000E+00  0.65562330675E+03  0.65562330677E+03  0.50400001928E-02 0. -1.
        1   -1    0    0  501    0  0.00000000000E+00  0.00000000000E+00 -0.14026574282E+04  0.14026574282E+04  0.50400001928E-02 0.  1.
    10030    2    1    2    0    0  0.00000000000E+00  0.00000000000E+00 -0.74703412146E+03  0.20582807350E+04  0.19179310742E+04 0.  0.
        1    1    3    3  502    0 -0.46964936468E+02  0.28860405735E+03 -0.13536501975E+04  0.13848707032E+04  0.50400001928E-02 0.  1.
       -1    1    3    3    0  502  0.46964936468E+02 -0.28860405735E+03  0.60661607608E+03  0.67341003182E+03  0.50400001928E-02 0. -1.
</event>
<event>
 5   0  0.6395992E-05  0.1896349E+04  0.7818609E-02  0.8656676E-01
       -2   -1    0    0    0  501  0.00000000000E+00  0.00000000000E+00  0.78649341088E+03  0.78649341089E+03  0.25500000920E-02 0.  1.
        2   -1    0    0  501    0  0.00000000000E+00  0.00000000000E+00 -0.11430933066E+04  0.11430933066E+04  0.25500000920E-02 0. -1.
    10030    2    1    2    0    0  0.00000000000E+00  0.00000000000E+00 -0.35659989576E+03  0.19295867175E+04  0.18963494970E+04 0.  0.
        4    1    3    3  502    0 -0.71543614750E+03  0.22038394804E+03 -0.77040601821E+03  0.10742183258E+04  0.12699999809E+01 0. -1.
       -4    1    3    3    0  502  0.71543614750E+03 -0.22038394804E+03  0.41380612245E+03  0.85536839173E+03  0.12699999809E+01 0.  1.
</event>
<event>
 5   0  0.3144958E-05  0.1899549E+04  0.7818609E-02  0.8655081E-01
        1   -1    0    0  501    0  0.00000000000E+00  0.00000000000E+00  0.89630958702E+03  0.89630958703E+03  0.50400001928E-02 0. -1.
       -1   -1    0    0    0  501  0.00000000000E+00  0.00000000000E+00 -0.10064287371E+04  0.10064287371E+04  0.50400001928E-02 0.  1.
    10030    2    1    2    0    0  0.00000000000E+00  0.00000000000E+00 -0.11011915011E+03  0.19027383242E+04  0.18995491315E+04 0.  0.
        4    1    3    3  502    0  0.35069555485E+03 -0.77893957490E+03 -0.47089011952E+03  0.97543495483E+03  0.12699999809E+01 0.  1.
       -4    1    3    3    0  502 -0.35069555485E+03  0.77893957490E+03  0.36077096941E+03  0.92730336935E+03  0.12699999809E+01 0. -1.
</event>
<event>
 5   0  0.3203527E-05  0.1909234E+04  0.7818609E-02  0.8650274E-01
        1   -1    0    0  501    0  0.00000000000E+00  0.00000000000E+00  0.76506343052E+03  0.76506343054E+03  0.50400001928E-02 0.  1.
       -1   -1    0    0    0  501  0.00000000000E+00  0.00000000000E+00 -0.11911346487E+04  0.11911346487E+04  0.50400001928E-02 0. -1.
    10030    2    1    2    0    0  0.00000000000E+00  0.00000000000E+00 -0.42607121813E+03  0.19561980792E+04  0.19092339412E+04 0.  0.
        1    1    3    3  502    0  0.93425343046E+03 -0.18076888936E+03 -0.29097716064E+03  0.99507515883E+03  0.50400001928E-02 0. -1.
       -1    1    3    3    0  502 -0.93425343046E+03  0.18076888936E+03 -0.13509405750E+03  0.96112292038E+03  0.50400001928E-02 0.  1.
</event>
<event>
 5   0  0.3083469E-05  0.1899623E+04  0.7818609E-02  0.8655044E-01
        1   -1    0    0  501    0  0.00000000000E+00  0.00000000000E+00  0.67609121024E+03  0.67609121026E+03  0.50400001928E-02 0.  1.
       -1   -1    0    0    0  501  0.00000000000E+00  0.00000000000E+00 -0.13343499257E+04  0.13343499258E+04  0.50400001928E-02 0. -1.
    10030    2    1    2    0    0  0.00000000000E+00  0.00000000000E+00 -0.65825871550E+03  0.20104411360E+04  0.18996233903E+04 0.  0.
        3    1    3    3  502    0  0.19798119306E+03  0.92400320245E+03 -0.43044139853E+03  0.10383921604E+04  0.10100000352E+00 0. -1.
       -3    1    3    3    0  502 -0.19798119306E+03 -0.92400320245E+03 -0.22781731697E+03  0.97204897564E+03  0.10100000352E+00 0.  1.
</event>
<event>
 5   0  0.3083469E-05  0.1899024E+04  0.7818609E-02  0.8655342E-01
       -1   -1    0    0    0  501  0.00000000000E+00  0.00000000000E+00  0.27180099325E+03  0.27180099329E+03  0.50400001928E-02 0. -1.
        1   -1    0    0  501    0  0.00000000000E+00  0.00000000000E+00 -0.33170344877E+04  0.33170344877E+04  0.50400001928E-02 0.  1.
    10030    2    1    2    0    0  0.00000000000E+00  0.00000000000E+00 -0.30452334944E+04  0.35888354810E+04  0.18990242426E+04 0.  0.
        3    1    3    3  502    0 -0.83772621697E+02 -0.94489673383E+03 -0.14441132245E+04  0.17278051699E+04  0.10100000352E+00 0.  1.
       -3    1    3    3    0  502  0.83772621697E+02  0.94489673383E+03 -0.16011202699E+04  0.18610303111E+04  0.10100000352E+00 0. -1.
</event>
<event>
 5   0  0.6395992E-05  0.1906988E+04  0.7818609E-02  0.8651386E-01
       -2   -1    0    0    0  501  0.00000000000E+00  0.00000000000E+00  0.35306476426E+03  0.35306476427E+03  0.25500000920E-02 0. -1.
        2   -1    0    0  501    0  0.00000000000E+00  0.00000000000E+00 -0.25750257840E+04  0.25750257840E+04  0.25500000920E-02 0.  1.
    10030    2    1    2    0    0  0.00000000000E+00  0.00000000000E+00 -0.22219610197E+04  0.29280905482E+04  0.19069880664E+04 0.  0.
        4    1    3    3  502    0  0.71009266075E+03 -0.60873944818E+03 -0.82638705748E+03  0.12480835246E+04  0.12699999809E+01 0.  1.
       -4    1    3    3    0  502 -0.71009266075E+03  0.60873944818E+03 -0.13955739622E+04  0.16800070237E+04  0.12699999809E+01 0. -1.
</event>
<event>
 5   0  0.3086139E-05  0.1898617E+04  0.7818609E-02  0.8655545E-01
        1   -1    0    0  501    0  0.00000000000E+00  0.00000000000E+00  0.95828365325E+03  0.95828365326E+03  0.50400001928E-02 0. -1.
       -1   -1    0    0    0  501  0.00000000000E+00  0.00000000000E+00 -0.94041696126E+03  0.94041696128E+03  0.50400001928E-02 0.  1.
    10030    2    1    2    0    0  0.00000000000E+00  0.00000000000E+00  0.17866691984E+02  0.18987006145E+04  0.18986165503E+04 0.  0.
        2    1    3    3  502    0 -0.53359611040E+03  0.70480669264E+03 -0.33707173930E+03  0.94609441414E+03  0.25500000920E-02 0.  1.
       -2    1    3    3    0  502  0.53359611040E+03 -0.70480669264E+03  0.35493843129E+03  0.95260620040E+03  0.25500000920E-02 0. -1.
</event>
<event>
 5   0  0.3144958E-05  0.1900496E+04  0.7818609E-02  0.8654609E-01
        1   -1    0    0  501    0  0.00000000000E+00  0.00000000000E+00  0.13162032805E+04  0.13162032805E+04  0.50400001928E-02 0. -1.
       -1   -1    0    0    0  501  0.00000000000E+00  0.00000000000E+00 -0.68604262121E+03  0.68604262123E+03  0.50400001928E-02 0.  1.
    10030    2    1    2    0    0  0.00000000000E+00  0.00000000000E+00  0.63016065926E+03  0.20022459017E+04  0.19004963021E+04 0.  0.
        4    1    3    3  502    0  0.11344084298E+03 -0.34710761025E+03  0.12393268591E+04  0.12920082022E+04  0.12699999809E+01 0. -1.
       -4    1    3    3    0  502 -0.11344084298E+03  0.34710761025E+03 -0.60916619981E+03  0.71023769954E+03  0.12699999809E+01 0.  1.
</event>
<event>
 5   0  0.6395992E-05  0.1900466E+04  0.7818609E-02  0.8654625E-01
        2   -1    0    0  501    0  0.00000000000E+00  0.00000000000E+00  0.57355534565E+03  0.57355534565E+03  0.25500000920E-02 0.  1.
       -2   -1    0    0    0  501  0.00000000000E+00  0.00000000000E+00 -0.15742899975E+04  0.15742899975E+04  0.25500000920E-02 0. -1.
    10030    2    1    2    0    0  0.00000000000E+00  0.00000000000E+00 -0.10007346519E+04  0.21478453432E+04  0.19004656731E+04 0.  0.
        4    1    3    3  502    0 -0.68608264021E+03  0.60053297430E+03 -0.19797276465E+03  0.93302951232E+03  0.12699999809E+01 0.  1.
       -4    1    3    3    0  502  0.68608264021E+03 -0.60053297430E+03 -0.80276188725E+03  0.12148158309E+04  0.12699999809E+01 0. -1.
</event>
<event>
 5   0  0.6098377E-05  0.1905254E+04  0.7818609E-02  0.8652246E-01
       -2   -1    0    0    0  501  0.00000000000E+00  0.00000000000E+00  0.39547902733E+03  0.39547902733E+03  0.25500000920E-02 0.  1.
        2   -1    0    0  501    0  0.00000000000E+00  0.00000000000E+00 -0.22946801983E+04  0.22946801983E+04  0.25500000920E-02 0. -1.
    10030    2    1    2    0    0  0.00000000000E+00  0.00000000000E+00 -0.18992011709E+04  0.26901592256E+04  0.19052536764E+04 0.  0.
        5    1    3    3  502    0  0.65974455385E+03 -0.15274264529E+03 -0.18956015264E+04  0.20129382576E+04  0.46999998093E+01 0. -1.
       -5    1    3    3    0  502 -0.65974455385E+03  0.15274264529E+03 -0.35996445104E+01  0.67722096797E+03  0.46999998093E+01 0.  1.
</event>
<event>
 5   0  0.3144958E-05  0.1899483E+04  0.7818609E-02  0.8655114E-01
       -1   -1    0    0    0  501  0.00000000000E+00  0.00000000000E+00  0.88161318439E+03  0.88161318441E+03  0.50400001928E-02 0.  1.
        1   -1    0    0  501    0  0.00000000000E+00  0.00000000000E+00 -0.10231347943E+04  0.10231347943E+04  0.50400001928E-02 0. -1.
    10030    2    1    2    0    0  0.00000000000E+00  0.00000000000E+00 -0.14152160994E+03  0.19047479788E+04  0.18994832183E+04 0.  0.
        4    1    3    3  502    0 -0.75588700794E+03  0.57895542555E+01  0.50581880562E+03  0.90953447693E+03  0.12699999809E+01 0. -1.
       -4    1    3    3    0  502  0.75588700794E+03 -0.57895542555E+01 -0.64734041555E+03  0.99521350182E+03  0.12699999809E+01 0.  1.
</event>
<event>
 5   0  0.6395992E-05  0.1906478E+04  0.7818609E-02  0.8651639E-01
       -2   -1    0    0    0  501  0.00000000000E+00  0.00000000000E+00  0.94672079945E+03  0.94672079946E+03  0.25500000920E-02 0.  1.
        2   -1    0    0  501    0  0.00000000000E+00  0.00000000000E+00 -0.95980189768E+03  0.95980189768E+03  0.25500000920E-02 0. -1.
    10030    2    1    2    0    0  0.00000000000E+00  0.00000000000E+00 -0.13081098223E+02  0.19065226971E+04  0.19064778204E+04 0.  0.
        4    1    3    3  502    0  0.92790815749E+02  0.97860286190E+02 -0.95021313978E+03  0.95973610697E+03  0.12699999809E+01 0. -1.
       -4    1    3    3    0  502 -0.92790815749E+02 -0.97860286190E+02  0.93713204156E+03  0.94678659017E+03  0.12699999809E+01 0.  1.
</event>
<event>
 5   0  0.6452182E-05  0.1872164E+04  0.7818609E-02  0.8668837E-01
       -2   -1    0    0    0  501  0.00000000000E+00  0.00000000000E+00  0.15262616664E+04  0.15262616664E+04  0.25500000920E-02 0.  1.
        2   -1    0    0  501    0  0.00000000000E+00  0.00000000000E+00 -0.57411516397E+03  0.57411516397E+03  0.25500000920E-02 0. -1.
    10030    2    1    2    0    0  0.00000000000E+00  0.00000000000E+00  0.95214650241E+03  0.21003768304E+04  0.18721644873E+04 0.  0.
        3    1    3    3  502    0 -0.75730192381E+03  0.32998130799E+03  0.97003456782E+03  0.12741118241E+04  0.10100000352E+00 0.  1.
       -3    1    3    3    0  502  0.75730192381E+03 -0.32998130799E+03 -0.17888065407E+02  0.82626500622E+03  0.10100000352E+00 0. -1.
</event>
<event>
 5   0  0.3147063E-05  0.1934864E+04  0.7818609E-02  0.8637695E-01
       -1   -1    0    0    0  501  0.00000000000E+00  0.00000000000E+00  0.19785378266E+04  0.19785378266E+04  0.50400001928E-02 0.  1.
        1   -1    0    0  501    0  0.00000000000E+00  0.00000000000E+00 -0.47303835519E+03  0.47303835521E+03  0.50400001928E-02 0. -1.
    10030    2    1    2    0    0  0.00000000000E+00  0.00000000000E+00  0.15054994714E+04  0.24515761818E+04  0.19348635913E+04 0.  0.
        5    1    3    3  502    0 -0.26312494989E+03  0.34033968537E+03  0.18506621236E+04  0.19000100596E+04  0.46999998093E+01 0.  1.
       -5    1    3    3    0  502  0.26312494989E+03 -0.34033968537E+03 -0.34516265223E+03  0.55156612222E+03  0.46999998093E+01 0. -1.
</event>
<event>
 5   0  0.6423388E-05  0.1874142E+04  0.7818609E-02  0.8667836E-01
        2   -1    0    0  501    0  0.00000000000E+00  0.00000000000E+00  0.14331421727E+04  0.14331421728E+04  0.25500000920E-02 0.  1.
       -2   -1    0    0    0  501  0.00000000000E+00  0.00000000000E+00 -0.61271090302E+03  0.61271090302E+03  0.25500000920E-02 0. -1.
    10030    2    1    2    0    0  0.00000000000E+00  0.00000000000E+00  0.82043126973E+03  0.20458530758E+04  0.18741417607E+04 0.  0.
        2    1    3    3  502    0 -0.49492622887E+03  0.77123950442E+03  0.62396024245E+03  0.11086427420E+04  0.25500000920E-02 0.  1.
       -2    1    3    3    0  502  0.49492622887E+03 -0.77123950442E+03  0.19647102728E+03  0.93721033379E+03  0.25500000920E-02 0. -1.
</event>
<event>
 5   0  0.2279625E-05  0.1901742E+04  0.7818609E-02  0.8653990E-01
        3   -1    0    0  501    0  0.00000000000E+00  0.00000000000E+00  0.54350907482E+03  0.54350908421E+03  0.10100000352E+00 0. -1.
       -3   -1    0    0    0  501  0.00000000000E+00  0.00000000000E+00 -0.16635524975E+04  0.16635525006E+04  0.10100000352E+00 0.  1.
    10030    2    1    2    0    0  0.00000000000E+00  0.00000000000E+00 -0.11200434227E+04  0.22070615848E+04  0.19017422460E+04 0.  0.
        4    1    3    3  502    0  0.19682339843E+02  0.78165830014E+03  0.67937469678E+02  0.78485298328E+03  0.12699999809E+01 0. -1.
       -4    1    3    3    0  502 -0.19682339843E+02 -0.78165830014E+03 -0.11879808924E+04  0.14222086015E+04  0.12699999809E+01 0.  1.
</event>
<event>
 5   0  0.6423388E-05  0.1899861E+04  0.7818609E-02  0.8654926E-01
       -2   -1    0    0    0  501  0.00000000000E+00  0.00000000000E+00  0.10282860476E+04  0.10282860476E+04  0.25500000920E-02 0.  1.
        2   -1    0    0  501    0  0.00000000000E+00  0.00000000000E+00 -0.87754575281E+03  0.87754575281E+03  0.25500000920E-02 0. -1.
    10030    2    1    2    0    0  0.00000000000E+00  0.00000000000E+00  0.15074029474E+03  0.19058318004E+04  0.18998611041E+04 0.  0.
        2    1    3    3  502    0 -0.35764607647E+03  0.48449286554E+03  0.81233806687E+03  0.10112058088E+04  0.25500000920E-02 0.  1.
       -2    1    3    3    0  502  0.35764607647E+03 -0.48449286554E+03 -0.66159777213E+03  0.89462599161E+03  0.25500000920E-02 0. -1.
</event>
<event>
 5   0  0.3083469E-05  0.1879070E+04  0.7818609E-02  0.8665345E-01
        1   -1    0    0  501    0  0.00000000000E+00  0.00000000000E+00  0.84967475291E+03  0.84967475292E+03  0.50400001928E-02 0. -1.
       -1   -1    0    0    0  501  0.00000000000E+00  0.00000000000E+00 -0.10388989161E+04  0.10388989161E+04  0.50400001928E-02 0.  1.
    10030    2    1    2    0    0  0.00000000000E+00  0.00000000000E+00 -0.18922416322E+03  0.18885736691E+04  0.18790701742E+04 0.  0.
        3    1    3    3  502    0 -0.34109283198E+02 -0.53714607798E+03  0.67937151997E+03  0.86673815229E+03  0.10100000352E+00 0. -1.
       -3    1    3    3    0  502  0.34109283198E+02  0.53714607798E+03 -0.86859568318E+03  0.10218355168E+04  0.10100000352E+00 0.  1.
</event>
<event>
 5   0  0.6452182E-05  0.1898954E+04  0.7818609E-02  0.8655377E-01
        2   -1    0    0  501    0  0.00000000000E+00  0.00000000000E+00  0.85217010753E+03  0.85217010753E+03  0.25500000920E-02 0.  1.
       -2   -1    0    0    0  501  0.00000000000E+00  0.00000000000E+00 -0.10578953482E+04  0.10578953482E+04  0.25500000920E-02 0. -1.
    10030    2    1    2    0    0  0.00000000000E+00  0.00000000000E+00 -0.20572524064E+03  0.19100654557E+04  0.18989542307E+04 0.  0.
        3    1    3    3  502    0 -0.28864558765E+03 -0.48743694899E+03  0.66356415914E+03  0.87248407321E+03  0.10100000352E+00 0.  1.
       -3    1    3    3    0  502  0.28864558765E+03  0.48743694899E+03 -0.86928939978E+03  0.10375813825E+04  0.10100000352E+00 0. -1.
</event>
<event>
 5   0  0.3144958E-05  0.1898802E+04  0.7818609E-02  0.8655453E-01
        1   -1    0    0  501    0  0.00000000000E+00  0.00000000000E+00  0.23182324937E+04  0.23182324937E+04  0.50400001928E-02 0. -1.
       -1   -1    0    0    0  501  0.00000000000E+00  0.00000000000E+00 -0.38881446492E+03  0.38881446495E+03  0.50400001928E-02 0.  1.
    10030    2    1    2    0    0  0.00000000000E+00  0.00000000000E+00  0.19294180287E+04  0.27070469586E+04  0.18988020714E+04 0.  0.
        4    1    3    3  502    0  0.90290369520E+03 -0.11305278946E+03  0.13508095945E+04  0.16287124330E+04  0.12699999809E+01 0.  1.
       -4    1    3    3    0  502 -0.90290369520E+03  0.11305278946E+03  0.57860843428E+03  0.10783345256E+04  0.12699999809E+01 0. -1.
</event>
<event>
 5   0  0.3203527E-05  0.1895333E+04  0.7818609E-02  0.8657183E-01
        1   -1    0    0  501    0  0.00000000000E+00  0.00000000000E+00  0.13344169646E+04  0.13344169646E+04  0.50400001928E-02 0. -1.
       -1   -1    0    0    0  501  0.00000000000E+00  0.00000000000E+00 -0.67300672805E+03  0.67300672807E+03  0.50400001928E-02 0.  1.
    10030    2    1    2    0    0  0.00000000000E+00  0.00000000000E+00  0.66141023655E+03  0.20074236927E+04  0.18953327890E+04 0.  0.
        1    1    3    3  502    0  0.27527607800E+03 -0.22436300819E+03  0.12612767731E+04  0.13103185784E+04  0.50400001928E-02 0. -1.
       -1    1    3    3    0  502 -0.27527607800E+03  0.22436300819E+03 -0.59986653657E+03  0.69710511423E+03  0.50400001928E-02 0.  1.
</event>
<event>
 5   0  0.6423388E-05  0.1894114E+04  0.7818609E-02  0.8657792E-01
       -2   -1    0    0    0  501  0.00000000000E+00  0.00000000000E+00  0.88409910825E+03  0.88409910826E+03  0.25500000920E-02 0.  1.
        2   -1    0    0  501    0  0.00000000000E+00  0.00000000000E+00 -0.10144976811E+04  0.10144976811E+04  0.25500000920E-02 0. -1.
    10030    2    1    2    0    0  0.00000000000E+00  0.00000000000E+00 -0.13039857287E+03  0.18985967894E+04  0.18941135079E+04 0.  0.
        2    1    3    3  502    0 -0.70138435180E+03  0.50396333278E+03  0.32430437177E+03  0.92254667919E+03  0.25500000920E-02 0.  1.
       -2    1    3    3    0  502  0.70138435180E+03 -0.50396333278E+03 -0.45470294464E+03  0.97605011019E+03  0.25500000920E-02 0. -1.
</event>
<event>
 5   0  0.3083469E-05  0.1911601E+04  0.7818609E-02  0.8649103E-01
       -1   -1    0    0    0  501  0.00000000000E+00  0.00000000000E+00  0.51879432242E+03  0.51879432244E+03  0.50400001928E-02 0. -1.
        1   -1    0    0  501    0  0.00000000000E+00  0.00000000000E+00 -0.17609182212E+04  0.17609182212E+04  0.50400001928E-02 0.  1.
    10030    2    1    2    0    0  0.00000000000E+00  0.00000000000E+00 -0.12421238987E+04  0.22797125436E+04  0.19116007694E+04 0.  0.
        3    1    3    3  502    0  0.31357663297E+03 -0.47209611472E+03 -0.15389122171E+04  0.16399560568E+04  0.10100000352E+00 0.  1.
       -3    1    3    3    0  502 -0.31357663297E+03  0.47209611472E+03  0.29678831833E+03  0.63975648678E+03  0.10100000352E+00 0. -1.
</event>
<event>
 5   0  0.6395992E-05  0.1902386E+04  0.7818609E-02  0.8653669E-01
        2   -1    0    0  501    0  0.00000000000E+00  0.00000000000E+00  0.13087509049E+04  0.13087509049E+04  0.25500000920E-02 0. -1.
       -2   -1    0    0    0  501  0.00000000000E+00  0.00000000000E+00 -0.69132206283E+03  0.69132206284E+03  0.25500000920E-02 0.  1.
    10030    2    1    2    0    0  0.00000000000E+00  0.00000000000E+00  0.61742884209E+03  0.20000729678E+04  0.19023862650E+04 0.  0.
        4    1    3    3  502    0 -0.46654452755E+03 -0.16471959442E+03  0.11628157041E+04  0.12637002475E+04  0.12699999809E+01 0. -1.
       -4    1    3    3    0  502  0.46654452755E+03  0.16471959442E+03 -0.54538686201E+03  0.73637272025E+03  0.12699999809E+01 0.  1.
</event>
<event>
 5   0  0.6452182E-05  0.1896381E+04  0.7818609E-02  0.8656660E-01
       -2   -1    0    0    0  501  0.00000000000E+00  0.00000000000E+00  0.77358884631E+03  0.77358884631E+03  0.25500000920E-02 0. -1.
        2   -1    0    0  501    0  0.00000000000E+00  0.00000000000E+00 -0.11622008169E+04  0.11622008169E+04  0.25500000920E-02 0.  1.
    10030    2    1    2    0    0  0.00000000000E+00  0.00000000000E+00 -0.38861197055E+03  0.19357896632E+04  0.18963813847E+04 0.  0.
        3    1    3    3  502    0 -0.64678438622E+02 -0.77807641643E+03  0.35490762524E+03  0.85763957633E+03  0.10100000352E+00 0. -1.
       -3    1    3    3    0  502  0.64678438622E+02  0.77807641643E+03 -0.74351959579E+03  0.10781500868E+04  0.10100000352E+00 0.  1.
</event>
<event>
 5   0  0.6098377E-05  0.1896218E+04  0.7818609E-02  0.8656741E-01
       -2   -1    0    0    0  501  0.00000000000E+00  0.00000000000E+00  0.10333198563E+04  0.10333198563E+04  0.25500000920E-02 0.  1.
        2   -1    0    0  501    0  0.00000000000E+00  0.00000000000E+00 -0.86992444604E+03  0.86992444605E+03  0.25500000920E-02 0. -1.
    10030    2    1    2    0    0  0.00000000000E+00  0.00000000000E+00  0.16339541021E+03  0.19032443023E+04  0.18962175018E+04 0.  0.
        5    1    3    3  502    0  0.27053743975E+03  0.21050035714E+03  0.96893448280E+03  0.10277923081E+04  0.46999998093E+01 0.  1.
       -5    1    3    3    0  502 -0.27053743975E+03 -0.21050035714E+03 -0.80553907259E+03  0.87545199419E+03  0.46999998093E+01 0. -1.
</event>
<event>
 5   0  0.3144958E-05  0.1842101E+04  0.7818609E-02  0.8684225E-01
        1   -1    0    0  501    0  0.00000000000E+00  0.00000000000E+00  0.26216819307E+04  0.26216819307E+04  0.50400001928E-02 0. -1.
       -1   -1    0    0    0  501  0.00000000000E+00  0.00000000000E+00 -0.32358399796E+03  0.32358399800E+03  0.50400001928E-02 0.  1.
    10030    2    1    2    0    0  0.00000000000E+00  0.00000000000E+00  0.22980979327E+04  0.29452659287E+04  0.18421013225E+04 0.  0.
        4    1    3    3  502    0 -0.67177556390E+03  0.62150220263E+03  0.98300337600E+03  0.13430728373E+04  0.12699999809E+01 0.  1.
       -4    1    3    3    0  502  0.67177556390E+03 -0.62150220263E+03  0.13150945567E+04  0.16021930914E+04  0.12699999809E+01 0. -1.
</event>
<event>
 5   0  0.3083469E-05  0.1911528E+04  0.7818609E-02  0.8649140E-01
       -1   -1    0    0    0  501  0.00000000000E+00  0.00000000000E+00  0.11004244591E+04  0.11004244592E+04  0.50400001928E-02 0.  1.
        1   -1    0    0  501    0  0.00000000000E+00  0.00000000000E+00 -0.83012000750E+03  0.83012000752E+03  0.50400001928E-02 0. -1.
    10030    2    1    2    0    0  0.00000000000E+00  0.00000000000E+00  0.27030445164E+03  0.19305444667E+04  0.19115275152E+04 0.  0.
        3    1    3    3  502    0  0.12268747069E+03 -0.69828758602E+03  0.78248638300E+03  0.10559084800E+04  0.10100000352E+00 0.  1.
       -3    1    3    3    0  502 -0.12268747069E+03  0.69828758602E+03 -0.51218193136E+03  0.87463598672E+03  0.10100000352E+00 0. -1.
</event>
<event>
 5   0  0.3147063E-05  0.1902587E+04  0.7818609E-02  0.8653570E-01
       -1   -1    0    0    0  501  0.00000000000E+00  0.00000000000E+00  0.91254930021E+03  0.91254930022E+03  0.50400001928E-02 0. -1.
        1   -1    0    0  501    0  0.00000000000E+00  0.00000000000E+00 -0.99168221495E+03  0.99168221497E+03  0.50400001928E-02 0.  1.
    10030    2    1    2    0    0  0.00000000000E+00  0.00000000000E+00 -0.79132914746E+02  0.19042315152E+04  0.19025865671E+04 0.  0.
        5    1    3    3  502    0 -0.43379675451E+03 -0.76480174786E+02  0.80431611286E+03  0.91704707663E+03  0.46999998093E+01 0. -1.
       -5    1    3    3    0  502  0.43379675451E+03  0.76480174786E+02 -0.88344902761E+03  0.98718443856E+03  0.46999998093E+01 0.  1.
</event>
<event>
 5   0  0.6395992E-05  0.1896420E+04  0.7818609E-02  0.8656640E-01
       -2   -1    0    0    0  501  0.00000000000E+00  0.00000000000E+00  0.76779563047E+03  0.76779563048E+03  0.25500000920E-02 0.  1.
        2   -1    0    0  501    0  0.00000000000E+00  0.00000000000E+00 -0.11710181390E+04  0.11710181390E+04  0.25500000920E-02 0. -1.
    10030    2    1    2    0    0  0.00000000000E+00  0.00000000000E+00 -0.40322250848E+03  0.19388137694E+04  0.18964204284E+04 0.  0.
        4    1    3    3  502    0 -0.57870649121E+03  0.38892838666E+03 -0.85857598849E+03  0.11060383510E+04  0.12699999809E+01 0. -1.
       -4    1    3    3    0  502  0.57870649121E+03 -0.38892838666E+03  0.45535348001E+03  0.83277541845E+03  0.12699999809E+01 0.  1.
</event>
<event>
 5   0  0.6361762E-05  0.1898365E+04  0.7818609E-02  0.8655671E-01
        2   -1    0    0  501    0  0.00000000000E+00  0.00000000000E+00  0.13257383688E+04  0.13257383688E+04  0.25500000920E-02 0. -1.
       -2   -1    0    0    0  501  0.00000000000E+00  0.00000000000E+00 -0.67958126931E+03  0.67958126931E+03  0.25500000920E-02 0.  1.
    10030    2    1    2    0    0  0.00000000000E+00  0.00000000000E+00  0.64615709944E+03  0.20053196381E+04  0.18983645208E+04 0.  0.
        1    1    3    3  502    0 -0.33058131118E+03 -0.81300748403E+03  0.70494502908E+03  0.11257054084E+04  0.50400001928E-02 0. -1.
       -1    1    3    3    0  502  0.33058131118E+03  0.81300748403E+03 -0.58787929636E+02  0.87961422970E+03  0.50400001928E-02 0.  1.
</event>
<event>
 5   0  0.6098377E-05  0.1904521E+04  0.7818609E-02  0.8652609E-01
       -2   -1    0    0    0  501  0.00000000000E+00  0.00000000000E+00  0.73028761119E+03  0.73028761120E+03  0.25500000920E-02 0. -1.
        2   -1    0    0  501    0  0.00000000000E+00  0.00000000000E+00 -0.12417028008E+04  0.12417028008E+04  0.25500000920E-02 0.  1.
    10030    2    1    2    0    0  0.00000000000E+00  0.00000000000E+00 -0.51141518958E+03  0.19719904120E+04  0.19045211180E+04 0.  0.
        5    1    3    3  502    0 -0.35413334477E+03 -0.63026888292E+03  0.38602993227E+03  0.81956725731E+03  0.46999998093E+01 0. -1.
       -5    1    3    3    0  502  0.35413334477E+03  0.63026888292E+03 -0.89744512185E+03  0.11524231547E+04  0.46999998093E+01 0.  1.
</event>
<event>
 5   0  0.6395992E-05  0.1911178E+04  0.7818609E-02  0.8649312E-01
       -2   -1    0    0    0  501  0.00000000000E+00  0.00000000000E+00  0.54696918400E+03  0.54696918400E+03  0.25500000920E-02 0. -1.
        2   -1    0    0  501    0  0.00000000000E+00  0.00000000000E+00 -0.16694729931E+04  0.16694729931E+04  0.25500000920E-02 0.  1.
    10030    2    1    2    0    0  0.00000000000E+00  0.00000000000E+00 -0.11225038091E+04  0.22164421771E+04  0.19111779412E+04 0.  0.
        4    1    3    3  502    0 -0.28310619503E+03  0.77568339422E+03 -0.34795143748E+01  0.82574061645E+03  0.12699999809E+01 0.  1.
       -4    1    3    3    0  502  0.28310619503E+03 -0.77568339422E+03 -0.11190242948E+04  0.13907015607E+04  0.12699999809E+01 0. -1.
</event>
<event>
 5   0  0.6423388E-05  0.1916511E+04  0.7818609E-02  0.8646681E-01
        2   -1    0    0  501    0  0.00000000000E+00  0.00000000000E+00  0.90704812992E+03  0.90704812992E+03  0.25500000920E-02 0. -1.
       -2   -1    0    0    0  501  0.00000000000E+00  0.00000000000E+00 -0.10123536083E+04  0.10123536084E+04  0.25500000920E-02 0.  1.
    10030    2    1    2    0    0  0.00000000000E+00  0.00000000000E+00 -0.10530547843E+03  0.19194017383E+04  0.19165108372E+04 0.  0.
        2    1    3    3  502    0 -0.27828976888E+03 -0.73816284282E+03 -0.59746215258E+03  0.98959112858E+03  0.25500000920E-02 0.  1.
       -2    1    3    3    0  502  0.27828976888E+03  0.73816284282E+03  0.49215667415E+03  0.92981060970E+03  0.25500000920E-02 0. -1.
</event>
<event>
 5   0  0.6098377E-05  0.1882119E+04  0.7818609E-02  0.8663808E-01
        2   -1    0    0  501    0  0.00000000000E+00  0.00000000000E+00  0.17900276851E+04  0.17900276851E+04  0.25500000920E-02 0. -1.
       -2   -1    0    0    0  501  0.00000000000E+00  0.00000000000E+00 -0.49473713957E+03  0.49473713958E+03  0.25500000920E-02 0.  1.
    10030    2    1    2    0    0  0.00000000000E+00  0.00000000000E+00  0.12952905455E+04  0.22847648246E+04  0.18821192063E+04 0.  0.
        5    1    3    3  502    0  0.26604523114E+03  0.36200758676E+03  0.16514294758E+04  0.17114528803E+04  0.46999998093E+01 0. -1.
       -5    1    3    3    0  502 -0.26604523114E+03 -0.36200758676E+03 -0.35613893030E+03  0.57331194437E+03  0.46999998093E+01 0.  1.
</event>
<event>
 5   0  0.6098377E-05  0.1904422E+04  0.7818609E-02  0.8652659E-01
        2   -1    0    0  501    0  0.00000000000E+00  0.00000000000E+00  0.80778350404E+03  0.80778350404E+03  0.25500000920E-02 0.  1.
       -2   -1    0    0    0  501  0.00000000000E+00  0.00000000000E+00 -0.11224609533E+04  0.11224609533E+04  0.25500000920E-02 0. -1.
    10030    2    1    2    0    0  0.00000000000E+00  0.00000000000E+00 -0.31467744927E+03  0.19302444574E+04  0.19044216361E+04 0.  0.
        5    1    3    3  502    0 -0.52790772060E+02  0.88146474333E+03  0.20374512758E+03  0.90625665590E+03  0.46999998093E+01 0.  1.
       -5    1    3    3    0  502  0.52790772060E+02 -0.88146474333E+03 -0.51842257685E+03  0.10239878015E+04  0.46999998093E+01 0. -1.
</event>
<event>
 5   0  0.3086139E-05  0.1859432E+04  0.7818609E-02  0.8675317E-01
        1   -1    0    0  501    0  0.00000000000E+00  0.00000000000E+00  0.20945605146E+04  0.20945605146E+04  0.50400001928E-02 0. -1.
       -1   -1    0    0    0  501  0.00000000000E+00  0.00000000000E+00 -0.41267465216E+03  0.41267465220E+03  0.50400001928E-02 0.  1.
    10030    2    1    2    0    0  0.00000000000E+00  0.00000000000E+00  0.16818858624E+04  0.25072351668E+04  0.18594322056E+04 0.  0.
        2    1    3    3  502    0 -0.89071012743E+03 -0.26587381499E+03  0.81687448841E+03  0.12374721599E+04  0.25500000920E-02 0. -1.
       -2    1    3    3    0  502  0.89071012743E+03  0.26587381499E+03  0.86501137403E+03  0.12697630069E+04  0.25500000920E-02 0.  1.
</event>
<event>
 5   0  0.3086139E-05  0.1910918E+04  0.7818609E-02  0.8649441E-01
       -1   -1    0    0    0  501  0.00000000000E+00  0.00000000000E+00  0.41891830983E+03  0.41891830986E+03  0.50400001928E-02 0.  1.
        1   -1    0    0  501    0  0.00000000000E+00  0.00000000000E+00 -0.21791887184E+04  0.21791887185E+04  0.50400001928E-02 0. -1.
    10030    2    1    2    0    0  0.00000000000E+00  0.00000000000E+00 -0.17602704086E+04  0.25981070283E+04  0.19109181613E+04 0.  0.
        2    1    3    3  502    0 -0.69465082660E+03  0.61551947088E+03 -0.57159596487E+03  0.10900118976E+04  0.25500000920E-02 0.  1.
       -2    1    3    3    0  502  0.69465082660E+03 -0.61551947088E+03 -0.11886744438E+04  0.15080951307E+04  0.25500000920E-02 0. -1.
</event>
<event>
 5   0  0.2279625E-05  0.1896408E+04  0.7818609E-02  0.8656646E-01
       -4   -1    0    0    0  501  0.00000000000E+00  0.00000000000E+00  0.19910920307E+04  0.19910924357E+04  0.12699999809E+01 0.  1.
        4   -1    0    0  501    0  0.00000000000E+00  0.00000000000E+00 -0.45155523733E+03  0.45155702327E+03  0.12699999809E+01 0. -1.
    10030    2    1    2    0    0  0.00000000000E+00  0.00000000000E+00  0.15395367934E+04  0.24426494590E+04  0.18964078784E+04 0.  0.
        5    1    3    3  502    0  0.87727019079E+03 -0.32240244516E+03  0.97554181240E+03  0.13510182242E+04  0.46999998093E+01 0. -1.
       -5    1    3    3    0  502 -0.87727019079E+03  0.32240244516E+03  0.56399498098E+03  0.10916312348E+04  0.46999998093E+01 0.  1.
</event>
<event>
 5   0  0.3147063E-05  0.1897668E+04  0.7818609E-02  0.8656018E-01
        1   -1    0    0  501    0  0.00000000000E+00  0.00000000000E+00  0.11227671674E+04  0.11227671674E+04  0.50400001928E-02 0. -1.
       -1   -1    0    0    0  501  0.00000000000E+00  0.00000000000E+00 -0.80184575184E+03  0.80184575186E+03  0.50400001928E-02 0.  1.
    10030    2    1    2    0    0  0.00000000000E+00  0.00000000000E+00  0.32092141559E+03  0.19246129193E+04  0.18976681307E+04 0.  0.
        5    1    3    3  502    0 -0.41293035539E+03 -0.61060673731E+03  0.76636448997E+03  0.10633384633E+04  0.46999998093E+01 0. -1.
       -5    1    3    3    0  502  0.41293035539E+03  0.61060673731E+03 -0.44544307438E+03  0.86127445600E+03  0.46999998093E+01 0.  1.
</event>
<event>
 5   0  0.6452182E-05  0.1893949E+04  0.7818609E-02  0.8657874E-01
        2   -1    0    0  501    0  0.00000000000E+00  0.00000000000E+00  0.12483693490E+04  0.12483693490E+04  0.25500000920E-02 0.  1.
       -2   -1    0    0    0  501  0.00000000000E+00  0.00000000000E+00 -0.71834560565E+03  0.71834560565E+03  0.25500000920E-02 0. -1.
    10030    2    1    2    0    0  0.00000000000E+00  0.00000000000E+00  0.53002374334E+03  0.19667149546E+04  0.18939489286E+04 0.  0.
        3    1    3    3  502    0 -0.15949864811E+03 -0.19138442728E+02 -0.70409326771E+03  0.72218656770E+03  0.10100000352E+00 0. -1.
       -3    1    3    3    0  502  0.15949864811E+03  0.19138442728E+02  0.12341170111E+04  0.12445283869E+04  0.10100000352E+00 0.  1.
</event>
<event>
 5   0  0.3083469E-05  0.1898111E+04  0.7818609E-02  0.8655797E-01
       -1   -1    0    0    0  501  0.00000000000E+00  0.00000000000E+00  0.87509355690E+03  0.87509355691E+03  0.50400001928E-02 0. -1.
        1   -1    0    0  501    0  0.00000000000E+00  0.00000000000E+00 -0.10292690887E+04  0.10292690887E+04  0.50400001928E-02 0.  1.
    10030    2    1    2    0    0  0.00000000000E+00  0.00000000000E+00 -0.15417553176E+03  0.19043626456E+04  0.18981114275E+04 0.  0.
        3    1    3    3  502    0 -0.43754253756E+03  0.84182987984E+03 -0.10136910055E+03  0.95414711838E+03  0.10100000352E+00 0.  1.
       -3    1    3    3    0  502  0.43754253756E+03 -0.84182987984E+03 -0.52806431206E+02  0.95021552721E+03  0.10100000352E+00 0. -1.
</event>
<event>
 5   0  0.3086139E-05  0.1889587E+04  0.7818609E-02  0.8660057E-01
        1   -1    0    0  501    0  0.00000000000E+00  0.00000000000E+00  0.19434349872E+04  0.19434349872E+04  0.50400001928E-02 0.  1.
       -1   -1    0    0    0  501  0.00000000000E+00  0.00000000000E+00 -0.45930778901E+03  0.45930778904E+03  0.50400001928E-02 0. -1.
    10030    2    1    2    0    0  0.00000000000E+00  0.00000000000E+00  0.14841271982E+04  0.24027427763E+04  0.18895870735E+04 0.  0.
        2    1    3    3  502    0  0.15811869808E+03 -0.56794559527E+03 -0.19672315024E+03  0.62150118239E+03  0.25500000920E-02 0. -1.
       -2    1    3    3    0  502 -0.15811869808E+03  0.56794559527E+03  0.16808503485E+04  0.17812415939E+04  0.25500000920E-02 0.  1.
</event>
<event>
 5   0  0.3147063E-05  0.1899753E+04  0.7818609E-02  0.8654979E-01
       -1   -1    0    0    0  501  0.00000000000E+00  0.00000000000E+00  0.40066890208E+03  0.40066890211E+03  0.50400001928E-02 0. -1.
        1   -1    0    0  501    0  0.00000000000E+00  0.00000000000E+00 -0.22518972234E+04  0.22518972234E+04  0.50400001928E-02 0.  1.
    10030    2    1    2    0    0  0.00000000000E+00  0.00000000000E+00 -0.18512283213E+04  0.26525661255E+04  0.18997528135E+04 0.  0.
        5    1    3    3  502    0  0.73568143879E+03  0.29232624663E+03 -0.19265762302E+03  0.81475202580E+03  0.46999998093E+01 0. -1.
       -5    1    3    3    0  502 -0.73568143879E+03 -0.29232624663E+03 -0.16585706983E+04  0.18378140997E+04  0.46999998093E+01 0.  1.
</event>
<event>
 5   0  0.6423388E-05  0.1898061E+04  0.7818609E-02  0.8655822E-01
       -2   -1    0    0    0  501  0.00000000000E+00  0.00000000000E+00  0.13119915438E+04  0.13119915438E+04  0.25500000920E-02 0. -1.
        2   -1    0    0  501    0  0.00000000000E+00  0.00000000000E+00 -0.68648197422E+03  0.68648197423E+03  0.25500000920E-02 0.  1.
    10030    2    1    2    0    0  0.00000000000E+00  0.00000000000E+00  0.62550956959E+03  0.19984735181E+04  0.18980606367E+04 0.  0.
        2    1    3    3  502    0 -0.23187236283E+03  0.58791736469E+03 -0.43268776014E+03  0.76591795783E+03  0.25500000920E-02 0.  1.
       -2    1    3    3    0  502  0.23187236283E+03 -0.58791736469E+03  0.10581973297E+04  0.12325555602E+04  0.25500000920E-02 0. -1.
</event>
<event>
 5   0  0.6395992E-05  0.1895120E+04  0.7818609E-02  0.8657289E-01
        2   -1    0    0  501    0  0.00000000000E+00  0.00000000000E+00  0.10273528110E+04  0.10273528110E+04  0.25500000920E-02 0. -1.
       -2   -1    0    0    0  501  0.00000000000E+00  0.00000000000E+00 -0.87396477541E+03  0.87396477542E+03  0.25500000920E-02 0.  1.
    10030    2    1    2    0    0  0.00000000000E+00  0.00000000000E+00  0.15338803561E+03  0.19013175864E+04  0.18951202271E+04 0.  0.
        4    1    3    3  502    0  0.74739816487E+03 -0.45104562056E+03 -0.29305206184E+03  0.92082967617E+03  0.12699999809E+01 0.  1.
       -4    1    3    3    0  502 -0.74739816487E+03  0.45104562056E+03  0.44644009745E+03  0.98048791027E+03  0.12699999809E+01 0. -1.
</event>
<event>
 5   0  0.3083469E-05  0.1912573E+04  0.7818609E-02  0.8648623E-01
       -1   -1    0    0    0  501  0.00000000000E+00  0.00000000000E+00  0.56713505435E+03  0.56713505437E+03  0.50400001928E-02 0.  1.
        1   -1    0    0  501    0  0.00000000000E+00  0.00000000000E+00 -0.16124615122E+04  0.16124615122E+04  0.50400001928E-02 0. -1.
    10030    2    1    2    0    0  0.00000000000E+00  0.00000000000E+00 -0.10453264578E+04  0.21795965666E+04  0.19125725580E+04 0.  0.
        3    1    3    3  502    0 -0.66950489328E+03  0.65355368490E+03 -0.29727796909E+03  0.98170434566E+03  0.10100000352E+00 0. -1.
       -3    1    3    3    0  502  0.66950489328E+03 -0.65355368490E+03 -0.74804848875E+03  0.11978922209E+04  0.10100000352E+00 0.  1.
</event>
<event>
 5   0  0.6423388E-05  0.1902480E+04  0.7818609E-02  0.8653623E-01
       -2   -1    0    0    0  501  0.00000000000E+00  0.00000000000E+00  0.91663249525E+03  0.91663249525E+03  0.25500000920E-02 0. -1.
        2   -1    0    0  501    0  0.00000000000E+00  0.00000000000E+00 -0.98715460524E+03  0.98715460524E+03  0.25500000920E-02 0.  1.
    10030    2    1    2    0    0  0.00000000000E+00  0.00000000000E+00 -0.70522109993E+02  0.19037871005E+04  0.19024804745E+04 0.  0.
        2    1    3    3  502    0  0.73698076423E+03  0.60142279042E+03 -0.32436118424E+02  0.95178890594E+03  0.25500000920E-02 0. -1.
       -2    1    3    3    0  502 -0.73698076423E+03 -0.60142279042E+03 -0.38085991570E+02  0.95199819456E+03  0.25500000920E-02 0.  1.
</event>
<event>
 5   0  0.3147063E-05  0.1900047E+04  0.7818609E-02  0.8654833E-01
       -1   -1    0    0    0  501  0.00000000000E+00  0.00000000000E+00  0.92848483749E+03  0.92848483751E+03  0.50400001928E-02 0.  1.
        1   -1    0    0  501    0  0.00000000000E+00  0.00000000000E+00 -0.97206161667E+03  0.97206161668E+03  0.50400001928E-02 0. -1.
    10030    2    1    2    0    0  0.00000000000E+00  0.00000000000E+00 -0.43576779176E+02  0.19005464542E+04  0.19000468123E+04 0.  0.
        5    1    3    3  502    0  0.33443565476E+03 -0.21749053261E+03  0.84062917390E+03  0.93049924070E+03  0.46999998093E+01 0.  1.
       -5    1    3    3    0  502 -0.33443565476E+03  0.21749053261E+03 -0.88420595307E+03  0.97004721349E+03  0.46999998093E+01 0. -1.
</event>
<event>
 5   0  0.3144958E-05  0.1901203E+04  0.7818609E-02  0.8654258E-01
        1   -1    0    0  501    0  0.00000000000E+00  0.00000000000E+00  0.10999748361E+04  0.10999748361E+04  0.50400001928E-02 0. -1.
       -1   -1    0    0    0  501  0.00000000000E+00  0.00000000000E+00 -0.82151266884E+03  0.82151266885E+03  0.50400001928E-02 0.  1.
    10030    2    1    2    0    0  0.00000000000E+00  0.00000000000E+00  0.27846216725E+03  0.19214875049E+04  0.19012030541E+04 0.  0.
        4    1    3    3  502    0 -0.47740495034E+02  0.12444371112E+03 -0.81202093790E+03  0.82288821148E+03  0.12699999809E+01 0.  1.
       -4    1    3    3    0  502  0.47740495034E+02 -0.12444371112E+03  0.10904831051E+04  0.10985992935E+04  0.12699999809E+01 0. -1.
</event>
<event>
 5   0  0.3086139E-05  0.1895803E+04  0.7818609E-02  0.8656948E-01
        1   -1    0    0  501    0  0.00000000000E+00  0.00000000000E+00  0.10552239984E+04  0.10552239984E+04  0.50400001928E-02 0.  1.
       -1   -1    0    0    0  501  0.00000000000E+00  0.00000000000E+00 -0.85149439032E+03  0.85149439033E+03  0.50400001928E-02 0. -1.
    10030    2    1    2    0    0  0.00000000000E+00  0.00000000000E+00  0.20372960804E+03  0.19067183887E+04  0.18958030648E+04 0.  0.
        2    1    3    3  502    0  0.90408756143E+03 -0.20860900429E+03 -0.93224384720E+02  0.93251424725E+03  0.25500000920E-02 0.  1.
       -2    1    3    3    0  502 -0.90408756143E+03  0.20860900429E+03  0.29695399276E+03  0.97420414145E+03  0.25500000920E-02 0. -1.
</event>
<event>
 5   0  0.3147063E-05  0.1893467E+04  0.7818609E-02  0.8658115E-01
       -1   -1    0    0    0  501  0.00000000000E+00  0.00000000000E+00  0.99840027432E+03  0.99840027433E+03  0.50400001928E-02 0.  1.
        1   -1    0    0  501    0  0.00000000000E+00  0.00000000000E+00 -0.89774021550E+03  0.89774021552E+03  0.50400001928E-02 0. -1.
    10030    2    1    2    0    0  0.00000000000E+00  0.00000000000E+00  0.10066005882E+03  0.18961404898E+04  0.18934667438E+04 0.  0.
        5    1    3    3  502    0 -0.30842941745E+03 -0.82475328111E+03 -0.29791857649E+03  0.92958283572E+03  0.46999998093E+01 0.  1.
       -5    1    3    3    0  502  0.30842941745E+03  0.82475328111E+03  0.39857863530E+03  0.96655765413E+03  0.46999998093E+01 0. -1.
</event>
<event>
 5   0  0.3203527E-05  0.1882764E+04  0.7818609E-02  0.8663484E-01
        1   -1    0    0  501    0  0.00000000000E+00  0.00000000000E+00  0.75225836251E+03  0.75225836253E+03  0.50400001928E-02 0. -1.
       -1   -1    0    0    0  501  0.00000000000E+00  0.00000000000E+00 -0.11780528939E+04  0.11780528939E+04  0.50400001928E-02 0.  1.
    10030    2    1    2    0    0  0.00000000000E+00  0.00000000000E+00 -0.42579453135E+03  0.19303112564E+04  0.18827640754E+04 0.  0.
        1    1    3    3  502    0  0.78009577093E+03  0.20142413059E+03 -0.71210123297E+03  0.10752717137E+04  0.50400001928E-02 0.  1.
       -1    1    3    3    0  502 -0.78009577093E+03 -0.20142413059E+03  0.28630670163E+03  0.85503954273E+03  0.50400001928E-02 0. -1.
</event>
<event>
 5   0  0.6452182E-05  0.1905318E+04  0.7818609E-02  0.8652214E-01
       -2   -1    0    0    0  501  0.00000000000E+00  0.00000000000E+00  0.10305924350E+04  0.10305924350E+04  0.25500000920E-02 0. -1.
        2   -1    0    0  501    0  0.00000000000E+00  0.00000000000E+00 -0.88061890472E+03  0.88061890472E+03  0.25500000920E-02 0.  1.
    10030    2    1    2    0    0  0.00000000000E+00  0.00000000000E+00  0.14997353032E+03  0.19112113398E+04  0.19053180116E+04 0.  0.
        3    1    3    3  502    0 -0.59029592176E+03 -0.23094902876E+03 -0.63838977252E+03  0.89962672314E+03  0.10100000352E+00 0.  1.
       -3    1    3    3    0  502  0.59029592176E+03  0.23094902876E+03  0.78836330283E+03  0.10115846166E+04  0.10100000352E+00 0. -1.
</event>
<event>
 5   0  0.6452182E-05  0.1897180E+04  0.7818609E-02  0.8656261E-01
       -2   -1    0    0    0  501  0.00000000000E+00  0.00000000000E+00  0.58488432678E+03  0.58488432679E+03  0.25500000920E-02 0.  1.
        2   -1    0    0  501    0  0.00000000000E+00  0.00000000000E+00 -0.15384637620E+04  0.15384637620E+04  0.25500000920E-02 0. -1.
    10030    2    1    2    0    0  0.00000000000E+00  0.00000000000E+00 -0.95357943521E+03  0.21233480888E+04  0.18971803728E+04 0.  0.
        3    1    3    3  502    0 -0.39738146249E+03  0.79737485715E+03 -0.84135874085E+03  0.12253992127E+04  0.10100000352E+00 0. -1.
       -3    1    3    3    0  502  0.39738146249E+03 -0.79737485715E+03 -0.11222069436E+03  0.89794887605E+03  0.10100000352E+00 0.  1.
</event>
<event>
 5   0  0.3147063E-05  0.1900853E+04  0.7818609E-02  0.8654432E-01
        1   -1    0    0  501    0  0.00000000000E+00  0.00000000000E+00  0.23885484976E+04  0.23885484976E+04  0.50400001928E-02 0.  1.
       -1   -1    0    0    0  501  0.00000000000E+00  0.00000000000E+00 -0.37818400046E+03  0.37818400049E+03  0.50400001928E-02 0. -1.
    10030    2    1    2    0    0  0.00000000000E+00  0.00000000000E+00  0.20103644972E+04  0.27667324981E+04  0.19008533096E+04 0.  0.
        5    1    3    3  502    0 -0.37007352315E+03  0.35971843080E+03  0.21668095170E+04  0.22274284130E+04  0.46999998093E+01 0.  1.
       -5    1    3    3    0  502  0.37007352315E+03 -0.35971843080E+03 -0.15644501986E+03  0.53930408512E+03  0.46999998093E+01 0. -1.
</event>
<event>
 5   0  0.3083469E-05  0.1900930E+04  0.7818609E-02  0.8654394E-01
       -1   -1    0    0    0  501  0.00000000000E+00  0.00000000000E+00  0.56605317707E+03  0.56605317709E+03  0.50400001928E-02 0. -1.
        1   -1    0    0  501    0  0.00000000000E+00  0.00000000000E+00 -0.15959336623E+04  0.15959336623E+04  0.50400001928E-02 0.  1.
    10030    2    1    2    0    0  0.00000000000E+00  0.00000000000E+00 -0.10298804852E+04  0.21619868394E+04  0.19009295831E+04 0.  0.
        3    1    3    3  502    0  0.79973538700E+03  0.35068062364E+03 -0.94174983907E+03  0.12843077352E+04  0.10100000352E+00 0.  1.
       -3    1    3    3    0  502 -0.79973538700E+03 -0.35068062364E+03 -0.88130646157E+02  0.87767910423E+03  0.10100000352E+00 0. -1.
</event>
<event>
 5   0  0.3083469E-05  0.1901658E+04  0.7818609E-02  0.8654032E-01
       -1   -1    0    0    0  501  0.00000000000E+00  0.00000000000E+00  0.89624880602E+03  0.89624880604E+03  0.50400001928E-02 0. -1.
        1   -1    0    0  501    0  0.00000000000E+00  0.00000000000E+00 -0.10087326269E+04  0.10087326269E+04  0.50400001928E-02 0.  1.
    10030    2    1    2    0    0  0.00000000000E+00  0.00000000000E+00 -0.11248382083E+03  0.19049814329E+04  0.19016576058E+04 0.  0.
        3    1    3    3  502    0 -0.34607562828E+03  0.37975719339E+03 -0.85769750449E+03  0.99981442570E+03  0.10100000352E+00 0.  1.
       -3    1    3    3    0  502  0.34607562828E+03 -0.37975719339E+03  0.74521368366E+03  0.90516700721E+03  0.10100000352E+00 0. -1.
</event>
<event>
 5   0  0.6423388E-05  0.1899190E+04  0.7818609E-02  0.8655260E-01
        2   -1    0    0  501    0  0.00000000000E+00  0.00000000000E+00  0.10484680651E+04  0.10484680651E+04  0.25500000920E-02 0. -1.
       -2   -1    0    0    0  501  0.00000000000E+00  0.00000000000E+00 -0.86004554136E+03  0.86004554136E+03  0.25500000920E-02 0.  1.
    10030    2    1    2    0    0  0.00000000000E+00  0.00000000000E+00  0.18842252370E+03  0.19085136064E+04  0.18991896005E+04 0.  0.
        2    1    3    3  502    0  0.63048824874E+03 -0.14420131421E+03  0.79290945242E+03  0.10232374361E+04  0.25500000920E-02 0. -1.
       -2    1    3    3    0  502 -0.63048824874E+03  0.14420131421E+03 -0.60448692872E+03  0.88527617037E+03  0.25500000920E-02 0.  1.
</event>
<event>
 5   0  0.6423388E-05  0.1904679E+04  0.7818609E-02  0.8652531E-01
       -2   -1    0    0    0  501  0.00000000000E+00  0.00000000000E+00  0.71247775341E+03  0.71247775342E+03  0.25500000920E-02 0. -1.
        2   -1    0    0  501    0  0.00000000000E+00  0.00000000000E+00 -0.12729531466E+04  0.12729531466E+04  0.25500000920E-02 0.  1.
    10030    2    1    2    0    0  0.00000000000E+00  0.00000000000E+00 -0.56047539316E+03  0.19854309000E+04  0.19046792886E+04 0.  0.
        2    1    3    3  502    0  0.89298451677E+03  0.27006130031E+02  0.63595341138E+02  0.89565341828E+03  0.25500000920E-02 0. -1.
       -2    1    3    3    0  502 -0.89298451677E+03 -0.27006130031E+02 -0.62407073430E+03  0.10897774817E+04  0.25500000920E-02 0.  1.
</event>
<event>
 5   0  0.3144958E-05  0.1897923E+04  0.7818609E-02  0.8655891E-01
        1   -1    0    0  501    0  0.00000000000E+00  0.00000000000E+00  0.88434118099E+03  0.88434118100E+03  0.50400001928E-02 0. -1.
       -1   -1    0    0    0  501  0.00000000000E+00  0.00000000000E+00 -0.10183039406E+04  0.10183039406E+04  0.50400001928E-02 0.  1.
    10030    2    1    2    0    0  0.00000000000E+00  0.00000000000E+00 -0.13396275960E+03  0.19026451216E+04  0.18979231907E+04 0.  0.
        4    1    3    3  502    0  0.39830968000E+03  0.43192567056E+03  0.68006797673E+03  0.89872379069E+03  0.12699999809E+01 0. -1.
       -4    1    3    3    0  502 -0.39830968000E+03 -0.43192567056E+03 -0.81403073633E+03  0.10039213309E+04  0.12699999809E+01 0.  1.
</event>
<event>
 5   0  0.6361762E-05  0.1929020E+04  0.7818609E-02  0.8640545E-01
        2   -1    0    0  501    0  0.00000000000E+00  0.00000000000E+00  0.90226319471E+03  0.90226319471E+03  0.25500000920E-02 0.  1.
       -2   -1    0    0    0  501  0.00000000000E+00  0.00000000000E+00 -0.10310510535E+04  0.10310510535E+04  0.25500000920E-02 0. -1.
    10030    2    1    2    0    0  0.00000000000E+00  0.00000000000E+00 -0.12878785880E+03  0.19333142482E+04  0.19290198728E+04 0.  0.
        1    1    3    3  502    0 -0.45556065148E+03 -0.12129883933E+03  0.77892477633E+03  0.91047939176E+03  0.50400001928E-02 0.  1.
       -1    1    3    3    0  502  0.45556065148E+03  0.12129883933E+03 -0.90771263514E+03  0.10228348565E+04  0.50400001928E-02 0. -1.
</event>
<event>
 5   0  0.6098377E-05  0.1866001E+04  0.7818609E-02  0.8671968E-01
        2   -1    0    0  501    0  0.00000000000E+00  0.00000000000E+00  0.15043641899E+04  0.15043641899E+04  0.25500000920E-02 0. -1.
       -2   -1    0    0    0  501  0.00000000000E+00  0.00000000000E+00 -0.57864294146E+03  0.57864294146E+03  0.25500000920E-02 0.  1.
    10030    2    1    2    0    0  0.00000000000E+00  0.00000000000E+00  0.92572124841E+03  0.20830071313E+04  0.18660007716E+04 0.  0.
        5    1    3    3  502    0  0.16848018406E+03  0.23149856290E+03 -0.52837559586E+03  0.60098254329E+03  0.46999998093E+01 0.  1.
       -5    1    3    3    0  502 -0.16848018406E+03 -0.23149856290E+03  0.14540968443E+04  0.14820245880E+04  0.46999998093E+01 0. -1.
</event>
<event>
 5   0  0.6098377E-05  0.1903625E+04  0.7818609E-02  0.8653054E-01
        2   -1    0    0  501    0  0.00000000000E+00  0.00000000000E+00  0.13329193537E+04  0.13329193537E+04  0.25500000920E-02 0. -1.
       -2   -1    0    0    0  501  0.00000000000E+00  0.00000000000E+00 -0.67967155958E+03  0.67967155959E+03  0.25500000920E-02 0.  1.
    10030    2    1    2    0    0  0.00000000000E+00  0.00000000000E+00  0.65324779415E+03  0.20125909133E+04  0.19036253581E+04 0.  0.
        5    1    3    3  502    0  0.61560463503E+03  0.53006293370E+03 -0.19773943678E+03  0.83609733597E+03  0.46999998093E+01 0. -1.
       -5    1    3    3    0  502 -0.61560463503E+03 -0.53006293370E+03  0.85098723093E+03  0.11764935774E+04  0.46999998093E+01 0.  1.
</event>
<event>
 5   0  0.6423388E-05  0.1903812E+04  0.7818609E-02  0.8652961E-01
       -2   -1    0    0    0  501  0.00000000000E+00  0.00000000000E+00  0.49876450883E+03  0.49876450884E+03  0.25500000920E-02 0.  1.
        2   -1    0    0  501    0  0.00000000000E+00  0.00000000000E+00 -0.18167393222E+04  0.18167393222E+04  0.25500000920E-02 0. -1.
    10030    2    1    2    0    0  0.00000000000E+00  0.00000000000E+00 -0.13179748133E+04  0.23155038310E+04  0.19038120660E+04 0.  0.
        2    1    3    3  502    0 -0.10880453249E+03 -0.80318161922E+03 -0.12661195270E+04  0.15033289050E+04  0.25500000920E-02 0. -1.
       -2    1    3    3    0  502  0.10880453249E+03  0.80318161922E+03 -0.51855286290E+02  0.81217492603E+03  0.25500000920E-02 0.  1.
</event>
<event>
 5   0  0.3147063E-05  0.1894379E+04  0.7818609E-02  0.8657659E-01
       -1   -1    0    0    0  501  0.00000000000E+00  0.00000000000E+00  0.76871659478E+03  0.76871659480E+03  0.50400001928E-02 0. -1.
        1   -1    0    0  501    0  0.00000000000E+00  0.00000000000E+00 -0.11670989750E+04  0.11670989750E+04  0.50400001928E-02 0.  1.
    10030    2    1    2    0    0  0.00000000000E+00  0.00000000000E+00 -0.39838238025E+03  0.19358155698E+04  0.18943794233E+04 0.  0.
        5    1    3    3  502    0  0.53330840449E+03 -0.35702769420E+03  0.51265160333E+03  0.82141365044E+03  0.46999998093E+01 0. -1.
       -5    1    3    3    0  502 -0.53330840449E+03  0.35702769420E+03 -0.91103398358E+03  0.11144019194E+04  0.46999998093E+01 0.  1.
</event>
<event>
 5   0  0.6452182E-05  0.1918004E+04  0.7818609E-02  0.8645946E-01
       -2   -1    0    0    0  501  0.00000000000E+00  0.00000000000E+00  0.98377308724E+03  0.98377308725E+03  0.25500000920E-02 0. -1.
        2   -1    0    0  501    0  0.00000000000E+00  0.00000000000E+00 -0.93485512310E+03  0.93485512310E+03  0.25500000920E-02 0.  1.
    10030    2    1    2    0    0  0.00000000000E+00  0.00000000000E+00  0.48917964143E+02  0.19186282104E+04  0.19180044949E+04 0.  0.
        3    1    3    3  502    0  0.54776100443E+03  0.43213852094E+03  0.68262391269E+03  0.97609489069E+03  0.10100000352E+00 0. -1.
       -3    1    3    3    0  502 -0.54776100443E+03 -0.43213852094E+03 -0.63370594855E+03  0.94253331966E+03  0.10100000352E+00 0.  1.
</event>
<event>
 5   0  0.3083469E-05  0.1884968E+04  0.7818609E-02  0.8662375E-01
        1   -1    0    0  501    0  0.00000000000E+00  0.00000000000E+00  0.11531411401E+04  0.11531411401E+04  0.50400001928E-02 0.  1.
       -1   -1    0    0    0  501  0.00000000000E+00  0.00000000000E+00 -0.77030995452E+03  0.77030995454E+03  0.50400001928E-02 0. -1.
    10030    2    1    2    0    0  0.00000000000E+00  0.00000000000E+00  0.38283118555E+03  0.19234510946E+04  0.18849680095E+04 0.  0.
        3    1    3    3  502    0 -0.84085283149E+03  0.37891691656E+03 -0.66202043380E+01  0.92230979133E+03  0.10100000352E+00 0.  1.
       -3    1    3    3    0  502  0.84085283149E+03 -0.37891691656E+03  0.38945138989E+03  0.10011413033E+04  0.10100000352E+00 0. -1.
</event>
<event>
 5   0  0.6395992E-05  0.1892450E+04  0.7818609E-02  0.8658623E-01
       -2   -1    0    0    0  501  0.00000000000E+00  0.00000000000E+00  0.12153910779E+04  0.12153910779E+04  0.25500000920E-02 0. -1.
        2   -1    0    0  501    0  0.00000000000E+00  0.00000000000E+00 -0.73666992751E+03  0.73666992752E+03  0.25500000920E-02 0.  1.
    10030    2    1    2    0    0  0.00000000000E+00  0.00000000000E+00  0.47872115037E+03  0.19520610054E+04  0.18924503241E+04 0.  0.
        4    1    3    3  502    0  0.41492083393E+03 -0.78351661205E+03 -0.10163200801E+03  0.89240588173E+03  0.12699999809E+01 0.  1.
       -4    1    3    3    0  502 -0.41492083393E+03  0.78351661205E+03  0.58035315838E+03  0.10596551237E+04  0.12699999809E+01 0. -1.
</event>
<event>
 5   0  0.3086139E-05  0.1897840E+04  0.7818609E-02  0.8655932E-01
       -1   -1    0    0    0  501  0.00000000000E+00  0.00000000000E+00  0.73670807582E+03  0.73670807583E+03  0.50400001928E-02 0. -1.
        1   -1    0    0  501    0  0.00000000000E+00  0.00000000000E+00 -0.12222609915E+04  0.12222609915E+04  0.50400001928E-02 0.  1.
    10030    2    1    2    0    0  0.00000000000E+00  0.00000000000E+00 -0.48555291569E+03  0.19589690673E+04  0.18978403971E+04 0.  0.
        2    1    3    3  502    0  0.90627988184E+03 -0.25259918534E+03 -0.37045361059E+03  0.10111307780E+04  0.25500000920E-02 0. -1.
       -2    1    3    3    0  502 -0.90627988184E+03  0.25259918534E+03 -0.11509930510E+03  0.94783828932E+03  0.25500000920E-02 0.  1.
</event>
<event>
 5   0  0.3203527E-05  0.1896391E+04  0.7818609E-02  0.8656655E-01
        1   -1    0    0  501    0  0.00000000000E+00  0.00000000000E+00  0.89669230432E+03  0.89669230434E+03  0.50400001928E-02 0.  1.
       -1   -1    0    0    0  501  0.00000000000E+00  0.00000000000E+00 -0.10026569780E+04  0.10026569780E+04  0.50400001928E-02 0. -1.
    10030    2    1    2    0    0  0.00000000000E+00  0.00000000000E+00 -0.10596467366E+03  0.18993492823E+04  0.18963910947E+04 0.  0.
        1    1    3    3  502    0  0.62166028027E+03  0.51075255258E+02  0.66227773298E+03  0.90977029046E+03  0.50400001928E-02 0.  1.
       -1    1    3    3    0  502 -0.62166028027E+03 -0.51075255258E+02 -0.76824240664E+03  0.98957899187E+03  0.50400001928E-02 0. -1.
</event>
<event>
 5   0  0.6098377E-05  0.1902539E+04  0.7818609E-02  0.8653594E-01
       -2   -1    0    0    0  501  0.00000000000E+00  0.00000000000E+00  0.87587707904E+03  0.87587707904E+03  0.25500000920E-02 0.  1.
        2   -1    0    0  501    0  0.00000000000E+00  0.00000000000E+00 -0.10331515721E+04  0.10331515721E+04  0.25500000920E-02 0. -1.
    10030    2    1    2    0    0  0.00000000000E+00  0.00000000000E+00 -0.15727449302E+03  0.19090286511E+04  0.19025391256E+04 0.  0.
        5    1    3    3  502    0  0.44817709199E+03 -0.29537791633E+03  0.70939555999E+03  0.88959258640E+03  0.46999998093E+01 0.  1.
       -5    1    3    3    0  502 -0.44817709199E+03  0.29537791633E+03 -0.86667005301E+03  0.10194360647E+04  0.46999998093E+01 0. -1.
</event>
<event>
 5   0  0.3147063E-05  0.1897813E+04  0.7818609E-02  0.8655946E-01
        1   -1    0    0  501    0  0.00000000000E+00  0.00000000000E+00  0.79618235147E+03  0.79618235149E+03  0.50400001928E-02 0.  1.
       -1   -1    0    0    0  501  0.00000000000E+00  0.00000000000E+00 -0.11309262473E+04  0.11309262473E+04  0.50400001928E-02 0. -1.
    10030    2    1    2    0    0  0.00000000000E+00  0.00000000000E+00 -0.33474389579E+03  0.19271085988E+04  0.18978129717E+04 0.  0.
        5    1    3    3  502    0  0.84943537535E+03  0.23801369330E+03 -0.52235445873E+03  0.10252157069E+04  0.46999998093E+01 0. -1.
       -5    1    3    3    0  502 -0.84943537535E+03 -0.23801369330E+03  0.18761056294E+03  0.90189289188E+03  0.46999998093E+01 0.  1.
</event>
<event>
 5   0  0.6452182E-05  0.1900418E+04  0.7818609E-02  0.8654648E-01
        2   -1    0    0  501    0  0.00000000000E+00  0.00000000000E+00  0.10667195529E+04  0.10667195529E+04  0.25500000920E-02 0. -1.
       -2   -1    0    0    0  501  0.00000000000E+00  0.00000000000E+00 -0.84642396274E+03  0.84642396275E+03  0.25500000920E-02 0.  1.
    10030    2    1    2    0    0  0.00000000000E+00  0.00000000000E+00  0.22029559014E+03  0.19131435156E+04  0.19004178394E+04 0.  0.
        3    1    3    3  502    0  0.30541239637E+03 -0.85454827239E+03 -0.17346106855E+03  0.92391462495E+03  0.10100000352E+00 0.  1.
       -3    1    3    3    0  502 -0.30541239637E+03  0.85454827239E+03  0.39375665870E+03  0.98922889069E+03  0.10100000352E+00 0. -1.
</event>
<event>
 5   0  0.6361762E-05  0.1949972E+04  0.7818609E-02  0.8630374E-01
        2   -1    0    0  501    0  0.00000000000E+00  0.00000000000E+00  0.10623000011E+04  0.10623000011E+04  0.25500000920E-02 0. -1.
       -2   -1    0    0    0  501  0.00000000000E+00  0.00000000000E+00 -0.89484825282E+03  0.89484825283E+03  0.25500000920E-02 0.  1.
    10030    2    1    2    0    0  0.00000000000E+00  0.00000000000E+00  0.16745174824E+03  0.19571482539E+04  0.19499715895E+04 0.  0.
        1    1    3    3  502    0 -0.80552849323E+03  0.54770629653E+03  0.12558017979E+03  0.98215514164E+03  0.50400001928E-02 0.  1.
       -1    1    3    3    0  502  0.80552849323E+03 -0.54770629653E+03  0.41871568449E+02  0.97499311225E+03  0.50400001928E-02 0. -1.
</event>
<event>
 5   0  0.3086139E-05  0.1897201E+04  0.7818609E-02  0.8656251E-01
        1   -1    0    0  501    0  0.00000000000E+00  0.00000000000E+00  0.11980220189E+04  0.11980220189E+04  0.50400001928E-02 0. -1.
       -1   -1    0    0    0  501  0.00000000000E+00  0.00000000000E+00 -0.75110710546E+03  0.75110710548E+03  0.50400001928E-02 0.  1.
    10030    2    1    2    0    0  0.00000000000E+00  0.00000000000E+00  0.44691491340E+03  0.19491291243E+04  0.18972009392E+04 0.  0.
        2    1    3    3  502    0 -0.58637673751E+03  0.23747250126E+02  0.98913576039E+03  0.11501265855E+04  0.25500000920E-02 0. -1.
       -2    1    3    3    0  502  0.58637673751E+03 -0.23747250126E+02 -0.54222084699E+03  0.79900253885E+03  0.25500000920E-02 0.  1.
</event>
<event>
 5   0  0.3086139E-05  0.1895095E+04  0.7818609E-02  0.8657302E-01
        1   -1    0    0  501    0  0.00000000000E+00  0.00000000000E+00  0.11633942785E+04  0.11633942785E+04  0.50400001928E-02 0. -1.
       -1   -1    0    0    0  501  0.00000000000E+00  0.00000000000E+00 -0.77174757259E+03  0.77174757261E+03  0.50400001928E-02 0.  1.
    10030    2    1    2    0    0  0.00000000000E+00  0.00000000000E+00  0.39164670590E+03  0.19351418511E+04  0.18950954703E+04 0.  0.
        2    1    3    3  502    0  0.32127352379E+03 -0.24829917933E+03  0.10700560566E+04  0.11445038767E+04  0.25500000920E-02 0. -1.
       -2    1    3    3    0  502 -0.32127352379E+03  0.24829917933E+03 -0.67840935066E+03  0.79063797443E+03  0.25500000920E-02 0.  1.
</event>
<event>
 5   0  0.6452182E-05  0.1900790E+04  0.7818609E-02  0.8654463E-01
       -2   -1    0    0    0  501  0.00000000000E+00  0.00000000000E+00  0.88233665786E+03  0.88233665787E+03  0.25500000920E-02 0. -1.
        2   -1    0    0  501    0  0.00000000000E+00  0.00000000000E+00 -0.10237026882E+04  0.10237026882E+04  0.25500000920E-02 0.  1.
    10030    2    1    2    0    0  0.00000000000E+00  0.00000000000E+00 -0.14136603029E+03  0.19060393460E+04  0.19007897396E+04 0.  0.
        3    1    3    3  502    0 -0.19609081705E+03  0.80147366119E+03  0.40225368342E+03  0.91794317588E+03  0.10100000352E+00 0. -1.
       -3    1    3    3    0  502  0.19609081705E+03 -0.80147366119E+03 -0.54361971371E+03  0.98809617014E+03  0.10100000352E+00 0.  1.
</event>
<event>
 5   0  0.6098377E-05  0.1878662E+04  0.7818609E-02  0.8665551E-01
       -2   -1    0    0    0  501  0.00000000000E+00  0.00000000000E+00  0.47133958118E+03  0.47133958119E+03  0.25500000920E-02 0.  1.
        2   -1    0    0  501    0  0.00000000000E+00  0.00000000000E+00 -0.18719901866E+04  0.18719901866E+04  0.25500000920E-02 0. -1.
    10030    2    1    2    0    0  0.00000000000E+00  0.00000000000E+00 -0.14006506054E+04  0.23433297678E+04  0.18786623651E+04 0.  0.
        5    1    3    3  502    0 -0.63464394888E+03  0.47759325758E+03 -0.13258044598E+04  0.15455250943E+04  0.46999998093E+01 0. -1.
       -5    1    3    3    0  502  0.63464394888E+03 -0.47759325758E+03 -0.74846145656E+02  0.79780467350E+03  0.46999998093E+01 0.  1.
</event>
<event>
 5   0  0.3144958E-05  0.1778014E+04  0.7818609E-02  0.8718079E-01
       -1   -1    0    0    0  501  0.00000000000E+00  0.00000000000E+00  0.43196557999E+03  0.43196558002E+03  0.50400001928E-02 0.  1.
        1   -1    0    0  501    0  0.00000000000E+00  0.00000000000E+00 -0.18296216884E+04  0.18296216884E+04  0.50400001928E-02 0. -1.
    10030    2    1    2    0    0  0.00000000000E+00  0.00000000000E+00 -0.13976561084E+04  0.22615872684E+04  0.17780141662E+04 0.  0.
        4    1    3    3  502    0  0.14660353731E+03 -0.55063818632E+02 -0.18119375857E+04  0.18186929507E+04  0.12699999809E+01 0. -1.
       -4    1    3    3    0  502 -0.14660353731E+03  0.55063818632E+02  0.41428147737E+03  0.44289431772E+03  0.12699999809E+01 0.  1.
</event>
<event>
 5   0  0.3144958E-05  0.1904316E+04  0.7818609E-02  0.8652711E-01
       -1   -1    0    0    0  501  0.00000000000E+00  0.00000000000E+00  0.86164599280E+03  0.86164599282E+03  0.50400001928E-02 0.  1.
        1   -1    0    0  501    0  0.00000000000E+00  0.00000000000E+00 -0.10521774851E+04  0.10521774851E+04  0.50400001928E-02 0. -1.
    10030    2    1    2    0    0  0.00000000000E+00  0.00000000000E+00 -0.19053149230E+03  0.19138234779E+04  0.19043156396E+04 0.  0.
        4    1    3    3  502    0 -0.58320218250E+03 -0.55654428420E+03  0.41395585180E+03  0.90621597100E+03  0.12699999809E+01 0.  1.
       -4    1    3    3    0  502  0.58320218250E+03  0.55654428420E+03 -0.60448734410E+03  0.10076075069E+04  0.12699999809E+01 0. -1.
</event>
<event>
 5   0  0.3203527E-05  0.1899156E+04  0.7818609E-02  0.8655277E-01
       -1   -1    0    0    0  501  0.00000000000E+00  0.00000000000E+00  0.51938742319E+03  0.51938742321E+03  0.50400001928E-02 0.  1.
        1   -1    0    0  501    0  0.00000000000E+00  0.00000000000E+00 -0.17360799610E+04  0.17360799610E+04  0.50400001928E-02 0. -1.
    10030    2    1    2    0    0  0.00000000000E+00  0.00000000000E+00 -0.12166925378E+04  0.22554673842E+04  0.18991557044E+04 0.  0.
        1    1    3    3  502    0  0.82594308410E+03  0.18110105089E+03 -0.11215262271E+04  0.14045642196E+04  0.50400001928E-02 0. -1.
       -1    1    3    3    0  502 -0.82594308410E+03 -0.18110105089E+03 -0.95166310656E+02  0.85090316460E+03  0.50400001928E-02 0.  1.
</event>
<event>
 5   0  0.3203527E-05  0.1885287E+04  0.7818609E-02  0.8662215E-01
        1   -1    0    0  501    0  0.00000000000E+00  0.00000000000E+00  0.12462547496E+04  0.12462547496E+04  0.50400001928E-02 0.  1.
       -1   -1    0    0    0  501  0.00000000000E+00  0.00000000000E+00 -0.71299792948E+03  0.71299792949E+03  0.50400001928E-02 0. -1.
    10030    2    1    2    0    0  0.00000000000E+00  0.00000000000E+00  0.53325682011E+03  0.19592526791E+04  0.18852873055E+04 0.  0.
        1    1    3    3  502    0 -0.16057613414E+03 -0.21266747041E+03  0.12062955225E+04  0.12353789036E+04  0.50400001928E-02 0.  1.
       -1    1    3    3    0  502  0.16057613414E+03  0.21266747041E+03 -0.67303870242E+03  0.72387377546E+03  0.50400001928E-02 0. -1.
</event>
<event>
 5   0  0.3086139E-05  0.1902944E+04  0.7818609E-02  0.8653392E-01
       -1   -1    0    0    0  501  0.00000000000E+00  0.00000000000E+00  0.73435626776E+03  0.73435626778E+03  0.50400001928E-02 0.  1.
        1   -1    0    0  501    0  0.00000000000E+00  0.00000000000E+00 -0.12327790444E+04  0.12327790444E+04  0.50400001928E-02 0. -1.
    10030    2    1    2    0    0  0.00000000000E+00  0.00000000000E+00 -0.49842277666E+03  0.19671353122E+04  0.19029440539E+04 0.  0.
        2    1    3    3  502    0 -0.57087981971E+03  0.59489119782E+03 -0.74009802579E+03  0.11079460247E+04  0.25500000920E-02 0. -1.
       -2    1    3    3    0  502  0.57087981971E+03 -0.59489119782E+03  0.24167524913E+03  0.85918928755E+03  0.25500000920E-02 0.  1.
</event>
<event>
 5   0  0.3147063E-05  0.1895901E+04  0.7818609E-02  0.8656900E-01
        1   -1    0    0  501    0  0.00000000000E+00  0.00000000000E+00  0.11445067536E+04  0.11445067536E+04  0.50400001928E-02 0.  1.
       -1   -1    0    0    0  501  0.00000000000E+00  0.00000000000E+00 -0.78515019118E+03  0.78515019119E+03  0.50400001928E-02 0. -1.
    10030    2    1    2    0    0  0.00000000000E+00  0.00000000000E+00  0.35935656237E+03  0.19296569448E+04  0.18959005210E+04 0.  0.
        5    1    3    3  502    0  0.30300349391E+03 -0.79572373252E+03  0.60375038984E+03  0.10438026629E+04  0.46999998093E+01 0. -1.
       -5    1    3    3    0  502 -0.30300349391E+03  0.79572373252E+03 -0.24439382746E+03  0.88585428187E+03  0.46999998093E+01 0.  1.
</event>
<event>
 5   0  0.3086139E-05  0.1897393E+04  0.7818609E-02  0.8656155E-01
        1   -1    0    0  501    0  0.00000000000E+00  0.00000000000E+00  0.67208553684E+03  0.67208553686E+03  0.50400001928E-02 0. -1.
       -1   -1    0    0    0  501  0.00000000000E+00  0.00000000000E+00 -0.13391523807E+04  0.13391523808E+04  0.50400001928E-02 0.  1.
    10030    2    1    2    0    0  0.00000000000E+00  0.00000000000E+00 -0.66706684390E+03  0.20112379176E+04  0.18973928921E+04 0.  0.
        2    1    3    3  502    0 -0.46660985219E+03 -0.82069025207E+03 -0.23427917762E+03  0.97269932512E+03  0.25500000920E-02 0. -1.
       -2    1    3    3    0  502  0.46660985219E+03  0.82069025207E+03 -0.43278766628E+03  0.10385385925E+04  0.25500000920E-02 0.  1.
</event>
<event>
 5   0  0.6361762E-05  0.1903401E+04  0.7818609E-02  0.8653165E-01
        2   -1    0    0  501    0  0.00000000000E+00  0.00000000000E+00  0.85647664017E+03  0.85647664018E+03  0.25500000920E-02 0.  1.
       -2   -1    0    0    0  501  0.00000000000E+00  0.00000000000E+00 -0.10575113169E+04  0.10575113169E+04  0.25500000920E-02 0. -1.
    10030    2    1    2    0    0  0.00000000000E+00  0.00000000000E+00 -0.20103467674E+03  0.19139879571E+04  0.19034008928E+04 0.  0.
        1    1    3    3  502    0  0.44716819334E+03 -0.26043344308E+03  0.70264222283E+03  0.87263455395E+03  0.50400001928E-02 0.  1.
       -1    1    3    3    0  502 -0.44716819334E+03  0.26043344308E+03 -0.90367689957E+03  0.10413534032E+04  0.50400001928E-02 0. -1.
</event>
<event>
 5   0  0.6361762E-05  0.1900218E+04  0.7818609E-02  0.8654748E-01
       -2   -1    0    0    0  501  0.00000000000E+00  0.00000000000E+00  0.13761986352E+04  0.13761986352E+04  0.25500000920E-02 0. -1.
        2   -1    0    0  501    0  0.00000000000E+00  0.00000000000E+00 -0.65594260398E+03  0.65594260399E+03  0.25500000920E-02 0.  1.
    10030    2    1    2    0    0  0.00000000000E+00  0.00000000000E+00  0.72025603125E+03  0.20321412392E+04  0.19002182153E+04 0.  0.
        1    1    3    3  502    0 -0.28397267340E+03  0.23390849509E+03  0.12969308475E+04  0.13481035889E+04  0.50400001928E-02 0. -1.
       -1    1    3    3    0  502  0.28397267340E+03 -0.23390849509E+03 -0.57667481623E+03  0.68403765029E+03  0.50400001928E-02 0.  1.
</event>
<event>
 5   0  0.6423388E-05  0.1934120E+04  0.7818609E-02  0.8638056E-01
       -2   -1    0    0    0  501  0.00000000000E+00  0.00000000000E+00  0.41992546187E+03  0.41992546188E+03  0.25500000920E-02 0.  1.
        2   -1    0    0  501    0  0.00000000000E+00  0.00000000000E+00 -0.22270747097E+04  0.22270747097E+04  0.25500000920E-02 0. -1.
    10030    2    1    2    0    0  0.00000000000E+00  0.00000000000E+00 -0.18071492478E+04  0.26470001716E+04  0.19341203438E+04 0.  0.
        2    1    3    3  502    0  0.18611343957E+03 -0.94797073847E+03 -0.84362761348E+03  0.12825733054E+04  0.25500000920E-02 0.  1.
       -2    1    3    3    0  502 -0.18611343957E+03  0.94797073847E+03 -0.96352163432E+03  0.13644268662E+04  0.25500000920E-02 0. -1.
</event>
<event>
 5   0  0.3144958E-05  0.1898446E+04  0.7818609E-02  0.8655631E-01
       -1   -1    0    0    0  501  0.00000000000E+00  0.00000000000E+00  0.61928535575E+03  0.61928535577E+03  0.50400001928E-02 0.  1.
        1   -1    0    0  501    0  0.00000000000E+00  0.00000000000E+00 -0.14549413863E+04  0.14549413863E+04  0.50400001928E-02 0. -1.
    10030    2    1    2    0    0  0.00000000000E+00  0.00000000000E+00 -0.83565603058E+03  0.20742267421E+04  0.18984455684E+04 0.  0.
        4    1    3    3  502    0 -0.30397351970E+03  0.66517927508E+03  0.24331114856E+03  0.77075631466E+03  0.12699999809E+01 0.  1.
       -4    1    3    3    0  502  0.30397351970E+03 -0.66517927508E+03 -0.10789671791E+04  0.13034704275E+04  0.12699999809E+01 0. -1.
</event>
<event>
 5   0  0.3144958E-05  0.1895786E+04  0.7818609E-02  0.8656957E-01
        1   -1    0    0  501    0  0.00000000000E+00  0.00000000000E+00  0.10243653661E+04  0.10243653661E+04  0.50400001928E-02 0. -1.
       -1   -1    0    0    0  501  0.00000000000E+00  0.00000000000E+00 -0.87712985170E+03  0.87712985171E+03  0.50400001928E-02 0.  1.
    10030    2    1    2    0    0  0.00000000000E+00  0.00000000000E+00  0.14723551442E+03  0.19014952178E+04  0.18957863189E+04 0.  0.
        4    1    3    3  502    0  0.65710360114E+03  0.68307941601E+03  0.62759373707E+02  0.94990682864E+03  0.12699999809E+01 0.  1.
       -4    1    3    3    0  502 -0.65710360114E+03 -0.68307941601E+03  0.84476140710E+02  0.95158838920E+03  0.12699999809E+01 0. -1.
</event>
<event>
 5   0  0.3203527E-05  0.1901821E+04  0.7818609E-02  0.8653950E-01
       -1   -1    0    0    0  501  0.00000000000E+00  0.00000000000E+00  0.11575647157E+04  0.11575647158E+04  0.50400001928E-02 0. -1.
        1   -1    0    0  501    0  0.00000000000E+00  0.00000000000E+00 -0.78114930310E+03  0.78114930311E+03  0.50400001928E-02 0.  1.
    10030    2    1    2    0    0  0.00000000000E+00  0.00000000000E+00  0.37641541265E+03  0.19387140189E+04  0.19018210968E+04 0.  0.
        1    1    3    3  502    0 -0.22965244795E+02 -0.47579667832E+03  0.10271679035E+04  0.11322472273E+04  0.50400001928E-02 0. -1.
       -1    1    3    3    0  502  0.22965244795E+02  0.47579667832E+03 -0.65075249088E+03  0.80646679161E+03  0.50400001928E-02 0.  1.
</event>
<event>
 5   0  0.3086139E-05  0.1898408E+04  0.7818609E-02  0.8655649E-01
        1   -1    0    0  501    0  0.00000000000E+00  0.00000000000E+00  0.11151263489E+04  0.11151263489E+04  0.50400001928E-02 0. -1.
       -1   -1    0    0    0  501  0.00000000000E+00  0.00000000000E+00 -0.80796940996E+03  0.80796940998E+03  0.50400001928E-02 0.  1.
    10030    2    1    2    0    0  0.00000000000E+00  0.00000000000E+00  0.30715693893E+03  0.19230957589E+04  0.18984077309E+04 0.  0.
        2    1    3    3  502    0  0.79979859617E+03 -0.14283377305E+03  0.65078595186E+03  0.10409618803E+04  0.25500000920E-02 0. -1.
       -2    1    3    3    0  502 -0.79979859617E+03  0.14283377305E+03 -0.34362901293E+03  0.88213387855E+03  0.25500000920E-02 0.  1.
</event>
<event>
 5   0  0.3086139E-05  0.1893524E+04  0.7818609E-02  0.8658087E-01
       -1   -1    0    0    0  501  0.00000000000E+00  0.00000000000E+00  0.67957742613E+03  0.67957742614E+03  0.50400001928E-02 0. -1.
        1   -1    0    0  501    0  0.00000000000E+00  0.00000000000E+00 -0.13189931665E+04  0.13189931665E+04  0.50400001928E-02 0.  1.
    10030    2    1    2    0    0  0.00000000000E+00  0.00000000000E+00 -0.63941574035E+03  0.19985705926E+04  0.18935236795E+04 0.  0.
        2    1    3    3  502    0 -0.84487627415E+03 -0.35938077913E+03 -0.75832120023E+02  0.92126053506E+03  0.25500000920E-02 0. -1.
       -2    1    3    3    0  502  0.84487627415E+03  0.35938077913E+03 -0.56358362032E+03  0.10773100576E+04  0.25500000920E-02 0.  1.
</event>
<event>
 5   0  0.6452182E-05  0.1937015E+04  0.7818609E-02  0.8636648E-01
       -2   -1    0    0    0  501  0.00000000000E+00  0.00000000000E+00  0.90829623308E+03  0.90829623308E+03  0.25500000920E-02 0. -1.
        2   -1    0    0  501    0  0.00000000000E+00  0.00000000000E+00 -0.10327103320E+04  0.10327103320E+04  0.25500000920E-02 0.  1.
    10030    2    1    2    0    0  0.00000000000E+00  0.00000000000E+00 -0.12441409891E+03  0.19410065651E+04  0.19370151310E+04 0.  0.
        3    1    3    3  502    0  0.55929478446E+03 -0.26659239765E+03 -0.80813650684E+03  0.10183156614E+04  0.10100000352E+00 0.  1.
       -3    1    3    3    0  502 -0.55929478446E+03  0.26659239765E+03  0.68372240792E+03  0.92269090366E+03  0.10100000352E+00 0. -1.
</event>
<event>
 5   0  0.6361762E-05  0.1895109E+04  0.7818609E-02  0.8657295E-01
        2   -1    0    0  501    0  0.00000000000E+00  0.00000000000E+00  0.11876334429E+04  0.11876334429E+04  0.25500000920E-02 0.  1.
       -2   -1    0    0    0  501  0.00000000000E+00  0.00000000000E+00 -0.75600731541E+03  0.75600731542E+03  0.25500000920E-02 0. -1.
    10030    2    1    2    0    0  0.00000000000E+00  0.00000000000E+00  0.43162612749E+03  0.19436407583E+04  0.18951090426E+04 0.  0.
        1    1    3    3  502    0 -0.60322641314E+03  0.43463527702E+03  0.81828270850E+03  0.11056113786E+04  0.50400001928E-02 0.  1.
       -1    1    3    3    0  502  0.60322641314E+03 -0.43463527702E+03 -0.38665658101E+03  0.83802937968E+03  0.50400001928E-02 0. -1.
</event>
<event>
 5   0  0.6452182E-05  0.1918879E+04  0.7818609E-02  0.8645516E-01
       -2   -1    0    0    0  501  0.00000000000E+00  0.00000000000E+00  0.74458510687E+03  0.74458510688E+03  0.25500000920E-02 0. -1.
        2   -1    0    0  501    0  0.00000000000E+00  0.00000000000E+00 -0.12362914586E+04  0.12362914586E+04  0.25500000920E-02 0.  1.
    10030    2    1    2    0    0  0.00000000000E+00  0.00000000000E+00 -0.49170635170E+03  0.19808765654E+04  0.19188790559E+04 0.  0.
        3    1    3    3  502    0  0.66882783777E+03  0.67917997474E+03 -0.13320329496E+03  0.96247558029E+03  0.10100000352E+00 0.  1.
       -3    1    3    3    0  502 -0.66882783777E+03 -0.67917997474E+03 -0.35850305674E+03  0.10184009852E+04  0.10100000352E+00 0. -1.
</event>
<event>
 5   0  0.3203527E-05  0.1893101E+04  0.7818609E-02  0.8658298E-01
        1   -1    0    0  501    0  0.00000000000E+00  0.00000000000E+00  0.10926640955E+04  0.10926640955E+04  0.50400001928E-02 0.  1.
       -1   -1    0    0    0  501  0.00000000000E+00  0.00000000000E+00 -0.81997564233E+03  0.81997564234E+03  0.50400001928E-02 0. -1.
    10030    2    1    2    0    0  0.00000000000E+00  0.00000000000E+00  0.27268845315E+03  0.19126397378E+04  0.18931010998E+04 0.  0.
        1    1    3    3  502    0 -0.51459518312E+03  0.60316663849E+03  0.65872975037E+03  0.10307973032E+04  0.50400001928E-02 0.  1.
       -1    1    3    3    0  502  0.51459518312E+03 -0.60316663849E+03 -0.38604129723E+03  0.88184243461E+03  0.50400001928E-02 0. -1.
</event>
<event>
 5   0  0.6423388E-05  0.1906493E+04  0.7818609E-02  0.8651631E-01
        2   -1    0    0  501    0  0.00000000000E+00  0.00000000000E+00  0.11542839238E+04  0.11542839238E+04  0.25500000920E-02 0.  1.
       -2   -1    0    0    0  501  0.00000000000E+00  0.00000000000E+00 -0.78722316533E+03  0.78722316534E+03  0.25500000920E-02 0. -1.
    10030    2    1    2    0    0  0.00000000000E+00  0.00000000000E+00  0.36706075847E+03  0.19415070891E+04  0.19064931620E+04 0.  0.
        2    1    3    3  502    0 -0.52244904266E+03 -0.27362695086E+02  0.99501975287E+03  0.11241734866E+04  0.25500000920E-02 0.  1.
       -2    1    3    3    0  502  0.52244904266E+03  0.27362695086E+02 -0.62795899440E+03  0.81733360259E+03  0.25500000920E-02 0. -1.
</event>
<event>
 5   0  0.6423388E-05  0.1897635E+04  0.7818609E-02  0.8656034E-01
       -2   -1    0    0    0  501  0.00000000000E+00  0.00000000000E+00  0.10987833303E+04  0.10987833303E+04  0.25500000920E-02 0.  1.
        2   -1    0    0  501    0  0.00000000000E+00  0.00000000000E+00 -0.81931981427E+03  0.81931981428E+03  0.25500000920E-02 0. -1.
    10030    2    1    2    0    0  0.00000000000E+00  0.00000000000E+00  0.27946351601E+03  0.19181031446E+04  0.18976353223E+04 0.  0.
        2    1    3    3  502    0 -0.87246917409E+03 -0.24174764776E+03  0.42671411322E+03  0.10008642862E+04  0.25500000920E-02 0.  1.
       -2    1    3    3    0  502  0.87246917409E+03  0.24174764776E+03 -0.14725059721E+03  0.91723885838E+03  0.25500000920E-02 0. -1.
</event>
<event>
 5   0  0.3203527E-05  0.1871564E+04  0.7818609E-02  0.8669142E-01
       -1   -1    0    0    0  501  0.00000000000E+00  0.00000000000E+00  0.69677252912E+03  0.69677252913E+03  0.50400001928E-02 0.  1.
        1   -1    0    0  501    0  0.00000000000E+00  0.00000000000E+00 -0.12567769285E+04  0.12567769285E+04  0.50400001928E-02 0. -1.
    10030    2    1    2    0    0  0.00000000000E+00  0.00000000000E+00 -0.56000439935E+03  0.19535494576E+04  0.18715636660E+04 0.  0.
        1    1    3    3  502    0 -0.93560124134E+03  0.17014358254E+02 -0.27273534503E+03  0.97469161258E+03  0.50400001928E-02 0. -1.
       -1    1    3    3    0  502  0.93560124134E+03 -0.17014358254E+02 -0.28726905432E+03  0.97885784503E+03  0.50400001928E-02 0.  1.
</event>
<event>
 5   0  0.3144958E-05  0.1902132E+04  0.7818609E-02  0.8653796E-01
        1   -1    0    0  501    0  0.00000000000E+00  0.00000000000E+00  0.98559244460E+03  0.98559244462E+03  0.50400001928E-02 0.  1.
       -1   -1    0    0    0  501  0.00000000000E+00  0.00000000000E+00 -0.91774909563E+03  0.91774909564E+03  0.50400001928E-02 0. -1.
    10030    2    1    2    0    0  0.00000000000E+00  0.00000000000E+00  0.67843348974E+02  0.19033415403E+04  0.19021320403E+04 0.  0.
        4    1    3    3  502    0  0.51541706616E+03  0.78896932611E+03 -0.94212911678E+02  0.94710349764E+03  0.12699999809E+01 0. -1.
       -4    1    3    3    0  502 -0.51541706616E+03 -0.78896932611E+03  0.16205626065E+03  0.95623804261E+03  0.12699999809E+01 0.  1.
</event>
<event>
 5   0  0.3147063E-05  0.1898884E+04  0.7818609E-02  0.8655412E-01
       -1   -1    0    0    0  501  0.00000000000E+00  0.00000000000E+00  0.10264295369E+04  0.10264295369E+04  0.50400001928E-02 0.  1.
        1   -1    0    0  501    0  0.00000000000E+00  0.00000000000E+00 -0.87822921453E+03  0.87822921455E+03  0.50400001928E-02 0. -1.
    10030    2    1    2    0    0  0.00000000000E+00  0.00000000000E+00  0.14820032234E+03  0.19046587514E+04  0.18988843103E+04 0.  0.
        5    1    3    3  502    0  0.47443127101E+03 -0.82181024934E+03  0.43002669883E+02  0.94990969910E+03  0.46999998093E+01 0. -1.
       -5    1    3    3    0  502 -0.47443127101E+03  0.82181024934E+03  0.10519765246E+03  0.95474905232E+03  0.46999998093E+01 0.  1.
</event>
<event>
 5   0  0.6395992E-05  0.1900254E+04  0.7818609E-02  0.8654730E-01
       -2   -1    0    0    0  501  0.00000000000E+00  0.00000000000E+00  0.84845726476E+03  0.84845726477E+03  0.25500000920E-02 0.  1.
        2   -1    0    0  501    0  0.00000000000E+00  0.00000000000E+00 -0.10639802671E+04  0.10639802671E+04  0.25500000920E-02 0. -1.
    10030    2    1    2    0    0  0.00000000000E+00  0.00000000000E+00 -0.21552300236E+03  0.19124375319E+04  0.19002544958E+04 0.  0.
        4    1    3    3  502    0 -0.75270489582E+03 -0.43803315163E+03 -0.49006861147E+03  0.99930303660E+03  0.12699999809E+01 0. -1.
       -4    1    3    3    0  502  0.75270489582E+03  0.43803315163E+03  0.27454560911E+03  0.91313449529E+03  0.12699999809E+01 0.  1.
</event>
<event>
 5   0  0.3147063E-05  0.1906463E+04  0.7818609E-02  0.8651646E-01
        1   -1    0    0  501    0  0.00000000000E+00  0.00000000000E+00  0.90156756512E+03  0.90156756513E+03  0.50400001928E-02 0. -1.
       -1   -1    0    0    0  501  0.00000000000E+00  0.00000000000E+00 -0.10078554874E+04  0.10078554875E+04  0.50400001928E-02 0.  1.
    10030    2    1    2    0    0  0.00000000000E+00  0.00000000000E+00 -0.10628792233E+03  0.19094230526E+04  0.19064625020E+04 0.  0.
        5    1    3    3  502    0 -0.15408442325E+03 -0.46679000001E+02  0.88783979712E+03  0.90233172054E+03  0.46999998093E+01 0. -1.
       -5    1    3    3    0  502  0.15408442325E+03  0.46679000001E+02 -0.99412771945E+03  0.10070913321E+04  0.46999998093E+01 0.  1.
</event>
<event>
 5   0  0.6452182E-05  0.1894403E+04  0.7818609E-02  0.8657648E-01
       -2   -1    0    0    0  501  0.00000000000E+00  0.00000000000E+00  0.98012019271E+03  0.98012019271E+03  0.25500000920E-02 0.  1.
        2   -1    0    0  501    0  0.00000000000E+00  0.00000000000E+00 -0.91538798746E+03  0.91538798746E+03  0.25500000920E-02 0. -1.
    10030    2    1    2    0    0  0.00000000000E+00  0.00000000000E+00  0.64732205249E+02  0.18955081802E+04  0.18944025451E+04 0.  0.
        3    1    3    3  502    0  0.60933600841E+03  0.37184452745E+03 -0.59059787512E+03  0.92647967276E+03  0.10100000352E+00 0. -1.
       -3    1    3    3    0  502 -0.60933600841E+03 -0.37184452745E+03  0.65533008037E+03  0.96902850741E+03  0.10100000352E+00 0.  1.
</event>
<event>
 5   0  0.3147063E-05  0.1904223E+04  0.7818609E-02  0.8652757E-01
        1   -1    0    0  501    0  0.00000000000E+00  0.00000000000E+00  0.10655596355E+04  0.10655596355E+04  0.50400001928E-02 0. -1.
       -1   -1    0    0    0  501  0.00000000000E+00  0.00000000000E+00 -0.85074171274E+03  0.85074171276E+03  0.50400001928E-02 0.  1.
    10030    2    1    2    0    0  0.00000000000E+00  0.00000000000E+00  0.21481792279E+03  0.19163013483E+04  0.19042227069E+04 0.  0.
        5    1    3    3  502    0  0.81712257805E+03  0.43322713865E+03  0.33493794287E+03  0.98365673728E+03  0.46999998093E+01 0.  1.
       -5    1    3    3    0  502 -0.81712257805E+03 -0.43322713865E+03 -0.12012002009E+03  0.93264461101E+03  0.46999998093E+01 0. -1.
</event>
<event>
 5   0  0.3083469E-05  0.1897792E+04  0.7818609E-02  0.8655956E-01
        1   -1    0    0  501    0  0.00000000000E+00  0.00000000000E+00  0.76807578440E+03  0.76807578442E+03  0.50400001928E-02 0. -1.
       -1   -1    0    0    0  501  0.00000000000E+00  0.00000000000E+00 -0.11722847550E+04  0.11722847550E+04  0.50400001928E-02 0.  1.
    10030    2    1    2    0    0  0.00000000000E+00  0.00000000000E+00 -0.40420897059E+03  0.19403605394E+04  0.18977919093E+04 0.  0.
        3    1    3    3  502    0  0.88470445858E+03 -0.80276961356E+02 -0.54313859162E+03  0.10412232755E+04  0.10100000352E+00 0.  1.
       -3    1    3    3    0  502 -0.88470445858E+03  0.80276961356E+02  0.13892962102E+03  0.89913726392E+03  0.10100000352E+00 0. -1.
</event>
<event>
 5   0  0.3083469E-05  0.1879095E+04  0.7818609E-02  0.8665333E-01
       -1   -1    0    0    0  501  0.00000000000E+00  0.00000000000E+00  0.59628534209E+03  0.59628534211E+03  0.50400001928E-02 0. -1.
        1   -1    0    0  501    0  0.00000000000E+00  0.00000000000E+00 -0.14804143288E+04  0.14804143288E+04  0.50400001928E-02 0.  1.
    10030    2    1    2    0    0  0.00000000000E+00  0.00000000000E+00 -0.88412898674E+03  0.20766996710E+04  0.18790948508E+04 0.  0.
        3    1    3    3  502    0  0.38510946302E+02 -0.92639154854E+03 -0.60990676389E+03  0.11098065890E+04  0.10100000352E+00 0.  1.
       -3    1    3    3    0  502 -0.38510946302E+02  0.92639154854E+03 -0.27422222285E+03  0.96689308194E+03  0.10100000352E+00 0. -1.
</event>
<event>
 5   0  0.3147063E-05  0.1920438E+04  0.7818609E-02  0.8644749E-01
        1   -1    0    0  501    0  0.00000000000E+00  0.00000000000E+00  0.64837308785E+03  0.64837308787E+03  0.50400001928E-02 0. -1.
       -1   -1    0    0    0  501  0.00000000000E+00  0.00000000000E+00 -0.14220529797E+04  0.14220529797E+04  0.50400001928E-02 0.  1.
    10030    2    1    2    0    0  0.00000000000E+00  0.00000000000E+00 -0.77367989182E+03  0.20704260676E+04  0.19204383682E+04 0.  0.
        5    1    3    3  502    0 -0.36141808954E+03  0.56517718679E+03  0.35380076416E+03  0.75844931184E+03  0.46999998093E+01 0. -1.
       -5    1    3    3    0  502  0.36141808954E+03 -0.56517718679E+03 -0.11274806560E+04  0.13119767557E+04  0.46999998093E+01 0.  1.
</event>
<event>
 5   0  0.6395992E-05  0.1908202E+04  0.7818609E-02  0.8650784E-01
        2   -1    0    0  501    0  0.00000000000E+00  0.00000000000E+00  0.18676628375E+04  0.18676628375E+04  0.25500000920E-02 0. -1.
       -2   -1    0    0    0  501  0.00000000000E+00  0.00000000000E+00 -0.48740539692E+03  0.48740539693E+03  0.25500000920E-02 0.  1.
    10030    2    1    2    0    0  0.00000000000E+00  0.00000000000E+00  0.13802574406E+04  0.23550682344E+04  0.19082022394E+04 0.  0.
        4    1    3    3  502    0  0.38604498882E+03  0.74005679836E+03  0.11973842323E+03  0.84324000207E+03  0.12699999809E+01 0.  1.
       -4    1    3    3    0  502 -0.38604498882E+03 -0.74005679836E+03  0.12605190174E+04  0.15118282324E+04  0.12699999809E+01 0. -1.
</event>
<event>
 5   0  0.6452182E-05  0.1903732E+04  0.7818609E-02  0.8653001E-01
        2   -1    0    0  501    0  0.00000000000E+00  0.00000000000E+00  0.17937148624E+04  0.17937148624E+04  0.25500000920E-02 0.  1.
       -2   -1    0    0    0  501  0.00000000000E+00  0.00000000000E+00 -0.50512415415E+03  0.50512415416E+03  0.25500000920E-02 0. -1.
    10030    2    1    2    0    0  0.00000000000E+00  0.00000000000E+00  0.12885907083E+04  0.22988390166E+04  0.19037318117E+04 0.  0.
        3    1    3    3  502    0  0.84960065841E+03 -0.37653948200E+03  0.39551374501E+03  0.10099675207E+04  0.10100000352E+00 0. -1.
       -3    1    3    3    0  502 -0.84960065841E+03  0.37653948200E+03  0.89307696326E+03  0.12888714958E+04  0.10100000352E+00 0.  1.
</event>
<event>
 5   0  0.6423388E-05  0.1912625E+04  0.7818609E-02  0.8648598E-01
        2   -1    0    0  501    0  0.00000000000E+00  0.00000000000E+00  0.12944851438E+04  0.12944851438E+04  0.25500000920E-02 0.  1.
       -2   -1    0    0    0  501  0.00000000000E+00  0.00000000000E+00 -0.70648429215E+03  0.70648429215E+03  0.25500000920E-02 0. -1.
    10030    2    1    2    0    0  0.00000000000E+00  0.00000000000E+00  0.58800085161E+03  0.20009694359E+04  0.19126248147E+04 0.  0.
        2    1    3    3  502    0  0.83241020161E+03  0.47075464015E+03  0.29828157124E+03  0.10017427667E+04  0.25500000920E-02 0.  1.
       -2    1    3    3    0  502 -0.83241020161E+03 -0.47075464015E+03  0.28971928037E+03  0.99922666918E+03  0.25500000920E-02 0. -1.
</event>
<event>
 5   0  0.6361762E-05  0.1910568E+04  0.7818609E-02  0.8649614E-01
       -2   -1    0    0    0  501  0.00000000000E+00  0.00000000000E+00  0.48978334225E+03  0.48978334225E+03  0.25500000920E-02 0.  1.
        2   -1    0    0  501    0  0.00000000000E+00  0.00000000000E+00 -0.18632065913E+04  0.18632065913E+04  0.25500000920E-02 0. -1.
    10030    2    1    2    0    0  0.00000000000E+00  0.00000000000E+00 -0.13734232491E+04  0.23529899336E+04  0.19105680324E+04 0.  0.
        1    1    3    3  502    0  0.23131368524E+03 -0.62950785260E+03 -0.15245215621E+04  0.16655185831E+04  0.50400001928E-02 0. -1.
       -1    1    3    3    0  502 -0.23131368524E+03  0.62950785260E+03  0.15109831300E+03  0.68747135045E+03  0.50400001928E-02 0.  1.
</event>
<event>
 5   0  0.6098377E-05  0.1898613E+04  0.7818609E-02  0.8655547E-01
        2   -1    0    0  501    0  0.00000000000E+00  0.00000000000E+00  0.77077124232E+03  0.77077124232E+03  0.25500000920E-02 0.  1.
       -2   -1    0    0    0  501  0.00000000000E+00  0.00000000000E+00 -0.11691960138E+04  0.11691960138E+04  0.25500000920E-02 0. -1.
    10030    2    1    2    0    0  0.00000000000E+00  0.00000000000E+00 -0.39842477150E+03  0.19399672561E+04  0.18986128242E+04 0.  0.
        5    1    3    3  502    0 -0.84746023172E+03 -0.41875566826E+03 -0.11004522853E+03  0.95167073947E+03  0.46999998093E+01 0.  1.
       -5    1    3    3    0  502  0.84746023172E+03  0.41875566826E+03 -0.28837954297E+03  0.98829651666E+03  0.46999998093E+01 0. -1.
</event>
<event>
 5   0  0.6452182E-05  0.1903364E+04  0.7818609E-02  0.8653184E-01
        2   -1    0    0  501    0  0.00000000000E+00  0.00000000000E+00  0.16303139913E+04  0.16303139913E+04  0.25500000920E-02 0.  1.
       -2   -1    0    0    0  501  0.00000000000E+00  0.00000000000E+00 -0.55553632321E+03  0.55553632321E+03  0.25500000920E-02 0. -1.
    10030    2    1    2    0    0  0.00000000000E+00  0.00000000000E+00  0.10747776681E+04  0.21858503145E+04  0.19033640119E+04 0.  0.
        3    1    3    3  502    0  0.52146829035E+03 -0.49122464440E+02 -0.37511746448E+03  0.64424786900E+03  0.10100000352E+00 0. -1.
       -3    1    3    3    0  502 -0.52146829035E+03  0.49122464440E+02  0.14498951326E+04  0.15416024455E+04  0.10100000352E+00 0.  1.
</event>
<event>
 5   0  0.3203527E-05  0.1898299E+04  0.7818609E-02  0.8655703E-01
        1   -1    0    0  501    0  0.00000000000E+00  0.00000000000E+00  0.99279266077E+03  0.99279266078E+03  0.50400001928E-02 0. -1.
       -1   -1    0    0    0  501  0.00000000000E+00  0.00000000000E+00 -0.90742502606E+03  0.90742502608E+03  0.50400001928E-02 0.  1.
    10030    2    1    2    0    0  0.00000000000E+00  0.00000000000E+00  0.85367634707E+02  0.19002176869E+04  0.18982991399E+04 0.  0.
        1    1    3    3  502    0 -0.49172071151E+03 -0.81151030428E+03  0.19279126400E+02  0.94905738331E+03  0.50400001928E-02 0.  1.
       -1    1    3    3    0  502  0.49172071151E+03  0.81151030428E+03  0.66088508307E+02  0.95116030354E+03  0.50400001928E-02 0. -1.
</event>
<event>
 5   0  0.3083469E-05  0.1893922E+04  0.7818609E-02  0.8657888E-01
       -1   -1    0    0    0  501  0.00000000000E+00  0.00000000000E+00  0.13060961708E+04  0.13060961708E+04  0.50400001928E-02 0. -1.
        1   -1    0    0  501    0  0.00000000000E+00  0.00000000000E+00 -0.68657635219E+03  0.68657635221E+03  0.50400001928E-02 0.  1.
    10030    2    1    2    0    0  0.00000000000E+00  0.00000000000E+00  0.61951981861E+03  0.19926725230E+04  0.18939215872E+04 0.  0.
        3    1    3    3  502    0 -0.26530665227E+02 -0.77701932644E+03  0.87857015888E+03  0.11731787776E+04  0.10100000352E+00 0. -1.
       -3    1    3    3    0  502  0.26530665227E+02  0.77701932644E+03 -0.25905034027E+03  0.81949374546E+03  0.10100000352E+00 0.  1.
</event>
<event>
 5   0  0.3147063E-05  0.1900668E+04  0.7818609E-02  0.8654524E-01
        1   -1    0    0  501    0  0.00000000000E+00  0.00000000000E+00  0.99876652611E+03  0.99876652612E+03  0.50400001928E-02 0. -1.
       -1   -1    0    0    0  501  0.00000000000E+00  0.00000000000E+00 -0.90424978913E+03  0.90424978915E+03  0.50400001928E-02 0.  1.
    10030    2    1    2    0    0  0.00000000000E+00  0.00000000000E+00  0.94516736976E+02  0.19030163153E+04  0.19006676939E+04 0.  0.
        5    1    3    3  502    0 -0.29402936897E+03  0.86578572284E+03 -0.21204841901E+03  0.93862921843E+03  0.46999998093E+01 0. -1.
       -5    1    3    3    0  502  0.29402936897E+03 -0.86578572284E+03  0.30656515599E+03  0.96438709684E+03  0.46999998093E+01 0.  1.
</event>
<event>
 5   0  0.3083469E-05  0.1890904E+04  0.7818609E-02  0.8659397E-01
        1   -1    0    0  501    0  0.00000000000E+00  0.00000000000E+00  0.70392523205E+03  0.70392523207E+03  0.50400001928E-02 0.  1.
       -1   -1    0    0    0  501  0.00000000000E+00  0.00000000000E+00 -0.12698499293E+04  0.12698499293E+04  0.50400001928E-02 0. -1.
    10030    2    1    2    0    0  0.00000000000E+00  0.00000000000E+00 -0.56592469726E+03  0.19737751614E+04  0.18909039174E+04 0.  0.
        3    1    3    3  502    0 -0.93388274618E+03  0.12569909442E+03 -0.36342605330E+03  0.10099582924E+04  0.10100000352E+00 0. -1.
       -3    1    3    3    0  502  0.93388274618E+03 -0.12569909442E+03 -0.20249864396E+03  0.96381686899E+03  0.10100000352E+00 0.  1.
</event>
<event>
 5   0  0.6423388E-05  0.1901678E+04  0.7818609E-02  0.8654022E-01
        2   -1    0    0  501    0  0.00000000000E+00  0.00000000000E+00  0.12343830228E+04  0.12343830228E+04  0.25500000920E-02 0.  1.
       -2   -1    0    0    0  501  0.00000000000E+00  0.00000000000E+00 -0.73242616811E+03  0.73242616812E+03  0.25500000920E-02 0. -1.
    10030    2    1    2    0    0  0.00000000000E+00  0.00000000000E+00  0.50195685469E+03  0.19668091909E+04  0.19016776040E+04 0.  0.
        2    1    3    3  502    0  0.50377672882E+03 -0.75013423576E+03 -0.55135087930E+02  0.90528020087E+03  0.25500000920E-02 0. -1.
       -2    1    3    3    0  502 -0.50377672882E+03  0.75013423576E+03  0.55709194262E+03  0.10615289900E+04  0.25500000920E-02 0.  1.
</event>
<event>
 5   0  0.6452182E-05  0.1898296E+04  0.7818609E-02  0.8655705E-01
       -2   -1    0    0    0  501  0.00000000000E+00  0.00000000000E+00  0.85174512877E+03  0.85174512878E+03  0.25500000920E-02 0.  1.
        2   -1    0    0  501    0  0.00000000000E+00  0.00000000000E+00 -0.10576890804E+04  0.10576890804E+04  0.25500000920E-02 0. -1.
    10030    2    1    2    0    0  0.00000000000E+00  0.00000000000E+00 -0.20594395162E+03  0.19094342092E+04  0.18982955744E+04 0.  0.
        3    1    3    3  502    0  0.21330093175E+02 -0.21087755017E+03  0.82763625197E+03  0.85434541599E+03  0.10100000352E+00 0.  1.
       -3    1    3    3    0  502 -0.21330093175E+02  0.21087755017E+03 -0.10335802036E+04  0.10550887932E+04  0.10100000352E+00 0. -1.
</event>
<event>
 5   0  0.3083469E-05  0.1897958E+04  0.7818609E-02  0.8655873E-01
        1   -1    0    0  501    0  0.00000000000E+00  0.00000000000E+00  0.12221185376E+04  0.12221185376E+04  0.50400001928E-02 0. -1.
       -1   -1    0    0    0  501  0.00000000000E+00  0.00000000000E+00 -0.73688557542E+03  0.73688557544E+03  0.50400001928E-02 0.  1.
    10030    2    1    2    0    0  0.00000000000E+00  0.00000000000E+00  0.48523296213E+03  0.19590041130E+04  0.18979583998E+04 0.  0.
        3    1    3    3  502    0  0.31349337175E+03 -0.70364890540E+03  0.81466404997E+03  0.11211946311E+04  0.10100000352E+00 0. -1.
       -3    1    3    3    0  502 -0.31349337175E+03  0.70364890540E+03 -0.32943108784E+03  0.83780948195E+03  0.10100000352E+00 0.  1.
</event>
<event>
 5   0  0.3086139E-05  0.1898619E+04  0.7818609E-02  0.8655544E-01
       -1   -1    0    0    0  501  0.00000000000E+00  0.00000000000E+00  0.10301450859E+04  0.10301450859E+04  0.50400001928E-02 0.  1.
        1   -1    0    0  501    0  0.00000000000E+00  0.00000000000E+00 -0.87481736595E+03  0.87481736596E+03  0.50400001928E-02 0. -1.
    10030    2    1    2    0    0  0.00000000000E+00  0.00000000000E+00  0.15532771997E+03  0.19049624519E+04  0.18986192990E+04 0.  0.
        2    1    3    3  502    0  0.22291436989E+03  0.45658774243E+03  0.88223170142E+03  0.10180844552E+04  0.25500000920E-02 0.  1.
       -2    1    3    3    0  502 -0.22291436989E+03 -0.45658774243E+03 -0.72690398145E+03  0.88687799673E+03  0.25500000920E-02 0. -1.
</event>
<event>
 5   0  0.6423388E-05  0.1930906E+04  0.7818609E-02  0.8639624E-01
        2   -1    0    0  501    0  0.00000000000E+00  0.00000000000E+00  0.24360994114E+04  0.24360994114E+04  0.25500000920E-02 0.  1.
       -2   -1    0    0    0  501  0.00000000000E+00  0.00000000000E+00 -0.38261951055E+03  0.38261951056E+03  0.25500000920E-02 0. -1.
    10030    2    1    2    0    0  0.00000000000E+00  0.00000000000E+00  0.20534799008E+04  0.28187189220E+04  0.19309056574E+04 0.  0.
        2    1    3    3  502    0  0.36030806094E+03 -0.43459557206E+03  0.21700499492E+04  0.22422783038E+04  0.25500000920E-02 0.  1.
       -2    1    3    3    0  502 -0.36030806094E+03  0.43459557206E+03 -0.11657004832E+03  0.57644061811E+03  0.25500000920E-02 0. -1.
</event>
<event>
 5   0  0.3144958E-05  0.1910560E+04  0.7818609E-02  0.8649618E-01
        1   -1    0    0  501    0  0.00000000000E+00  0.00000000000E+00  0.17526588801E+04  0.17526588801E+04  0.50400001928E-02 0. -1.
       -1   -1    0    0    0  501  0.00000000000E+00  0.00000000000E+00 -0.52067183717E+03  0.52067183719E+03  0.50400001928E-02 0.  1.
    10030    2    1    2    0    0  0.00000000000E+00  0.00000000000E+00  0.12319870429E+04  0.22733307173E+04  0.19105602519E+04 0.  0.
        4    1    3    3  502    0  0.32937664594E+03 -0.84354928850E+03  0.25411820089E+03  0.94055411856E+03  0.12699999809E+01 0. -1.
       -4    1    3    3    0  502 -0.32937664594E+03  0.84354928850E+03  0.97786884204E+03  0.13327765987E+04  0.12699999809E+01 0.  1.
</event>
<event>
 5   0  0.6361762E-05  0.1906057E+04  0.7818609E-02  0.8651847E-01
       -2   -1    0    0    0  501  0.00000000000E+00  0.00000000000E+00  0.42766739370E+03  0.42766739370E+03  0.25500000920E-02 0. -1.
        2   -1    0    0  501    0  0.00000000000E+00  0.00000000000E+00 -0.21237616511E+04  0.21237616511E+04  0.25500000920E-02 0.  1.
    10030    2    1    2    0    0  0.00000000000E+00  0.00000000000E+00 -0.16960942575E+04  0.25514290449E+04  0.19060573026E+04 0.  0.
        1    1    3    3  502    0 -0.30970138772E+02 -0.36377122514E+03 -0.20264434456E+04  0.20590681611E+04  0.50400001928E-02 0.  1.
       -1    1    3    3    0  502  0.30970138772E+02  0.36377122514E+03  0.33034918815E+03  0.49236088377E+03  0.50400001928E-02 0. -1.
</event>
<event>
 5   0  0.3144958E-05  0.1921571E+04  0.7818609E-02  0.8644193E-01
       -1   -1    0    0    0  501  0.00000000000E+00  0.00000000000E+00  0.37480395155E+03  0.37480395159E+03  0.50400001928E-02 0. -1.
        1   -1    0    0  501    0  0.00000000000E+00  0.00000000000E+00 -0.24629106820E+04  0.24629106820E+04  0.50400001928E-02 0.  1.
    10030    2    1    2    0    0  0.00000000000E+00  0.00000000000E+00 -0.20881067305E+04  0.28377146336E+04  0.19215708741E+04 0.  0.
        4    1    3    3  502    0 -0.27642173434E+03 -0.11458248589E+03 -0.23923426082E+04  0.24109838011E+04  0.12699999809E+01 0.  1.
       -4    1    3    3    0  502  0.27642173434E+03  0.11458248589E+03  0.30423587768E+03  0.42673083256E+03  0.12699999809E+01 0. -1.
</event>
<event>
 5   0  0.3083469E-05  0.1909527E+04  0.7818609E-02  0.8650128E-01
       -1   -1    0    0    0  501  0.00000000000E+00  0.00000000000E+00  0.95125964448E+03  0.95125964450E+03  0.50400001928E-02 0.  1.
        1   -1    0    0  501    0  0.00000000000E+00  0.00000000000E+00 -0.95828061070E+03  0.95828061072E+03  0.50400001928E-02 0. -1.
    10030    2    1    2    0    0  0.00000000000E+00  0.00000000000E+00 -0.70209662199E+01  0.19095402552E+04  0.19095273479E+04 0.  0.
        3    1    3    3  502    0 -0.21641105344E+03  0.70558792251E+03 -0.60922540148E+03  0.95699721026E+03  0.10100000352E+00 0. -1.
       -3    1    3    3    0  502  0.21641105344E+03 -0.70558792251E+03  0.60220443526E+03  0.95254304495E+03  0.10100000352E+00 0.  1.
</event>
<event>
 5   0  0.3086139E-05  0.1895962E+04  0.7818609E-02  0.8656869E-01
        1   -1    0    0  501    0  0.00000000000E+00  0.00000000000E+00  0.11701941829E+04  0.11701941829E+04  0.50400001928E-02 0. -1.
       -1   -1    0    0    0  501  0.00000000000E+00  0.00000000000E+00 -0.76796452256E+03  0.76796452258E+03  0.50400001928E-02 0.  1.
    10030    2    1    2    0    0  0.00000000000E+00  0.00000000000E+00  0.40222966036E+03  0.19381587055E+04  0.18959616209E+04 0.  0.
        2    1    3    3  502    0  0.34658513125E+03  0.84971019538E+03 -0.41956453648E+02  0.91863431971E+03  0.25500000920E-02 0. -1.
       -2    1    3    3    0  502 -0.34658513125E+03 -0.84971019538E+03  0.44418611401E+03  0.10195243858E+04  0.25500000920E-02 0.  1.
</event>
<event>
 5   0  0.6361762E-05  0.1885033E+04  0.7818609E-02  0.8662343E-01
       -2   -1    0    0    0  501  0.00000000000E+00  0.00000000000E+00  0.54339712594E+03  0.54339712595E+03  0.25500000920E-02 0. -1.
        2   -1    0    0  501    0  0.00000000000E+00  0.00000000000E+00 -0.16347843185E+04  0.16347843185E+04  0.25500000920E-02 0.  1.
    10030    2    1    2    0    0  0.00000000000E+00  0.00000000000E+00 -0.10913871925E+04  0.21781814444E+04  0.18850327320E+04 0.  0.
        1    1    3    3  502    0  0.78905897332E+03  0.22452606376E+03 -0.10818708074E+04  0.13577446228E+04  0.50400001928E-02 0.  1.
       -1    1    3    3    0  502 -0.78905897332E+03 -0.22452606376E+03 -0.95163851042E+01  0.82043682164E+03  0.50400001928E-02 0. -1.
</event>
<event>
 5   0  0.6098377E-05  0.1912070E+04  0.7818609E-02  0.8648871E-01
        2   -1    0    0  501    0  0.00000000000E+00  0.00000000000E+00  0.16422037353E+04  0.16422037353E+04  0.25500000920E-02 0.  1.
       -2   -1    0    0    0  501  0.00000000000E+00  0.00000000000E+00 -0.55657116819E+03  0.55657116819E+03  0.25500000920E-02 0. -1.
    10030    2    1    2    0    0  0.00000000000E+00  0.00000000000E+00  0.10856325671E+04  0.21987749035E+04  0.19120703453E+04 0.  0.
        5    1    3    3  502    0  0.81714031070E+03  0.29396188800E+03  0.83055154303E+02  0.87238301659E+03  0.46999998093E+01 0. -1.
       -5    1    3    3    0  502 -0.81714031070E+03 -0.29396188800E+03  0.10025774128E+04  0.13263918869E+04  0.46999998093E+01 0.  1.
</event>
<event>
 5   0  0.3147063E-05  0.1902689E+04  0.7818609E-02  0.8653519E-01
        1   -1    0    0  501    0  0.00000000000E+00  0.00000000000E+00  0.18848620404E+04  0.18848620404E+04  0.50400001928E-02 0.  1.
       -1   -1    0    0    0  501  0.00000000000E+00  0.00000000000E+00 -0.48017097677E+03  0.48017097679E+03  0.50400001928E-02 0. -1.
    10030    2    1    2    0    0  0.00000000000E+00  0.00000000000E+00  0.14046910636E+04  0.23650330172E+04  0.19026886735E+04 0.  0.
        5    1    3    3  502    0  0.10130783528E+03 -0.34459793893E+02 -0.47265205140E+03  0.48463677799E+03  0.46999998093E+01 0. -1.
       -5    1    3    3    0  502 -0.10130783528E+03  0.34459793893E+02  0.18773431150E+04  0.18803962392E+04  0.46999998093E+01 0.  1.
</event>
<event>
 5   0  0.6395992E-05  0.1845587E+04  0.7818609E-02  0.8682425E-01
       -2   -1    0    0    0  501  0.00000000000E+00  0.00000000000E+00  0.63440209085E+03  0.63440209086E+03  0.25500000920E-02 0.  1.
        2   -1    0    0  501    0  0.00000000000E+00  0.00000000000E+00 -0.13422845227E+04  0.13422845227E+04  0.25500000920E-02 0. -1.
    10030    2    1    2    0    0  0.00000000000E+00  0.00000000000E+00 -0.70788243182E+03  0.19766866135E+04  0.18455872862E+04 0.  0.
        4    1    3    3  502    0 -0.73453611898E+03  0.55738490873E+03 -0.31495134019E+03  0.97438042168E+03  0.12699999809E+01 0.  1.
       -4    1    3    3    0  502  0.73453611898E+03 -0.55738490873E+03 -0.39293109163E+03  0.10023061919E+04  0.12699999809E+01 0. -1.
</event>
<event>
 5   0  0.3203527E-05  0.1890449E+04  0.7818609E-02  0.8659625E-01
        1   -1    0    0  501    0  0.00000000000E+00  0.00000000000E+00  0.97640879524E+03  0.97640879525E+03  0.50400001928E-02 0.  1.
       -1   -1    0    0    0  501  0.00000000000E+00  0.00000000000E+00 -0.91503568104E+03  0.91503568106E+03  0.50400001928E-02 0. -1.
    10030    2    1    2    0    0  0.00000000000E+00  0.00000000000E+00  0.61373114194E+02  0.18914444763E+04  0.18904485044E+04 0.  0.
        1    1    3    3  502    0  0.44299904969E+03  0.47159219284E+03 -0.65873490851E+03  0.92335206400E+03  0.50400001928E-02 0. -1.
       -1    1    3    3    0  502 -0.44299904969E+03 -0.47159219284E+03  0.72010802271E+03  0.96809241231E+03  0.50400001928E-02 0.  1.
</event>
<event>
 5   0  0.3147063E-05  0.1904612E+04  0.7818609E-02  0.8652564E-01
       -1   -1    0    0    0  501  0.00000000000E+00  0.00000000000E+00  0.83822260226E+03  0.83822260228E+03  0.50400001928E-02 0.  1.
        1   -1    0    0  501    0  0.00000000000E+00  0.00000000000E+00 -0.10819162209E+04  0.10819162209E+04  0.50400001928E-02 0. -1.
    10030    2    1    2    0    0  0.00000000000E+00  0.00000000000E+00 -0.24369361865E+03  0.19201388232E+04  0.19046119081E+04 0.  0.
        5    1    3    3  502    0 -0.83472794546E+03 -0.34693419557E+03 -0.42383925780E+03  0.99839665736E+03  0.46999998093E+01 0.  1.
       -5    1    3    3    0  502  0.83472794546E+03  0.34693419557E+03  0.18014563915E+03  0.92174216584E+03  0.46999998093E+01 0. -1.
</event>
<event>
 5   0  0.3086139E-05  0.1903607E+04  0.7818609E-02  0.8653063E-01
        1   -1    0    0  501    0  0.00000000000E+00  0.00000000000E+00  0.84051285616E+03  0.84051285617E+03  0.50400001928E-02 0.  1.
       -1   -1    0    0    0  501  0.00000000000E+00  0.00000000000E+00 -0.10778301037E+04  0.10778301037E+04  0.50400001928E-02 0. -1.
    10030    2    1    2    0    0  0.00000000000E+00  0.00000000000E+00 -0.23731724756E+03  0.19183429599E+04  0.19036071643E+04 0.  0.
        2    1    3    3  502    0  0.31816272843E+03 -0.78218339067E+03  0.32393552734E+03  0.90441837901E+03  0.25500000920E-02 0.  1.
       -2    1    3    3    0  502 -0.31816272843E+03  0.78218339067E+03 -0.56125277489E+03  0.10139245809E+04  0.25500000920E-02 0. -1.
</event>
<event>
 5   0  0.3086139E-05  0.1897654E+04  0.7818609E-02  0.8656025E-01
        1   -1    0    0  501    0  0.00000000000E+00  0.00000000000E+00  0.22199773148E+04  0.22199773148E+04  0.50400001928E-02 0.  1.
       -1   -1    0    0    0  501  0.00000000000E+00  0.00000000000E+00 -0.40553236141E+03  0.40553236145E+03  0.50400001928E-02 0. -1.
    10030    2    1    2    0    0  0.00000000000E+00  0.00000000000E+00  0.18144449533E+04  0.26255096762E+04  0.18976539651E+04 0.  0.
        2    1    3    3  502    0 -0.76209523425E+03  0.56521811717E+03  0.91201060694E+03  0.13160638333E+04  0.25500000920E-02 0.  1.
       -2    1    3    3    0  502  0.76209523425E+03 -0.56521811717E+03  0.90243434641E+03  0.13094458430E+04  0.25500000920E-02 0. -1.
</event>
<event>
 5   0  0.3147063E-05  0.1899125E+04  0.7818609E-02  0.8655292E-01
       -1   -1    0    0    0  501  0.00000000000E+00  0.00000000000E+00  0.87036879001E+03  0.87036879003E+03  0.50400001928E-02 0. -1.
        1   -1    0    0  501    0  0.00000000000E+00  0.00000000000E+00 -0.10359616983E+04  0.10359616983E+04  0.50400001928E-02 0.  1.
    10030    2    1    2    0    0  0.00000000000E+00  0.00000000000E+00 -0.16559290825E+03  0.19063304883E+04  0.18991247772E+04 0.  0.
        5    1    3    3  502    0  0.83812824242E+03  0.38783358887E+03  0.13888712381E+03  0.93390875709E+03  0.46999998093E+01 0. -1.
       -5    1    3    3    0  502 -0.83812824242E+03 -0.38783358887E+03 -0.30448003206E+03  0.97242173121E+03  0.46999998093E+01 0.  1.
</event>
<event>
 5   0  0.3147063E-05  0.1894948E+04  0.7818609E-02  0.8657375E-01
        1   -1    0    0  501    0  0.00000000000E+00  0.00000000000E+00  0.23252905239E+04  0.23252905239E+04  0.50400001928E-02 0. -1.
       -1   -1    0    0    0  501  0.00000000000E+00  0.00000000000E+00 -0.38606219480E+03  0.38606219483E+03  0.50400001928E-02 0.  1.
    10030    2    1    2    0    0  0.00000000000E+00  0.00000000000E+00  0.19392283291E+04  0.27113527188E+04  0.18949477705E+04 0.  0.
        5    1    3    3  502    0 -0.46392013246E+03  0.67270605470E+03  0.28351644149E+03  0.86496184189E+03  0.46999998093E+01 0.  1.
       -5    1    3    3    0  502  0.46392013246E+03 -0.67270605470E+03  0.16557118876E+04  0.18463908769E+04  0.46999998093E+01 0. -1.
</event>
<event>
 5   0  0.3086139E-05  0.1901191E+04  0.7818609E-02  0.8654264E-01
       -1   -1    0    0    0  501  0.00000000000E+00  0.00000000000E+00  0.91662366818E+03  0.91662366819E+03  0.50400001928E-02 0.  1.
        1   -1    0    0  501    0  0.00000000000E+00  0.00000000000E+00 -0.98582608166E+03  0.98582608167E+03  0.50400001928E-02 0. -1.
    10030    2    1    2    0    0  0.00000000000E+00  0.00000000000E+00 -0.69202413479E+02  0.19024497499E+04  0.19011906997E+04 0.  0.
        2    1    3    3  502    0 -0.80698829981E+03  0.14934551086E+03 -0.51460348080E+03  0.96868516046E+03  0.25500000920E-02 0. -1.
       -2    1    3    3    0  502  0.80698829981E+03 -0.14934551086E+03  0.44540106732E+03  0.93376458940E+03  0.25500000920E-02 0.  1.
</event>
<event>
 5   0  0.3086139E-05  0.1915233E+04  0.7818609E-02  0.8647311E-01
        1   -1    0    0  501    0  0.00000000000E+00  0.00000000000E+00  0.66117932201E+03  0.66117932203E+03  0.50400001928E-02 0. -1.
       -1   -1    0    0    0  501  0.00000000000E+00  0.00000000000E+00 -0.13869597605E+04  0.13869597605E+04  0.50400001928E-02 0.  1.
    10030    2    1    2    0    0  0.00000000000E+00  0.00000000000E+00 -0.72578043847E+03  0.20481390825E+04  0.19152327421E+04 0.  0.
        2    1    3    3  502    0 -0.77089858084E+03  0.34607131039E+03 -0.84468666465E+03  0.11947993703E+04  0.25500000920E-02 0.  1.
       -2    1    3    3    0  502  0.77089858084E+03 -0.34607131039E+03  0.11890622618E+03  0.85333971222E+03  0.25500000920E-02 0. -1.
</event>
<event>
 5   0  0.2279625E-05  0.1900850E+04  0.7818609E-02  0.8654433E-01
       -4   -1    0    0    0  501  0.00000000000E+00  0.00000000000E+00  0.12297448926E+04  0.12297455484E+04  0.12699999809E+01 0. -1.
        4   -1    0    0  501    0  0.00000000000E+00  0.00000000000E+00 -0.73454772279E+03  0.73454882067E+03  0.12699999809E+01 0.  1.
    10030    2    1    2    0    0  0.00000000000E+00  0.00000000000E+00  0.49519716980E+03  0.19642943690E+04  0.19008503706E+04 0.  0.
        5    1    3    3  502    0  0.23760467667E+03 -0.11446853870E+03  0.11911608203E+04  0.12200185320E+04  0.46999998093E+01 0. -1.
       -5    1    3    3    0  502 -0.23760467667E+03  0.11446853870E+03 -0.69596365050E+03  0.74427583700E+03  0.46999998093E+01 0.  1.
</event>
<event>
 5   0  0.6361762E-05  0.1906676E+04  0.7818609E-02  0.8651540E-01
        2   -1    0    0  501    0  0.00000000000E+00  0.00000000000E+00  0.11491845012E+04  0.11491845012E+04  0.25500000920E-02 0.  1.
       -2   -1    0    0    0  501  0.00000000000E+00  0.00000000000E+00 -0.79086802702E+03  0.79086802703E+03  0.25500000920E-02 0. -1.
    10030    2    1    2    0    0  0.00000000000E+00  0.00000000000E+00  0.35831647417E+03  0.19400525282E+04  0.19066759338E+04 0.  0.
        1    1    3    3  502    0  0.37880746841E+03  0.31839864306E+03 -0.64995578804E+03  0.81689370205E+03  0.50400001928E-02 0. -1.
       -1    1    3    3    0  502 -0.37880746841E+03 -0.31839864306E+03  0.10082722622E+04  0.11231588262E+04  0.50400001928E-02 0.  1.
</event>
<event>
 5   0  0.3147063E-05  0.1904610E+04  0.7818609E-02  0.8652565E-01
       -1   -1    0    0    0  501  0.00000000000E+00  0.00000000000E+00  0.10799113375E+04  0.10799113375E+04  0.50400001928E-02 0.  1.
        1   -1    0    0  501    0  0.00000000000E+00  0.00000000000E+00 -0.83977747253E+03  0.83977747254E+03  0.50400001928E-02 0. -1.
    10030    2    1    2    0    0  0.00000000000E+00  0.00000000000E+00  0.24013386493E+03  0.19196888100E+04  0.19046104206E+04 0.  0.
        5    1    3    3  502    0  0.73989690430E+03 -0.42676161294E+03 -0.30432494872E+03  0.90675722643E+03  0.46999998093E+01 0. -1.
       -5    1    3    3    0  502 -0.73989690430E+03  0.42676161294E+03  0.54445881365E+03  0.10129315836E+04  0.46999998093E+01 0.  1.
</event>
<event>
 5   0  0.3086139E-05  0.1898267E+04  0.7818609E-02  0.8655719E-01
        1   -1    0    0  501    0  0.00000000000E+00  0.00000000000E+00  0.84829424460E+03  0.84829424462E+03  0.50400001928E-02 0.  1.
       -1   -1    0    0    0  501  0.00000000000E+00  0.00000000000E+00 -0.10619599369E+04  0.10619599369E+04  0.50400001928E-02 0. -1.
    10030    2    1    2    0    0  0.00000000000E+00  0.00000000000E+00 -0.21366569231E+03  0.19102541815E+04  0.18982671071E+04 0.  0.
        2    1    3    3  502    0  0.29699974069E+03 -0.14632144952E+03 -0.10019642029E+04  0.10552492959E+04  0.25500000920E-02 0. -1.
       -2    1    3    3    0  502 -0.29699974069E+03  0.14632144952E+03  0.78829851063E+03  0.85500488562E+03  0.25500000920E-02 0.  1.
</event>
<event>
 5   0  0.3203527E-05  0.1908601E+04  0.7818609E-02  0.8650587E-01
        1   -1    0    0  501    0  0.00000000000E+00  0.00000000000E+00  0.63004065053E+03  0.63004065055E+03  0.50400001928E-02 0. -1.
       -1   -1    0    0    0  501  0.00000000000E+00  0.00000000000E+00 -0.14454459601E+04  0.14454459601E+04  0.50400001928E-02 0.  1.
    10030    2    1    2    0    0  0.00000000000E+00  0.00000000000E+00 -0.81540530958E+03  0.20754866107E+04  0.19086012816E+04 0.  0.
        1    1    3    3  502    0  0.18067547738E+03  0.15189829847E+03 -0.14131999873E+04  0.14327773467E+04  0.50400001928E-02 0.  1.
       -1    1    3    3    0  502 -0.18067547738E+03 -0.15189829847E+03  0.59779467772E+03  0.64270926393E+03  0.50400001928E-02 0. -1.
</event>
<event>
 5   0  0.6098377E-05  0.1896949E+04  0.7818609E-02  0.8656377E-01
       -2   -1    0    0    0  501  0.00000000000E+00  0.00000000000E+00  0.41143858019E+03  0.41143858020E+03  0.25500000920E-02 0.  1.
        2   -1    0    0  501    0  0.00000000000E+00  0.00000000000E+00 -0.21864835535E+04  0.21864835535E+04  0.25500000920E-02 0. -1.
    10030    2    1    2    0    0  0.00000000000E+00  0.00000000000E+00 -0.17750449733E+04  0.25979221337E+04  0.18969488015E+04 0.  0.
        5    1    3    3  502    0  0.89567835043E+03 -0.22787007409E+03 -0.11793863453E+04  0.14983786970E+04  0.46999998093E+01 0. -1.
       -5    1    3    3    0  502 -0.89567835043E+03  0.22787007409E+03 -0.59565862799E+03  0.10995434367E+04  0.46999998093E+01 0.  1.
</event>
<event>
 5   0  0.6098377E-05  0.1900871E+04  0.7818609E-02  0.8654423E-01
       -2   -1    0    0    0  501  0.00000000000E+00  0.00000000000E+00  0.80202266025E+03  0.80202266026E+03  0.25500000920E-02 0. -1.
        2   -1    0    0  501    0  0.00000000000E+00  0.00000000000E+00 -0.11263123350E+04  0.11263123350E+04  0.25500000920E-02 0.  1.
    10030    2    1    2    0    0  0.00000000000E+00  0.00000000000E+00 -0.32428967474E+03  0.19283349953E+04  0.19008713951E+04 0.  0.
        5    1    3    3  502    0 -0.48650039960E+03  0.13619878470E+03  0.65451607791E+03  0.82682896297E+03  0.46999998093E+01 0. -1.
       -5    1    3    3    0  502  0.48650039960E+03 -0.13619878470E+03 -0.97880575265E+03  0.11015060323E+04  0.46999998093E+01 0.  1.
</event>
<event>
 5   0  0.6395992E-05  0.1898164E+04  0.7818609E-02  0.8655771E-01
       -2   -1    0    0    0  501  0.00000000000E+00  0.00000000000E+00  0.58854789042E+03  0.58854789043E+03  0.25500000920E-02 0.  1.
        2   -1    0    0  501    0  0.00000000000E+00  0.00000000000E+00 -0.15304729713E+04  0.15304729713E+04  0.25500000920E-02 0. -1.
    10030    2    1    2    0    0  0.00000000000E+00  0.00000000000E+00 -0.94192508089E+03  0.21190208617E+04  0.18981639957E+04 0.  0.
        4    1    3    3  502    0  0.48702324630E+03  0.80321022887E+03 -0.62246076513E+03  0.11268528436E+04  0.12699999809E+01 0.  1.
       -4    1    3    3    0  502 -0.48702324630E+03 -0.80321022887E+03 -0.31946431577E+03  0.99216801810E+03  0.12699999809E+01 0. -1.
</event>
<event>
 5   0  0.3147063E-05  0.1912580E+04  0.7818609E-02  0.8648620E-01
       -1   -1    0    0    0  501  0.00000000000E+00  0.00000000000E+00  0.43124068008E+03  0.43124068011E+03  0.50400001928E-02 0. -1.
        1   -1    0    0  501    0  0.00000000000E+00  0.00000000000E+00 -0.21206035184E+04  0.21206035184E+04  0.50400001928E-02 0.  1.
    10030    2    1    2    0    0  0.00000000000E+00  0.00000000000E+00 -0.16893628383E+04  0.25518441985E+04  0.19125799366E+04 0.  0.
        5    1    3    3  502    0 -0.22240628623E+03 -0.31138623629E+01 -0.20855938856E+04  0.20974265655E+04  0.46999998093E+01 0.  1.
       -5    1    3    3    0  502  0.22240628623E+03  0.31138623629E+01  0.39623104729E+03  0.45441763294E+03  0.46999998093E+01 0. -1.
</event>
<event>
 5   0  0.6423388E-05  0.1895711E+04  0.7818609E-02  0.8656994E-01
        2   -1    0    0  501    0  0.00000000000E+00  0.00000000000E+00  0.15772472278E+04  0.15772472278E+04  0.25500000920E-02 0.  1.
       -2   -1    0    0    0  501  0.00000000000E+00  0.00000000000E+00 -0.56961898274E+03  0.56961898274E+03  0.25500000920E-02 0. -1.
    10030    2    1    2    0    0  0.00000000000E+00  0.00000000000E+00  0.10076282450E+04  0.21468662105E+04  0.18957109077E+04 0.  0.
        2    1    3    3  502    0 -0.40857817641E+03 -0.31159019076E+03 -0.39820616027E+03  0.65007131863E+03  0.25500000920E-02 0. -1.
       -2    1    3    3    0  502  0.40857817641E+03  0.31159019076E+03  0.14058344053E+04  0.14967948919E+04  0.25500000920E-02 0.  1.
</event>
<event>
 5   0  0.3086139E-05  0.1901428E+04  0.7818609E-02  0.8654146E-01
       -1   -1    0    0    0  501  0.00000000000E+00  0.00000000000E+00  0.61945192677E+03  0.61945192679E+03  0.50400001928E-02 0.  1.
        1   -1    0    0  501    0  0.00000000000E+00  0.00000000000E+00 -0.14591232536E+04  0.14591232536E+04  0.50400001928E-02 0. -1.
    10030    2    1    2    0    0  0.00000000000E+00  0.00000000000E+00 -0.83967132686E+03  0.20785751804E+04  0.19014275804E+04 0.  0.
        2    1    3    3  502    0 -0.32195455531E+03  0.53096419072E+02  0.55632064437E+03  0.64495474629E+03  0.25500000920E-02 0.  1.
       -2    1    3    3    0  502  0.32195455531E+03 -0.53096419072E+02 -0.13959919712E+04  0.14336204341E+04  0.25500000920E-02 0. -1.
</event>
<event>
 5   0  0.6423388E-05  0.1891117E+04  0.7818609E-02  0.8659291E-01
        2   -1    0    0  501    0  0.00000000000E+00  0.00000000000E+00  0.12260434868E+04  0.12260434868E+04  0.25500000920E-02 0. -1.
       -2   -1    0    0    0  501  0.00000000000E+00  0.00000000000E+00 -0.72924050857E+03  0.72924050857E+03  0.25500000920E-02 0.  1.
    10030    2    1    2    0    0  0.00000000000E+00  0.00000000000E+00  0.49680297828E+03  0.19552839954E+04  0.18911166816E+04 0.  0.
        2    1    3    3  502    0  0.91620724387E+03  0.49677432075E+02  0.12228006170E+02  0.91763450519E+03  0.25500000920E-02 0. -1.
       -2    1    3    3    0  502 -0.91620724387E+03 -0.49677432075E+02  0.48457497211E+03  0.10376494902E+04  0.25500000920E-02 0.  1.
</event>
<event>
 5   0  0.3147063E-05  0.1915935E+04  0.7818609E-02  0.8646965E-01
       -1   -1    0    0    0  501  0.00000000000E+00  0.00000000000E+00  0.91990069426E+03  0.91990069428E+03  0.50400001928E-02 0.  1.
        1   -1    0    0  501    0  0.00000000000E+00  0.00000000000E+00 -0.99760975522E+03  0.99760975524E+03  0.50400001928E-02 0. -1.
    10030    2    1    2    0    0  0.00000000000E+00  0.00000000000E+00 -0.77709060963E+02  0.19175104495E+04  0.19159351831E+04 0.  0.
        5    1    3    3  502    0 -0.93824182282E+02  0.29541229278E+03  0.86831690401E+03  0.92199117983E+03  0.46999998093E+01 0.  1.
       -5    1    3    3    0  502  0.93824182282E+02 -0.29541229278E+03 -0.94602596497E+03  0.99551926968E+03  0.46999998093E+01 0. -1.
</event>
<event>
 5   0  0.6395992E-05  0.1899231E+04  0.7818609E-02  0.8655239E-01
       -2   -1    0    0    0  501  0.00000000000E+00  0.00000000000E+00  0.12740506689E+04  0.12740506689E+04  0.25500000920E-02 0.  1.
        2   -1    0    0  501    0  0.00000000000E+00  0.00000000000E+00 -0.70779703350E+03  0.70779703350E+03  0.25500000920E-02 0. -1.
    10030    2    1    2    0    0  0.00000000000E+00  0.00000000000E+00  0.56625363539E+03  0.19818477024E+04  0.18992306695E+04 0.  0.
        4    1    3    3  502    0 -0.13997950442E+03  0.29376420379E+03  0.12140530483E+04  0.12569081454E+04  0.12699999809E+01 0.  1.
       -4    1    3    3    0  502  0.13997950442E+03 -0.29376420379E+03 -0.64779941286E+03  0.72493955699E+03  0.12699999809E+01 0. -1.
</event>
<event>
 5   0  0.3203527E-05  0.1932578E+04  0.7818609E-02  0.8638808E-01
        1   -1    0    0  501    0  0.00000000000E+00  0.00000000000E+00  0.17138321685E+04  0.17138321685E+04  0.50400001928E-02 0.  1.
       -1   -1    0    0    0  501  0.00000000000E+00  0.00000000000E+00 -0.54481108696E+03  0.54481108698E+03  0.50400001928E-02 0. -1.
    10030    2    1    2    0    0  0.00000000000E+00  0.00000000000E+00  0.11690210815E+04  0.22586432554E+04  0.19325783468E+04 0.  0.
        1    1    3    3  502    0  0.49724101784E+03  0.52205796860E+03 -0.16740590606E+03  0.74014720820E+03  0.50400001928E-02 0. -1.
       -1    1    3    3    0  502 -0.49724101784E+03 -0.52205796860E+03  0.13364269876E+04  0.15184960472E+04  0.50400001928E-02 0.  1.
</event>
<event>
 5   0  0.3147063E-05  0.1903241E+04  0.7818609E-02  0.8653245E-01
        1   -1    0    0  501    0  0.00000000000E+00  0.00000000000E+00  0.53419032105E+03  0.53419032107E+03  0.50400001928E-02 0. -1.
       -1   -1    0    0    0  501  0.00000000000E+00  0.00000000000E+00 -0.16952418358E+04  0.16952418358E+04  0.50400001928E-02 0.  1.
    10030    2    1    2    0    0  0.00000000000E+00  0.00000000000E+00 -0.11610515147E+04  0.22294321568E+04  0.19032412149E+04 0.  0.
        5    1    3    3  502    0  0.84334250970E+03 -0.17041986088E+03 -0.10428786873E+03  0.86669923689E+03  0.46999998093E+01 0. -1.
       -5    1    3    3    0  502 -0.84334250970E+03  0.17041986088E+03 -0.10567636460E+04  0.13627329199E+04  0.46999998093E+01 0.  1.
</event>
<event>
 5   0  0.3203527E-05  0.1896599E+04  0.7818609E-02  0.8656551E-01
        1   -1    0    0  501    0  0.00000000000E+00  0.00000000000E+00  0.93599132674E+03  0.93599132676E+03  0.50400001928E-02 0. -1.
       -1   -1    0    0    0  501  0.00000000000E+00  0.00000000000E+00 -0.96076916490E+03  0.96076916491E+03  0.50400001928E-02 0.  1.
    10030    2    1    2    0    0  0.00000000000E+00  0.00000000000E+00 -0.24777838159E+02  0.18967604917E+04  0.18965986453E+04 0.  0.
        1    1    3    3  502    0 -0.33914774315E+03  0.38418685294E+03 -0.81036105994E+03  0.95880434769E+03  0.50400001928E-02 0.  1.
       -1    1    3    3    0  502  0.33914774315E+03 -0.38418685294E+03  0.78558322178E+03  0.93795614398E+03  0.50400001928E-02 0. -1.
</event>
<event>
 5   0  0.6423388E-05  0.1902864E+04  0.7818609E-02  0.8653432E-01
        2   -1    0    0  501    0  0.00000000000E+00  0.00000000000E+00  0.13642112932E+04  0.13642112932E+04  0.25500000920E-02 0. -1.
       -2   -1    0    0    0  501  0.00000000000E+00  0.00000000000E+00 -0.66355063593E+03  0.66355063594E+03  0.25500000920E-02 0.  1.
    10030    2    1    2    0    0  0.00000000000E+00  0.00000000000E+00  0.70066065728E+03  0.20277619292E+04  0.19028644420E+04 0.  0.
        2    1    3    3  502    0 -0.25453944705E+03 -0.82447635552E+03  0.77747872671E+03  0.11614752522E+04  0.25500000920E-02 0. -1.
       -2    1    3    3    0  502  0.25453944705E+03  0.82447635552E+03 -0.76818069427E+02  0.86628667698E+03  0.25500000920E-02 0.  1.
</event>
<event>
 5   0  0.6452182E-05  0.1875182E+04  0.7818609E-02  0.8667309E-01
        2   -1    0    0  501    0  0.00000000000E+00  0.00000000000E+00  0.56035025012E+03  0.56035025013E+03  0.25500000920E-02 0. -1.
       -2   -1    0    0    0  501  0.00000000000E+00  0.00000000000E+00 -0.15687993396E+04  0.15687993396E+04  0.25500000920E-02 0.  1.
    10030    2    1    2    0    0  0.00000000000E+00  0.00000000000E+00 -0.10084490894E+04  0.21291495897E+04  0.18751822336E+04 0.  0.
        3    1    3    3  502    0 -0.36085527895E+03  0.86014982155E+03 -0.61195848992E+03  0.11156018337E+04  0.10100000352E+00 0. -1.
       -3    1    3    3    0  502  0.36085527895E+03 -0.86014982155E+03 -0.39649059952E+03  0.10135477559E+04  0.10100000352E+00 0.  1.
</event>
<event>
 5   0  0.3147063E-05  0.1901802E+04  0.7818609E-02  0.8653960E-01
        1   -1    0    0  501    0  0.00000000000E+00  0.00000000000E+00  0.13956862276E+04  0.13956862276E+04  0.50400001928E-02 0. -1.
       -1   -1    0    0    0  501  0.00000000000E+00  0.00000000000E+00 -0.64786253640E+03  0.64786253642E+03  0.50400001928E-02 0.  1.
    10030    2    1    2    0    0  0.00000000000E+00  0.00000000000E+00  0.74782369119E+03  0.20435487640E+04  0.19018021132E+04 0.  0.
        5    1    3    3  502    0  0.47157159286E+03 -0.40972099749E+03  0.11442399610E+04  0.13036710633E+04  0.46999998093E+01 0. -1.
       -5    1    3    3    0  502 -0.47157159286E+03  0.40972099749E+03 -0.39641626983E+03  0.73987770068E+03  0.46999998093E+01 0.  1.
</event>
<event>
 5   0  0.6098377E-05  0.1902479E+04  0.7818609E-02  0.8653623E-01
        2   -1    0    0  501    0  0.00000000000E+00  0.00000000000E+00  0.11567088751E+04  0.11567088751E+04  0.25500000920E-02 0.  1.
       -2   -1    0    0    0  501  0.00000000000E+00  0.00000000000E+00 -0.78226831853E+03  0.78226831854E+03  0.25500000920E-02 0. -1.
    10030    2    1    2    0    0  0.00000000000E+00  0.00000000000E+00  0.37444055653E+03  0.19389771936E+04  0.19024791266E+04 0.  0.
        5    1    3    3  502    0  0.34108439918E+03 -0.36802765700E+02 -0.71701039405E+03  0.79487043353E+03  0.46999998093E+01 0. -1.
       -5    1    3    3    0  502 -0.34108439918E+03  0.36802765700E+02  0.10914509506E+04  0.11441067601E+04  0.46999998093E+01 0.  1.
</event>
<event>
 5   0  0.6098377E-05  0.1878658E+04  0.7818609E-02  0.8665553E-01
        2   -1    0    0  501    0  0.00000000000E+00  0.00000000000E+00  0.18547728372E+04  0.18547728372E+04  0.25500000920E-02 0. -1.
       -2   -1    0    0    0  501  0.00000000000E+00  0.00000000000E+00 -0.47571255273E+03  0.47571255274E+03  0.25500000920E-02 0.  1.
    10030    2    1    2    0    0  0.00000000000E+00  0.00000000000E+00  0.13790602845E+04  0.23304853900E+04  0.18786577348E+04 0.  0.
        5    1    3    3  502    0  0.62738273559E+03 -0.68801138147E+03  0.84321207753E+03  0.12561836871E+04  0.46999998093E+01 0.  1.
       -5    1    3    3    0  502 -0.62738273559E+03  0.68801138147E+03  0.53584820697E+03  0.10743017029E+04  0.46999998093E+01 0. -1.
</event>
<event>
 5   0  0.6098377E-05  0.1884888E+04  0.7818609E-02  0.8662415E-01
       -2   -1    0    0    0  501  0.00000000000E+00  0.00000000000E+00  0.20244373785E+04  0.20244373785E+04  0.25500000920E-02 0. -1.
        2   -1    0    0  501    0  0.00000000000E+00  0.00000000000E+00 -0.43873965467E+03  0.43873965468E+03  0.25500000920E-02 0.  1.
    10030    2    1    2    0    0  0.00000000000E+00  0.00000000000E+00  0.15856977238E+04  0.24631770332E+04  0.18848882793E+04 0.  0.
        5    1    3    3  502    0  0.33728421677E+02 -0.86271538995E+03  0.29908593594E+03  0.91372311866E+03  0.46999998093E+01 0.  1.
       -5    1    3    3    0  502 -0.33728421677E+02  0.86271538995E+03  0.12866117879E+04  0.15494539145E+04  0.46999998093E+01 0. -1.
</event>
<event>
 5   0  0.3203527E-05  0.1875052E+04  0.7818609E-02  0.8667375E-01
       -1   -1    0    0    0  501  0.00000000000E+00  0.00000000000E+00  0.12677684356E+04  0.12677684356E+04  0.50400001928E-02 0.  1.
        1   -1    0    0  501    0  0.00000000000E+00  0.00000000000E+00 -0.69330876778E+03  0.69330876780E+03  0.50400001928E-02 0. -1.
    10030    2    1    2    0    0  0.00000000000E+00  0.00000000000E+00  0.57445966784E+03  0.19610772034E+04  0.18750519694E+04 0.  0.
        1    1    3    3  502    0 -0.12503316624E+03  0.63591884910E+02  0.12567306201E+04  0.12645351209E+04  0.50400001928E-02 0.  1.
       -1    1    3    3    0  502  0.12503316624E+03 -0.63591884910E+02 -0.68227095223E+03  0.69654208255E+03  0.50400001928E-02 0. -1.
</event>
<event>
 5   0  0.6395992E-05  0.1895063E+04  0.7818609E-02  0.8657318E-01
       -2   -1    0    0    0  501  0.00000000000E+00  0.00000000000E+00  0.62077302446E+03  0.62077302447E+03  0.25500000920E-02 0.  1.
        2   -1    0    0  501    0  0.00000000000E+00  0.00000000000E+00 -0.14462864440E+04  0.14462864440E+04  0.25500000920E-02 0. -1.
    10030    2    1    2    0    0  0.00000000000E+00  0.00000000000E+00 -0.82551341954E+03  0.20670594685E+04  0.18950626481E+04 0.  0.
        4    1    3    3  502    0 -0.16410300581E+03 -0.42727467564E+03  0.49219367315E+03  0.67212325488E+03  0.12699999809E+01 0.  1.
       -4    1    3    3    0  502  0.16410300581E+03  0.42727467564E+03 -0.13177070927E+04  0.13949362136E+04  0.12699999809E+01 0. -1.
</event>
<event>
 5   0  0.3203527E-05  0.1896931E+04  0.7818609E-02  0.8656385E-01
       -1   -1    0    0    0  501  0.00000000000E+00  0.00000000000E+00  0.51775815842E+03  0.51775815845E+03  0.50400001928E-02 0.  1.
        1   -1    0    0  501    0  0.00000000000E+00  0.00000000000E+00 -0.17374661349E+04  0.17374661349E+04  0.50400001928E-02 0. -1.
    10030    2    1    2    0    0  0.00000000000E+00  0.00000000000E+00 -0.12197079764E+04  0.22552242933E+04  0.18969314867E+04 0.  0.
        1    1    3    3  502    0  0.24894824583E+03 -0.42025517984E+03 -0.15764345208E+04  0.16503743344E+04  0.50400001928E-02 0. -1.
       -1    1    3    3    0  502 -0.24894824583E+03  0.42025517984E+03  0.35672654438E+03  0.60484995889E+03  0.50400001928E-02 0.  1.
</event>
<event>
 5   0  0.3083469E-05  0.1911928E+04  0.7818609E-02  0.8648942E-01
        1   -1    0    0  501    0  0.00000000000E+00  0.00000000000E+00  0.92681297438E+03  0.92681297440E+03  0.50400001928E-02 0.  1.
       -1   -1    0    0    0  501  0.00000000000E+00  0.00000000000E+00 -0.98603224842E+03  0.98603224843E+03  0.50400001928E-02 0. -1.
    10030    2    1    2    0    0  0.00000000000E+00  0.00000000000E+00 -0.59219274036E+02  0.19128452228E+04  0.19119283261E+04 0.  0.
        3    1    3    3  502    0  0.41464366104E+03 -0.14193197842E+03 -0.87960133142E+03  0.98273728156E+03  0.10100000352E+00 0. -1.
       -3    1    3    3    0  502 -0.41464366104E+03  0.14193197842E+03  0.82038205738E+03  0.93010794127E+03  0.10100000352E+00 0.  1.
</event>
<event>
 5   0  0.3086139E-05  0.1896781E+04  0.7818609E-02  0.8656460E-01
        1   -1    0    0  501    0  0.00000000000E+00  0.00000000000E+00  0.11197800753E+04  0.11197800753E+04  0.50400001928E-02 0.  1.
       -1   -1    0    0    0  501  0.00000000000E+00  0.00000000000E+00 -0.80323351551E+03  0.80323351553E+03  0.50400001928E-02 0. -1.
    10030    2    1    2    0    0  0.00000000000E+00  0.00000000000E+00  0.31654655976E+03  0.19230135908E+04  0.18967813648E+04 0.  0.
        2    1    3    3  502    0  0.61881342292E+03 -0.71848920154E+03  0.17548157072E+03  0.96433944583E+03  0.25500000920E-02 0.  1.
       -2    1    3    3    0  502 -0.61881342292E+03  0.71848920154E+03  0.14106498904E+03  0.95867414498E+03  0.25500000920E-02 0. -1.
</event>
<event>
 5   0  0.6395992E-05  0.1901921E+04  0.7818609E-02  0.8653901E-01
       -2   -1    0    0    0  501  0.00000000000E+00  0.00000000000E+00  0.69337694428E+03  0.69337694429E+03  0.25500000920E-02 0.  1.
        2   -1    0    0  501    0  0.00000000000E+00  0.00000000000E+00 -0.13042335500E+04  0.13042335500E+04  0.25500000920E-02 0. -1.
    10030    2    1    2    0    0  0.00000000000E+00  0.00000000000E+00 -0.61085660576E+03  0.19976104943E+04  0.19019205804E+04 0.  0.
        4    1    3    3  502    0  0.70064998440E+03 -0.57527299260E+03 -0.60706080120E+03  0.10910425500E+04  0.12699999809E+01 0. -1.
       -4    1    3    3    0  502 -0.70064998440E+03  0.57527299260E+03 -0.37958045577E+01  0.90656794433E+03  0.12699999809E+01 0.  1.
</event>
<event>
 5   0  0.3144958E-05  0.1919112E+04  0.7818609E-02  0.8645401E-01
       -1   -1    0    0    0  501  0.00000000000E+00  0.00000000000E+00  0.83259768443E+03  0.83259768445E+03  0.50400001928E-02 0.  1.
        1   -1    0    0  501    0  0.00000000000E+00  0.00000000000E+00 -0.11058733776E+04  0.11058733776E+04  0.50400001928E-02 0. -1.
    10030    2    1    2    0    0  0.00000000000E+00  0.00000000000E+00 -0.27327569315E+03  0.19384710620E+04  0.19191118920E+04 0.  0.
        4    1    3    3  502    0  0.44485328217E+03 -0.81141412905E+03 -0.39308606872E+03  0.10053882841E+04  0.12699999809E+01 0. -1.
       -4    1    3    3    0  502 -0.44485328217E+03  0.81141412905E+03  0.11981037557E+03  0.93308277794E+03  0.12699999809E+01 0.  1.
</event>
<event>
 5   0  0.3083469E-05  0.1838577E+04  0.7818609E-02  0.8686049E-01
        1   -1    0    0  501    0  0.00000000000E+00  0.00000000000E+00  0.11354172889E+04  0.11354172890E+04  0.50400001928E-02 0.  1.
       -1   -1    0    0    0  501  0.00000000000E+00  0.00000000000E+00 -0.74430037270E+03  0.74430037271E+03  0.50400001928E-02 0. -1.
    10030    2    1    2    0    0  0.00000000000E+00  0.00000000000E+00  0.39111691625E+03  0.18797176617E+04  0.18385771796E+04 0.  0.
        3    1    3    3  502    0  0.71358805870E+03  0.27940393758E+03  0.71467701232E+03  0.10478729503E+04  0.10100000352E+00 0.  1.
       -3    1    3    3    0  502 -0.71358805870E+03 -0.27940393758E+03 -0.32356009607E+03  0.83184471136E+03  0.10100000352E+00 0. -1.
</event>
<event>
 5   0  0.6361762E-05  0.1900927E+04  0.7818609E-02  0.8654395E-01
        2   -1    0    0  501    0  0.00000000000E+00  0.00000000000E+00  0.96966556152E+03  0.96966556152E+03  0.25500000920E-02 0.  1.
       -2   -1    0    0    0  501  0.00000000000E+00  0.00000000000E+00 -0.93164122496E+03  0.93164122497E+03  0.25500000920E-02 0. -1.
    10030    2    1    2    0    0  0.00000000000E+00  0.00000000000E+00  0.38024336553E+02  0.19013067865E+04  0.19009265231E+04 0.  0.
        1    1    3    3  502    0 -0.49543828114E+03 -0.18369419784E+01  0.83029583895E+03  0.96687829895E+03  0.50400001928E-02 0.  1.
       -1    1    3    3    0  502  0.49543828114E+03  0.18369419784E+01 -0.79227150240E+03  0.93442848753E+03  0.50400001928E-02 0. -1.
</event>
<event>
 5   0  0.6098377E-05  0.1883818E+04  0.7818609E-02  0.8662953E-01
       -2   -1    0    0    0  501  0.00000000000E+00  0.00000000000E+00  0.15600316784E+04  0.15600316784E+04  0.25500000920E-02 0. -1.
        2   -1    0    0  501    0  0.00000000000E+00  0.00000000000E+00 -0.56870170864E+03  0.56870170865E+03  0.25500000920E-02 0.  1.
    10030    2    1    2    0    0  0.00000000000E+00  0.00000000000E+00  0.99132996971E+03  0.21287333870E+04  0.18838181239E+04 0.  0.
        5    1    3    3  502    0 -0.50511148680E+03 -0.63968987036E+03  0.10290845998E+04  0.13127749037E+04  0.46999998093E+01 0. -1.
       -5    1    3    3    0  502  0.50511148680E+03  0.63968987036E+03 -0.37754630078E+02  0.81595848328E+03  0.46999998093E+01 0.  1.
</event>
<event>
 5   0  0.3144958E-05  0.1903711E+04  0.7818609E-02  0.8653011E-01
       -1   -1    0    0    0  501  0.00000000000E+00  0.00000000000E+00  0.65967977608E+03  0.65967977610E+03  0.50400001928E-02 0. -1.
        1   -1    0    0  501    0  0.00000000000E+00  0.00000000000E+00 -0.13734375909E+04  0.13734375909E+04  0.50400001928E-02 0.  1.
    10030    2    1    2    0    0  0.00000000000E+00  0.00000000000E+00 -0.71375781483E+03  0.20331173670E+04  0.19037111151E+04 0.  0.
        4    1    3    3  502    0 -0.89214263944E+03  0.26655157601E+03 -0.14581069026E+03  0.94245986763E+03  0.12699999809E+01 0. -1.
       -4    1    3    3    0  502  0.89214263944E+03 -0.26655157601E+03 -0.56794712457E+03  0.10906574994E+04  0.12699999809E+01 0.  1.
</event>
<event>
 5   0  0.6395992E-05  0.1898761E+04  0.7818609E-02  0.8655473E-01
        2   -1    0    0  501    0  0.00000000000E+00  0.00000000000E+00  0.13074214891E+04  0.13074214891E+04  0.25500000920E-02 0.  1.
       -2   -1    0    0    0  501  0.00000000000E+00  0.00000000000E+00 -0.68939013948E+03  0.68939013948E+03  0.25500000920E-02 0. -1.
    10030    2    1    2    0    0  0.00000000000E+00  0.00000000000E+00  0.61803134962E+03  0.19968116286E+04  0.18987611569E+04 0.  0.
        4    1    3    3  502    0 -0.52751623324E+03  0.70977908499E+03  0.67219244719E+03  0.11108123265E+04  0.12699999809E+01 0.  1.
       -4    1    3    3    0  502  0.52751623324E+03 -0.70977908499E+03 -0.54161097574E+02  0.88599930204E+03  0.12699999809E+01 0. -1.
</event>
<event>
 5   0  0.6423388E-05  0.1904590E+04  0.7818609E-02  0.8652575E-01
        2   -1    0    0  501    0  0.00000000000E+00  0.00000000000E+00  0.69233514205E+03  0.69233514205E+03  0.25500000920E-02 0.  1.
       -2   -1    0    0    0  501  0.00000000000E+00  0.00000000000E+00 -0.13098659017E+04  0.13098659017E+04  0.25500000920E-02 0. -1.
    10030    2    1    2    0    0  0.00000000000E+00  0.00000000000E+00 -0.61753075963E+03  0.20022010437E+04  0.19045904495E+04 0.  0.
        2    1    3    3  502    0  0.15288707691E+03  0.47634859655E+03  0.54306112013E+03  0.73837512412E+03  0.25500000920E-02 0.  1.
       -2    1    3    3    0  502 -0.15288707691E+03 -0.47634859655E+03 -0.11605918798E+04  0.12638259196E+04  0.25500000920E-02 0. -1.
</event>
<event>
 5   0  0.3203527E-05  0.1892581E+04  0.7818609E-02  0.8658558E-01
        1   -1    0    0  501    0  0.00000000000E+00  0.00000000000E+00  0.96550480684E+03  0.96550480686E+03  0.50400001928E-02 0.  1.
       -1   -1    0    0    0  501  0.00000000000E+00  0.00000000000E+00 -0.92745892057E+03  0.92745892058E+03  0.50400001928E-02 0. -1.
    10030    2    1    2    0    0  0.00000000000E+00  0.00000000000E+00  0.38045886277E+02  0.18929637274E+04  0.18925813546E+04 0.  0.
        1    1    3    3  502    0 -0.20256492863E+03  0.50321259237E+03 -0.75651141553E+03  0.93089472299E+03  0.50400001928E-02 0. -1.
       -1    1    3    3    0  502  0.20256492863E+03 -0.50321259237E+03  0.79455730181E+03  0.96206900445E+03  0.50400001928E-02 0.  1.
</event>
<event>
 5   0  0.6423388E-05  0.1891511E+04  0.7818609E-02  0.8659093E-01
        2   -1    0    0  501    0  0.00000000000E+00  0.00000000000E+00  0.11406482042E+04  0.11406482042E+04  0.25500000920E-02 0. -1.
       -2   -1    0    0    0  501  0.00000000000E+00  0.00000000000E+00 -0.78416272949E+03  0.78416272949E+03  0.25500000920E-02 0.  1.
    10030    2    1    2    0    0  0.00000000000E+00  0.00000000000E+00  0.35648547475E+03  0.19248109337E+04  0.18915113631E+04 0.  0.
        2    1    3    3  502    0  0.24501594009E+03 -0.88364815632E+03 -0.57321076782E+02  0.91877776471E+03  0.25500000920E-02 0. -1.
       -2    1    3    3    0  502 -0.24501594009E+03  0.88364815632E+03  0.41380655153E+03  0.10060331690E+04  0.25500000920E-02 0.  1.
</event>
<event>
 5   0  0.3086139E-05  0.1855597E+04  0.7818609E-02  0.8677280E-01
       -1   -1    0    0    0  501  0.00000000000E+00  0.00000000000E+00  0.85182927441E+03  0.85182927442E+03  0.50400001928E-02 0. -1.
        1   -1    0    0  501    0  0.00000000000E+00  0.00000000000E+00 -0.10105425855E+04  0.10105425855E+04  0.50400001928E-02 0.  1.
    10030    2    1    2    0    0  0.00000000000E+00  0.00000000000E+00 -0.15871331108E+03  0.18623718599E+04  0.18555966775E+04 0.  0.
        2    1    3    3  502    0 -0.46598548796E+03  0.37764654735E+03  0.63107696739E+03  0.87064202086E+03  0.25500000920E-02 0. -1.
       -2    1    3    3    0  502  0.46598548796E+03 -0.37764654735E+03 -0.78979027846E+03  0.99172983906E+03  0.25500000920E-02 0.  1.
</event>
<event>
 5   0  0.3144958E-05  0.1902163E+04  0.7818609E-02  0.8653780E-01
       -1   -1    0    0    0  501  0.00000000000E+00  0.00000000000E+00  0.96116455817E+03  0.96116455818E+03  0.50400001928E-02 0.  1.
        1   -1    0    0  501    0  0.00000000000E+00  0.00000000000E+00 -0.94110454396E+03  0.94110454398E+03  0.50400001928E-02 0. -1.
    10030    2    1    2    0    0  0.00000000000E+00  0.00000000000E+00  0.20060014208E+02  0.19022691022E+04  0.19021633297E+04 0.  0.
        4    1    3    3  502    0 -0.93398421647E+01 -0.90080023547E+03 -0.29498928648E+03  0.94791802858E+03  0.12699999809E+01 0.  1.
       -4    1    3    3    0  502  0.93398421647E+01  0.90080023547E+03  0.31504930068E+03  0.95435107358E+03  0.12699999809E+01 0. -1.
</event>
<event>
 5   0  0.6361762E-05  0.1893619E+04  0.7818609E-02  0.8658039E-01
       -2   -1    0    0    0  501  0.00000000000E+00  0.00000000000E+00  0.32695685696E+03  0.32695685697E+03  0.25500000920E-02 0. -1.
        2   -1    0    0  501    0  0.00000000000E+00  0.00000000000E+00 -0.27417949330E+04  0.27417949330E+04  0.25500000920E-02 0.  1.
    10030    2    1    2    0    0  0.00000000000E+00  0.00000000000E+00 -0.24148380760E+04  0.30687517899E+04  0.18936194483E+04 0.  0.
        1    1    3    3  502    0  0.93322691451E+03 -0.14545701160E+03 -0.13146520823E+04  0.16187588807E+04  0.50400001928E-02 0.  1.
       -1    1    3    3    0  502 -0.93322691451E+03  0.14545701160E+03 -0.11001859937E+04  0.14499929093E+04  0.50400001928E-02 0. -1.
</event>
<event>
 5   0  0.6423388E-05  0.1895096E+04  0.7818609E-02  0.8657301E-01
        2   -1    0    0  501    0  0.00000000000E+00  0.00000000000E+00  0.22738941259E+04  0.22738941259E+04  0.25500000920E-02 0. -1.
       -2   -1    0    0    0  501  0.00000000000E+00  0.00000000000E+00 -0.39485010169E+03  0.39485010170E+03  0.25500000920E-02 0.  1.
    10030    2    1    2    0    0  0.00000000000E+00  0.00000000000E+00  0.18790440243E+04  0.26687442276E+04  0.18950961209E+04 0.  0.
        2    1    3    3  502    0 -0.36589646353E+03  0.85064592463E+03  0.65657986871E+03  0.11351545424E+04  0.25500000920E-02 0. -1.
       -2    1    3    3    0  502  0.36589646353E+03 -0.85064592463E+03  0.12224641555E+04  0.15335896853E+04  0.25500000920E-02 0.  1.
</event>
<event>
 5   0  0.3203527E-05  0.1906217E+04  0.7818609E-02  0.8651768E-01
       -1   -1    0    0    0  501  0.00000000000E+00  0.00000000000E+00  0.11105311543E+04  0.11105311544E+04  0.50400001928E-02 0. -1.
        1   -1    0    0  501    0  0.00000000000E+00  0.00000000000E+00 -0.81800102356E+03  0.81800102357E+03  0.50400001928E-02 0.  1.
    10030    2    1    2    0    0  0.00000000000E+00  0.00000000000E+00  0.29253013079E+03  0.19285321779E+04  0.19062167988E+04 0.  0.
        1    1    3    3  502    0 -0.24482936802E+03  0.78646325500E+02  0.10747719975E+04  0.11051070132E+04  0.50400001928E-02 0. -1.
       -1    1    3    3    0  502  0.24482936802E+03 -0.78646325500E+02 -0.78224186668E+03  0.82342516477E+03  0.50400001928E-02 0.  1.
</event>
<event>
 5   0  0.3086139E-05  0.1894323E+04  0.7818609E-02  0.8657687E-01
        1   -1    0    0  501    0  0.00000000000E+00  0.00000000000E+00  0.18284847896E+04  0.18284847896E+04  0.50400001928E-02 0.  1.
       -1   -1    0    0    0  501  0.00000000000E+00  0.00000000000E+00 -0.49063301709E+03  0.49063301711E+03  0.50400001928E-02 0. -1.
    10030    2    1    2    0    0  0.00000000000E+00  0.00000000000E+00  0.13378517725E+04  0.23191178067E+04  0.18943231077E+04 0.  0.
        2    1    3    3  502    0 -0.53676592527E+02 -0.27522766357E+03  0.17765023935E+04  0.17984972053E+04  0.25500000920E-02 0.  1.
       -2    1    3    3    0  502  0.53676592527E+02  0.27522766357E+03 -0.43865062095E+03  0.52062060144E+03  0.25500000920E-02 0. -1.
</event>
<event>
 5   0  0.6361762E-05  0.1893065E+04  0.7818609E-02  0.8658316E-01
       -2   -1    0    0    0  501  0.00000000000E+00  0.00000000000E+00  0.70567195669E+03  0.70567195669E+03  0.25500000920E-02 0.  1.
        2   -1    0    0  501    0  0.00000000000E+00  0.00000000000E+00 -0.12696033663E+04  0.12696033663E+04  0.25500000920E-02 0. -1.
    10030    2    1    2    0    0  0.00000000000E+00  0.00000000000E+00 -0.56393140963E+03  0.19752753230E+04  0.18930647023E+04 0.  0.
        1    1    3    3  502    0  0.22014979810E+02 -0.79870730924E+03 -0.81145283300E+03  0.11388036378E+04  0.50400001928E-02 0. -1.
       -1    1    3    3    0  502 -0.22014979810E+02  0.79870730924E+03  0.24752142337E+03  0.83647168525E+03  0.50400001928E-02 0.  1.
</event>
<event>
 5   0  0.3086139E-05  0.1898575E+04  0.7818609E-02  0.8655566E-01
        1   -1    0    0  501    0  0.00000000000E+00  0.00000000000E+00  0.88335158455E+03  0.88335158457E+03  0.50400001928E-02 0.  1.
       -1   -1    0    0    0  501  0.00000000000E+00  0.00000000000E+00 -0.10201454259E+04  0.10201454259E+04  0.50400001928E-02 0. -1.
    10030    2    1    2    0    0  0.00000000000E+00  0.00000000000E+00 -0.13679384135E+03  0.19034970105E+04  0.18985753379E+04 0.  0.
        2    1    3    3  502    0  0.62215174546E+02  0.52639659138E+03 -0.85795536980E+03  0.10084897203E+04  0.25500000920E-02 0. -1.
       -2    1    3    3    0  502 -0.62215174546E+02 -0.52639659138E+03  0.72116152845E+03  0.89500729019E+03  0.25500000920E-02 0.  1.
</event>
<event>
 5   0  0.3083469E-05  0.1887206E+04  0.7818609E-02  0.8661251E-01
       -1   -1    0    0    0  501  0.00000000000E+00  0.00000000000E+00  0.57762453790E+03  0.57762453793E+03  0.50400001928E-02 0.  1.
        1   -1    0    0  501    0  0.00000000000E+00  0.00000000000E+00 -0.15414621314E+04  0.15414621314E+04  0.50400001928E-02 0. -1.
    10030    2    1    2    0    0  0.00000000000E+00  0.00000000000E+00 -0.96383759348E+03  0.21190866693E+04  0.18872057136E+04 0.  0.
        3    1    3    3  502    0  0.40164394525E+02 -0.57751481707E+03  0.35478874120E+03  0.67897835282E+03  0.10100000352E+00 0.  1.
       -3    1    3    3    0  502 -0.40164394525E+02  0.57751481707E+03 -0.13186263347E+04  0.14401083165E+04  0.10100000352E+00 0. -1.
</event>
<event>
 5   0  0.6395992E-05  0.1885329E+04  0.7818609E-02  0.8662194E-01
        2   -1    0    0  501    0  0.00000000000E+00  0.00000000000E+00  0.82536182034E+03  0.82536182034E+03  0.25500000920E-02 0.  1.
       -2   -1    0    0    0  501  0.00000000000E+00  0.00000000000E+00 -0.10766387534E+04  0.10766387534E+04  0.25500000920E-02 0. -1.
    10030    2    1    2    0    0  0.00000000000E+00  0.00000000000E+00 -0.25127693307E+03  0.19020005738E+04  0.18853291717E+04 0.  0.
        4    1    3    3  502    0 -0.87777832559E+03 -0.22162605382E+03 -0.39064362816E+03  0.98601062556E+03  0.12699999809E+01 0. -1.
       -4    1    3    3    0  502  0.87777832559E+03  0.22162605382E+03  0.13936669508E+03  0.91598994820E+03  0.12699999809E+01 0.  1.
</event>
<event>
 5   0  0.6395992E-05  0.1911833E+04  0.7818609E-02  0.8648989E-01
        2   -1    0    0  501    0  0.00000000000E+00  0.00000000000E+00  0.12643774498E+04  0.12643774498E+04  0.25500000920E-02 0. -1.
       -2   -1    0    0    0  501  0.00000000000E+00  0.00000000000E+00 -0.72270862976E+03  0.72270862976E+03  0.25500000920E-02 0.  1.
    10030    2    1    2    0    0  0.00000000000E+00  0.00000000000E+00  0.54166882007E+03  0.19870860796E+04  0.19118331457E+04 0.  0.
        4    1    3    3  502    0  0.95541992241E+02 -0.49564197664E+01 -0.71771931558E+03  0.72406868958E+03  0.12699999809E+01 0.  1.
       -4    1    3    3    0  502 -0.95541992241E+02  0.49564197664E+01  0.12593881356E+04  0.12630173900E+04  0.12699999809E+01 0. -1.
</event>
<event>
 5   0  0.6395992E-05  0.1902563E+04  0.7818609E-02  0.8653582E-01
       -2   -1    0    0    0  501  0.00000000000E+00  0.00000000000E+00  0.64032490717E+03  0.64032490718E+03  0.25500000920E-02 0.  1.
        2   -1    0    0  501    0  0.00000000000E+00  0.00000000000E+00 -0.14132453332E+04  0.14132453332E+04  0.25500000920E-02 0. -1.
    10030    2    1    2    0    0  0.00000000000E+00  0.00000000000E+00 -0.77292042606E+03  0.20535702404E+04  0.19025626789E+04 0.  0.
        4    1    3    3  502    0 -0.69229189593E+03  0.18675616356E+03 -0.10612081325E+04  0.12807459729E+04  0.12699999809E+01 0. -1.
       -4    1    3    3    0  502  0.69229189593E+03 -0.18675616356E+03  0.28828770646E+03  0.77282426747E+03  0.12699999809E+01 0.  1.
</event>
<event>
 5   0  0.6452182E-05  0.1896648E+04  0.7818609E-02  0.8656527E-01
        2   -1    0    0  501    0  0.00000000000E+00  0.00000000000E+00  0.23300418970E+04  0.23300418970E+04  0.25500000920E-02 0. -1.
       -2   -1    0    0    0  501  0.00000000000E+00  0.00000000000E+00 -0.38596657726E+03  0.38596657727E+03  0.25500000920E-02 0.  1.
    10030    2    1    2    0    0  0.00000000000E+00  0.00000000000E+00  0.19440753197E+04  0.27160084743E+04  0.18966478807E+04 0.  0.
        3    1    3    3  502    0 -0.34049230415E+01  0.85438534452E+03  0.38276755242E+03  0.93621414207E+03  0.10100000352E+00 0.  1.
       -3    1    3    3    0  502  0.34049230415E+01 -0.85438534452E+03  0.15613077673E+04  0.17797943322E+04  0.10100000352E+00 0. -1.
</event>
<event>
 5   0  0.3203527E-05  0.1901485E+04  0.7818609E-02  0.8654118E-01
        1   -1    0    0  501    0  0.00000000000E+00  0.00000000000E+00  0.81405730389E+03  0.81405730390E+03  0.50400001928E-02 0. -1.
       -1   -1    0    0    0  501  0.00000000000E+00  0.00000000000E+00 -0.11103778203E+04  0.11103778203E+04  0.50400001928E-02 0.  1.
    10030    2    1    2    0    0  0.00000000000E+00  0.00000000000E+00 -0.29632051637E+03  0.19244351242E+04  0.19014848668E+04 0.  0.
        1    1    3    3  502    0  0.10360869760E+03  0.91563104167E+03  0.88750975467E+02  0.92573846326E+03  0.50400001928E-02 0. -1.
       -1    1    3    3    0  502 -0.10360869760E+03 -0.91563104167E+03 -0.38507149184E+03  0.99869666092E+03  0.50400001928E-02 0.  1.
</event>
<event>
 5   0  0.6423388E-05  0.1898777E+04  0.7818609E-02  0.8655465E-01
       -2   -1    0    0    0  501  0.00000000000E+00  0.00000000000E+00  0.15783892382E+04  0.15783892382E+04  0.25500000920E-02 0. -1.
        2   -1    0    0  501    0  0.00000000000E+00  0.00000000000E+00 -0.57104956308E+03  0.57104956308E+03  0.25500000920E-02 0.  1.
    10030    2    1    2    0    0  0.00000000000E+00  0.00000000000E+00  0.10073396751E+04  0.21494388013E+04  0.18987769588E+04 0.  0.
        2    1    3    3  502    0  0.36908898537E+03 -0.46953167930E+03 -0.33176120039E+03  0.68319263102E+03  0.25500000920E-02 0.  1.
       -2    1    3    3    0  502 -0.36908898537E+03  0.46953167930E+03  0.13391008755E+04  0.14662461703E+04  0.25500000920E-02 0. -1.
</event>
<event>
 5   0  0.6361762E-05  0.1929699E+04  0.7818609E-02  0.8640213E-01
        2   -1    0    0  501    0  0.00000000000E+00  0.00000000000E+00  0.12310427983E+04  0.12310427983E+04  0.25500000920E-02 0.  1.
       -2   -1    0    0    0  501  0.00000000000E+00  0.00000000000E+00 -0.75621615997E+03  0.75621615998E+03  0.25500000920E-02 0. -1.
    10030    2    1    2    0    0  0.00000000000E+00  0.00000000000E+00  0.47482663835E+03  0.19872589583E+04  0.19296988964E+04 0.  0.
        1    1    3    3  502    0 -0.41004069683E+02  0.10028940410E+02  0.12300913835E+04  0.12308154716E+04  0.50400001928E-02 0.  1.
       -1    1    3    3    0  502  0.41004069683E+02 -0.10028940410E+02 -0.75526474511E+03  0.75644348673E+03  0.50400001928E-02 0. -1.
</event>
<event>
 5   0  0.3086139E-05  0.1899313E+04  0.7818609E-02  0.8655198E-01
        1   -1    0    0  501    0  0.00000000000E+00  0.00000000000E+00  0.13723133214E+04  0.13723133214E+04  0.50400001928E-02 0. -1.
       -1   -1    0    0    0  501  0.00000000000E+00  0.00000000000E+00 -0.65717340520E+03  0.65717340522E+03  0.50400001928E-02 0.  1.
    10030    2    1    2    0    0  0.00000000000E+00  0.00000000000E+00  0.71513991624E+03  0.20294867267E+04  0.18993133691E+04 0.  0.
        2    1    3    3  502    0 -0.30915750025E+03 -0.52964806759E+03 -0.41720590894E+03  0.74173189625E+03  0.25500000920E-02 0.  1.
       -2    1    3    3    0  502  0.30915750025E+03  0.52964806759E+03  0.11323458252E+04  0.12877548304E+04  0.25500000920E-02 0. -1.
</event>
<event>
 5   0  0.3086139E-05  0.1896676E+04  0.7818609E-02  0.8656513E-01
        1   -1    0    0  501    0  0.00000000000E+00  0.00000000000E+00  0.10508358448E+04  0.10508358448E+04  0.50400001928E-02 0.  1.
       -1   -1    0    0    0  501  0.00000000000E+00  0.00000000000E+00 -0.85583770766E+03  0.85583770768E+03  0.50400001928E-02 0. -1.
    10030    2    1    2    0    0  0.00000000000E+00  0.00000000000E+00  0.19499813714E+03  0.19066735525E+04  0.18966759772E+04 0.  0.
        2    1    3    3  502    0 -0.29583488489E+03  0.27565477154E+03  0.95983249749E+03  0.10415288068E+04  0.25500000920E-02 0.  1.
       -2    1    3    3    0  502  0.29583488489E+03 -0.27565477154E+03 -0.76483436035E+03  0.86514474568E+03  0.25500000920E-02 0. -1.
</event>
<event>
 5   0  0.6361762E-05  0.1915665E+04  0.7818609E-02  0.8647098E-01
       -2   -1    0    0    0  501  0.00000000000E+00  0.00000000000E+00  0.11256466841E+04  0.11256466841E+04  0.25500000920E-02 0. -1.
        2   -1    0    0  501    0  0.00000000000E+00  0.00000000000E+00 -0.81503632745E+03  0.81503632745E+03  0.25500000920E-02 0.  1.
    10030    2    1    2    0    0  0.00000000000E+00  0.00000000000E+00  0.31061035666E+03  0.19406830116E+04  0.19156648344E+04 0.  0.
        1    1    3    3  502    0  0.37869430496E+03 -0.87973042565E+03  0.16583032730E+03  0.97202607779E+03  0.50400001928E-02 0.  1.
       -1    1    3    3    0  502 -0.37869430496E+03  0.87973042565E+03  0.14478002935E+03  0.96865693377E+03  0.50400001928E-02 0. -1.
</event>
<event>
 5   0  0.6395992E-05  0.1896200E+04  0.7818609E-02  0.8656750E-01
        2   -1    0    0  501    0  0.00000000000E+00  0.00000000000E+00  0.14889463202E+04  0.14889463202E+04  0.25500000920E-02 0.  1.
       -2   -1    0    0    0  501  0.00000000000E+00  0.00000000000E+00 -0.60371104932E+03  0.60371104933E+03  0.25500000920E-02 0. -1.
    10030    2    1    2    0    0  0.00000000000E+00  0.00000000000E+00  0.88523527086E+03  0.20926573695E+04  0.18961997209E+04 0.  0.
        4    1    3    3  502    0 -0.69182628274E+03  0.50984376873E+03  0.72373908736E+00  0.85939886590E+03  0.12699999809E+01 0. -1.
       -4    1    3    3    0  502  0.69182628274E+03 -0.50984376873E+03  0.88451153178E+03  0.12332585036E+04  0.12699999809E+01 0.  1.
</event>
<event>
 5   0  0.6395992E-05  0.1898857E+04  0.7818609E-02  0.8655425E-01
        2   -1    0    0  501    0  0.00000000000E+00  0.00000000000E+00  0.15922229609E+04  0.15922229609E+04  0.25500000920E-02 0.  1.
       -2   -1    0    0    0  501  0.00000000000E+00  0.00000000000E+00 -0.56613591436E+03  0.56613591437E+03  0.25500000920E-02 0. -1.
    10030    2    1    2    0    0  0.00000000000E+00  0.00000000000E+00  0.10260870465E+04  0.21583588752E+04  0.18988571319E+04 0.  0.
        4    1    3    3  502    0  0.25989518215E+03  0.50335857835E+03  0.13790708399E+04  0.14908901229E+04  0.12699999809E+01 0.  1.
       -4    1    3    3    0  502 -0.25989518215E+03 -0.50335857835E+03 -0.35298379339E+03  0.66746875238E+03  0.12699999809E+01 0. -1.
</event>
<event>
 5   0  0.3083469E-05  0.1900636E+04  0.7818609E-02  0.8654540E-01
        1   -1    0    0  501    0  0.00000000000E+00  0.00000000000E+00  0.76665629051E+03  0.76665629052E+03  0.50400001928E-02 0.  1.
       -1   -1    0    0    0  501  0.00000000000E+00  0.00000000000E+00 -0.11779782436E+04  0.11779782436E+04  0.50400001928E-02 0. -1.
    10030    2    1    2    0    0  0.00000000000E+00  0.00000000000E+00 -0.41132195310E+03  0.19446345341E+04  0.19006361362E+04 0.  0.
        3    1    3    3  502    0 -0.35926453742E+02 -0.49593277468E+03 -0.10342630940E+04  0.11475801431E+04  0.10100000352E+00 0. -1.
       -3    1    3    3    0  502  0.35926453742E+02  0.49593277468E+03  0.62294114088E+03  0.79705439104E+03  0.10100000352E+00 0.  1.
</event>
<event>
 5   0  0.3147063E-05  0.1905293E+04  0.7818609E-02  0.8652226E-01
       -1   -1    0    0    0  501  0.00000000000E+00  0.00000000000E+00  0.82075071540E+03  0.82075071541E+03  0.50400001928E-02 0.  1.
        1   -1    0    0  501    0  0.00000000000E+00  0.00000000000E+00 -0.11057377038E+04  0.11057377038E+04  0.50400001928E-02 0. -1.
    10030    2    1    2    0    0  0.00000000000E+00  0.00000000000E+00 -0.28498698837E+03  0.19264884192E+04  0.19052926405E+04 0.  0.
        5    1    3    3  502    0 -0.31422328754E+03 -0.58077938180E+03  0.55178329396E+03  0.86053928338E+03  0.46999998093E+01 0.  1.
       -5    1    3    3    0  502  0.31422328754E+03  0.58077938180E+03 -0.83677028233E+03  0.10659491358E+04  0.46999998093E+01 0. -1.
</event>
<event>
 5   0  0.6423388E-05  0.1897415E+04  0.7818609E-02  0.8656144E-01
       -2   -1    0    0    0  501  0.00000000000E+00  0.00000000000E+00  0.87517020048E+03  0.87517020048E+03  0.25500000920E-02 0.  1.
        2   -1    0    0  501    0  0.00000000000E+00  0.00000000000E+00 -0.10284234858E+04  0.10284234858E+04  0.25500000920E-02 0. -1.
    10030    2    1    2    0    0  0.00000000000E+00  0.00000000000E+00 -0.15325328532E+03  0.19035936863E+04  0.18974146497E+04 0.  0.
        2    1    3    3  502    0  0.56918310148E+03  0.11820127007E+03  0.67555129932E+03  0.89124098945E+03  0.25500000920E-02 0.  1.
       -2    1    3    3    0  502 -0.56918310148E+03 -0.11820127007E+03 -0.82880458464E+03  0.10123526968E+04  0.25500000920E-02 0. -1.
</event>
<event>
 5   0  0.3086139E-05  0.1901467E+04  0.7818609E-02  0.8654126E-01
        1   -1    0    0  501    0  0.00000000000E+00  0.00000000000E+00  0.69174490476E+03  0.69174490478E+03  0.50400001928E-02 0. -1.
       -1   -1    0    0    0  501  0.00000000000E+00  0.00000000000E+00 -0.13066872842E+04  0.13066872842E+04  0.50400001928E-02 0.  1.
    10030    2    1    2    0    0  0.00000000000E+00  0.00000000000E+00 -0.61494237945E+03  0.19984321890E+04  0.19014670873E+04 0.  0.
        2    1    3    3  502    0 -0.59768704983E+03  0.33870331998E+03  0.38326878330E+03  0.78666683467E+03  0.25500000920E-02 0. -1.
       -2    1    3    3    0  502  0.59768704983E+03 -0.33870331998E+03 -0.99821116274E+03  0.12117653543E+04  0.25500000920E-02 0.  1.
</event>
<event>
 5   0  0.3086139E-05  0.1904050E+04  0.7818609E-02  0.8652843E-01
       -1   -1    0    0    0  501  0.00000000000E+00  0.00000000000E+00  0.83958738002E+03  0.83958738003E+03  0.50400001928E-02 0. -1.
        1   -1    0    0  501    0  0.00000000000E+00  0.00000000000E+00 -0.10795202340E+04  0.10795202340E+04  0.50400001928E-02 0.  1.
    10030    2    1    2    0    0  0.00000000000E+00  0.00000000000E+00 -0.23993285401E+03  0.19191076141E+04  0.19040499626E+04 0.  0.
        2    1    3    3  502    0 -0.72828215824E+03 -0.59891312430E+03  0.12448827233E+02  0.94299883657E+03  0.25500000920E-02 0. -1.
       -2    1    3    3    0  502  0.72828215824E+03  0.59891312430E+03 -0.25238168124E+03  0.97610877750E+03  0.25500000920E-02 0.  1.
</event>
<event>
 5   0  0.3203527E-05  0.1957887E+04  0.7818609E-02  0.8626567E-01
       -1   -1    0    0    0  501  0.00000000000E+00  0.00000000000E+00  0.18808098695E+04  0.18808098695E+04  0.50400001928E-02 0.  1.
        1   -1    0    0  501    0  0.00000000000E+00  0.00000000000E+00 -0.50953069034E+03  0.50953069036E+03  0.50400001928E-02 0. -1.
    10030    2    1    2    0    0  0.00000000000E+00  0.00000000000E+00  0.13712791791E+04  0.23903405599E+04  0.19578869745E+04 0.  0.
        1    1    3    3  502    0  0.34774230524E+03  0.70028707014E+03 -0.33543043160E+02  0.78259301506E+03  0.50400001928E-02 0. -1.
       -1    1    3    3    0  502 -0.34774230524E+03 -0.70028707014E+03  0.14048222223E+04  0.16077475448E+04  0.50400001928E-02 0.  1.
</event>
<event>
 5   0  0.6423388E-05  0.1899549E+04  0.7818609E-02  0.8655081E-01
        2   -1    0    0  501    0  0.00000000000E+00  0.00000000000E+00  0.13199507877E+04  0.13199507877E+04  0.25500000920E-02 0. -1.
       -2   -1    0    0    0  501  0.00000000000E+00  0.00000000000E+00 -0.68341322700E+03  0.68341322701E+03  0.25500000920E-02 0.  1.
    10030    2    1    2    0    0  0.00000000000E+00  0.00000000000E+00  0.63653756066E+03  0.20033640147E+04  0.18995492384E+04 0.  0.
        2    1    3    3  502    0  0.10225652401E+03 -0.30421483210E+03 -0.62449174748E+03  0.70213460494E+03  0.25500000920E-02 0.  1.
       -2    1    3    3    0  502 -0.10225652401E+03  0.30421483210E+03  0.12610293081E+04  0.13012294097E+04  0.25500000920E-02 0. -1.
</event>
<event>
 5   0  0.6395992E-05  0.1898226E+04  0.7818609E-02  0.8655740E-01
       -2   -1    0    0    0  501  0.00000000000E+00  0.00000000000E+00  0.11420005876E+04  0.11420005876E+04  0.25500000920E-02 0. -1.
        2   -1    0    0  501    0  0.00000000000E+00  0.00000000000E+00 -0.78880512718E+03  0.78880512719E+03  0.25500000920E-02 0.  1.
    10030    2    1    2    0    0  0.00000000000E+00  0.00000000000E+00  0.35319546043E+03  0.19308057148E+04  0.18982264552E+04 0.  0.
        4    1    3    3  502    0  0.24633341632E+03  0.73995168654E+03 -0.37361661830E+03  0.86475409266E+03  0.12699999809E+01 0.  1.
       -4    1    3    3    0  502 -0.24633341632E+03 -0.73995168654E+03  0.72681207873E+03  0.10660516221E+04  0.12699999809E+01 0. -1.
</event>
<event>
 5   0  0.3203527E-05  0.1892350E+04  0.7818609E-02  0.8658674E-01
       -1   -1    0    0    0  501  0.00000000000E+00  0.00000000000E+00  0.93722418317E+03  0.93722418319E+03  0.50400001928E-02 0. -1.
        1   -1    0    0  501    0  0.00000000000E+00  0.00000000000E+00 -0.95521087211E+03  0.95521087213E+03  0.50400001928E-02 0.  1.
    10030    2    1    2    0    0  0.00000000000E+00  0.00000000000E+00 -0.17986688942E+02  0.18924350553E+04  0.18923495759E+04 0.  0.
        1    1    3    3  502    0  0.70345062349E+02  0.90695630531E+03  0.25126552801E+03  0.94374389171E+03  0.50400001928E-02 0. -1.
       -1    1    3    3    0  502 -0.70345062349E+02 -0.90695630531E+03 -0.26925221695E+03  0.94869116361E+03  0.50400001928E-02 0.  1.
</event>
<event>
 5   0  0.6361762E-05  0.1878977E+04  0.7818609E-02  0.8665392E-01
        2   -1    0    0  501    0  0.00000000000E+00  0.00000000000E+00  0.99753982992E+03  0.99753982993E+03  0.25500000920E-02 0. -1.
       -2   -1    0    0    0  501  0.00000000000E+00  0.00000000000E+00 -0.88481547177E+03  0.88481547178E+03  0.25500000920E-02 0.  1.
    10030    2    1    2    0    0  0.00000000000E+00  0.00000000000E+00  0.11272435815E+03  0.18823553017E+04  0.18789770358E+04 0.  0.
        1    1    3    3  502    0  0.84483263870E+03 -0.40999177148E+03  0.84754537603E+02  0.94287791986E+03  0.50400001928E-02 0. -1.
       -1    1    3    3    0  502 -0.84483263870E+03  0.40999177148E+03  0.27969820547E+02  0.93947738184E+03  0.50400001928E-02 0.  1.
</event>
<event>
 5   0  0.3086139E-05  0.1899951E+04  0.7818609E-02  0.8654881E-01
       -1   -1    0    0    0  501  0.00000000000E+00  0.00000000000E+00  0.92705870375E+03  0.92705870377E+03  0.50400001928E-02 0.  1.
        1   -1    0    0  501    0  0.00000000000E+00  0.00000000000E+00 -0.97345892945E+03  0.97345892946E+03  0.50400001928E-02 0. -1.
    10030    2    1    2    0    0  0.00000000000E+00  0.00000000000E+00 -0.46400225697E+02  0.19005176332E+04  0.18999511292E+04 0.  0.
        2    1    3    3  502    0  0.31497059608E+03  0.89567799407E+03  0.85588081719E+01  0.94948343780E+03  0.25500000920E-02 0.  1.
       -2    1    3    3    0  502 -0.31497059608E+03 -0.89567799407E+03 -0.54959033868E+02  0.95103419543E+03  0.25500000920E-02 0. -1.
</event>
<event>
 5   0  0.3203527E-05  0.1901613E+04  0.7818609E-02  0.8654054E-01
       -1   -1    0    0    0  501  0.00000000000E+00  0.00000000000E+00  0.49098845822E+03  0.49098845825E+03  0.50400001928E-02 0. -1.
        1   -1    0    0  501    0  0.00000000000E+00  0.00000000000E+00 -0.18412502233E+04  0.18412502233E+04  0.50400001928E-02 0.  1.
    10030    2    1    2    0    0  0.00000000000E+00  0.00000000000E+00 -0.13502617651E+04  0.23322386816E+04  0.19016125877E+04 0.  0.
        1    1    3    3  502    0 -0.56596121951E+03 -0.72645413295E+02 -0.16079153204E+04  0.17061597627E+04  0.50400001928E-02 0.  1.
       -1    1    3    3    0  502  0.56596121951E+03  0.72645413295E+02  0.25765355535E+03  0.62607891889E+03  0.50400001928E-02 0. -1.
</event>
<event>
 5   0  0.3083469E-05  0.1900671E+04  0.7818609E-02  0.8654522E-01
        1   -1    0    0  501    0  0.00000000000E+00  0.00000000000E+00  0.50564181448E+03  0.50564181451E+03  0.50400001928E-02 0. -1.
       -1   -1    0    0    0  501  0.00000000000E+00  0.00000000000E+00 -0.17861217661E+04  0.17861217661E+04  0.50400001928E-02 0.  1.
    10030    2    1    2    0    0  0.00000000000E+00  0.00000000000E+00 -0.12804799517E+04  0.22917635806E+04  0.19006713032E+04 0.  0.
        3    1    3    3  502    0 -0.43657243442E+03 -0.36151301708E+03 -0.15599873830E+04  0.16597734174E+04  0.10100000352E+00 0.  1.
       -3    1    3    3    0  502  0.43657243442E+03  0.36151301708E+03  0.27950743132E+03  0.63199016320E+03  0.10100000352E+00 0. -1.
</event>
<event>
 5   0  0.3203527E-05  0.1770478E+04  0.7818609E-02  0.8722159E-01
       -1   -1    0    0    0  501  0.00000000000E+00  0.00000000000E+00  0.35331212927E+03  0.35331212931E+03  0.50400001928E-02 0. -1.
        1   -1    0    0  501    0  0.00000000000E+00  0.00000000000E+00 -0.22180044636E+04  0.22180044637E+04  0.50400001928E-02 0.  1.
    10030    2    1    2    0    0  0.00000000000E+00  0.00000000000E+00 -0.18646923344E+04  0.25713165930E+04  0.17704777659E+04 0.  0.
        1    1    3    3  502    0 -0.62729181967E+03 -0.20984387977E+03 -0.77914337979E+02  0.66603312604E+03  0.50400001928E-02 0. -1.
       -1    1    3    3    0  502  0.62729181967E+03  0.20984387977E+03 -0.17867779964E+04  0.19052834669E+04  0.50400001928E-02 0.  1.
</event>
<event>
 5   0  0.3203527E-05  0.1899495E+04  0.7818609E-02  0.8655108E-01
       -1   -1    0    0    0  501  0.00000000000E+00  0.00000000000E+00  0.12972888560E+04  0.12972888560E+04  0.50400001928E-02 0.  1.
        1   -1    0    0  501    0  0.00000000000E+00  0.00000000000E+00 -0.69531207112E+03  0.69531207114E+03  0.50400001928E-02 0. -1.
    10030    2    1    2    0    0  0.00000000000E+00  0.00000000000E+00  0.60197678483E+03  0.19926009271E+04  0.18994953028E+04 0.  0.
        1    1    3    3  502    0 -0.34377096604E+03 -0.59798471245E+03  0.98587325028E+03  0.12032083191E+04  0.50400001928E-02 0.  1.
       -1    1    3    3    0  502  0.34377096604E+03  0.59798471245E+03 -0.38389646545E+03  0.78939260804E+03  0.50400001928E-02 0. -1.
</event>
<event>
 5   0  0.3086139E-05  0.1889454E+04  0.7818609E-02  0.8660124E-01
       -1   -1    0    0    0  501  0.00000000000E+00  0.00000000000E+00  0.75151813930E+03  0.75151813932E+03  0.50400001928E-02 0. -1.
        1   -1    0    0  501    0  0.00000000000E+00  0.00000000000E+00 -0.11876085712E+04  0.11876085712E+04  0.50400001928E-02 0.  1.
    10030    2    1    2    0    0  0.00000000000E+00  0.00000000000E+00 -0.43609043192E+03  0.19391267106E+04  0.18894542955E+04 0.  0.
        2    1    3    3  502    0  0.52906020895E+03 -0.31685613688E+03  0.51645596096E+03  0.80438130000E+03  0.25500000920E-02 0. -1.
       -2    1    3    3    0  502 -0.52906020895E+03  0.31685613688E+03 -0.95254639288E+03  0.11347454106E+04  0.25500000920E-02 0.  1.
</event>
<event>
 5   0  0.3203527E-05  0.1894590E+04  0.7818609E-02  0.8657554E-01
        1   -1    0    0  501    0  0.00000000000E+00  0.00000000000E+00  0.19063682357E+04  0.19063682357E+04  0.50400001928E-02 0.  1.
       -1   -1    0    0    0  501  0.00000000000E+00  0.00000000000E+00 -0.47072093150E+03  0.47072093152E+03  0.50400001928E-02 0. -1.
    10030    2    1    2    0    0  0.00000000000E+00  0.00000000000E+00  0.14356473042E+04  0.23770891672E+04  0.18945895933E+04 0.  0.
        1    1    3    3  502    0  0.61090629802E+01 -0.36149586955E+03 -0.38074989034E+03  0.52505910464E+03  0.50400001928E-02 0. -1.
       -1    1    3    3    0  502 -0.61090629802E+01  0.36149586955E+03  0.18163971945E+04  0.18520300626E+04  0.50400001928E-02 0.  1.
</event>
<event>
 5   0  0.6423388E-05  0.1903967E+04  0.7818609E-02  0.8652884E-01
        2   -1    0    0  501    0  0.00000000000E+00  0.00000000000E+00  0.10810279365E+04  0.10810279365E+04  0.25500000920E-02 0. -1.
       -2   -1    0    0    0  501  0.00000000000E+00  0.00000000000E+00 -0.83834378662E+03  0.83834378662E+03  0.25500000920E-02 0.  1.
    10030    2    1    2    0    0  0.00000000000E+00  0.00000000000E+00  0.24268414990E+03  0.19193717231E+04  0.19039674932E+04 0.  0.
        2    1    3    3  502    0  0.55251281668E+03 -0.35244379474E+03  0.81742553771E+03  0.10476982155E+04  0.25500000920E-02 0. -1.
       -2    1    3    3    0  502 -0.55251281668E+03  0.35244379474E+03 -0.57474138782E+03  0.87167350764E+03  0.25500000920E-02 0.  1.
</event>
<event>
 5   0  0.3086139E-05  0.1895622E+04  0.7818609E-02  0.8657038E-01
        1   -1    0    0  501    0  0.00000000000E+00  0.00000000000E+00  0.17864846990E+04  0.17864846990E+04  0.50400001928E-02 0.  1.
       -1   -1    0    0    0  501  0.00000000000E+00  0.00000000000E+00 -0.50285685419E+03  0.50285685422E+03  0.50400001928E-02 0. -1.
    10030    2    1    2    0    0  0.00000000000E+00  0.00000000000E+00  0.12836278448E+04  0.22893415532E+04  0.18956224053E+04 0.  0.
        2    1    3    3  502    0  0.36140638539E+03 -0.86560472768E+03  0.80590088921E+03  0.12366739114E+04  0.25500000920E-02 0. -1.
       -2    1    3    3    0  502 -0.36140638539E+03  0.86560472768E+03  0.47772695562E+03  0.10526676418E+04  0.25500000920E-02 0.  1.
</event>
<event>
 5   0  0.3147063E-05  0.1897813E+04  0.7818609E-02  0.8655946E-01
        1   -1    0    0  501    0  0.00000000000E+00  0.00000000000E+00  0.10979957635E+04  0.10979957635E+04  0.50400001928E-02 0.  1.
       -1   -1    0    0    0  501  0.00000000000E+00  0.00000000000E+00 -0.82006145473E+03  0.82006145475E+03  0.50400001928E-02 0. -1.
    10030    2    1    2    0    0  0.00000000000E+00  0.00000000000E+00  0.27793430877E+03  0.19180572183E+04  0.18978134820E+04 0.  0.
        5    1    3    3  502    0  0.64776203510E+03 -0.16786355161E+03 -0.54098566833E+03  0.86050067369E+03  0.46999998093E+01 0. -1.
       -5    1    3    3    0  502 -0.64776203510E+03  0.16786355161E+03  0.81891997710E+03  0.10575565446E+04  0.46999998093E+01 0.  1.
</event>
<event>
 5   0  0.6361762E-05  0.1898784E+04  0.7818609E-02  0.8655462E-01
        2   -1    0    0  501    0  0.00000000000E+00  0.00000000000E+00  0.82261842289E+03  0.82261842290E+03  0.25500000920E-02 0. -1.
       -2   -1    0    0    0  501  0.00000000000E+00  0.00000000000E+00 -0.10957031389E+04  0.10957031389E+04  0.25500000920E-02 0.  1.
    10030    2    1    2    0    0  0.00000000000E+00  0.00000000000E+00 -0.27308471596E+03  0.19183215618E+04  0.18987844407E+04 0.  0.
        1    1    3    3  502    0  0.42841684907E+03  0.46488743937E+03 -0.85212695172E+03  0.10610285904E+04  0.50400001928E-02 0.  1.
       -1    1    3    3    0  502 -0.42841684907E+03 -0.46488743937E+03  0.57904223576E+03  0.85729297132E+03  0.50400001928E-02 0. -1.
</event>
<event>
 5   0  0.6361762E-05  0.1897158E+04  0.7818609E-02  0.8656272E-01
       -2   -1    0    0    0  501  0.00000000000E+00  0.00000000000E+00  0.51141699500E+03  0.51141699501E+03  0.25500000920E-02 0. -1.
        2   -1    0    0  501    0  0.00000000000E+00  0.00000000000E+00 -0.17594289732E+04  0.17594289732E+04  0.25500000920E-02 0.  1.
    10030    2    1    2    0    0  0.00000000000E+00  0.00000000000E+00 -0.12480119782E+04  0.22708459682E+04  0.18971577461E+04 0.  0.
        1    1    3    3  502    0  0.37987614596E+03  0.18708829261E+03 -0.16400193209E+04  0.16938037928E+04  0.50400001928E-02 0.  1.
       -1    1    3    3    0  502 -0.37987614596E+03 -0.18708829261E+03  0.39200734268E+03  0.57704217545E+03  0.50400001928E-02 0. -1.
</event>
<event>
 5   0  0.6423388E-05  0.1901639E+04  0.7818609E-02  0.8654041E-01
        2   -1    0    0  501    0  0.00000000000E+00  0.00000000000E+00  0.15989336806E+04  0.15989336806E+04  0.25500000920E-02 0.  1.
       -2   -1    0    0    0  501  0.00000000000E+00  0.00000000000E+00 -0.56541319034E+03  0.56541319034E+03  0.25500000920E-02 0. -1.
    10030    2    1    2    0    0  0.00000000000E+00  0.00000000000E+00  0.10335204902E+04  0.21643468709E+04  0.19016394963E+04 0.  0.
        2    1    3    3  502    0 -0.32373901241E+03 -0.27312117313E+03 -0.45210782339E+03  0.61951885149E+03  0.25500000920E-02 0. -1.
       -2    1    3    3    0  502  0.32373901241E+03  0.27312117313E+03  0.14856283136E+04  0.15448280194E+04  0.25500000920E-02 0.  1.
</event>
<event>
 5   0  0.6098377E-05  0.1905902E+04  0.7818609E-02  0.8651924E-01
       -2   -1    0    0    0  501  0.00000000000E+00  0.00000000000E+00  0.78402522541E+03  0.78402522541E+03  0.25500000920E-02 0.  1.
        2   -1    0    0  501    0  0.00000000000E+00  0.00000000000E+00 -0.11582732562E+04  0.11582732562E+04  0.25500000920E-02 0. -1.
    10030    2    1    2    0    0  0.00000000000E+00  0.00000000000E+00 -0.37424803078E+03  0.19422984816E+04  0.19059018346E+04 0.  0.
        5    1    3    3  502    0  0.52430902297E+01 -0.51282962937E+03  0.63137736789E+03  0.81343788296E+03  0.46999998093E+01 0.  1.
       -5    1    3    3    0  502 -0.52430902297E+01  0.51282962937E+03 -0.10056253987E+04  0.11288605986E+04  0.46999998093E+01 0. -1.
</event>
<event>
 5   0  0.3144958E-05  0.1902159E+04  0.7818609E-02  0.8653783E-01
        1   -1    0    0  501    0  0.00000000000E+00  0.00000000000E+00  0.10820248547E+04  0.10820248547E+04  0.50400001928E-02 0. -1.
       -1   -1    0    0    0  501  0.00000000000E+00  0.00000000000E+00 -0.83598060607E+03  0.83598060609E+03  0.50400001928E-02 0.  1.
    10030    2    1    2    0    0  0.00000000000E+00  0.00000000000E+00  0.24604424861E+03  0.19180054608E+04  0.19021585568E+04 0.  0.
        4    1    3    3  502    0 -0.83608559025E+03 -0.38682603682E+03  0.36137392451E+03  0.98957881101E+03  0.12699999809E+01 0. -1.
       -4    1    3    3    0  502  0.83608559025E+03  0.38682603682E+03 -0.11532967589E+03  0.92842664978E+03  0.12699999809E+01 0.  1.
</event>
<event>
 5   0  0.6361762E-05  0.1905825E+04  0.7818609E-02  0.8651962E-01
        2   -1    0    0  501    0  0.00000000000E+00  0.00000000000E+00  0.78252131223E+03  0.78252131223E+03  0.25500000920E-02 0. -1.
       -2   -1    0    0    0  501  0.00000000000E+00  0.00000000000E+00 -0.11604054921E+04  0.11604054921E+04  0.25500000920E-02 0.  1.
    10030    2    1    2    0    0  0.00000000000E+00  0.00000000000E+00 -0.37788417984E+03  0.19429268043E+04  0.19058247856E+04 0.  0.
        1    1    3    3  502    0 -0.90167294756E+03  0.55696364168E+02 -0.49803729657E+03  0.10315800202E+04  0.50400001928E-02 0.  1.
       -1    1    3    3    0  502  0.90167294756E+03 -0.55696364168E+02  0.12015311673E+03  0.91134678407E+03  0.50400001928E-02 0. -1.
</event>
<event>
 5   0  0.3203527E-05  0.1907716E+04  0.7818609E-02  0.8651025E-01
        1   -1    0    0  501    0  0.00000000000E+00  0.00000000000E+00  0.19711626320E+04  0.19711626320E+04  0.50400001928E-02 0.  1.
       -1   -1    0    0    0  501  0.00000000000E+00  0.00000000000E+00 -0.46157799907E+03  0.46157799909E+03  0.50400001928E-02 0. -1.
    10030    2    1    2    0    0  0.00000000000E+00  0.00000000000E+00  0.15095846329E+04  0.24327406311E+04  0.19077162300E+04 0.  0.
        1    1    3    3  502    0  0.46169867438E+03  0.75276671867E+03  0.29496973386E+03  0.93103734758E+03  0.50400001928E-02 0. -1.
       -1    1    3    3    0  502 -0.46169867438E+03 -0.75276671867E+03  0.12146148991E+04  0.15017032835E+04  0.50400001928E-02 0.  1.
</event>
<event>
 5   0  0.3086139E-05  0.1897332E+04  0.7818609E-02  0.8656185E-01
       -1   -1    0    0    0  501  0.00000000000E+00  0.00000000000E+00  0.77431419675E+03  0.77431419677E+03  0.50400001928E-02 0. -1.
        1   -1    0    0  501    0  0.00000000000E+00  0.00000000000E+00 -0.11622769462E+04  0.11622769462E+04  0.50400001928E-02 0.  1.
    10030    2    1    2    0    0  0.00000000000E+00  0.00000000000E+00 -0.38796274948E+03  0.19365911430E+04  0.18973323800E+04 0.  0.
        2    1    3    3  502    0 -0.57343906801E+02 -0.82901948696E+03  0.27309616778E+03  0.87472461396E+03  0.25500000920E-02 0. -1.
       -2    1    3    3    0  502  0.57343906801E+02  0.82901948696E+03 -0.66105891726E+03  0.10618665290E+04  0.25500000920E-02 0.  1.
</event>
<event>
 5   0  0.3203527E-05  0.1895951E+04  0.7818609E-02  0.8656874E-01
       -1   -1    0    0    0  501  0.00000000000E+00  0.00000000000E+00  0.42853044133E+03  0.42853044136E+03  0.50400001928E-02 0. -1.
        1   -1    0    0  501    0  0.00000000000E+00  0.00000000000E+00 -0.20970683022E+04  0.20970683022E+04  0.50400001928E-02 0.  1.
    10030    2    1    2    0    0  0.00000000000E+00  0.00000000000E+00 -0.16685378608E+04  0.25255987435E+04  0.18959510596E+04 0.  0.
        1    1    3    3  502    0 -0.67655767168E+03  0.65247975760E+03 -0.67005003259E+03  0.11543080886E+04  0.50400001928E-02 0.  1.
       -1    1    3    3    0  502  0.67655767168E+03 -0.65247975760E+03 -0.99848782825E+03  0.13712906550E+04  0.50400001928E-02 0. -1.
</event>
<event>
 5   0  0.3147063E-05  0.1894098E+04  0.7818609E-02  0.8657800E-01
       -1   -1    0    0    0  501  0.00000000000E+00  0.00000000000E+00  0.70921618125E+03  0.70921618127E+03  0.50400001928E-02 0. -1.
        1   -1    0    0  501    0  0.00000000000E+00  0.00000000000E+00 -0.12646386488E+04  0.12646386489E+04  0.50400001928E-02 0.  1.
    10030    2    1    2    0    0  0.00000000000E+00  0.00000000000E+00 -0.55542246760E+03  0.19738548301E+04  0.18940984063E+04 0.  0.
        5    1    3    3  502    0 -0.78389049456E+03  0.50277487002E+03 -0.45704229951E+03  0.10373893343E+04  0.46999998093E+01 0.  1.
       -5    1    3    3    0  502  0.78389049456E+03 -0.50277487002E+03 -0.98380168083E+02  0.93646549582E+03  0.46999998093E+01 0. -1.
</event>
<event>
 5   0  0.3086139E-05  0.1887020E+04  0.7818609E-02  0.8661344E-01
       -1   -1    0    0    0  501  0.00000000000E+00  0.00000000000E+00  0.12655379867E+04  0.12655379867E+04  0.50400001928E-02 0.  1.
        1   -1    0    0  501    0  0.00000000000E+00  0.00000000000E+00 -0.70342519809E+03  0.70342519811E+03  0.50400001928E-02 0. -1.
    10030    2    1    2    0    0  0.00000000000E+00  0.00000000000E+00  0.56211278862E+03  0.19689631848E+04  0.18870202002E+04 0.  0.
        2    1    3    3  502    0 -0.25588574423E+03 -0.35106024590E+03 -0.59286413842E+03  0.73498890943E+03  0.25500000920E-02 0. -1.
       -2    1    3    3    0  502  0.25588574423E+03  0.35106024590E+03  0.11549769270E+04  0.12339742754E+04  0.25500000920E-02 0.  1.
</event>
<event>
 5   0  0.6361762E-05  0.1900194E+04  0.7818609E-02  0.8654760E-01
        2   -1    0    0  501    0  0.00000000000E+00  0.00000000000E+00  0.10091097170E+04  0.10091097170E+04  0.25500000920E-02 0. -1.
       -2   -1    0    0    0  501  0.00000000000E+00  0.00000000000E+00 -0.89453541958E+03  0.89453541959E+03  0.25500000920E-02 0.  1.
    10030    2    1    2    0    0  0.00000000000E+00  0.00000000000E+00  0.11457429742E+03  0.19036451366E+04  0.19001940786E+04 0.  0.
        1    1    3    3  502    0  0.59041282711E+03  0.16521748470E+02 -0.68825802330E+03  0.90695059471E+03  0.50400001928E-02 0.  1.
       -1    1    3    3    0  502 -0.59041282711E+03 -0.16521748470E+02  0.80283232072E+03  0.99669454188E+03  0.50400001928E-02 0. -1.
</event>
<event>
 5   0  0.6452182E-05  0.1899565E+04  0.7818609E-02  0.8655073E-01
        2   -1    0    0  501    0  0.00000000000E+00  0.00000000000E+00  0.69012355386E+03  0.69012355387E+03  0.25500000920E-02 0.  1.
       -2   -1    0    0    0  501  0.00000000000E+00  0.00000000000E+00 -0.13071378881E+04  0.13071378881E+04  0.25500000920E-02 0. -1.
    10030    2    1    2    0    0  0.00000000000E+00  0.00000000000E+00 -0.61701433422E+03  0.19972614420E+04  0.18995648393E+04 0.  0.
        3    1    3    3  502    0 -0.43113473780E+03 -0.35474582679E+03  0.49936202954E+03  0.74905554567E+03  0.10100000352E+00 0.  1.
       -3    1    3    3    0  502  0.43113473780E+03  0.35474582679E+03 -0.11163763638E+04  0.12482058963E+04  0.10100000352E+00 0. -1.
</event>
<event>
 5   0  0.3203527E-05  0.1903605E+04  0.7818609E-02  0.8653064E-01
        1   -1    0    0  501    0  0.00000000000E+00  0.00000000000E+00  0.75816634187E+03  0.75816634189E+03  0.50400001928E-02 0.  1.
       -1   -1    0    0    0  501  0.00000000000E+00  0.00000000000E+00 -0.11948936414E+04  0.11948936414E+04  0.50400001928E-02 0. -1.
    10030    2    1    2    0    0  0.00000000000E+00  0.00000000000E+00 -0.43672729955E+03  0.19530599833E+04  0.19036051493E+04 0.  0.
        1    1    3    3  502    0  0.27382298389E+03 -0.88597112116E+03 -0.43842200519E+03  0.10257376413E+04  0.50400001928E-02 0. -1.
       -1    1    3    3    0  502 -0.27382298389E+03  0.88597112116E+03  0.16947056404E+01  0.92732234206E+03  0.50400001928E-02 0.  1.
</event>
<event>
 5   0  0.3086139E-05  0.1899191E+04  0.7818609E-02  0.8655259E-01
        1   -1    0    0  501    0  0.00000000000E+00  0.00000000000E+00  0.99148231105E+03  0.99148231106E+03  0.50400001928E-02 0.  1.
       -1   -1    0    0    0  501  0.00000000000E+00  0.00000000000E+00 -0.90947868473E+03  0.90947868475E+03  0.50400001928E-02 0. -1.
    10030    2    1    2    0    0  0.00000000000E+00  0.00000000000E+00  0.82003626317E+02  0.19009609958E+04  0.18991914366E+04 0.  0.
        2    1    3    3  502    0  0.69850981657E+03 -0.60477982079E+03  0.26042612553E+03  0.95994602053E+03  0.25500000920E-02 0.  1.
       -2    1    3    3    0  502 -0.69850981657E+03  0.60477982079E+03 -0.17842249921E+03  0.94101497528E+03  0.25500000920E-02 0. -1.
</event>
<event>
 5   0  0.3203527E-05  0.1899947E+04  0.7818609E-02  0.8654883E-01
       -1   -1    0    0    0  501  0.00000000000E+00  0.00000000000E+00  0.98852292895E+03  0.98852292897E+03  0.50400001928E-02 0.  1.
        1   -1    0    0  501    0  0.00000000000E+00  0.00000000000E+00 -0.91292702859E+03  0.91292702860E+03  0.50400001928E-02 0. -1.
    10030    2    1    2    0    0  0.00000000000E+00  0.00000000000E+00  0.75595900366E+02  0.19014499576E+04  0.18999466311E+04 0.  0.
        1    1    3    3  502    0 -0.37328215552E+03  0.53479404632E+03 -0.65347650682E+03  0.92324199677E+03  0.50400001928E-02 0. -1.
       -1    1    3    3    0  502  0.37328215552E+03 -0.53479404632E+03  0.72907240719E+03  0.97820796079E+03  0.50400001928E-02 0.  1.
</event>
<event>
 5   0  0.3086139E-05  0.1899449E+04  0.7818609E-02  0.8655131E-01
       -1   -1    0    0    0  501  0.00000000000E+00  0.00000000000E+00  0.71684304227E+03  0.71684304229E+03  0.50400001928E-02 0. -1.
        1   -1    0    0  501    0  0.00000000000E+00  0.00000000000E+00 -0.12582617821E+04  0.12582617821E+04  0.50400001928E-02 0.  1.
    10030    2    1    2    0    0  0.00000000000E+00  0.00000000000E+00 -0.54141873979E+03  0.19751048244E+04  0.18994485556E+04 0.  0.
        2    1    3    3  502    0 -0.23985459352E+03  0.78451544545E+03 -0.76828924425E+03  0.11239497645E+04  0.25500000920E-02 0.  1.
       -2    1    3    3    0  502  0.23985459352E+03 -0.78451544545E+03  0.22687050446E+03  0.85115505990E+03  0.25500000920E-02 0. -1.
</event>
<event>
 5   0  0.3083469E-05  0.1900809E+04  0.7818609E-02  0.8654454E-01
       -1   -1    0    0    0  501  0.00000000000E+00  0.00000000000E+00  0.60166495654E+03  0.60166495656E+03  0.50400001928E-02 0.  1.
        1   -1    0    0  501    0  0.00000000000E+00  0.00000000000E+00 -0.15012812214E+04  0.15012812214E+04  0.50400001928E-02 0. -1.
    10030    2    1    2    0    0  0.00000000000E+00  0.00000000000E+00 -0.89961626484E+03  0.21029461779E+04  0.19008085657E+04 0.  0.
        3    1    3    3  502    0 -0.92518547541E+03 -0.93981718906E+02 -0.23281943363E+03  0.95864781138E+03  0.10100000352E+00 0.  1.
       -3    1    3    3    0  502  0.92518547541E+03  0.93981718906E+02 -0.66679683120E+03  0.11442983666E+04  0.10100000352E+00 0. -1.
</event>
<event>
 5   0  0.6361762E-05  0.1898025E+04  0.7818609E-02  0.8655840E-01
       -2   -1    0    0    0  501  0.00000000000E+00  0.00000000000E+00  0.46973906437E+03  0.46973906438E+03  0.25500000920E-02 0.  1.
        2   -1    0    0  501    0  0.00000000000E+00  0.00000000000E+00 -0.19172880471E+04  0.19172880471E+04  0.25500000920E-02 0. -1.
    10030    2    1    2    0    0  0.00000000000E+00  0.00000000000E+00 -0.14475489827E+04  0.23870271114E+04  0.18980253880E+04 0.  0.
        1    1    3    3  502    0  0.10851906507E+03  0.51825237084E+03 -0.17142490785E+04  0.17941604751E+04  0.50400001928E-02 0. -1.
       -1    1    3    3    0  502 -0.10851906507E+03 -0.51825237084E+03  0.26670009578E+03  0.59286663633E+03  0.50400001928E-02 0.  1.
</event>
<event>
 5   0  0.3147063E-05  0.1897287E+04  0.7818609E-02  0.8656208E-01
       -1   -1    0    0    0  501  0.00000000000E+00  0.00000000000E+00  0.12438225670E+04  0.12438225670E+04  0.50400001928E-02 0. -1.
        1   -1    0    0  501    0  0.00000000000E+00  0.00000000000E+00 -0.72351529444E+03  0.72351529446E+03  0.50400001928E-02 0.  1.
    10030    2    1    2    0    0  0.00000000000E+00  0.00000000000E+00  0.52030727255E+03  0.19673378615E+04  0.18972871694E+04 0.  0.
        5    1    3    3  502    0 -0.93885182524E+03  0.90751876603E+02  0.15530703767E+03  0.95593986150E+03  0.46999998093E+01 0. -1.
       -5    1    3    3    0  502  0.93885182524E+03 -0.90751876603E+02  0.36500023489E+03  0.10113980000E+04  0.46999998093E+01 0.  1.
</event>
<event>
 5   0  0.6423388E-05  0.1899999E+04  0.7818609E-02  0.8654857E-01
        2   -1    0    0  501    0  0.00000000000E+00  0.00000000000E+00  0.17335029528E+04  0.17335029528E+04  0.25500000920E-02 0. -1.
       -2   -1    0    0    0  501  0.00000000000E+00  0.00000000000E+00 -0.52062180286E+03  0.52062180287E+03  0.25500000920E-02 0.  1.
    10030    2    1    2    0    0  0.00000000000E+00  0.00000000000E+00  0.12128811500E+04  0.22541247557E+04  0.18999994027E+04 0.  0.
        2    1    3    3  502    0 -0.52138706360E+03 -0.77564505608E+03  0.40430356893E+03  0.10182981385E+04  0.25500000920E-02 0. -1.
       -2    1    3    3    0  502  0.52138706360E+03  0.77564505608E+03  0.80857758105E+03  0.12358266172E+04  0.25500000920E-02 0.  1.
</event>
<event>
 5   0  0.3086139E-05  0.1897408E+04  0.7818609E-02  0.8656148E-01
       -1   -1    0    0    0  501  0.00000000000E+00  0.00000000000E+00  0.96268664253E+03  0.96268664254E+03  0.50400001928E-02 0.  1.
        1   -1    0    0  501    0  0.00000000000E+00  0.00000000000E+00 -0.93492471375E+03  0.93492471376E+03  0.50400001928E-02 0. -1.
    10030    2    1    2    0    0  0.00000000000E+00  0.00000000000E+00  0.27761928783E+02  0.18976113563E+04  0.18974082678E+04 0.  0.
        2    1    3    3  502    0  0.45089474820E+03 -0.89496742752E+02 -0.81610170732E+03  0.93666308650E+03  0.25500000920E-02 0. -1.
       -2    1    3    3    0  502 -0.45089474820E+03  0.89496742752E+02  0.84386363610E+03  0.96094826981E+03  0.25500000920E-02 0.  1.
</event>
<event>
 5   0  0.6452182E-05  0.1863218E+04  0.7818609E-02  0.8673385E-01
       -2   -1    0    0    0  501  0.00000000000E+00  0.00000000000E+00  0.95171308536E+03  0.95171308536E+03  0.25500000920E-02 0.  1.
        2   -1    0    0  501    0  0.00000000000E+00  0.00000000000E+00 -0.91192937269E+03  0.91192937269E+03  0.25500000920E-02 0. -1.
    10030    2    1    2    0    0  0.00000000000E+00  0.00000000000E+00  0.39783712672E+02  0.18636424581E+04  0.18632177725E+04 0.  0.
        3    1    3    3  502    0  0.76841811295E+03  0.85309366805E+02 -0.49998715661E+03  0.92072322190E+03  0.10100000352E+00 0. -1.
       -3    1    3    3    0  502 -0.76841811295E+03 -0.85309366805E+02  0.53977086928E+03  0.94291923615E+03  0.10100000352E+00 0.  1.
</event>
<event>
 5   0  0.3203527E-05  0.1897261E+04  0.7818609E-02  0.8656221E-01
       -1   -1    0    0    0  501  0.00000000000E+00  0.00000000000E+00  0.10269536378E+04  0.10269536378E+04  0.50400001928E-02 0. -1.
        1   -1    0    0  501    0  0.00000000000E+00  0.00000000000E+00 -0.87628131146E+03  0.87628131147E+03  0.50400001928E-02 0.  1.
    10030    2    1    2    0    0  0.00000000000E+00  0.00000000000E+00  0.15067232630E+03  0.19032349492E+04  0.18972614796E+04 0.  0.
        1    1    3    3  502    0  0.55168806502E+03 -0.39784791852E+03  0.73867266288E+03  0.10041314606E+04  0.50400001928E-02 0. -1.
       -1    1    3    3    0  502 -0.55168806502E+03  0.39784791852E+03 -0.58800033658E+03  0.89910348859E+03  0.50400001928E-02 0.  1.
</event>
<event>
 5   0  0.6452182E-05  0.1904115E+04  0.7818609E-02  0.8652811E-01
        2   -1    0    0  501    0  0.00000000000E+00  0.00000000000E+00  0.15040196932E+04  0.15040196932E+04  0.25500000920E-02 0.  1.
       -2   -1    0    0    0  501  0.00000000000E+00  0.00000000000E+00 -0.60266035741E+03  0.60266035742E+03  0.25500000920E-02 0. -1.
    10030    2    1    2    0    0  0.00000000000E+00  0.00000000000E+00  0.90135933578E+03  0.21066800506E+04  0.19041145405E+04 0.  0.
        3    1    3    3  502    0 -0.35958316839E+03 -0.42969193908E+03 -0.40093191734E+03  0.68897142904E+03  0.10100000352E+00 0. -1.
       -3    1    3    3    0  502  0.35958316839E+03  0.42969193908E+03  0.13022912531E+04  0.14177086216E+04  0.10100000352E+00 0.  1.
</event>
<event>
 5   0  0.3083469E-05  0.1897644E+04  0.7818609E-02  0.8656030E-01
        1   -1    0    0  501    0  0.00000000000E+00  0.00000000000E+00  0.97834716720E+03  0.97834716721E+03  0.50400001928E-02 0. -1.
       -1   -1    0    0    0  501  0.00000000000E+00  0.00000000000E+00 -0.92018804864E+03  0.92018804865E+03  0.50400001928E-02 0.  1.
    10030    2    1    2    0    0  0.00000000000E+00  0.00000000000E+00  0.58159118565E+02  0.18985352159E+04  0.18976441929E+04 0.  0.
        3    1    3    3  502    0 -0.15083788797E+03  0.96415089611E+02 -0.90313873090E+03  0.92071033198E+03  0.10100000352E+00 0.  1.
       -3    1    3    3    0  502  0.15083788797E+03 -0.96415089611E+02  0.96129784947E+03  0.97782488389E+03  0.10100000352E+00 0. -1.
</event>
<event>
 5   0  0.3147063E-05  0.1896685E+04  0.7818609E-02  0.8656508E-01
       -1   -1    0    0    0  501  0.00000000000E+00  0.00000000000E+00  0.67159044741E+03  0.67159044743E+03  0.50400001928E-02 0. -1.
        1   -1    0    0  501    0  0.00000000000E+00  0.00000000000E+00 -0.13391399512E+04  0.13391399512E+04  0.50400001928E-02 0.  1.
    10030    2    1    2    0    0  0.00000000000E+00  0.00000000000E+00 -0.66754950378E+03  0.20107303986E+04  0.18966851072E+04 0.  0.
        5    1    3    3  502    0  0.34095215799E+03 -0.80392087487E+03  0.58321516031E+02  0.87519177117E+03  0.46999998093E+01 0. -1.
       -5    1    3    3    0  502 -0.34095215799E+03  0.80392087487E+03 -0.72587101981E+03  0.11355386275E+04  0.46999998093E+01 0.  1.
</event>
<event>
 5   0  0.3083469E-05  0.1899071E+04  0.7818609E-02  0.8655319E-01
       -1   -1    0    0    0  501  0.00000000000E+00  0.00000000000E+00  0.14644873171E+04  0.14644873171E+04  0.50400001928E-02 0.  1.
        1   -1    0    0  501    0  0.00000000000E+00  0.00000000000E+00 -0.61565415974E+03  0.61565415976E+03  0.50400001928E-02 0. -1.
    10030    2    1    2    0    0  0.00000000000E+00  0.00000000000E+00  0.84883315739E+03  0.20801414769E+04  0.18990710452E+04 0.  0.
        3    1    3    3  502    0 -0.60391534316E+03 -0.28429491680E+03  0.11641450687E+04  0.13419281249E+04  0.10100000352E+00 0.  1.
       -3    1    3    3    0  502  0.60391534316E+03  0.28429491680E+03 -0.31531191127E+03  0.73821335196E+03  0.10100000352E+00 0. -1.
</event>
<event>
 5   0  0.6098377E-05  0.1900193E+04  0.7818609E-02  0.8654760E-01
        2   -1    0    0  501    0  0.00000000000E+00  0.00000000000E+00  0.70941546948E+03  0.70941546948E+03  0.25500000920E-02 0.  1.
       -2   -1    0    0    0  501  0.00000000000E+00  0.00000000000E+00 -0.12724326439E+04  0.12724326439E+04  0.25500000920E-02 0. -1.
    10030    2    1    2    0    0  0.00000000000E+00  0.00000000000E+00 -0.56301717447E+03  0.19818481134E+04  0.19001930444E+04 0.  0.
        5    1    3    3  502    0  0.28779934504E+03 -0.49740639359E+03  0.50758759114E+03  0.76675213470E+03  0.46999998093E+01 0.  1.
       -5    1    3    3    0  502 -0.28779934504E+03  0.49740639359E+03 -0.10706047656E+04  0.12150959787E+04  0.46999998093E+01 0. -1.
</event>
<event>
 5   0  0.6361762E-05  0.1895857E+04  0.7818609E-02  0.8656921E-01
        2   -1    0    0  501    0  0.00000000000E+00  0.00000000000E+00  0.10822486779E+04  0.10822486779E+04  0.25500000920E-02 0. -1.
       -2   -1    0    0    0  501  0.00000000000E+00  0.00000000000E+00 -0.83027932937E+03  0.83027932938E+03  0.25500000920E-02 0.  1.
    10030    2    1    2    0    0  0.00000000000E+00  0.00000000000E+00  0.25196934854E+03  0.19125280073E+04  0.18958572800E+04 0.  0.
        1    1    3    3  502    0  0.13537483462E+03 -0.90295807963E+03  0.38299752972E+03  0.99012461197E+03  0.50400001928E-02 0.  1.
       -1    1    3    3    0  502 -0.13537483462E+03  0.90295807963E+03 -0.13102818119E+03  0.92240339533E+03  0.50400001928E-02 0. -1.
</event>
<event>
 5   0  0.6361762E-05  0.1882692E+04  0.7818609E-02  0.8663520E-01
       -2   -1    0    0    0  501  0.00000000000E+00  0.00000000000E+00  0.62790479516E+03  0.62790479517E+03  0.25500000920E-02 0.  1.
        2   -1    0    0  501    0  0.00000000000E+00  0.00000000000E+00 -0.14112523085E+04  0.14112523085E+04  0.25500000920E-02 0. -1.
    10030    2    1    2    0    0  0.00000000000E+00  0.00000000000E+00 -0.78334751332E+03  0.20391571037E+04  0.18826917875E+04 0.  0.
        1    1    3    3  502    0  0.27381041852E+03  0.39113553949E+03  0.48702794726E+03  0.68202300327E+03  0.50400001928E-02 0.  1.
       -1    1    3    3    0  502 -0.27381041852E+03 -0.39113553949E+03 -0.12703754606E+04  0.13571341004E+04  0.50400001928E-02 0. -1.
</event>
<event>
 5   0  0.3086139E-05  0.1905541E+04  0.7818609E-02  0.8652103E-01
       -1   -1    0    0    0  501  0.00000000000E+00  0.00000000000E+00  0.50960396828E+03  0.50960396830E+03  0.50400001928E-02 0. -1.
        1   -1    0    0  501    0  0.00000000000E+00  0.00000000000E+00 -0.17813283322E+04  0.17813283322E+04  0.50400001928E-02 0.  1.
    10030    2    1    2    0    0  0.00000000000E+00  0.00000000000E+00 -0.12717243640E+04  0.22909323005E+04  0.19055413792E+04 0.  0.
        2    1    3    3  502    0  0.12687260579E+03 -0.74384787189E+03  0.63475645317E+02  0.75725522261E+03  0.25500000920E-02 0. -1.
       -2    1    3    3    0  502 -0.12687260579E+03  0.74384787189E+03 -0.13352000093E+04  0.15336770779E+04  0.25500000920E-02 0.  1.
</event>
<event>
 5   0  0.2279625E-05  0.1897142E+04  0.7818609E-02  0.8656280E-01
        4   -1    0    0  501    0  0.00000000000E+00  0.00000000000E+00  0.93207307349E+03  0.93207393871E+03  0.12699999809E+01 0.  1.
       -4   -1    0    0    0  501  0.00000000000E+00  0.00000000000E+00 -0.96535944287E+03  0.96536027825E+03  0.12699999809E+01 0. -1.
    10030    2    1    2    0    0  0.00000000000E+00  0.00000000000E+00 -0.33286369373E+02  0.18974342170E+04  0.18971422259E+04 0.  0.
        3    1    3    3  502    0 -0.21860772250E+03 -0.55350856037E+03 -0.75542194185E+03  0.96167737998E+03  0.10100000352E+00 0. -1.
       -3    1    3    3    0  502  0.21860772250E+03  0.55350856037E+03  0.72213557247E+03  0.93575683699E+03  0.10100000352E+00 0.  1.
</event>
<event>
 5   0  0.6423388E-05  0.1958569E+04  0.7818609E-02  0.8626240E-01
       -2   -1    0    0    0  501  0.00000000000E+00  0.00000000000E+00  0.52864836919E+03  0.52864836919E+03  0.25500000920E-02 0.  1.
        2   -1    0    0  501    0  0.00000000000E+00  0.00000000000E+00 -0.18140563858E+04  0.18140563858E+04  0.25500000920E-02 0. -1.
    10030    2    1    2    0    0  0.00000000000E+00  0.00000000000E+00 -0.12854080167E+04  0.23427047550E+04  0.19585688142E+04 0.  0.
        2    1    3    3  502    0 -0.14836309646E+03 -0.96796230696E+03 -0.63559593976E+03  0.11674522837E+04  0.25500000920E-02 0. -1.
       -2    1    3    3    0  502  0.14836309646E+03  0.96796230696E+03 -0.64981207690E+03  0.11752524713E+04  0.25500000920E-02 0.  1.
</event>
<event>
 5   0  0.3147063E-05  0.1900508E+04  0.7818609E-02  0.8654604E-01
        1   -1    0    0  501    0  0.00000000000E+00  0.00000000000E+00  0.13233198935E+04  0.13233198935E+04  0.50400001928E-02 0. -1.
       -1   -1    0    0    0  501  0.00000000000E+00  0.00000000000E+00 -0.68236147013E+03  0.68236147015E+03  0.50400001928E-02 0.  1.
    10030    2    1    2    0    0  0.00000000000E+00  0.00000000000E+00  0.64095842337E+03  0.20056813637E+04  0.19005078353E+04 0.  0.
        5    1    3    3  502    0  0.25201889045E+03 -0.90914497766E+03  0.20060494838E+03  0.96453229436E+03  0.46999998093E+01 0. -1.
       -5    1    3    3    0  502 -0.25201889045E+03  0.90914497766E+03  0.44035347499E+03  0.10411490693E+04  0.46999998093E+01 0.  1.
</event>
<event>
 5   0  0.3144958E-05  0.1906275E+04  0.7818609E-02  0.8651739E-01
        1   -1    0    0  501    0  0.00000000000E+00  0.00000000000E+00  0.13658507707E+04  0.13658507707E+04  0.50400001928E-02 0.  1.
       -1   -1    0    0    0  501  0.00000000000E+00  0.00000000000E+00 -0.66513199996E+03  0.66513199998E+03  0.50400001928E-02 0. -1.
    10030    2    1    2    0    0  0.00000000000E+00  0.00000000000E+00  0.70071877072E+03  0.20309827707E+04  0.19062749590E+04 0.  0.
        4    1    3    3  502    0 -0.18343231067E+03  0.85814967043E+02  0.13426636998E+04  0.13578508920E+04  0.12699999809E+01 0.  1.
       -4    1    3    3    0  502  0.18343231067E+03 -0.85814967043E+02 -0.64194492911E+03  0.67313187867E+03  0.12699999809E+01 0. -1.
</event>
<event>
 5   0  0.3083469E-05  0.1897600E+04  0.7818609E-02  0.8656052E-01
        1   -1    0    0  501    0  0.00000000000E+00  0.00000000000E+00  0.77881411275E+03  0.77881411276E+03  0.50400001928E-02 0. -1.
       -1   -1    0    0    0  501  0.00000000000E+00  0.00000000000E+00 -0.11558870763E+04  0.11558870763E+04  0.50400001928E-02 0.  1.
    10030    2    1    2    0    0  0.00000000000E+00  0.00000000000E+00 -0.37707296358E+03  0.19347011891E+04  0.18975997131E+04 0.  0.
        3    1    3    3  502    0 -0.39703077018E+03  0.71608460342E+03 -0.67729494279E+03  0.10626095433E+04  0.10100000352E+00 0.  1.
       -3    1    3    3    0  502  0.39703077018E+03 -0.71608460342E+03  0.30022197921E+03  0.87209164583E+03  0.10100000352E+00 0. -1.
</event>
<event>
 5   0  0.3147063E-05  0.1908970E+04  0.7818609E-02  0.8650404E-01
       -1   -1    0    0    0  501  0.00000000000E+00  0.00000000000E+00  0.67877684498E+03  0.67877684500E+03  0.50400001928E-02 0.  1.
        1   -1    0    0  501    0  0.00000000000E+00  0.00000000000E+00 -0.13421808411E+04  0.13421808411E+04  0.50400001928E-02 0. -1.
    10030    2    1    2    0    0  0.00000000000E+00  0.00000000000E+00 -0.66340399610E+03  0.20209576861E+04  0.19089696454E+04 0.  0.
        5    1    3    3  502    0  0.64539167360E+03 -0.35432204791E+03  0.31133922181E+03  0.79939272390E+03  0.46999998093E+01 0. -1.
       -5    1    3    3    0  502 -0.64539167360E+03  0.35432204791E+03 -0.97474321791E+03  0.12215649622E+04  0.46999998093E+01 0.  1.
</event>
<event>
 5   0  0.6423388E-05  0.1898391E+04  0.7818609E-02  0.8655657E-01
        2   -1    0    0  501    0  0.00000000000E+00  0.00000000000E+00  0.12190613096E+04  0.12190613096E+04  0.25500000920E-02 0. -1.
       -2   -1    0    0    0  501  0.00000000000E+00  0.00000000000E+00 -0.73907073633E+03  0.73907073633E+03  0.25500000920E-02 0.  1.
    10030    2    1    2    0    0  0.00000000000E+00  0.00000000000E+00  0.47999057322E+03  0.19581320459E+04  0.18983914662E+04 0.  0.
        2    1    3    3  502    0 -0.85161296814E+03 -0.36382201430E+02 -0.19076405657E+03  0.87347537880E+03  0.25500000920E-02 0.  1.
       -2    1    3    3    0  502  0.85161296814E+03  0.36382201430E+02  0.67075462979E+03  0.10846566671E+04  0.25500000920E-02 0. -1.
</event>
<event>
 5   0  0.6423388E-05  0.1898657E+04  0.7818609E-02  0.8655525E-01
        2   -1    0    0  501    0  0.00000000000E+00  0.00000000000E+00  0.16274401121E+04  0.16274401121E+04  0.25500000920E-02 0.  1.
       -2   -1    0    0    0  501  0.00000000000E+00  0.00000000000E+00 -0.55376812318E+03  0.55376812318E+03  0.25500000920E-02 0. -1.
    10030    2    1    2    0    0  0.00000000000E+00  0.00000000000E+00  0.10736719889E+04  0.21812082353E+04  0.18986568479E+04 0.  0.
        2    1    3    3  502    0 -0.75170999059E+03 -0.37111170634E+03  0.10485852418E+04  0.13425061705E+04  0.25500000920E-02 0.  1.
       -2    1    3    3    0  502  0.75170999059E+03  0.37111170634E+03  0.25086747088E+02  0.83870206475E+03  0.25500000920E-02 0. -1.
</event>
<event>
 5   0  0.3144958E-05  0.1897678E+04  0.7818609E-02  0.8656013E-01
       -1   -1    0    0    0  501  0.00000000000E+00  0.00000000000E+00  0.35468252636E+03  0.35468252640E+03  0.50400001928E-02 0. -1.
        1   -1    0    0  501    0  0.00000000000E+00  0.00000000000E+00 -0.25383147469E+04  0.25383147470E+04  0.50400001928E-02 0.  1.
    10030    2    1    2    0    0  0.00000000000E+00  0.00000000000E+00 -0.21836322206E+04  0.28929972733E+04  0.18976784630E+04 0.  0.
        4    1    3    3  502    0 -0.29137218326E+03 -0.22471765324E+02  0.28436407813E+03  0.40775883956E+03  0.12699999809E+01 0. -1.
       -4    1    3    3    0  502  0.29137218326E+03  0.22471765324E+02 -0.24679962987E+04  0.24852384338E+04  0.12699999809E+01 0.  1.
</event>
<event>
 5   0  0.3203527E-05  0.1899189E+04  0.7818609E-02  0.8655260E-01
        1   -1    0    0  501    0  0.00000000000E+00  0.00000000000E+00  0.17488330561E+04  0.17488330561E+04  0.50400001928E-02 0.  1.
       -1   -1    0    0    0  501  0.00000000000E+00  0.00000000000E+00 -0.51561815034E+03  0.51561815036E+03  0.50400001928E-02 0. -1.
    10030    2    1    2    0    0  0.00000000000E+00  0.00000000000E+00  0.12332149057E+04  0.22644512064E+04  0.18991893699E+04 0.  0.
        1    1    3    3  502    0  0.20234875940E+03  0.10096141747E+03 -0.48304463131E+03  0.53335761372E+03  0.50400001928E-02 0. -1.
       -1    1    3    3    0  502 -0.20234875940E+03 -0.10096141747E+03  0.17162595370E+04  0.17310935927E+04  0.50400001928E-02 0.  1.
</event>
<event>
 5   0  0.3203527E-05  0.1897534E+04  0.7818609E-02  0.8656085E-01
       -1   -1    0    0    0  501  0.00000000000E+00  0.00000000000E+00  0.60900972387E+03  0.60900972389E+03  0.50400001928E-02 0.  1.
        1   -1    0    0  501    0  0.00000000000E+00  0.00000000000E+00 -0.14780698129E+04  0.14780698129E+04  0.50400001928E-02 0. -1.
    10030    2    1    2    0    0  0.00000000000E+00  0.00000000000E+00 -0.86906008903E+03  0.20870795368E+04  0.18975340720E+04 0.  0.
        1    1    3    3  502    0  0.81999017222E+03  0.47688908775E+03 -0.41390001507E+03  0.10349494225E+04  0.50400001928E-02 0. -1.
       -1    1    3    3    0  502 -0.81999017222E+03 -0.47688908775E+03 -0.45516007397E+03  0.10521301143E+04  0.50400001928E-02 0.  1.
</event>
<event>
 5   0  0.3147063E-05  0.1831696E+04  0.7818609E-02  0.8689623E-01
       -1   -1    0    0    0  501  0.00000000000E+00  0.00000000000E+00  0.58082997194E+03  0.58082997196E+03  0.50400001928E-02 0.  1.
        1   -1    0    0  501    0  0.00000000000E+00  0.00000000000E+00 -0.14441012320E+04  0.14441012320E+04  0.50400001928E-02 0. -1.
    10030    2    1    2    0    0  0.00000000000E+00  0.00000000000E+00 -0.86327126009E+03  0.20249312040E+04  0.18316956932E+04 0.  0.
        5    1    3    3  502    0 -0.35300966661E+03 -0.81883429928E+03 -0.20066973941E+03  0.91399992818E+03  0.46999998093E+01 0.  1.
       -5    1    3    3    0  502  0.35300966661E+03  0.81883429928E+03 -0.66260152068E+03  0.11109312758E+04  0.46999998093E+01 0. -1.
</event>
<event>
 5   0  0.6361762E-05  0.1903428E+04  0.7818609E-02  0.8653152E-01
       -2   -1    0    0    0  501  0.00000000000E+00  0.00000000000E+00  0.10728281943E+04  0.10728281943E+04  0.25500000920E-02 0.  1.
        2   -1    0    0  501    0  0.00000000000E+00  0.00000000000E+00 -0.84427243228E+03  0.84427243228E+03  0.25500000920E-02 0. -1.
    10030    2    1    2    0    0  0.00000000000E+00  0.00000000000E+00  0.22855576200E+03  0.19171006266E+04  0.19034277176E+04 0.  0.
        1    1    3    3  502    0 -0.74384632623E+03 -0.17647907684E+03 -0.45663342756E+03  0.89048655734E+03  0.50400001928E-02 0. -1.
       -1    1    3    3    0  502  0.74384632623E+03  0.17647907684E+03  0.68518918956E+03  0.10266140692E+04  0.50400001928E-02 0.  1.
</event>
<event>
 5   0  0.6452182E-05  0.1908453E+04  0.7818609E-02  0.8650660E-01
       -2   -1    0    0    0  501  0.00000000000E+00  0.00000000000E+00  0.88697907679E+03  0.88697907679E+03  0.25500000920E-02 0.  1.
        2   -1    0    0  501    0  0.00000000000E+00  0.00000000000E+00 -0.10265725382E+04  0.10265725382E+04  0.25500000920E-02 0. -1.
    10030    2    1    2    0    0  0.00000000000E+00  0.00000000000E+00 -0.13959346140E+03  0.19135516150E+04  0.19084531560E+04 0.  0.
        3    1    3    3  502    0  0.13320069815E+03  0.54183722200E+03 -0.84595668049E+03  0.10133966235E+04  0.10100000352E+00 0. -1.
       -3    1    3    3    0  502 -0.13320069815E+03 -0.54183722200E+03  0.70636321909E+03  0.90015499144E+03  0.10100000352E+00 0.  1.
</event>
<event>
 5   0  0.6361762E-05  0.1901909E+04  0.7818609E-02  0.8653907E-01
       -2   -1    0    0    0  501  0.00000000000E+00  0.00000000000E+00  0.78672212583E+03  0.78672212583E+03  0.25500000920E-02 0.  1.
        2   -1    0    0  501    0  0.00000000000E+00  0.00000000000E+00 -0.11494713404E+04  0.11494713404E+04  0.25500000920E-02 0. -1.
    10030    2    1    2    0    0  0.00000000000E+00  0.00000000000E+00 -0.36274921462E+03  0.19361934663E+04  0.19019090794E+04 0.  0.
        1    1    3    3  502    0  0.48005195068E+03 -0.27643185473E+03  0.60550776128E+03  0.82067295232E+03  0.50400001928E-02 0.  1.
       -1    1    3    3    0  502 -0.48005195068E+03  0.27643185473E+03 -0.96825697590E+03  0.11155205140E+04  0.50400001928E-02 0. -1.
</event>
<event>
 5   0  0.6452182E-05  0.1901631E+04  0.7818609E-02  0.8654045E-01
       -2   -1    0    0    0  501  0.00000000000E+00  0.00000000000E+00  0.71357746458E+03  0.71357746459E+03  0.25500000920E-02 0.  1.
        2   -1    0    0  501    0  0.00000000000E+00  0.00000000000E+00 -0.12669269521E+04  0.12669269521E+04  0.25500000920E-02 0. -1.
    10030    2    1    2    0    0  0.00000000000E+00  0.00000000000E+00 -0.55334948755E+03  0.19805044167E+04  0.19016314284E+04 0.  0.
        3    1    3    3  502    0 -0.44775854015E+03  0.23237850470E+03 -0.11160576471E+04  0.12247743308E+04  0.10100000352E+00 0. -1.
       -3    1    3    3    0  502  0.44775854015E+03 -0.23237850470E+03  0.56270815951E+03  0.75573008588E+03  0.10100000352E+00 0.  1.
</event>
<event>
 5   0  0.6098377E-05  0.1901193E+04  0.7818609E-02  0.8654263E-01
        2   -1    0    0  501    0  0.00000000000E+00  0.00000000000E+00  0.13337895132E+04  0.13337895132E+04  0.25500000920E-02 0.  1.
       -2   -1    0    0    0  501  0.00000000000E+00  0.00000000000E+00 -0.67749377497E+03  0.67749377497E+03  0.25500000920E-02 0. -1.
    10030    2    1    2    0    0  0.00000000000E+00  0.00000000000E+00  0.65629573823E+03  0.20112832882E+04  0.19011934066E+04 0.  0.
        5    1    3    3  502    0  0.43466727714E+03  0.96881369495E+02  0.12165936305E+04  0.12955476808E+04  0.46999998093E+01 0.  1.
       -5    1    3    3    0  502 -0.43466727714E+03 -0.96881369495E+02 -0.56029789225E+03  0.71573560735E+03  0.46999998093E+01 0. -1.
</event>
<event>
 5   0  0.2279625E-05  0.1899272E+04  0.7818609E-02  0.8655219E-01
        4   -1    0    0  501    0  0.00000000000E+00  0.00000000000E+00  0.54439635475E+03  0.54439783611E+03  0.12699999809E+01 0.  1.
       -4   -1    0    0    0  501  0.00000000000E+00  0.00000000000E+00 -0.16565246117E+04  0.16565250985E+04  0.12699999809E+01 0. -1.
    10030    2    1    2    0    0  0.00000000000E+00  0.00000000000E+00 -0.11121282570E+04  0.22009229347E+04  0.18992715720E+04 0.  0.
        1    1    3    3  502    0  0.28009562510E+03 -0.19603247515E+03 -0.15827369849E+04  0.16192401471E+04  0.50400001928E-02 0. -1.
       -1    1    3    3    0  502 -0.28009562510E+03  0.19603247515E+03  0.47060872794E+03  0.58168278757E+03  0.50400001928E-02 0.  1.
</event>
<event>
 5   0  0.3083469E-05  0.1902481E+04  0.7818609E-02  0.8653622E-01
        1   -1    0    0  501    0  0.00000000000E+00  0.00000000000E+00  0.19562662821E+04  0.19562662821E+04  0.50400001928E-02 0. -1.
       -1   -1    0    0    0  501  0.00000000000E+00  0.00000000000E+00 -0.46254374315E+03  0.46254374318E+03  0.50400001928E-02 0.  1.
    10030    2    1    2    0    0  0.00000000000E+00  0.00000000000E+00  0.14937225389E+04  0.24188100253E+04  0.19024812522E+04 0.  0.
        3    1    3    3  502    0  0.58865522841E+03  0.33984356478E+03  0.15929379863E+04  0.17318949347E+04  0.10100000352E+00 0. -1.
       -3    1    3    3    0  502 -0.58865522841E+03 -0.33984356478E+03 -0.99215447363E+02  0.68691509057E+03  0.10100000352E+00 0.  1.
</event>
<event>
 5   0  0.6361762E-05  0.1895247E+04  0.7818609E-02  0.8657226E-01
       -2   -1    0    0    0  501  0.00000000000E+00  0.00000000000E+00  0.58614865739E+03  0.58614865740E+03  0.25500000920E-02 0.  1.
        2   -1    0    0  501    0  0.00000000000E+00  0.00000000000E+00 -0.15320178995E+04  0.15320178995E+04  0.25500000920E-02 0. -1.
    10030    2    1    2    0    0  0.00000000000E+00  0.00000000000E+00 -0.94586924209E+03  0.21181665569E+04  0.18952469337E+04 0.  0.
        1    1    3    3  502    0 -0.22085633828E+03  0.91139958696E+03 -0.32066113129E+03  0.99108541025E+03  0.50400001928E-02 0.  1.
       -1    1    3    3    0  502  0.22085633828E+03 -0.91139958696E+03 -0.62520811079E+03  0.11270811466E+04  0.50400001928E-02 0. -1.
</event>
<event>
 5   0  0.3083469E-05  0.1915391E+04  0.7818609E-02  0.8647233E-01
        1   -1    0    0  501    0  0.00000000000E+00  0.00000000000E+00  0.12170799393E+04  0.12170799393E+04  0.50400001928E-02 0.  1.
       -1   -1    0    0    0  501  0.00000000000E+00  0.00000000000E+00 -0.75359145319E+03  0.75359145321E+03  0.50400001928E-02 0. -1.
    10030    2    1    2    0    0  0.00000000000E+00  0.00000000000E+00  0.46348848615E+03  0.19706713926E+04  0.19153913858E+04 0.  0.
        3    1    3    3  502    0  0.57824669707E+03  0.15562777640E+03 -0.53721611876E+03  0.80448145779E+03  0.10100000352E+00 0. -1.
       -3    1    3    3    0  502 -0.57824669707E+03 -0.15562777640E+03  0.10007046049E+04  0.11661899348E+04  0.10100000352E+00 0.  1.
</event>
<event>
 5   0  0.3086139E-05  0.1852176E+04  0.7818609E-02  0.8679035E-01
        1   -1    0    0  501    0  0.00000000000E+00  0.00000000000E+00  0.93298148288E+03  0.93298148289E+03  0.50400001928E-02 0. -1.
       -1   -1    0    0    0  501  0.00000000000E+00  0.00000000000E+00 -0.91924547888E+03  0.91924547889E+03  0.50400001928E-02 0.  1.
    10030    2    1    2    0    0  0.00000000000E+00  0.00000000000E+00  0.13736004001E+02  0.18522269618E+04  0.18521760284E+04 0.  0.
        2    1    3    3  502    0  0.82995567069E+03 -0.41018410443E+03 -0.16830649423E+02  0.92593773311E+03  0.25500000920E-02 0. -1.
       -2    1    3    3    0  502 -0.82995567069E+03  0.41018410443E+03  0.30566653424E+02  0.92628922867E+03  0.25500000920E-02 0.  1.
</event>
<event>
 5   0  0.3144958E-05  0.1902014E+04  0.7818609E-02  0.8653855E-01
       -1   -1    0    0    0  501  0.00000000000E+00  0.00000000000E+00  0.10152592309E+04  0.10152592309E+04  0.50400001928E-02 0. -1.
        1   -1    0    0  501    0  0.00000000000E+00  0.00000000000E+00 -0.89082083363E+03  0.89082083364E+03  0.50400001928E-02 0.  1.
    10030    2    1    2    0    0  0.00000000000E+00  0.00000000000E+00  0.12443839727E+03  0.19060800646E+04  0.19020137480E+04 0.  0.
        4    1    3    3  502    0  0.46819024201E+03  0.72587339829E+03 -0.33652361212E+03  0.92700811619E+03  0.12699999809E+01 0.  1.
       -4    1    3    3    0  502 -0.46819024201E+03 -0.72587339829E+03  0.46096200939E+03  0.97907194836E+03  0.12699999809E+01 0. -1.
</event>
<event>
 5   0  0.6395992E-05  0.1891449E+04  0.7818609E-02  0.8659124E-01
        2   -1    0    0  501    0  0.00000000000E+00  0.00000000000E+00  0.21406396898E+04  0.21406396898E+04  0.25500000920E-02 0. -1.
       -2   -1    0    0    0  501  0.00000000000E+00  0.00000000000E+00 -0.41781664670E+03  0.41781664671E+03  0.25500000920E-02 0.  1.
    10030    2    1    2    0    0  0.00000000000E+00  0.00000000000E+00  0.17228230431E+04  0.25584563365E+04  0.18914490710E+04 0.  0.
        4    1    3    3  502    0  0.71697072807E+03 -0.11050402744E+03  0.40706704399E+02  0.72657884202E+03  0.12699999809E+01 0.  1.
       -4    1    3    3    0  502 -0.71697072807E+03  0.11050402744E+03  0.16821163387E+04  0.18318774945E+04  0.12699999809E+01 0. -1.
</event>
<event>
 5   0  0.3147063E-05  0.1898460E+04  0.7818609E-02  0.8655623E-01
       -1   -1    0    0    0  501  0.00000000000E+00  0.00000000000E+00  0.47467738540E+03  0.47467738542E+03  0.50400001928E-02 0. -1.
        1   -1    0    0  501    0  0.00000000000E+00  0.00000000000E+00 -0.18982110956E+04  0.18982110956E+04  0.50400001928E-02 0.  1.
    10030    2    1    2    0    0  0.00000000000E+00  0.00000000000E+00 -0.14235337102E+04  0.23728884810E+04  0.18984603023E+04 0.  0.
        5    1    3    3  502    0  0.73977992822E+03  0.55859370914E+03 -0.96704839507E+03  0.13395917148E+04  0.46999998093E+01 0. -1.
       -5    1    3    3    0  502 -0.73977992822E+03 -0.55859370914E+03 -0.45648531515E+03  0.10332967662E+04  0.46999998093E+01 0.  1.
</event>
<event>
 5   0  0.3147063E-05  0.1906778E+04  0.7818609E-02  0.8651490E-01
        1   -1    0    0  501    0  0.00000000000E+00  0.00000000000E+00  0.22393327924E+04  0.22393327924E+04  0.50400001928E-02 0. -1.
       -1   -1    0    0    0  501  0.00000000000E+00  0.00000000000E+00 -0.40590233366E+03  0.40590233369E+03  0.50400001928E-02 0.  1.
    10030    2    1    2    0    0  0.00000000000E+00  0.00000000000E+00  0.18334304588E+04  0.26452351261E+04  0.19067778123E+04 0.  0.
        5    1    3    3  502    0  0.44770055692E+03  0.83561082574E+03  0.10571466086E+04  0.14199515072E+04  0.46999998093E+01 0.  1.
       -5    1    3    3    0  502 -0.44770055692E+03 -0.83561082574E+03  0.77628385019E+03  0.12252836189E+04  0.46999998093E+01 0. -1.
</event>
<event>
 5   0  0.3147063E-05  0.1905749E+04  0.7818609E-02  0.8652000E-01
       -1   -1    0    0    0  501  0.00000000000E+00  0.00000000000E+00  0.72359596727E+03  0.72359596728E+03  0.50400001928E-02 0. -1.
        1   -1    0    0  501    0  0.00000000000E+00  0.00000000000E+00 -0.12548022902E+04  0.12548022902E+04  0.50400001928E-02 0.  1.
    10030    2    1    2    0    0  0.00000000000E+00  0.00000000000E+00 -0.53120632297E+03  0.19783982575E+04  0.19057490674E+04 0.  0.
        5    1    3    3  502    0 -0.62210089610E+03  0.37844600521E+03 -0.90361862325E+03  0.11605083412E+04  0.46999998093E+01 0.  1.
       -5    1    3    3    0  502  0.62210089610E+03 -0.37844600521E+03  0.37241230028E+03  0.81788991630E+03  0.46999998093E+01 0. -1.
</event>
<event>
 5   0  0.6098377E-05  0.1883769E+04  0.7818609E-02  0.8662978E-01
        2   -1    0    0  501    0  0.00000000000E+00  0.00000000000E+00  0.93461587859E+03  0.93461587859E+03  0.25500000920E-02 0.  1.
       -2   -1    0    0    0  501  0.00000000000E+00  0.00000000000E+00 -0.94920930608E+03  0.94920930609E+03  0.25500000920E-02 0. -1.
    10030    2    1    2    0    0  0.00000000000E+00  0.00000000000E+00 -0.14593427496E+02  0.18838251847E+04  0.18837686584E+04 0.  0.
        5    1    3    3  502    0  0.66096163725E+03 -0.66900819854E+03  0.44490397529E+02  0.94151141315E+03  0.46999998093E+01 0.  1.
       -5    1    3    3    0  502 -0.66096163725E+03  0.66900819854E+03 -0.59083825025E+02  0.94231377153E+03  0.46999998093E+01 0. -1.
</event>
<event>
 5   0  0.6361762E-05  0.1893716E+04  0.7818609E-02  0.8657991E-01
       -2   -1    0    0    0  501  0.00000000000E+00  0.00000000000E+00  0.85684787151E+03  0.85684787151E+03  0.25500000920E-02 0.  1.
        2   -1    0    0  501    0  0.00000000000E+00  0.00000000000E+00 -0.10463235433E+04  0.10463235433E+04  0.25500000920E-02 0. -1.
    10030    2    1    2    0    0  0.00000000000E+00  0.00000000000E+00 -0.18947567176E+03  0.19031714148E+04  0.18937160304E+04 0.  0.
        1    1    3    3  502    0  0.18087819770E+03 -0.70282136651E+03  0.51646427852E+03  0.89073573334E+03  0.50400001928E-02 0.  1.
       -1    1    3    3    0  502 -0.18087819770E+03  0.70282136651E+03 -0.70593995029E+03  0.10124356814E+04  0.50400001928E-02 0. -1.
</event>
<event>
 5   0  0.3086139E-05  0.1907822E+04  0.7818609E-02  0.8650972E-01
        1   -1    0    0  501    0  0.00000000000E+00  0.00000000000E+00  0.10322151171E+04  0.10322151172E+04  0.50400001928E-02 0.  1.
       -1   -1    0    0    0  501  0.00000000000E+00  0.00000000000E+00 -0.88154737644E+03  0.88154737645E+03  0.50400001928E-02 0. -1.
    10030    2    1    2    0    0  0.00000000000E+00  0.00000000000E+00  0.15066774071E+03  0.19137624936E+04  0.19078223486E+04 0.  0.
        2    1    3    3  502    0 -0.96329287492E+02 -0.45915196859E+03 -0.75782225589E+03  0.89128807544E+03  0.25500000920E-02 0. -1.
       -2    1    3    3    0  502  0.96329287492E+02  0.45915196859E+03  0.90848999660E+03  0.10224744182E+04  0.25500000920E-02 0.  1.
</event>
<event>
 5   0  0.2279625E-05  0.1899506E+04  0.7818609E-02  0.8655102E-01
       -4   -1    0    0    0  501  0.00000000000E+00  0.00000000000E+00  0.53580552470E+03  0.53580702981E+03  0.12699999809E+01 0. -1.
        4   -1    0    0  501    0  0.00000000000E+00  0.00000000000E+00 -0.16835000534E+04  0.16835005324E+04  0.12699999809E+01 0.  1.
    10030    2    1    2    0    0  0.00000000000E+00  0.00000000000E+00 -0.11476945287E+04  0.22193075622E+04  0.18995060738E+04 0.  0.
        4    1    3    3  502    0  0.66817075321E+03 -0.46232858427E+03 -0.11484018621E+04  0.14067794160E+04  0.12699999809E+01 0.  1.
       -4    1    3    3    0  502 -0.66817075321E+03  0.46232858427E+03  0.70733345653E+00  0.81252814628E+03  0.12699999809E+01 0. -1.
</event>
<event>
 5   0  0.6361762E-05  0.1901884E+04  0.7818609E-02  0.8653919E-01
       -2   -1    0    0    0  501  0.00000000000E+00  0.00000000000E+00  0.75217057442E+03  0.75217057442E+03  0.25500000920E-02 0. -1.
        2   -1    0    0  501    0  0.00000000000E+00  0.00000000000E+00 -0.12022420804E+04  0.12022420804E+04  0.25500000920E-02 0.  1.
    10030    2    1    2    0    0  0.00000000000E+00  0.00000000000E+00 -0.45007150602E+03  0.19544126549E+04  0.19018844510E+04 0.  0.
        1    1    3    3  502    0 -0.86609276301E+03 -0.36824143494E+03 -0.84990137729E+02  0.94495595245E+03  0.50400001928E-02 0. -1.
       -1    1    3    3    0  502  0.86609276301E+03  0.36824143494E+03 -0.36508136829E+03  0.10094567024E+04  0.50400001928E-02 0.  1.
</event>
<event>
 5   0  0.6361762E-05  0.1898159E+04  0.7818609E-02  0.8655773E-01
        2   -1    0    0  501    0  0.00000000000E+00  0.00000000000E+00  0.19618209116E+04  0.19618209116E+04  0.25500000920E-02 0.  1.
       -2   -1    0    0    0  501  0.00000000000E+00  0.00000000000E+00 -0.45914064133E+03  0.45914064133E+03  0.25500000920E-02 0. -1.
    10030    2    1    2    0    0  0.00000000000E+00  0.00000000000E+00  0.15026802703E+04  0.24209615530E+04  0.18981588043E+04 0.  0.
        1    1    3    3  502    0 -0.34226111159E+03  0.37561664366E+03 -0.27100862111E+03  0.57591336523E+03  0.50400001928E-02 0.  1.
       -1    1    3    3    0  502  0.34226111159E+03 -0.37561664366E+03  0.17736888914E+04  0.18450481877E+04  0.50400001928E-02 0. -1.
</event>
<event>
 5   0  0.6452182E-05  0.1889740E+04  0.7818609E-02  0.8659981E-01
        2   -1    0    0  501    0  0.00000000000E+00  0.00000000000E+00  0.20086099699E+04  0.20086099699E+04  0.25500000920E-02 0. -1.
       -2   -1    0    0    0  501  0.00000000000E+00  0.00000000000E+00 -0.44447596526E+03  0.44447596527E+03  0.25500000920E-02 0.  1.
    10030    2    1    2    0    0  0.00000000000E+00  0.00000000000E+00  0.15641340047E+04  0.24530859352E+04  0.18897395114E+04 0.  0.
        3    1    3    3  502    0  0.75660804315E+03  0.33625348448E+03  0.13730365697E+04  0.16033563449E+04  0.10100000352E+00 0. -1.
       -3    1    3    3    0  502 -0.75660804315E+03 -0.33625348448E+03  0.19109743496E+03  0.84972959030E+03  0.10100000352E+00 0.  1.
</event>
<event>
 5   0  0.3144958E-05  0.1899348E+04  0.7818609E-02  0.8655181E-01
       -1   -1    0    0    0  501  0.00000000000E+00  0.00000000000E+00  0.13338225546E+04  0.13338225546E+04  0.50400001928E-02 0. -1.
        1   -1    0    0  501    0  0.00000000000E+00  0.00000000000E+00 -0.67616267181E+03  0.67616267183E+03  0.50400001928E-02 0.  1.
    10030    2    1    2    0    0  0.00000000000E+00  0.00000000000E+00  0.65765988274E+03  0.20099852264E+04  0.18993483327E+04 0.  0.
        4    1    3    3  502    0  0.50119094559E+03  0.44199875152E+03 -0.38525288385E+03  0.77134730031E+03  0.12699999809E+01 0.  1.
       -4    1    3    3    0  502 -0.50119094559E+03 -0.44199875152E+03  0.10429127666E+04  0.12386379261E+04  0.12699999809E+01 0. -1.
</event>
<event>
 5   0  0.3144958E-05  0.1851774E+04  0.7818609E-02  0.8679241E-01
        1   -1    0    0  501    0  0.00000000000E+00  0.00000000000E+00  0.10338925141E+04  0.10338925141E+04  0.50400001928E-02 0. -1.
       -1   -1    0    0    0  501  0.00000000000E+00  0.00000000000E+00 -0.82916425884E+03  0.82916425885E+03  0.50400001928E-02 0.  1.
    10030    2    1    2    0    0  0.00000000000E+00  0.00000000000E+00  0.20472825521E+03  0.18630567729E+04  0.18517739821E+04 0.  0.
        4    1    3    3  502    0 -0.76344082686E+03  0.30133417131E+03  0.53348515036E+03  0.97890356904E+03  0.12699999809E+01 0. -1.
       -4    1    3    3    0  502  0.76344082686E+03 -0.30133417131E+03 -0.32875689515E+03  0.88415320388E+03  0.12699999809E+01 0.  1.
</event>
<event>
 5   0  0.3203527E-05  0.1905504E+04  0.7818609E-02  0.8652122E-01
       -1   -1    0    0    0  501  0.00000000000E+00  0.00000000000E+00  0.64793929416E+03  0.64793929418E+03  0.50400001928E-02 0.  1.
        1   -1    0    0  501    0  0.00000000000E+00  0.00000000000E+00 -0.14009585502E+04  0.14009585502E+04  0.50400001928E-02 0. -1.
    10030    2    1    2    0    0  0.00000000000E+00  0.00000000000E+00 -0.75301925602E+03  0.20488978444E+04  0.19055037068E+04 0.  0.
        1    1    3    3  502    0 -0.50965600178E+03 -0.80314520404E+03 -0.31816158967E+03  0.10030046142E+04  0.50400001928E-02 0.  1.
       -1    1    3    3    0  502  0.50965600178E+03  0.80314520404E+03 -0.43485766635E+03  0.10458932302E+04  0.50400001928E-02 0. -1.
</event>
<event>
 5   0  0.6098377E-05  0.1902719E+04  0.7818609E-02  0.8653504E-01
        2   -1    0    0  501    0  0.00000000000E+00  0.00000000000E+00  0.14404125564E+04  0.14404125564E+04  0.25500000920E-02 0.  1.
       -2   -1    0    0    0  501  0.00000000000E+00  0.00000000000E+00 -0.62835126845E+03  0.62835126846E+03  0.25500000920E-02 0. -1.
    10030    2    1    2    0    0  0.00000000000E+00  0.00000000000E+00  0.81206128792E+03  0.20687638248E+04  0.19027191668E+04 0.  0.
        5    1    3    3  502    0 -0.54949128284E+03  0.37232083136E+03  0.11470487910E+04  0.13252571412E+04  0.46999998093E+01 0.  1.
       -5    1    3    3    0  502  0.54949128284E+03 -0.37232083136E+03 -0.33498750308E+03  0.74350668362E+03  0.46999998093E+01 0. -1.
</event>
<event>
 5   0  0.3083469E-05  0.1907973E+04  0.7818609E-02  0.8650898E-01
        1   -1    0    0  501    0  0.00000000000E+00  0.00000000000E+00  0.97408230545E+03  0.97408230547E+03  0.50400001928E-02 0.  1.
       -1   -1    0    0    0  501  0.00000000000E+00  0.00000000000E+00 -0.93430493096E+03  0.93430493097E+03  0.50400001928E-02 0. -1.
    10030    2    1    2    0    0  0.00000000000E+00  0.00000000000E+00  0.39777374497E+02  0.19083872364E+04  0.19079726425E+04 0.  0.
        3    1    3    3  502    0 -0.73682731115E+01  0.22596553592E+03 -0.90712184104E+03  0.93487152035E+03  0.10100000352E+00 0. -1.
       -3    1    3    3    0  502  0.73682731115E+01 -0.22596553592E+03  0.94689921554E+03  0.97351571608E+03  0.10100000352E+00 0.  1.
</event>
<event>
 5   0  0.6098377E-05  0.1909901E+04  0.7818609E-02  0.8649944E-01
        2   -1    0    0  501    0  0.00000000000E+00  0.00000000000E+00  0.19134389393E+04  0.19134389393E+04  0.25500000920E-02 0. -1.
       -2   -1    0    0    0  501  0.00000000000E+00  0.00000000000E+00 -0.47659238547E+03  0.47659238548E+03  0.25500000920E-02 0.  1.
    10030    2    1    2    0    0  0.00000000000E+00  0.00000000000E+00  0.14368465539E+04  0.23900313248E+04  0.19099009697E+04 0.  0.
        5    1    3    3  502    0 -0.41523884080E+03 -0.35039534565E+03 -0.26430303930E+03  0.60421716274E+03  0.46999998093E+01 0.  1.
       -5    1    3    3    0  502  0.41523884080E+03  0.35039534565E+03  0.17011495932E+04  0.17858141621E+04  0.46999998093E+01 0. -1.
</event>
<event>
 5   0  0.6361762E-05  0.1899470E+04  0.7818609E-02  0.8655120E-01
       -2   -1    0    0    0  501  0.00000000000E+00  0.00000000000E+00  0.22521734248E+04  0.22521734248E+04  0.25500000920E-02 0. -1.
        2   -1    0    0  501    0  0.00000000000E+00  0.00000000000E+00 -0.40050028375E+03  0.40050028375E+03  0.25500000920E-02 0.  1.
    10030    2    1    2    0    0  0.00000000000E+00  0.00000000000E+00  0.18516731411E+04  0.26526737086E+04  0.18994695004E+04 0.  0.
        1    1    3    3  502    0 -0.57319092514E+03 -0.32150958341E+02 -0.13075429093E+03  0.58879385646E+03  0.50400001928E-02 0.  1.
       -1    1    3    3    0  502  0.57319092514E+03  0.32150958341E+02  0.19824274320E+04  0.20638798521E+04  0.50400001928E-02 0. -1.
</event>
<event>
 5   0  0.6395992E-05  0.1901145E+04  0.7818609E-02  0.8654287E-01
        2   -1    0    0  501    0  0.00000000000E+00  0.00000000000E+00  0.79864759167E+03  0.79864759167E+03  0.25500000920E-02 0. -1.
       -2   -1    0    0    0  501  0.00000000000E+00  0.00000000000E+00 -0.11313976420E+04  0.11313976420E+04  0.25500000920E-02 0.  1.
    10030    2    1    2    0    0  0.00000000000E+00  0.00000000000E+00 -0.33275005036E+03  0.19300452337E+04  0.19011449203E+04 0.  0.
        4    1    3    3  502    0 -0.13552739578E+03  0.63406805597E+03 -0.87205066777E+03  0.10866848461E+04  0.12699999809E+01 0.  1.
       -4    1    3    3    0  502  0.13552739578E+03 -0.63406805597E+03  0.53930061741E+03  0.84336038764E+03  0.12699999809E+01 0. -1.
</event>
<event>
 5   0  0.6098377E-05  0.1905621E+04  0.7818609E-02  0.8652064E-01
        2   -1    0    0  501    0  0.00000000000E+00  0.00000000000E+00  0.13323611192E+04  0.13323611192E+04  0.25500000920E-02 0.  1.
       -2   -1    0    0    0  501  0.00000000000E+00  0.00000000000E+00 -0.68138258531E+03  0.68138258531E+03  0.25500000920E-02 0. -1.
    10030    2    1    2    0    0  0.00000000000E+00  0.00000000000E+00  0.65097853392E+03  0.20137437045E+04  0.19056208059E+04 0.  0.
        5    1    3    3  502    0  0.12022517768E+03 -0.93181535932E+03  0.49288023958E+03  0.10609839668E+04  0.46999998093E+01 0.  1.
       -5    1    3    3    0  502 -0.12022517768E+03  0.93181535932E+03  0.15809829434E+03  0.95275973775E+03  0.46999998093E+01 0. -1.
</event>
<event>
 5   0  0.3144958E-05  0.1899999E+04  0.7818609E-02  0.8654857E-01
        1   -1    0    0  501    0  0.00000000000E+00  0.00000000000E+00  0.13028774519E+04  0.13028774519E+04  0.50400001928E-02 0.  1.
       -1   -1    0    0    0  501  0.00000000000E+00  0.00000000000E+00 -0.69269654831E+03  0.69269654832E+03  0.50400001928E-02 0. -1.
    10030    2    1    2    0    0  0.00000000000E+00  0.00000000000E+00  0.61018090363E+03  0.19955740003E+04  0.18999986462E+04 0.  0.
        4    1    3    3  502    0  0.18867162855E+03  0.52069753915E+03 -0.50560061610E+03  0.74990433163E+03  0.12699999809E+01 0. -1.
       -4    1    3    3    0  502 -0.18867162855E+03 -0.52069753915E+03  0.11157815197E+04  0.12456696686E+04  0.12699999809E+01 0.  1.
</event>
<event>
 5   0  0.6361762E-05  0.1893466E+04  0.7818609E-02  0.8658116E-01
        2   -1    0    0  501    0  0.00000000000E+00  0.00000000000E+00  0.12532153338E+04  0.12532153338E+04  0.25500000920E-02 0.  1.
       -2   -1    0    0    0  501  0.00000000000E+00  0.00000000000E+00 -0.71520311633E+03  0.71520311633E+03  0.25500000920E-02 0. -1.
    10030    2    1    2    0    0  0.00000000000E+00  0.00000000000E+00  0.53801221749E+03  0.19684184501E+04  0.18934661467E+04 0.  0.
        1    1    3    3  502    0 -0.44717664657E+03  0.20684515684E+03  0.11094327998E+04  0.12139163931E+04  0.50400001928E-02 0.  1.
       -1    1    3    3    0  502  0.44717664657E+03 -0.20684515684E+03 -0.57142058232E+03  0.75450205704E+03  0.50400001928E-02 0. -1.
</event>
<event>
 5   0  0.3144958E-05  0.1892581E+04  0.7818609E-02  0.8658558E-01
        1   -1    0    0  501    0  0.00000000000E+00  0.00000000000E+00  0.12223842840E+04  0.12223842840E+04  0.50400001928E-02 0. -1.
       -1   -1    0    0    0  501  0.00000000000E+00  0.00000000000E+00 -0.73255677850E+03  0.73255677852E+03  0.50400001928E-02 0.  1.
    10030    2    1    2    0    0  0.00000000000E+00  0.00000000000E+00  0.48982750553E+03  0.19549410626E+04  0.18925811932E+04 0.  0.
        4    1    3    3  502    0  0.66025285538E+03  0.66709083448E+03  0.12044325320E+03  0.94628336381E+03  0.12699999809E+01 0. -1.
       -4    1    3    3    0  502 -0.66025285538E+03 -0.66709083448E+03  0.36938425234E+03  0.10086576988E+04  0.12699999809E+01 0.  1.
</event>
<event>
 5   0  0.3086139E-05  0.1903934E+04  0.7818609E-02  0.8652900E-01
       -1   -1    0    0    0  501  0.00000000000E+00  0.00000000000E+00  0.10153479752E+04  0.10153479752E+04  0.50400001928E-02 0.  1.
        1   -1    0    0  501    0  0.00000000000E+00  0.00000000000E+00 -0.89254288069E+03  0.89254288071E+03  0.50400001928E-02 0. -1.
    10030    2    1    2    0    0  0.00000000000E+00  0.00000000000E+00  0.12280509451E+03  0.19078908559E+04  0.19039344597E+04 0.  0.
        2    1    3    3  502    0 -0.17843951696E+03 -0.92929413395E+03  0.16560593181E+03  0.96065268087E+03  0.25500000920E-02 0. -1.
       -2    1    3    3    0  502  0.17843951696E+03  0.92929413395E+03 -0.42800837297E+02  0.94723817505E+03  0.25500000920E-02 0.  1.
</event>
<event>
 5   0  0.3086139E-05  0.1873726E+04  0.7818609E-02  0.8668046E-01
       -1   -1    0    0    0  501  0.00000000000E+00  0.00000000000E+00  0.42462845633E+03  0.42462845636E+03  0.50400001928E-02 0.  1.
        1   -1    0    0  501    0  0.00000000000E+00  0.00000000000E+00 -0.20670123634E+04  0.20670123634E+04  0.50400001928E-02 0. -1.
    10030    2    1    2    0    0  0.00000000000E+00  0.00000000000E+00 -0.16423839071E+04  0.24916408198E+04  0.18737259876E+04 0.  0.
        2    1    3    3  502    0 -0.90597466838E+03 -0.19843982199E+03 -0.64505873532E+03  0.11297208658E+04  0.25500000920E-02 0. -1.
       -2    1    3    3    0  502  0.90597466838E+03  0.19843982199E+03 -0.99732517176E+03  0.13619199539E+04  0.25500000920E-02 0.  1.
</event>
<event>
 5   0  0.3203527E-05  0.1897747E+04  0.7818609E-02  0.8655978E-01
       -1   -1    0    0    0  501  0.00000000000E+00  0.00000000000E+00  0.32631576134E+03  0.32631576138E+03  0.50400001928E-02 0. -1.
        1   -1    0    0  501    0  0.00000000000E+00  0.00000000000E+00 -0.27591716871E+04  0.27591716871E+04  0.50400001928E-02 0.  1.
    10030    2    1    2    0    0  0.00000000000E+00  0.00000000000E+00 -0.24328559257E+04  0.30854874484E+04  0.18977473065E+04 0.  0.
        1    1    3    3  502    0 -0.17911496630E+03  0.37093775851E+03 -0.26062214237E+04  0.26385729289E+04  0.50400001928E-02 0.  1.
       -1    1    3    3    0  502  0.17911496630E+03 -0.37093775851E+03  0.17336549798E+03  0.44691451952E+03  0.50400001928E-02 0. -1.
</event>
<event>
 5   0  0.3144958E-05  0.1897442E+04  0.7818609E-02  0.8656131E-01
       -1   -1    0    0    0  501  0.00000000000E+00  0.00000000000E+00  0.12532631694E+04  0.12532631694E+04  0.50400001928E-02 0.  1.
        1   -1    0    0  501    0  0.00000000000E+00  0.00000000000E+00 -0.71818255055E+03  0.71818255056E+03  0.50400001928E-02 0. -1.
    10030    2    1    2    0    0  0.00000000000E+00  0.00000000000E+00  0.53508061882E+03  0.19714457199E+04  0.18974422147E+04 0.  0.
        4    1    3    3  502    0 -0.28755630684E+03  0.19164449636E+03  0.11855463267E+04  0.12348837792E+04  0.12699999809E+01 0.  1.
       -4    1    3    3    0  502  0.28755630684E+03 -0.19164449636E+03 -0.65046570783E+03  0.73656194074E+03  0.12699999809E+01 0. -1.
</event>
<event>
 5   0  0.6395992E-05  0.1881180E+04  0.7818609E-02  0.8664282E-01
        2   -1    0    0  501    0  0.00000000000E+00  0.00000000000E+00  0.21111991318E+04  0.21111991318E+04  0.25500000920E-02 0. -1.
       -2   -1    0    0    0  501  0.00000000000E+00  0.00000000000E+00 -0.41905527426E+03  0.41905527426E+03  0.25500000920E-02 0.  1.
    10030    2    1    2    0    0  0.00000000000E+00  0.00000000000E+00  0.16921438575E+04  0.25302544061E+04  0.18811795568E+04 0.  0.
        4    1    3    3  502    0  0.10516428718E+03  0.93391374658E+03  0.89734418500E+03  0.12994162584E+04  0.12699999809E+01 0.  1.
       -4    1    3    3    0  502 -0.10516428718E+03 -0.93391374658E+03  0.79479967253E+03  0.12308381476E+04  0.12699999809E+01 0. -1.
</event>
<event>
 5   0  0.6395992E-05  0.1909861E+04  0.7818609E-02  0.8649963E-01
       -2   -1    0    0    0  501  0.00000000000E+00  0.00000000000E+00  0.57792768668E+03  0.57792768669E+03  0.25500000920E-02 0. -1.
        2   -1    0    0  501    0  0.00000000000E+00  0.00000000000E+00 -0.15778659990E+04  0.15778659990E+04  0.25500000920E-02 0.  1.
    10030    2    1    2    0    0  0.00000000000E+00  0.00000000000E+00 -0.99993831236E+03  0.21557936857E+04  0.19098611957E+04 0.  0.
        4    1    3    3  502    0 -0.91878840812E+02  0.70338527124E+03 -0.12215862158E+04  0.14126100158E+04  0.12699999809E+01 0.  1.
       -4    1    3    3    0  502  0.91878840812E+02 -0.70338527124E+03  0.22164790348E+03  0.74318366990E+03  0.12699999809E+01 0. -1.
</event>
<event>
 5   0  0.3147063E-05  0.1894608E+04  0.7818609E-02  0.8657545E-01
       -1   -1    0    0    0  501  0.00000000000E+00  0.00000000000E+00  0.16938048114E+04  0.16938048114E+04  0.50400001928E-02 0. -1.
        1   -1    0    0  501    0  0.00000000000E+00  0.00000000000E+00 -0.52980402215E+03  0.52980402217E+03  0.50400001928E-02 0.  1.
    10030    2    1    2    0    0  0.00000000000E+00  0.00000000000E+00  0.11640007892E+04  0.22236088335E+04  0.18946077186E+04 0.  0.
        5    1    3    3  502    0  0.89649566791E+03  0.61335517441E+02  0.23010852507E+03  0.92759827058E+03  0.46999998093E+01 0.  1.
       -5    1    3    3    0  502 -0.89649566791E+03 -0.61335517441E+02  0.93389226413E+03  0.12960105629E+04  0.46999998093E+01 0. -1.
</event>
<event>
 5   0  0.6423388E-05  0.1902012E+04  0.7818609E-02  0.8653855E-01
        2   -1    0    0  501    0  0.00000000000E+00  0.00000000000E+00  0.23876400353E+04  0.23876400353E+04  0.25500000920E-02 0. -1.
       -2   -1    0    0    0  501  0.00000000000E+00  0.00000000000E+00 -0.37878943518E+03  0.37878943519E+03  0.25500000920E-02 0.  1.
    10030    2    1    2    0    0  0.00000000000E+00  0.00000000000E+00  0.20088506001E+04  0.27664294705E+04  0.19020124294E+04 0.  0.
        2    1    3    3  502    0 -0.93983920419E+03 -0.13862621265E+03  0.10677887442E+04  0.14292262798E+04  0.25500000920E-02 0.  1.
       -2    1    3    3    0  502  0.93983920419E+03  0.13862621265E+03  0.94106185587E+03  0.13372031907E+04  0.25500000920E-02 0. -1.
</event>
<event>
 5   0  0.3147063E-05  0.1905778E+04  0.7818609E-02  0.8651985E-01
       -1   -1    0    0    0  501  0.00000000000E+00  0.00000000000E+00  0.10996791957E+04  0.10996791957E+04  0.50400001928E-02 0.  1.
        1   -1    0    0  501    0  0.00000000000E+00  0.00000000000E+00 -0.82569328734E+03  0.82569328736E+03  0.50400001928E-02 0. -1.
    10030    2    1    2    0    0  0.00000000000E+00  0.00000000000E+00  0.27398590836E+03  0.19253724831E+04  0.19057782979E+04 0.  0.
        5    1    3    3  502    0 -0.61921054471E+03  0.28404657065E+03 -0.53609374372E+03  0.86690411525E+03  0.46999998093E+01 0. -1.
       -5    1    3    3    0  502  0.61921054471E+03 -0.28404657065E+03  0.81007965208E+03  0.10584683678E+04  0.46999998093E+01 0.  1.
</event>
<event>
 5   0  0.6361762E-05  0.1895072E+04  0.7818609E-02  0.8657313E-01
       -2   -1    0    0    0  501  0.00000000000E+00  0.00000000000E+00  0.11262292183E+04  0.11262292183E+04  0.25500000920E-02 0.  1.
        2   -1    0    0  501    0  0.00000000000E+00  0.00000000000E+00 -0.79719479015E+03  0.79719479015E+03  0.25500000920E-02 0. -1.
    10030    2    1    2    0    0  0.00000000000E+00  0.00000000000E+00  0.32903442816E+03  0.19234240085E+04  0.18950715716E+04 0.  0.
        1    1    3    3  502    0  0.48351241197E+03  0.81113453281E+03  0.85242430000E+02  0.94815070255E+03  0.50400001928E-02 0. -1.
       -1    1    3    3    0  502 -0.48351241197E+03 -0.81113453281E+03  0.24379199816E+03  0.97527330592E+03  0.50400001928E-02 0.  1.
</event>
<event>
 5   0  0.6395992E-05  0.1894202E+04  0.7818609E-02  0.8657748E-01
        2   -1    0    0  501    0  0.00000000000E+00  0.00000000000E+00  0.62980765017E+03  0.62980765017E+03  0.25500000920E-02 0.  1.
       -2   -1    0    0    0  501  0.00000000000E+00  0.00000000000E+00 -0.14242452427E+04  0.14242452427E+04  0.25500000920E-02 0. -1.
    10030    2    1    2    0    0  0.00000000000E+00  0.00000000000E+00 -0.79443759249E+03  0.20540528928E+04  0.18942022591E+04 0.  0.
        4    1    3    3  502    0  0.75407373206E+03 -0.17843126844E+03  0.19328478964E+03  0.79863980225E+03  0.12699999809E+01 0.  1.
       -4    1    3    3    0  502 -0.75407373206E+03  0.17843126844E+03 -0.98772238213E+03  0.12554130906E+04  0.12699999809E+01 0. -1.
</event>
<event>
 5   0  0.3147063E-05  0.1896130E+04  0.7818609E-02  0.8656785E-01
       -1   -1    0    0    0  501  0.00000000000E+00  0.00000000000E+00  0.10423835074E+04  0.10423835074E+04  0.50400001928E-02 0.  1.
        1   -1    0    0  501    0  0.00000000000E+00  0.00000000000E+00 -0.86228068396E+03  0.86228068398E+03  0.50400001928E-02 0. -1.
    10030    2    1    2    0    0  0.00000000000E+00  0.00000000000E+00  0.18010282340E+03  0.19046641914E+04  0.18961299151E+04 0.  0.
        5    1    3    3  502    0 -0.47970000018E+03  0.62901567938E+03 -0.43482530452E+03  0.90270036586E+03  0.46999998093E+01 0. -1.
       -5    1    3    3    0  502  0.47970000018E+03 -0.62901567938E+03  0.61492812792E+03  0.10019638255E+04  0.46999998093E+01 0.  1.
</event>
<event>
 5   0  0.6395992E-05  0.1896180E+04  0.7818609E-02  0.8656760E-01
        2   -1    0    0  501    0  0.00000000000E+00  0.00000000000E+00  0.65818020003E+03  0.65818020004E+03  0.25500000920E-02 0.  1.
       -2   -1    0    0    0  501  0.00000000000E+00  0.00000000000E+00 -0.13656970701E+04  0.13656970701E+04  0.25500000920E-02 0. -1.
    10030    2    1    2    0    0  0.00000000000E+00  0.00000000000E+00 -0.70751687006E+03  0.20238772701E+04  0.18961801294E+04 0.  0.
        4    1    3    3  502    0  0.93596764492E+03  0.62115860738E+02 -0.50080172003E+03  0.10633427426E+04  0.12699999809E+01 0. -1.
       -4    1    3    3    0  502 -0.93596764492E+03 -0.62115860738E+02 -0.20671515003E+03  0.96053452757E+03  0.12699999809E+01 0.  1.
</event>
<event>
 5   0  0.6098377E-05  0.1896209E+04  0.7818609E-02  0.8656746E-01
       -2   -1    0    0    0  501  0.00000000000E+00  0.00000000000E+00  0.77719356211E+03  0.77719356211E+03  0.25500000920E-02 0. -1.
        2   -1    0    0  501    0  0.00000000000E+00  0.00000000000E+00 -0.11565997496E+04  0.11565997496E+04  0.25500000920E-02 0.  1.
    10030    2    1    2    0    0  0.00000000000E+00  0.00000000000E+00 -0.37940618749E+03  0.19337933117E+04  0.18962087220E+04 0.  0.
        5    1    3    3  502    0 -0.23256458394E+03  0.35803751038E+03  0.67359964230E+03  0.79751847167E+03  0.46999998093E+01 0. -1.
       -5    1    3    3    0  502  0.23256458394E+03 -0.35803751038E+03 -0.10530058298E+04  0.11362748400E+04  0.46999998093E+01 0.  1.
</event>
<event>
 5   0  0.6361762E-05  0.1901007E+04  0.7818609E-02  0.8654355E-01
        2   -1    0    0  501    0  0.00000000000E+00  0.00000000000E+00  0.23265558679E+04  0.23265558679E+04  0.25500000920E-02 0. -1.
       -2   -1    0    0    0  501  0.00000000000E+00  0.00000000000E+00 -0.38832384275E+03  0.38832384276E+03  0.25500000920E-02 0.  1.
    10030    2    1    2    0    0  0.00000000000E+00  0.00000000000E+00  0.19382320252E+04  0.27148797107E+04  0.19010072225E+04 0.  0.
        1    1    3    3  502    0  0.70600674671E+03 -0.26168477118E+03  0.17975929818E+04  0.19489137934E+04  0.50400001928E-02 0. -1.
       -1    1    3    3    0  502 -0.70600674671E+03  0.26168477118E+03  0.14063904335E+03  0.76596591726E+03  0.50400001928E-02 0.  1.
</event>
<event>
 5   0  0.3144958E-05  0.1898953E+04  0.7818609E-02  0.8655378E-01
        1   -1    0    0  501    0  0.00000000000E+00  0.00000000000E+00  0.16128637206E+04  0.16128637206E+04  0.50400001928E-02 0.  1.
       -1   -1    0    0    0  501  0.00000000000E+00  0.00000000000E+00 -0.55894697595E+03  0.55894697597E+03  0.50400001928E-02 0. -1.
    10030    2    1    2    0    0  0.00000000000E+00  0.00000000000E+00  0.10539167446E+04  0.21718106965E+04  0.18989526579E+04 0.  0.
        4    1    3    3  502    0 -0.12972966126E+03  0.78965022992E+03  0.11113893585E+04  0.13695127563E+04  0.12699999809E+01 0.  1.
       -4    1    3    3    0  502  0.12972966126E+03 -0.78965022992E+03 -0.57472613899E+02  0.80229794022E+03  0.12699999809E+01 0. -1.
</event>
<event>
 5   0  0.6361762E-05  0.1892022E+04  0.7818609E-02  0.8658838E-01
        2   -1    0    0  501    0  0.00000000000E+00  0.00000000000E+00  0.92680430539E+03  0.92680430540E+03  0.25500000920E-02 0.  1.
       -2   -1    0    0    0  501  0.00000000000E+00  0.00000000000E+00 -0.96561523115E+03  0.96561523115E+03  0.25500000920E-02 0. -1.
    10030    2    1    2    0    0  0.00000000000E+00  0.00000000000E+00 -0.38810925755E+02  0.18924195366E+04  0.18920215153E+04 0.  0.
        1    1    3    3  502    0 -0.90939809295E+02  0.85890658410E+02 -0.95730689020E+03  0.96544483849E+03  0.50400001928E-02 0. -1.
       -1    1    3    3    0  502  0.90939809295E+02 -0.85890658410E+02  0.91849596445E+03  0.92697469806E+03  0.50400001928E-02 0.  1.
</event>
<event>
 5   0  0.3086139E-05  0.1901449E+04  0.7818609E-02  0.8654136E-01
       -1   -1    0    0    0  501  0.00000000000E+00  0.00000000000E+00  0.11819912663E+04  0.11819912663E+04  0.50400001928E-02 0.  1.
        1   -1    0    0  501    0  0.00000000000E+00  0.00000000000E+00 -0.76470695506E+03  0.76470695508E+03  0.50400001928E-02 0. -1.
    10030    2    1    2    0    0  0.00000000000E+00  0.00000000000E+00  0.41728431124E+03  0.19466982214E+04  0.19014488604E+04 0.  0.
        2    1    3    3  502    0  0.18675085595E+03  0.92262501002E+03  0.72188175072E+02  0.94409953073E+03  0.25500000920E-02 0. -1.
       -2    1    3    3    0  502 -0.18675085595E+03 -0.92262501002E+03  0.34509613616E+03  0.10025986907E+04  0.25500000920E-02 0.  1.
</event>
<event>
 5   0  0.6452182E-05  0.1850718E+04  0.7818609E-02  0.8679783E-01
        2   -1    0    0  501    0  0.00000000000E+00  0.00000000000E+00  0.10893041798E+04  0.10893041798E+04  0.25500000920E-02 0.  1.
       -2   -1    0    0    0  501  0.00000000000E+00  0.00000000000E+00 -0.78608869975E+03  0.78608869975E+03  0.25500000920E-02 0. -1.
    10030    2    1    2    0    0  0.00000000000E+00  0.00000000000E+00  0.30321548008E+03  0.18753928796E+04  0.18507184620E+04 0.  0.
        3    1    3    3  502    0  0.24018080507E+03  0.87097469283E+02 -0.74964124521E+03  0.79198156228E+03  0.10100000352E+00 0. -1.
       -3    1    3    3    0  502 -0.24018080507E+03 -0.87097469283E+02  0.10528567253E+04  0.10834113173E+04  0.10100000352E+00 0.  1.
</event>
<event>
 5   0  0.3144958E-05  0.1903449E+04  0.7818609E-02  0.8653141E-01
        1   -1    0    0  501    0  0.00000000000E+00  0.00000000000E+00  0.79273888642E+03  0.79273888643E+03  0.50400001928E-02 0.  1.
       -1   -1    0    0    0  501  0.00000000000E+00  0.00000000000E+00 -0.11425953928E+04  0.11425953928E+04  0.50400001928E-02 0. -1.
    10030    2    1    2    0    0  0.00000000000E+00  0.00000000000E+00 -0.34985650641E+03  0.19353342793E+04  0.19034492894E+04 0.  0.
        4    1    3    3  502    0  0.23933728883E+03  0.25252094839E+03 -0.10756165807E+04  0.11304874209E+04  0.12699999809E+01 0. -1.
       -4    1    3    3    0  502 -0.23933728883E+03 -0.25252094839E+03  0.72576007426E+03  0.80484685841E+03  0.12699999809E+01 0.  1.
</event>
<event>
 5   0  0.3203527E-05  0.1912450E+04  0.7818609E-02  0.8648684E-01
        1   -1    0    0  501    0  0.00000000000E+00  0.00000000000E+00  0.24605622277E+04  0.24605622277E+04  0.50400001928E-02 0. -1.
       -1   -1    0    0    0  501  0.00000000000E+00  0.00000000000E+00 -0.37160865661E+03  0.37160865665E+03  0.50400001928E-02 0.  1.
    10030    2    1    2    0    0  0.00000000000E+00  0.00000000000E+00  0.20889535710E+04  0.28321708843E+04  0.19124499721E+04 0.  0.
        1    1    3    3  502    0 -0.29593285007E+03  0.49120927379E+03 -0.88690659747E+02  0.58028340969E+03  0.50400001928E-02 0.  1.
       -1    1    3    3    0  502  0.29593285007E+03 -0.49120927379E+03  0.21776442308E+04  0.22518874746E+04  0.50400001928E-02 0. -1.
</event>
<event>
 5   0  0.6361762E-05  0.1903482E+04  0.7818609E-02  0.8653125E-01
       -2   -1    0    0    0  501  0.00000000000E+00  0.00000000000E+00  0.81878747604E+03  0.81878747605E+03  0.25500000920E-02 0. -1.
        2   -1    0    0  501    0  0.00000000000E+00  0.00000000000E+00 -0.11062836175E+04  0.11062836175E+04  0.25500000920E-02 0.  1.
    10030    2    1    2    0    0  0.00000000000E+00  0.00000000000E+00 -0.28749614141E+03  0.19250710935E+04  0.19034822520E+04 0.  0.
        1    1    3    3  502    0 -0.26218491501E+03 -0.89373480959E+03  0.54196939587E+02  0.93297381947E+03  0.50400001928E-02 0.  1.
       -1    1    3    3    0  502  0.26218491501E+03  0.89373480959E+03 -0.34169308099E+03  0.99209727404E+03  0.50400001928E-02 0. -1.
</event>
<event>
 5   0  0.6395992E-05  0.1895743E+04  0.7818609E-02  0.8656978E-01
       -2   -1    0    0    0  501  0.00000000000E+00  0.00000000000E+00  0.48799030633E+03  0.48799030633E+03  0.25500000920E-02 0.  1.
        2   -1    0    0  501    0  0.00000000000E+00  0.00000000000E+00 -0.18411447629E+04  0.18411447629E+04  0.25500000920E-02 0. -1.
    10030    2    1    2    0    0  0.00000000000E+00  0.00000000000E+00 -0.13531544565E+04  0.23291350692E+04  0.18957434392E+04 0.  0.
        4    1    3    3  502    0  0.88489306626E+02 -0.94311543943E+03 -0.63469441664E+03  0.11402349341E+04  0.12699999809E+01 0. -1.
       -4    1    3    3    0  502 -0.88489306626E+02  0.94311543943E+03 -0.71846003989E+03  0.11889001351E+04  0.12699999809E+01 0.  1.
</event>
<event>
 5   0  0.3147063E-05  0.1903172E+04  0.7818609E-02  0.8653279E-01
       -1   -1    0    0    0  501  0.00000000000E+00  0.00000000000E+00  0.53873506814E+03  0.53873506817E+03  0.50400001928E-02 0. -1.
        1   -1    0    0  501    0  0.00000000000E+00  0.00000000000E+00 -0.16808193020E+04  0.16808193020E+04  0.50400001928E-02 0.  1.
    10030    2    1    2    0    0  0.00000000000E+00  0.00000000000E+00 -0.11420842338E+04  0.22195543701E+04  0.19031724054E+04 0.  0.
        5    1    3    3  502    0 -0.67642734807E+03 -0.59318732997E+03 -0.93251805530E+03  0.12957766702E+04  0.46999998093E+01 0. -1.
       -5    1    3    3    0  502  0.67642734807E+03  0.59318732997E+03 -0.20956617852E+03  0.92377769991E+03  0.46999998093E+01 0.  1.
</event>
<event>
 5   0  0.6361762E-05  0.1889862E+04  0.7818609E-02  0.8659919E-01
       -2   -1    0    0    0  501  0.00000000000E+00  0.00000000000E+00  0.68329579130E+03  0.68329579130E+03  0.25500000920E-02 0.  1.
        2   -1    0    0  501    0  0.00000000000E+00  0.00000000000E+00 -0.13067471360E+04  0.13067471360E+04  0.25500000920E-02 0. -1.
    10030    2    1    2    0    0  0.00000000000E+00  0.00000000000E+00 -0.62345134474E+03  0.19900429273E+04  0.18898622366E+04 0.  0.
        1    1    3    3  502    0 -0.30670625216E+03 -0.77419242618E+03  0.15854911089E+03  0.84769125185E+03  0.50400001928E-02 0.  1.
       -1    1    3    3    0  502  0.30670625216E+03  0.77419242618E+03 -0.78200045563E+03  0.11423516755E+04  0.50400001928E-02 0. -1.
</event>
<event>
 5   0  0.6452182E-05  0.1899541E+04  0.7818609E-02  0.8655085E-01
        2   -1    0    0  501    0  0.00000000000E+00  0.00000000000E+00  0.71038245277E+03  0.71038245277E+03  0.25500000920E-02 0.  1.
       -2   -1    0    0    0  501  0.00000000000E+00  0.00000000000E+00 -0.12698287205E+04  0.12698287205E+04  0.25500000920E-02 0. -1.
    10030    2    1    2    0    0  0.00000000000E+00  0.00000000000E+00 -0.55944626776E+03  0.19802111733E+04  0.18995410405E+04 0.  0.
        3    1    3    3  502    0 -0.18216207529E+03  0.16173592099E+03 -0.12367081117E+04  0.12604715362E+04  0.10100000352E+00 0. -1.
       -3    1    3    3    0  502  0.18216207529E+03 -0.16173592099E+03  0.67726184392E+03  0.71973963712E+03  0.10100000352E+00 0.  1.
</event>
<event>
 5   0  0.3203527E-05  0.1899215E+04  0.7818609E-02  0.8655247E-01
        1   -1    0    0  501    0  0.00000000000E+00  0.00000000000E+00  0.10554559462E+04  0.10554559462E+04  0.50400001928E-02 0. -1.
       -1   -1    0    0    0  501  0.00000000000E+00  0.00000000000E+00 -0.85437465503E+03  0.85437465504E+03  0.50400001928E-02 0.  1.
    10030    2    1    2    0    0  0.00000000000E+00  0.00000000000E+00  0.20108129121E+03  0.19098306013E+04  0.18992154275E+04 0.  0.
        1    1    3    3  502    0 -0.48924907572E+03  0.59459297920E+03 -0.45830768485E+03  0.89607555654E+03  0.50400001928E-02 0.  1.
       -1    1    3    3    0  502  0.48924907572E+03 -0.59459297920E+03  0.65938897605E+03  0.10137550448E+04  0.50400001928E-02 0. -1.
</event>
<event>
 5   0  0.3203527E-05  0.1902517E+04  0.7818609E-02  0.8653605E-01
        1   -1    0    0  501    0  0.00000000000E+00  0.00000000000E+00  0.18952780050E+04  0.18952780050E+04  0.50400001928E-02 0. -1.
       -1   -1    0    0    0  501  0.00000000000E+00  0.00000000000E+00 -0.47744591260E+03  0.47744591262E+03  0.50400001928E-02 0.  1.
    10030    2    1    2    0    0  0.00000000000E+00  0.00000000000E+00  0.14178320924E+04  0.23727239176E+04  0.19025170031E+04 0.  0.
        1    1    3    3  502    0  0.24758016664E+03  0.41725494810E+03  0.17293675373E+04  0.17961374418E+04  0.50400001928E-02 0. -1.
       -1    1    3    3    0  502 -0.24758016664E+03 -0.41725494810E+03 -0.31153544493E+03  0.57658647583E+03  0.50400001928E-02 0.  1.
</event>
<event>
 5   0  0.3083469E-05  0.1878001E+04  0.7818609E-02  0.8665885E-01
       -1   -1    0    0    0  501  0.00000000000E+00  0.00000000000E+00  0.40185649132E+03  0.40185649135E+03  0.50400001928E-02 0.  1.
        1   -1    0    0  501    0  0.00000000000E+00  0.00000000000E+00 -0.21941219109E+04  0.21941219109E+04  0.50400001928E-02 0. -1.
    10030    2    1    2    0    0  0.00000000000E+00  0.00000000000E+00 -0.17922654195E+04  0.25959784022E+04  0.18780012063E+04 0.  0.
        3    1    3    3  502    0  0.51803382142E+03  0.60628562845E+03 -0.15814302952E+04  0.17711191638E+04  0.10100000352E+00 0. -1.
       -3    1    3    3    0  502 -0.51803382142E+03 -0.60628562845E+03 -0.21083512431E+03  0.82485923845E+03  0.10100000352E+00 0.  1.
</event>
<event>
 5   0  0.3147063E-05  0.1938882E+04  0.7818609E-02  0.8635741E-01
        1   -1    0    0  501    0  0.00000000000E+00  0.00000000000E+00  0.88722678538E+03  0.88722678539E+03  0.50400001928E-02 0.  1.
       -1   -1    0    0    0  501  0.00000000000E+00  0.00000000000E+00 -0.10592730326E+04  0.10592730326E+04  0.50400001928E-02 0. -1.
    10030    2    1    2    0    0  0.00000000000E+00  0.00000000000E+00 -0.17204624719E+03  0.19464998180E+04  0.19388815410E+04 0.  0.
        5    1    3    3  502    0  0.62311513224E+03  0.49510928580E+03 -0.64172097223E+03  0.10223666510E+04  0.46999998093E+01 0. -1.
       -5    1    3    3    0  502 -0.62311513224E+03 -0.49510928580E+03  0.46967472504E+03  0.92413316695E+03  0.46999998093E+01 0.  1.
</event>
<event>
 5   0  0.3147063E-05  0.1900344E+04  0.7818609E-02  0.8654685E-01
       -1   -1    0    0    0  501  0.00000000000E+00  0.00000000000E+00  0.68463418096E+03  0.68463418097E+03  0.50400001928E-02 0. -1.
        1   -1    0    0  501    0  0.00000000000E+00  0.00000000000E+00 -0.13186999926E+04  0.13186999926E+04  0.50400001928E-02 0.  1.
    10030    2    1    2    0    0  0.00000000000E+00  0.00000000000E+00 -0.63406581160E+03  0.20033341735E+04  0.19003442734E+04 0.  0.
        5    1    3    3  502    0 -0.16222077994E+03  0.89257445317E+03 -0.19233878031E+02  0.90741212685E+03  0.46999998093E+01 0. -1.
       -5    1    3    3    0  502  0.16222077994E+03 -0.89257445317E+03 -0.61483193357E+03  0.10959220467E+04  0.46999998093E+01 0.  1.
</event>
<event>
 5   0  0.6395992E-05  0.1896731E+04  0.7818609E-02  0.8656485E-01
       -2   -1    0    0    0  501  0.00000000000E+00  0.00000000000E+00  0.13211805042E+04  0.13211805042E+04  0.25500000920E-02 0. -1.
        2   -1    0    0  501    0  0.00000000000E+00  0.00000000000E+00 -0.68075236033E+03  0.68075236034E+03  0.25500000920E-02 0.  1.
    10030    2    1    2    0    0  0.00000000000E+00  0.00000000000E+00  0.64042814387E+03  0.20019328645E+04  0.18967306047E+04 0.  0.
        4    1    3    3  502    0 -0.33688857809E+01 -0.30559361552E+03  0.12677820778E+04  0.13040980857E+04  0.12699999809E+01 0. -1.
       -4    1    3    3    0  502  0.33688857809E+01  0.30559361552E+03 -0.62735393397E+03  0.69783477888E+03  0.12699999809E+01 0.  1.
</event>
<event>
 5   0  0.6361762E-05  0.1892131E+04  0.7818609E-02  0.8658783E-01
       -2   -1    0    0    0  501  0.00000000000E+00  0.00000000000E+00  0.53111020823E+03  0.53111020824E+03  0.25500000920E-02 0.  1.
        2   -1    0    0  501    0  0.00000000000E+00  0.00000000000E+00 -0.16852248958E+04  0.16852248958E+04  0.25500000920E-02 0. -1.
    10030    2    1    2    0    0  0.00000000000E+00  0.00000000000E+00 -0.11541146875E+04  0.22163351040E+04  0.18921312273E+04 0.  0.
        1    1    3    3  502    0 -0.71454712990E+03 -0.53806734963E+03 -0.21612760063E+03  0.92022019830E+03  0.50400001928E-02 0.  1.
       -1    1    3    3    0  502  0.71454712990E+03  0.53806734963E+03 -0.93798708691E+03  0.12961149057E+04  0.50400001928E-02 0. -1.
</event>
<event>
 5   0  0.3086139E-05  0.1894929E+04  0.7818609E-02  0.8657385E-01
       -1   -1    0    0    0  501  0.00000000000E+00  0.00000000000E+00  0.93612310171E+03  0.93612310172E+03  0.50400001928E-02 0. -1.
        1   -1    0    0  501    0  0.00000000000E+00  0.00000000000E+00 -0.95894315929E+03  0.95894315931E+03  0.50400001928E-02 0.  1.
    10030    2    1    2    0    0  0.00000000000E+00  0.00000000000E+00 -0.22820057587E+02  0.18950662610E+04  0.18949288585E+04 0.  0.
        2    1    3    3  502    0 -0.62989368388E+03 -0.12592609902E+03 -0.70792690342E+03  0.95592046531E+03  0.25500000920E-02 0.  1.
       -2    1    3    3    0  502  0.62989368388E+03  0.12592609902E+03  0.68510684583E+03  0.93914579572E+03  0.25500000920E-02 0. -1.
</event>
<event>
 5   0  0.6098377E-05  0.1895215E+04  0.7818609E-02  0.8657242E-01
       -2   -1    0    0    0  501  0.00000000000E+00  0.00000000000E+00  0.67575008293E+03  0.67575008294E+03  0.25500000920E-02 0.  1.
        2   -1    0    0  501    0  0.00000000000E+00  0.00000000000E+00 -0.13288346795E+04  0.13288346795E+04  0.25500000920E-02 0. -1.
    10030    2    1    2    0    0  0.00000000000E+00  0.00000000000E+00 -0.65308459658E+03  0.20045847624E+04  0.18952151803E+04 0.  0.
        5    1    3    3  502    0  0.59610925986E+03  0.64696466190E+03  0.45958063792E+02  0.88093345779E+03  0.46999998093E+01 0. -1.
       -5    1    3    3    0  502 -0.59610925986E+03 -0.64696466190E+03 -0.69904266037E+03  0.11236513047E+04  0.46999998093E+01 0.  1.
</event>
<event>
 5   0  0.3086139E-05  0.1902313E+04  0.7818609E-02  0.8653706E-01
        1   -1    0    0  501    0  0.00000000000E+00  0.00000000000E+00  0.59070355806E+03  0.59070355808E+03  0.50400001928E-02 0.  1.
       -1   -1    0    0    0  501  0.00000000000E+00  0.00000000000E+00 -0.15315611050E+04  0.15315611050E+04  0.50400001928E-02 0. -1.
    10030    2    1    2    0    0  0.00000000000E+00  0.00000000000E+00 -0.94085754695E+03  0.21222646631E+04  0.19023129019E+04 0.  0.
        2    1    3    3  502    0 -0.53275708124E+03 -0.64783840260E+02 -0.13465103401E+04  0.14495230766E+04  0.25500000920E-02 0. -1.
       -2    1    3    3    0  502  0.53275708124E+03  0.64783840260E+02  0.40565279317E+03  0.67274158649E+03  0.25500000920E-02 0.  1.
</event>
<event>
 5   0  0.6423388E-05  0.1898970E+04  0.7818609E-02  0.8655369E-01
       -2   -1    0    0    0  501  0.00000000000E+00  0.00000000000E+00  0.66610114312E+03  0.66610114313E+03  0.25500000920E-02 0.  1.
        2   -1    0    0  501    0  0.00000000000E+00  0.00000000000E+00 -0.13534314467E+04  0.13534314467E+04  0.25500000920E-02 0. -1.
    10030    2    1    2    0    0  0.00000000000E+00  0.00000000000E+00 -0.68733030361E+03  0.20195325899E+04  0.18989704935E+04 0.  0.
        2    1    3    3  502    0 -0.35478016099E+03  0.35504882087E+03  0.51347831640E+03  0.71804499110E+03  0.25500000920E-02 0.  1.
       -2    1    3    3    0  502  0.35478016099E+03 -0.35504882087E+03 -0.12008086200E+04  0.13014875988E+04  0.25500000920E-02 0. -1.
</event>
<event>
 5   0  0.6452182E-05  0.1909343E+04  0.7818609E-02  0.8650219E-01
       -2   -1    0    0    0  501  0.00000000000E+00  0.00000000000E+00  0.12262526158E+04  0.12262526158E+04  0.25500000920E-02 0. -1.
        2   -1    0    0  501    0  0.00000000000E+00  0.00000000000E+00 -0.74323843487E+03  0.74323843488E+03  0.25500000920E-02 0.  1.
    10030    2    1    2    0    0  0.00000000000E+00  0.00000000000E+00  0.48301418096E+03  0.19694910507E+04  0.19093434211E+04 0.  0.
        3    1    3    3  502    0  0.92623772876E+02  0.89178479988E+03 -0.96754354219E+02  0.90178750704E+03  0.10100000352E+00 0.  1.
       -3    1    3    3    0  502 -0.92623772876E+02 -0.89178479988E+03  0.57976853518E+03  0.10677035437E+04  0.10100000352E+00 0. -1.
</event>
<event>
 5   0  0.6361762E-05  0.1894142E+04  0.7818609E-02  0.8657778E-01
        2   -1    0    0  501    0  0.00000000000E+00  0.00000000000E+00  0.41975591549E+03  0.41975591550E+03  0.25500000920E-02 0.  1.
       -2   -1    0    0    0  501  0.00000000000E+00  0.00000000000E+00 -0.21368210669E+04  0.21368210669E+04  0.25500000920E-02 0. -1.
    10030    2    1    2    0    0  0.00000000000E+00  0.00000000000E+00 -0.17170651515E+04  0.25565769824E+04  0.18941417932E+04 0.  0.
        1    1    3    3  502    0  0.14697841002E+02  0.67476129587E+03 -0.17552891728E+04  0.18805740913E+04  0.50400001928E-02 0. -1.
       -1    1    3    3    0  502 -0.14697841002E+02 -0.67476129587E+03  0.38224021330E+02  0.67600289110E+03  0.50400001928E-02 0.  1.
</event>
<event>
 5   0  0.6395992E-05  0.1900266E+04  0.7818609E-02  0.8654724E-01
       -2   -1    0    0    0  501  0.00000000000E+00  0.00000000000E+00  0.18841349306E+04  0.18841349306E+04  0.25500000920E-02 0.  1.
        2   -1    0    0  501    0  0.00000000000E+00  0.00000000000E+00 -0.47913367847E+03  0.47913367848E+03  0.25500000920E-02 0. -1.
    10030    2    1    2    0    0  0.00000000000E+00  0.00000000000E+00  0.14050012521E+04  0.23632686090E+04  0.19002657709E+04 0.  0.
        4    1    3    3  502    0  0.43587609558E+03 -0.34018290012E+03  0.16634486841E+04  0.17529334026E+04  0.12699999809E+01 0.  1.
       -4    1    3    3    0  502 -0.43587609558E+03  0.34018290012E+03 -0.25844743204E+03  0.61033520647E+03  0.12699999809E+01 0. -1.
</event>
<event>
 5   0  0.3147063E-05  0.1901223E+04  0.7818609E-02  0.8654248E-01
        1   -1    0    0  501    0  0.00000000000E+00  0.00000000000E+00  0.85591999954E+03  0.85591999955E+03  0.50400001928E-02 0.  1.
       -1   -1    0    0    0  501  0.00000000000E+00  0.00000000000E+00 -0.10557792807E+04  0.10557792807E+04  0.50400001928E-02 0. -1.
    10030    2    1    2    0    0  0.00000000000E+00  0.00000000000E+00 -0.19985928116E+03  0.19116992803E+04  0.19012233972E+04 0.  0.
        5    1    3    3  502    0 -0.25633911815E+03 -0.68890263734E+03  0.50617188566E+03  0.89248454051E+03  0.46999998093E+01 0.  1.
       -5    1    3    3    0  502  0.25633911815E+03  0.68890263734E+03 -0.70603116682E+03  0.10192147398E+04  0.46999998093E+01 0. -1.
</event>
<event>
 5   0  0.3144958E-05  0.1901866E+04  0.7818609E-02  0.8653928E-01
        1   -1    0    0  501    0  0.00000000000E+00  0.00000000000E+00  0.87362637369E+03  0.87362637370E+03  0.50400001928E-02 0.  1.
       -1   -1    0    0    0  501  0.00000000000E+00  0.00000000000E+00 -0.10350805177E+04  0.10350805177E+04  0.50400001928E-02 0. -1.
    10030    2    1    2    0    0  0.00000000000E+00  0.00000000000E+00 -0.16145414401E+03  0.19087068914E+04  0.19018660722E+04 0.  0.
        4    1    3    3  502    0  0.56694685385E+03  0.50826794314E+03 -0.65243121308E+03  0.10027128890E+04  0.12699999809E+01 0. -1.
       -4    1    3    3    0  502 -0.56694685385E+03 -0.50826794314E+03  0.49097706907E+03  0.90599400239E+03  0.12699999809E+01 0.  1.
</event>
<event>
 5   0  0.2279625E-05  0.1903694E+04  0.7818609E-02  0.8653020E-01
       -3   -1    0    0    0  501  0.00000000000E+00  0.00000000000E+00  0.11450132902E+04  0.11450132947E+04  0.10100000352E+00 0.  1.
        3   -1    0    0  501    0  0.00000000000E+00  0.00000000000E+00 -0.79126809051E+03  0.79126809695E+03  0.10100000352E+00 0. -1.
    10030    2    1    2    0    0  0.00000000000E+00  0.00000000000E+00  0.35374519972E+03  0.19362813916E+04  0.19036937677E+04 0.  0.
        2    1    3    3  502    0 -0.13522607480E+03  0.44606192510E+03  0.10209918719E+04  0.11223554405E+04  0.25500000920E-02 0.  1.
       -2    1    3    3    0  502  0.13522607480E+03 -0.44606192510E+03 -0.66724667220E+03  0.81392595112E+03  0.25500000920E-02 0. -1.
</event>
<event>
 5   0  0.6452182E-05  0.1907400E+04  0.7818609E-02  0.8651182E-01
       -2   -1    0    0    0  501  0.00000000000E+00  0.00000000000E+00  0.47942681000E+03  0.47942681000E+03  0.25500000920E-02 0.  1.
        2   -1    0    0  501    0  0.00000000000E+00  0.00000000000E+00 -0.18971479220E+04  0.18971479220E+04  0.25500000920E-02 0. -1.
    10030    2    1    2    0    0  0.00000000000E+00  0.00000000000E+00 -0.14177211120E+04  0.23765747320E+04  0.19073998808E+04 0.  0.
        3    1    3    3  502    0  0.12123270305E+03  0.81084094996E+03 -0.13159248227E+04  0.15504252847E+04  0.10100000352E+00 0. -1.
       -3    1    3    3    0  502 -0.12123270305E+03 -0.81084094996E+03 -0.10179628928E+03  0.82614944722E+03  0.10100000352E+00 0.  1.
</event>
<event>
 5   0  0.6423388E-05  0.1930658E+04  0.7818609E-02  0.8639745E-01
        2   -1    0    0  501    0  0.00000000000E+00  0.00000000000E+00  0.12342669236E+04  0.12342669236E+04  0.25500000920E-02 0. -1.
       -2   -1    0    0    0  501  0.00000000000E+00  0.00000000000E+00 -0.75499043932E+03  0.75499043932E+03  0.25500000920E-02 0.  1.
    10030    2    1    2    0    0  0.00000000000E+00  0.00000000000E+00  0.47927648432E+03  0.19892573630E+04  0.19306576361E+04 0.  0.
        2    1    3    3  502    0 -0.81545762118E+03  0.43900221535E+03  0.52023788279E+03  0.10622342170E+04  0.25500000920E-02 0. -1.
       -2    1    3    3    0  502  0.81545762118E+03 -0.43900221535E+03 -0.40961398467E+02  0.92702314599E+03  0.25500000920E-02 0.  1.
</event>
<event>
 5   0  0.6098377E-05  0.1893091E+04  0.7818609E-02  0.8658303E-01
       -2   -1    0    0    0  501  0.00000000000E+00  0.00000000000E+00  0.56820483527E+03  0.56820483528E+03  0.25500000920E-02 0. -1.
        2   -1    0    0  501    0  0.00000000000E+00  0.00000000000E+00 -0.15768049983E+04  0.15768049983E+04  0.25500000920E-02 0.  1.
    10030    2    1    2    0    0  0.00000000000E+00  0.00000000000E+00 -0.10086001630E+04  0.21450098335E+04  0.18930908317E+04 0.  0.
        5    1    3    3  502    0  0.19579077734E+03 -0.74028947374E+03 -0.11347241424E+04  0.13689351711E+04  0.46999998093E+01 0.  1.
       -5    1    3    3    0  502 -0.19579077734E+03  0.74028947374E+03  0.12612397942E+03  0.77607466240E+03  0.46999998093E+01 0. -1.
</event>
<event>
 5   0  0.3144958E-05  0.1899077E+04  0.7818609E-02  0.8655316E-01
        1   -1    0    0  501    0  0.00000000000E+00  0.00000000000E+00  0.89078298207E+03  0.89078298208E+03  0.50400001928E-02 0.  1.
       -1   -1    0    0    0  501  0.00000000000E+00  0.00000000000E+00 -0.10121690659E+04  0.10121690659E+04  0.50400001928E-02 0. -1.
    10030    2    1    2    0    0  0.00000000000E+00  0.00000000000E+00 -0.12138608385E+03  0.19029520480E+04  0.18990765955E+04 0.  0.
        4    1    3    3  502    0 -0.94440917701E+03 -0.82537057712E+02 -0.67286470505E+01  0.94803372678E+03  0.12699999809E+01 0. -1.
       -4    1    3    3    0  502  0.94440917701E+03  0.82537057712E+02 -0.11465743680E+03  0.95491832124E+03  0.12699999809E+01 0.  1.
</event>
<event>
 5   0  0.3203527E-05  0.1890930E+04  0.7818609E-02  0.8659384E-01
        1   -1    0    0  501    0  0.00000000000E+00  0.00000000000E+00  0.62003962368E+03  0.62003962370E+03  0.50400001928E-02 0.  1.
       -1   -1    0    0    0  501  0.00000000000E+00  0.00000000000E+00 -0.14416886196E+04  0.14416886196E+04  0.50400001928E-02 0. -1.
    10030    2    1    2    0    0  0.00000000000E+00  0.00000000000E+00 -0.82164899594E+03  0.20617282433E+04  0.18909300032E+04 0.  0.
        1    1    3    3  502    0  0.61363420034E+03 -0.56705195190E+03 -0.89329696810E+03  0.12231411698E+04  0.50400001928E-02 0. -1.
       -1    1    3    3    0  502 -0.61363420034E+03  0.56705195190E+03  0.71647972167E+02  0.83858707355E+03  0.50400001928E-02 0.  1.
</event>
<event>
 5   0  0.6423388E-05  0.1892053E+04  0.7818609E-02  0.8658822E-01
       -2   -1    0    0    0  501  0.00000000000E+00  0.00000000000E+00  0.79558093586E+03  0.79558093586E+03  0.25500000920E-02 0.  1.
        2   -1    0    0  501    0  0.00000000000E+00  0.00000000000E+00 -0.11249211700E+04  0.11249211700E+04  0.25500000920E-02 0. -1.
    10030    2    1    2    0    0  0.00000000000E+00  0.00000000000E+00 -0.32934023417E+03  0.19205021059E+04  0.18920526813E+04 0.  0.
        2    1    3    3  502    0 -0.75951831799E+03  0.56387462642E+03 -0.15252494052E+03  0.95816831881E+03  0.25500000920E-02 0. -1.
       -2    1    3    3    0  502  0.75951831799E+03 -0.56387462642E+03 -0.17681529365E+03  0.96233378708E+03  0.25500000920E-02 0.  1.
</event>
<event>
 5   0  0.3144958E-05  0.1903192E+04  0.7818609E-02  0.8653269E-01
       -1   -1    0    0    0  501  0.00000000000E+00  0.00000000000E+00  0.52062670292E+03  0.52062670294E+03  0.50400001928E-02 0. -1.
        1   -1    0    0  501    0  0.00000000000E+00  0.00000000000E+00 -0.17393178418E+04  0.17393178418E+04  0.50400001928E-02 0.  1.
    10030    2    1    2    0    0  0.00000000000E+00  0.00000000000E+00 -0.12186911389E+04  0.22599445448E+04  0.19031923848E+04 0.  0.
        4    1    3    3  502    0  0.39637618400E+02  0.37749895802E+03  0.42684064561E+03  0.57120150012E+03  0.12699999809E+01 0. -1.
       -4    1    3    3    0  502 -0.39637618400E+02 -0.37749895802E+03 -0.16455317845E+04  0.16887430447E+04  0.12699999809E+01 0.  1.
</event>
<event>
 5   0  0.6395992E-05  0.1895202E+04  0.7818609E-02  0.8657248E-01
       -2   -1    0    0    0  501  0.00000000000E+00  0.00000000000E+00  0.58777354919E+03  0.58777354919E+03  0.25500000920E-02 0. -1.
        2   -1    0    0  501    0  0.00000000000E+00  0.00000000000E+00 -0.15277105815E+04  0.15277105815E+04  0.25500000920E-02 0.  1.
    10030    2    1    2    0    0  0.00000000000E+00  0.00000000000E+00 -0.93993703231E+03  0.21154841307E+04  0.18952022273E+04 0.  0.
        4    1    3    3  502    0 -0.49464619447E+03 -0.55811832496E+03 -0.11225347120E+04  0.13476856885E+04  0.12699999809E+01 0.  1.
       -4    1    3    3    0  502  0.49464619447E+03  0.55811832496E+03  0.18259767969E+03  0.76779844222E+03  0.12699999809E+01 0. -1.
</event>
<event>
 5   0  0.3147063E-05  0.1894209E+04  0.7818609E-02  0.8657745E-01
        1   -1    0    0  501    0  0.00000000000E+00  0.00000000000E+00  0.14942321709E+04  0.14942321709E+04  0.50400001928E-02 0. -1.
       -1   -1    0    0    0  501  0.00000000000E+00  0.00000000000E+00 -0.60031266980E+03  0.60031266983E+03  0.50400001928E-02 0.  1.
    10030    2    1    2    0    0  0.00000000000E+00  0.00000000000E+00  0.89391950111E+03  0.20945448407E+04  0.18942085459E+04 0.  0.
        5    1    3    3  502    0 -0.91300365488E+03 -0.24332165696E+03  0.37526990447E+03  0.10166762974E+04  0.46999998093E+01 0.  1.
       -5    1    3    3    0  502  0.91300365488E+03  0.24332165696E+03  0.51864959664E+03  0.10778685433E+04  0.46999998093E+01 0. -1.
</event>
<event>
 5   0  0.6098377E-05  0.1894709E+04  0.7818609E-02  0.8657494E-01
        2   -1    0    0  501    0  0.00000000000E+00  0.00000000000E+00  0.11343534289E+04  0.11343534289E+04  0.25500000920E-02 0. -1.
       -2   -1    0    0    0  501  0.00000000000E+00  0.00000000000E+00 -0.79118281647E+03  0.79118281647E+03  0.25500000920E-02 0.  1.
    10030    2    1    2    0    0  0.00000000000E+00  0.00000000000E+00  0.34317061245E+03  0.19255362454E+04  0.18947094139E+04 0.  0.
        5    1    3    3  502    0 -0.19087124218E+03  0.90306566345E+03 -0.45191118702E+02  0.92413405456E+03  0.46999998093E+01 0.  1.
       -5    1    3    3    0  502  0.19087124218E+03 -0.90306566345E+03  0.38836173115E+03  0.10014021908E+04  0.46999998093E+01 0. -1.
</event>
<event>
 5   0  0.6361762E-05  0.1897919E+04  0.7818609E-02  0.8655893E-01
       -2   -1    0    0    0  501  0.00000000000E+00  0.00000000000E+00  0.76799885741E+03  0.76799885742E+03  0.25500000920E-02 0. -1.
        2   -1    0    0  501    0  0.00000000000E+00  0.00000000000E+00 -0.11725586483E+04  0.11725586483E+04  0.25500000920E-02 0.  1.
    10030    2    1    2    0    0  0.00000000000E+00  0.00000000000E+00 -0.40455979088E+03  0.19405575057E+04  0.18979185464E+04 0.  0.
        1    1    3    3  502    0  0.22812550769E+03 -0.49018673914E+03  0.59511223735E+03  0.80404157950E+03  0.50400001928E-02 0. -1.
       -1    1    3    3    0  502 -0.22812550769E+03  0.49018673914E+03 -0.99967202824E+03  0.11365159262E+04  0.50400001928E-02 0.  1.
</event>
<event>
 5   0  0.3083469E-05  0.1895041E+04  0.7818609E-02  0.8657329E-01
        1   -1    0    0  501    0  0.00000000000E+00  0.00000000000E+00  0.14629164151E+04  0.14629164151E+04  0.50400001928E-02 0.  1.
       -1   -1    0    0    0  501  0.00000000000E+00  0.00000000000E+00 -0.61370241201E+03  0.61370241203E+03  0.50400001928E-02 0. -1.
    10030    2    1    2    0    0  0.00000000000E+00  0.00000000000E+00  0.84921400309E+03  0.20766188271E+04  0.18950412476E+04 0.  0.
        3    1    3    3  502    0 -0.74538082694E+02 -0.75490302664E+03  0.10467772556E+04  0.12927401667E+04  0.10100000352E+00 0.  1.
       -3    1    3    3    0  502  0.74538082694E+02  0.75490302664E+03 -0.19756325253E+03  0.78387866048E+03  0.10100000352E+00 0. -1.
</event>
<event>
 5   0  0.3144958E-05  0.1901429E+04  0.7818609E-02  0.8654145E-01
        1   -1    0    0  501    0  0.00000000000E+00  0.00000000000E+00  0.14746111758E+04  0.14746111758E+04  0.50400001928E-02 0. -1.
       -1   -1    0    0    0  501  0.00000000000E+00  0.00000000000E+00 -0.61294683807E+03  0.61294683809E+03  0.50400001928E-02 0.  1.
    10030    2    1    2    0    0  0.00000000000E+00  0.00000000000E+00  0.86166433770E+03  0.20875580139E+04  0.19014292073E+04 0.  0.
        4    1    3    3  502    0 -0.18539876411E+03 -0.20295862579E+03 -0.56836238403E+03  0.63134960046E+03  0.12699999809E+01 0.  1.
       -4    1    3    3    0  502  0.18539876411E+03  0.20295862579E+03  0.14300267217E+04  0.14562084134E+04  0.12699999809E+01 0. -1.
</event>
<event>
 5   0  0.3144958E-05  0.1899784E+04  0.7818609E-02  0.8654964E-01
        1   -1    0    0  501    0  0.00000000000E+00  0.00000000000E+00  0.17394394168E+04  0.17394394168E+04  0.50400001928E-02 0. -1.
       -1   -1    0    0    0  501  0.00000000000E+00  0.00000000000E+00 -0.51872760110E+03  0.51872760112E+03  0.50400001928E-02 0.  1.
    10030    2    1    2    0    0  0.00000000000E+00  0.00000000000E+00  0.12207118157E+04  0.22581670179E+04  0.18997844467E+04 0.  0.
        4    1    3    3  502    0  0.76852006727E+03 -0.12081327029E+03 -0.37509144153E+02  0.77886294614E+03  0.12699999809E+01 0.  1.
       -4    1    3    3    0  502 -0.76852006727E+03  0.12081327029E+03  0.12582209599E+04  0.14793040718E+04  0.12699999809E+01 0. -1.
</event>
<event>
 5   0  0.3144958E-05  0.1897111E+04  0.7818609E-02  0.8656296E-01
       -1   -1    0    0    0  501  0.00000000000E+00  0.00000000000E+00  0.48200061121E+03  0.48200061123E+03  0.50400001928E-02 0.  1.
        1   -1    0    0  501    0  0.00000000000E+00  0.00000000000E+00 -0.18667147167E+04  0.18667147167E+04  0.50400001928E-02 0. -1.
    10030    2    1    2    0    0  0.00000000000E+00  0.00000000000E+00 -0.13847141054E+04  0.23487153279E+04  0.18971111031E+04 0.  0.
        4    1    3    3  502    0  0.28024970206E+03 -0.33098481076E+03  0.35206365799E+03  0.55860654546E+03  0.12699999809E+01 0.  1.
       -4    1    3    3    0  502 -0.28024970206E+03  0.33098481076E+03 -0.17367777634E+04  0.17901087824E+04  0.12699999809E+01 0. -1.
</event>
<event>
 5   0  0.3083469E-05  0.1884176E+04  0.7818609E-02  0.8662773E-01
        1   -1    0    0  501    0  0.00000000000E+00  0.00000000000E+00  0.13451625922E+04  0.13451625922E+04  0.50400001928E-02 0. -1.
       -1   -1    0    0    0  501  0.00000000000E+00  0.00000000000E+00 -0.65979398006E+03  0.65979398008E+03  0.50400001928E-02 0.  1.
    10030    2    1    2    0    0  0.00000000000E+00  0.00000000000E+00  0.68536861209E+03  0.20049565722E+04  0.18841764042E+04 0.  0.
        3    1    3    3  502    0 -0.86548280614E+03 -0.15104079602E+03 -0.19198684260E+02  0.87877324121E+03  0.10100000352E+00 0. -1.
       -3    1    3    3    0  502  0.86548280614E+03  0.15104079602E+03  0.70456729635E+03  0.11261833310E+04  0.10100000352E+00 0.  1.
</event>
<event>
 5   0  0.6098377E-05  0.1913648E+04  0.7818609E-02  0.8648093E-01
       -2   -1    0    0    0  501  0.00000000000E+00  0.00000000000E+00  0.12801511335E+04  0.12801511335E+04  0.25500000920E-02 0.  1.
        2   -1    0    0  501    0  0.00000000000E+00  0.00000000000E+00 -0.71515923041E+03  0.71515923041E+03  0.25500000920E-02 0. -1.
    10030    2    1    2    0    0  0.00000000000E+00  0.00000000000E+00  0.56499190306E+03  0.19953103639E+04  0.19136477204E+04 0.  0.
        5    1    3    3  502    0  0.77458367577E+03 -0.15146244817E+03  0.84647460743E+03  0.11573513274E+04  0.46999998093E+01 0.  1.
       -5    1    3    3    0  502 -0.77458367577E+03  0.15146244817E+03 -0.28148270437E+03  0.83795903649E+03  0.46999998093E+01 0. -1.
</event>
<event>
 5   0  0.6423388E-05  0.1894528E+04  0.7818609E-02  0.8657585E-01
        2   -1    0    0  501    0  0.00000000000E+00  0.00000000000E+00  0.18761354031E+04  0.18761354031E+04  0.25500000920E-02 0. -1.
       -2   -1    0    0    0  501  0.00000000000E+00  0.00000000000E+00 -0.47827515947E+03  0.47827515948E+03  0.25500000920E-02 0.  1.
    10030    2    1    2    0    0  0.00000000000E+00  0.00000000000E+00  0.13978602436E+04  0.23544105626E+04  0.18945278664E+04 0.  0.
        2    1    3    3  502    0  0.52429078671E+03 -0.33407402903E+03  0.15871413983E+04  0.17045539311E+04  0.25500000920E-02 0. -1.
       -2    1    3    3    0  502 -0.52429078671E+03  0.33407402903E+03 -0.18928115469E+03  0.64985663144E+03  0.25500000920E-02 0.  1.
</event>
<event>
 5   0  0.3086139E-05  0.1894495E+04  0.7818609E-02  0.8657601E-01
        1   -1    0    0  501    0  0.00000000000E+00  0.00000000000E+00  0.78740360711E+03  0.78740360712E+03  0.50400001928E-02 0. -1.
       -1   -1    0    0    0  501  0.00000000000E+00  0.00000000000E+00 -0.11395404327E+04  0.11395404327E+04  0.50400001928E-02 0.  1.
    10030    2    1    2    0    0  0.00000000000E+00  0.00000000000E+00 -0.35213682559E+03  0.19269440398E+04  0.18944954444E+04 0.  0.
        2    1    3    3  502    0  0.60159691928E+03  0.17557343747E+03 -0.89853951686E+03  0.10954990409E+04  0.25500000920E-02 0.  1.
       -2    1    3    3    0  502 -0.60159691928E+03 -0.17557343747E+03  0.54640269126E+03  0.83144499894E+03  0.25500000920E-02 0. -1.
</event>
<event>
 5   0  0.3203527E-05  0.1906660E+04  0.7818609E-02  0.8651549E-01
       -1   -1    0    0    0  501  0.00000000000E+00  0.00000000000E+00  0.60954631276E+03  0.60954631278E+03  0.50400001928E-02 0.  1.
        1   -1    0    0  501    0  0.00000000000E+00  0.00000000000E+00 -0.14910068212E+04  0.14910068212E+04  0.50400001928E-02 0. -1.
    10030    2    1    2    0    0  0.00000000000E+00  0.00000000000E+00 -0.88146050840E+03  0.21005531340E+04  0.19066596027E+04 0.  0.
        1    1    3    3  502    0  0.78087495885E+03  0.30155244187E+03 -0.94334628299E+03  0.12611906225E+04  0.50400001928E-02 0. -1.
       -1    1    3    3    0  502 -0.78087495885E+03 -0.30155244187E+03  0.61885774583E+02  0.83936251148E+03  0.50400001928E-02 0.  1.
</event>
<event>
 5   0  0.3083469E-05  0.1898376E+04  0.7818609E-02  0.8655665E-01
        1   -1    0    0  501    0  0.00000000000E+00  0.00000000000E+00  0.13316527258E+04  0.13316527258E+04  0.50400001928E-02 0.  1.
       -1   -1    0    0    0  501  0.00000000000E+00  0.00000000000E+00 -0.67657093344E+03  0.67657093346E+03  0.50400001928E-02 0. -1.
    10030    2    1    2    0    0  0.00000000000E+00  0.00000000000E+00  0.65508179236E+03  0.20082236593E+04  0.18983756506E+04 0.  0.
        3    1    3    3  502    0  0.65054990372E+02  0.37188733720E+02 -0.67343700937E+03  0.67759321830E+03  0.10100000352E+00 0. -1.
       -3    1    3    3    0  502 -0.65054990372E+02 -0.37188733720E+02  0.13285188017E+04  0.13306304410E+04  0.10100000352E+00 0.  1.
</event>
<event>
 5   0  0.3203527E-05  0.1910322E+04  0.7818609E-02  0.8649736E-01
        1   -1    0    0  501    0  0.00000000000E+00  0.00000000000E+00  0.86777211017E+03  0.86777211018E+03  0.50400001928E-02 0.  1.
       -1   -1    0    0    0  501  0.00000000000E+00  0.00000000000E+00 -0.10513500084E+04  0.10513500084E+04  0.50400001928E-02 0. -1.
    10030    2    1    2    0    0  0.00000000000E+00  0.00000000000E+00 -0.18357789822E+03  0.19191221186E+04  0.19103216644E+04 0.  0.
        1    1    3    3  502    0  0.20214882429E+03 -0.85784697129E+03 -0.46167889713E+03  0.99494370564E+03  0.50400001928E-02 0. -1.
       -1    1    3    3    0  502 -0.20214882429E+03  0.85784697129E+03  0.27810099891E+03  0.92417841294E+03  0.50400001928E-02 0.  1.
</event>
<event>
 5   0  0.3144958E-05  0.1897963E+04  0.7818609E-02  0.8655871E-01
        1   -1    0    0  501    0  0.00000000000E+00  0.00000000000E+00  0.17806318672E+04  0.17806318672E+04  0.50400001928E-02 0.  1.
       -1   -1    0    0    0  501  0.00000000000E+00  0.00000000000E+00 -0.50575619050E+03  0.50575619052E+03  0.50400001928E-02 0. -1.
    10030    2    1    2    0    0  0.00000000000E+00  0.00000000000E+00  0.12748756767E+04  0.22863880578E+04  0.18979626865E+04 0.  0.
        4    1    3    3  502    0  0.51360697088E+03  0.16783315648E+03 -0.30234959675E+03  0.61917443463E+03  0.12699999809E+01 0. -1.
       -4    1    3    3    0  502 -0.51360697088E+03 -0.16783315648E+03  0.15772252735E+04  0.16672136231E+04  0.12699999809E+01 0.  1.
</event>
<event>
 5   0  0.3144958E-05  0.1897020E+04  0.7818609E-02  0.8656341E-01
       -1   -1    0    0    0  501  0.00000000000E+00  0.00000000000E+00  0.92868228704E+03  0.92868228705E+03  0.50400001928E-02 0.  1.
        1   -1    0    0  501    0  0.00000000000E+00  0.00000000000E+00 -0.96876088959E+03  0.96876088961E+03  0.50400001928E-02 0. -1.
    10030    2    1    2    0    0  0.00000000000E+00  0.00000000000E+00 -0.40078602558E+02  0.18974431767E+04  0.18970198508E+04 0.  0.
        4    1    3    3  502    0 -0.26886450574E+03 -0.32482288616E+03 -0.86985907482E+03  0.96667184337E+03  0.12699999809E+01 0. -1.
       -4    1    3    3    0  502  0.26886450574E+03  0.32482288616E+03  0.82978047226E+03  0.93077133329E+03  0.12699999809E+01 0.  1.
</event>
<event>
 5   0  0.3083469E-05  0.1894854E+04  0.7818609E-02  0.8657422E-01
       -1   -1    0    0    0  501  0.00000000000E+00  0.00000000000E+00  0.67257491012E+03  0.67257491014E+03  0.50400001928E-02 0.  1.
        1   -1    0    0  501    0  0.00000000000E+00  0.00000000000E+00 -0.13345996095E+04  0.13345996095E+04  0.50400001928E-02 0. -1.
    10030    2    1    2    0    0  0.00000000000E+00  0.00000000000E+00 -0.66202469934E+03  0.20071745196E+04  0.18948543083E+04 0.  0.
        3    1    3    3  502    0 -0.38268877631E+03 -0.20464753250E+03 -0.12231261918E+04  0.12978324250E+04  0.10100000352E+00 0. -1.
       -3    1    3    3    0  502  0.38268877631E+03  0.20464753250E+03  0.56110149250E+03  0.70934209459E+03  0.10100000352E+00 0.  1.
</event>
<event>
 5   0  0.6423388E-05  0.1900373E+04  0.7818609E-02  0.8654671E-01
        2   -1    0    0  501    0  0.00000000000E+00  0.00000000000E+00  0.19203256376E+04  0.19203256376E+04  0.25500000920E-02 0.  1.
       -2   -1    0    0    0  501  0.00000000000E+00  0.00000000000E+00 -0.47015694251E+03  0.47015694252E+03  0.25500000920E-02 0. -1.
    10030    2    1    2    0    0  0.00000000000E+00  0.00000000000E+00  0.14501686951E+04  0.23904825802E+04  0.19003730480E+04 0.  0.
        2    1    3    3  502    0 -0.28850936114E+02  0.25306271000E+03 -0.42641551192E+03  0.49669236003E+03  0.25500000920E-02 0. -1.
       -2    1    3    3    0  502  0.28850936114E+02 -0.25306271000E+03  0.18765842070E+04  0.18937902201E+04  0.25500000920E-02 0.  1.
</event>
<event>
 5   0  0.2279625E-05  0.1904159E+04  0.7818609E-02  0.8652789E-01
        3   -1    0    0  501    0  0.00000000000E+00  0.00000000000E+00  0.11740985115E+04  0.11740985158E+04  0.10100000352E+00 0. -1.
       -3   -1    0    0    0  501  0.00000000000E+00  0.00000000000E+00 -0.77204396638E+03  0.77204397298E+03  0.10100000352E+00 0.  1.
    10030    2    1    2    0    0  0.00000000000E+00  0.00000000000E+00  0.40205454511E+03  0.19461424888E+04  0.19041593236E+04 0.  0.
        2    1    3    3  502    0  0.83262122322E+03  0.43099170050E+03  0.31713237324E+02  0.93809257362E+03  0.25500000920E-02 0.  1.
       -2    1    3    3    0  502 -0.83262122322E+03 -0.43099170050E+03  0.37034130779E+03  0.10080499152E+04  0.25500000920E-02 0. -1.
</event>
<event>
 5   0  0.6361762E-05  0.1889685E+04  0.7818609E-02  0.8660008E-01
        2   -1    0    0  501    0  0.00000000000E+00  0.00000000000E+00  0.17952589561E+04  0.17952589561E+04  0.25500000920E-02 0.  1.
       -2   -1    0    0    0  501  0.00000000000E+00  0.00000000000E+00 -0.49726914318E+03  0.49726914319E+03  0.25500000920E-02 0. -1.
    10030    2    1    2    0    0  0.00000000000E+00  0.00000000000E+00  0.12979898129E+04  0.22925280993E+04  0.18896845058E+04 0.  0.
        1    1    3    3  502    0  0.66328187115E+03 -0.36244000670E+03  0.13367957134E+04  0.15356849867E+04  0.50400001928E-02 0.  1.
       -1    1    3    3    0  502 -0.66328187115E+03  0.36244000670E+03 -0.38805900515E+02  0.75684311253E+03  0.50400001928E-02 0. -1.
</event>
<event>
 5   0  0.3083469E-05  0.1905662E+04  0.7818609E-02  0.8652043E-01
       -1   -1    0    0    0  501  0.00000000000E+00  0.00000000000E+00  0.75098390056E+03  0.75098390057E+03  0.50400001928E-02 0.  1.
        1   -1    0    0  501    0  0.00000000000E+00  0.00000000000E+00 -0.12089305553E+04  0.12089305553E+04  0.50400001928E-02 0. -1.
    10030    2    1    2    0    0  0.00000000000E+00  0.00000000000E+00 -0.45794665474E+03  0.19599144559E+04  0.19056624926E+04 0.  0.
        3    1    3    3  502    0  0.18705041836E+03  0.93250517060E+03 -0.28835456944E+03  0.99383203818E+03  0.10100000352E+00 0. -1.
       -3    1    3    3    0  502 -0.18705041836E+03 -0.93250517060E+03 -0.16959208530E+03  0.96608241770E+03  0.10100000352E+00 0.  1.
</event>
<event>
 5   0  0.6361762E-05  0.1906716E+04  0.7818609E-02  0.8651521E-01
       -2   -1    0    0    0  501  0.00000000000E+00  0.00000000000E+00  0.47910744829E+03  0.47910744830E+03  0.25500000920E-02 0. -1.
        2   -1    0    0  501    0  0.00000000000E+00  0.00000000000E+00 -0.18970509008E+04  0.18970509008E+04  0.25500000920E-02 0.  1.
    10030    2    1    2    0    0  0.00000000000E+00  0.00000000000E+00 -0.14179434525E+04  0.23761583491E+04  0.19067157275E+04 0.  0.
        1    1    3    3  502    0 -0.61122450746E+03  0.68818881988E+03 -0.10185024303E+04  0.13727878390E+04  0.50400001928E-02 0.  1.
       -1    1    3    3    0  502  0.61122450746E+03 -0.68818881988E+03 -0.39944102225E+03  0.10033705101E+04  0.50400001928E-02 0. -1.
</event>
<event>
 5   0  0.3203527E-05  0.1898899E+04  0.7818609E-02  0.8655405E-01
        1   -1    0    0  501    0  0.00000000000E+00  0.00000000000E+00  0.11167378168E+04  0.11167378168E+04  0.50400001928E-02 0. -1.
       -1   -1    0    0    0  501  0.00000000000E+00  0.00000000000E+00 -0.80722072531E+03  0.80722072533E+03  0.50400001928E-02 0.  1.
    10030    2    1    2    0    0  0.00000000000E+00  0.00000000000E+00  0.30951709146E+03  0.19239585421E+04  0.18988985338E+04 0.  0.
        1    1    3    3  502    0  0.33580635857E+03 -0.88806090094E+03  0.14869320931E+03  0.96100350923E+03  0.50400001928E-02 0.  1.
       -1    1    3    3    0  502 -0.33580635857E+03  0.88806090094E+03  0.16082388215E+03  0.96295503287E+03  0.50400001928E-02 0. -1.
</event>
<event>
 5   0  0.6098377E-05  0.1907642E+04  0.7818609E-02  0.8651062E-01
       -2   -1    0    0    0  501  0.00000000000E+00  0.00000000000E+00  0.68215596119E+03  0.68215596120E+03  0.25500000920E-02 0. -1.
        2   -1    0    0  501    0  0.00000000000E+00  0.00000000000E+00 -0.13336750483E+04  0.13336750484E+04  0.25500000920E-02 0.  1.
    10030    2    1    2    0    0  0.00000000000E+00  0.00000000000E+00 -0.65151908715E+03  0.20158310096E+04  0.19076418789E+04 0.  0.
        5    1    3    3  502    0  0.77521162995E+03 -0.11447225442E+03  0.24885882363E+03  0.82219813447E+03  0.46999998093E+01 0. -1.
       -5    1    3    3    0  502 -0.77521162995E+03  0.11447225442E+03 -0.90037791079E+03  0.11936328751E+04  0.46999998093E+01 0.  1.
</event>
<event>
 5   0  0.3086139E-05  0.1903302E+04  0.7818609E-02  0.8653215E-01
       -1   -1    0    0    0  501  0.00000000000E+00  0.00000000000E+00  0.71746705502E+03  0.71746705503E+03  0.50400001928E-02 0.  1.
        1   -1    0    0  501    0  0.00000000000E+00  0.00000000000E+00 -0.12622731241E+04  0.12622731241E+04  0.50400001928E-02 0. -1.
    10030    2    1    2    0    0  0.00000000000E+00  0.00000000000E+00 -0.54480606912E+03  0.19797401792E+04  0.19033017428E+04 0.  0.
        2    1    3    3  502    0 -0.22737290051E+03  0.24402811101E+03 -0.11994842285E+04  0.12449942045E+04  0.25500000920E-02 0. -1.
       -2    1    3    3    0  502  0.22737290051E+03 -0.24402811101E+03  0.65467815940E+03  0.73474597464E+03  0.25500000920E-02 0.  1.
</event>
<event>
 5   0  0.6452182E-05  0.1904306E+04  0.7818609E-02  0.8652716E-01
       -2   -1    0    0    0  501  0.00000000000E+00  0.00000000000E+00  0.82915233721E+03  0.82915233721E+03  0.25500000920E-02 0. -1.
        2   -1    0    0  501    0  0.00000000000E+00  0.00000000000E+00 -0.10934003165E+04  0.10934003166E+04  0.25500000920E-02 0.  1.
    10030    2    1    2    0    0  0.00000000000E+00  0.00000000000E+00 -0.26424797934E+03  0.19225526538E+04  0.19043060972E+04 0.  0.
        3    1    3    3  502    0  0.94516255202E+03 -0.41144385154E+02 -0.24072001683E+03  0.97620246203E+03  0.10100000352E+00 0.  1.
       -3    1    3    3    0  502 -0.94516255202E+03  0.41144385154E+02 -0.23527962510E+02  0.94635019173E+03  0.10100000352E+00 0. -1.
</event>
<event>
 5   0  0.6423388E-05  0.1915396E+04  0.7818609E-02  0.8647230E-01
       -2   -1    0    0    0  501  0.00000000000E+00  0.00000000000E+00  0.75612514420E+03  0.75612514421E+03  0.25500000920E-02 0. -1.
        2   -1    0    0  501    0  0.00000000000E+00  0.00000000000E+00 -0.12130079772E+04  0.12130079772E+04  0.25500000920E-02 0.  1.
    10030    2    1    2    0    0  0.00000000000E+00  0.00000000000E+00 -0.45688283304E+03  0.19691331215E+04  0.19153963890E+04 0.  0.
        2    1    3    3  502    0 -0.24664675819E+03 -0.70704166424E+02  0.72013216740E+03  0.76447631815E+03  0.25500000920E-02 0. -1.
       -2    1    3    3    0  502  0.24664675819E+03  0.70704166424E+02 -0.11770150004E+04  0.12046568033E+04  0.25500000920E-02 0.  1.
</event>
<event>
 5   0  0.3086139E-05  0.1890421E+04  0.7818609E-02  0.8659639E-01
       -1   -1    0    0    0  501  0.00000000000E+00  0.00000000000E+00  0.67291938477E+03  0.67291938479E+03  0.50400001928E-02 0.  1.
        1   -1    0    0  501    0  0.00000000000E+00  0.00000000000E+00 -0.13276815297E+04  0.13276815298E+04  0.50400001928E-02 0. -1.
    10030    2    1    2    0    0  0.00000000000E+00  0.00000000000E+00 -0.65476214498E+03  0.20006009145E+04  0.18904207343E+04 0.  0.
        2    1    3    3  502    0  0.80702800432E+03 -0.42834121359E+03 -0.58367853367E+03  0.10841821921E+04  0.25500000920E-02 0.  1.
       -2    1    3    3    0  502 -0.80702800432E+03  0.42834121359E+03 -0.71083611309E+02  0.91641872243E+03  0.25500000920E-02 0. -1.
</event>
<event>
 5   0  0.6098377E-05  0.1899640E+04  0.7818609E-02  0.8655036E-01
        2   -1    0    0  501    0  0.00000000000E+00  0.00000000000E+00  0.74496361508E+03  0.74496361509E+03  0.25500000920E-02 0. -1.
       -2   -1    0    0    0  501  0.00000000000E+00  0.00000000000E+00 -0.12110088861E+04  0.12110088861E+04  0.25500000920E-02 0.  1.
    10030    2    1    2    0    0  0.00000000000E+00  0.00000000000E+00 -0.46604527098E+03  0.19559725011E+04  0.18996395002E+04 0.  0.
        5    1    3    3  502    0 -0.19176050745E+03  0.81813597892E+03  0.22284452357E+03  0.86936778403E+03  0.46999998093E+01 0. -1.
       -5    1    3    3    0  502  0.19176050745E+03 -0.81813597892E+03 -0.68888979454E+03  0.10866047171E+04  0.46999998093E+01 0.  1.
</event>
<event>
 5   0  0.6098377E-05  0.1902568E+04  0.7818609E-02  0.8653579E-01
        2   -1    0    0  501    0  0.00000000000E+00  0.00000000000E+00  0.71542574567E+03  0.71542574568E+03  0.25500000920E-02 0.  1.
       -2   -1    0    0    0  501  0.00000000000E+00  0.00000000000E+00 -0.12648982946E+04  0.12648982946E+04  0.25500000920E-02 0. -1.
    10030    2    1    2    0    0  0.00000000000E+00  0.00000000000E+00 -0.54947254890E+03  0.19803240402E+04  0.19025675343E+04 0.  0.
        5    1    3    3  502    0  0.25478307535E+03 -0.34290449719E+03 -0.11594266460E+04  0.12356335003E+04  0.46999998093E+01 0. -1.
       -5    1    3    3    0  502 -0.25478307535E+03  0.34290449719E+03  0.60995409710E+03  0.74469053992E+03  0.46999998093E+01 0.  1.
</event>
<event>
 5   0  0.6452182E-05  0.1897087E+04  0.7818609E-02  0.8656308E-01
       -2   -1    0    0    0  501  0.00000000000E+00  0.00000000000E+00  0.13946871198E+04  0.13946871198E+04  0.25500000920E-02 0.  1.
        2   -1    0    0  501    0  0.00000000000E+00  0.00000000000E+00 -0.64511599804E+03  0.64511599805E+03  0.25500000920E-02 0. -1.
    10030    2    1    2    0    0  0.00000000000E+00  0.00000000000E+00  0.74957112174E+03  0.20398031178E+04  0.18970872128E+04 0.  0.
        3    1    3    3  502    0 -0.10491789811E+03 -0.26057930066E+03  0.13489368459E+04  0.13778751619E+04  0.10100000352E+00 0.  1.
       -3    1    3    3    0  502  0.10491789811E+03  0.26057930066E+03 -0.59936572420E+03  0.66192795592E+03  0.10100000352E+00 0. -1.
</event>
<event>
 5   0  0.6361762E-05  0.1901910E+04  0.7818609E-02  0.8653906E-01
        2   -1    0    0  501    0  0.00000000000E+00  0.00000000000E+00  0.58621510702E+03  0.58621510702E+03  0.25500000920E-02 0. -1.
       -2   -1    0    0    0  501  0.00000000000E+00  0.00000000000E+00 -0.15426336697E+04  0.15426336697E+04  0.25500000920E-02 0.  1.
    10030    2    1    2    0    0  0.00000000000E+00  0.00000000000E+00 -0.95641856268E+03  0.21288487767E+04  0.19019097368E+04 0.  0.
        1    1    3    3  502    0 -0.46589390064E+03 -0.10182313304E+03  0.44269392852E+03  0.65069423807E+03  0.50400001928E-02 0. -1.
       -1    1    3    3    0  502  0.46589390064E+03  0.10182313304E+03 -0.13991124912E+04  0.14781545387E+04  0.50400001928E-02 0.  1.
</event>
<event>
 5   0  0.3147063E-05  0.1909471E+04  0.7818609E-02  0.8650157E-01
        1   -1    0    0  501    0  0.00000000000E+00  0.00000000000E+00  0.13679602545E+04  0.13679602545E+04  0.50400001928E-02 0. -1.
       -1   -1    0    0    0  501  0.00000000000E+00  0.00000000000E+00 -0.66633472160E+03  0.66633472162E+03  0.50400001928E-02 0.  1.
    10030    2    1    2    0    0  0.00000000000E+00  0.00000000000E+00  0.70162553290E+03  0.20342949761E+04  0.19094705186E+04 0.  0.
        5    1    3    3  502    0 -0.76418926954E+03  0.57098079179E+03  0.39197831847E+03  0.10313454302E+04  0.46999998093E+01 0. -1.
       -5    1    3    3    0  502  0.76418926954E+03 -0.57098079179E+03  0.30964721443E+03  0.10029495459E+04  0.46999998093E+01 0.  1.
</event>
<event>
 5   0  0.3203527E-05  0.1876760E+04  0.7818609E-02  0.8666512E-01
        1   -1    0    0  501    0  0.00000000000E+00  0.00000000000E+00  0.19826804320E+04  0.19826804320E+04  0.50400001928E-02 0. -1.
       -1   -1    0    0    0  501  0.00000000000E+00  0.00000000000E+00 -0.44412431587E+03  0.44412431590E+03  0.50400001928E-02 0.  1.
    10030    2    1    2    0    0  0.00000000000E+00  0.00000000000E+00  0.15385561161E+04  0.24268047479E+04  0.18767595376E+04 0.  0.
        1    1    3    3  502    0  0.66619864843E+03 -0.64175656731E+03  0.97325933745E+03  0.13427233031E+04  0.50400001928E-02 0. -1.
       -1    1    3    3    0  502 -0.66619864843E+03  0.64175656731E+03  0.56529677869E+03  0.10840814448E+04  0.50400001928E-02 0.  1.
</event>
<event>
 5   0  0.6423388E-05  0.1880367E+04  0.7818609E-02  0.8664691E-01
       -2   -1    0    0    0  501  0.00000000000E+00  0.00000000000E+00  0.29001653647E+03  0.29001653648E+03  0.25500000920E-02 0. -1.
        2   -1    0    0  501    0  0.00000000000E+00  0.00000000000E+00 -0.30479112261E+04  0.30479112261E+04  0.25500000920E-02 0.  1.
    10030    2    1    2    0    0  0.00000000000E+00  0.00000000000E+00 -0.27578946896E+04  0.33379277625E+04  0.18803666209E+04 0.  0.
        2    1    3    3  502    0 -0.12356659491E+03 -0.15879473721E+03 -0.30092442117E+04  0.30159633946E+04  0.25500000920E-02 0.  1.
       -2    1    3    3    0  502  0.12356659491E+03  0.15879473721E+03  0.25134952211E+03  0.32196436793E+03  0.25500000920E-02 0. -1.
</event>
<event>
 5   0  0.3086139E-05  0.1918691E+04  0.7818609E-02  0.8645608E-01
       -1   -1    0    0    0  501  0.00000000000E+00  0.00000000000E+00  0.66852166319E+03  0.66852166320E+03  0.50400001928E-02 0.  1.
        1   -1    0    0  501    0  0.00000000000E+00  0.00000000000E+00 -0.13766846934E+04  0.13766846935E+04  0.50400001928E-02 0. -1.
    10030    2    1    2    0    0  0.00000000000E+00  0.00000000000E+00 -0.70816303026E+03  0.20452063567E+04  0.19186907421E+04 0.  0.
        2    1    3    3  502    0 -0.26259599372E+03  0.73387811215E+03 -0.95025455189E+03  0.12290311033E+04  0.25500000920E-02 0. -1.
       -2    1    3    3    0  502  0.26259599372E+03 -0.73387811215E+03  0.24209152163E+03  0.81617525340E+03  0.25500000920E-02 0.  1.
</event>
<event>
 5   0  0.6452182E-05  0.1891345E+04  0.7818609E-02  0.8659176E-01
       -2   -1    0    0    0  501  0.00000000000E+00  0.00000000000E+00  0.46201610660E+03  0.46201610660E+03  0.25500000920E-02 0. -1.
        2   -1    0    0  501    0  0.00000000000E+00  0.00000000000E+00 -0.19356396295E+04  0.19356396295E+04  0.25500000920E-02 0.  1.
    10030    2    1    2    0    0  0.00000000000E+00  0.00000000000E+00 -0.14736235229E+04  0.23976557361E+04  0.18913452201E+04 0.  0.
        3    1    3    3  502    0 -0.57869221421E+03  0.28079250257E+03 -0.16156182365E+04  0.17389512369E+04  0.10100000352E+00 0.  1.
       -3    1    3    3    0  502  0.57869221421E+03 -0.28079250257E+03  0.14199471358E+03  0.65870449913E+03  0.10100000352E+00 0. -1.
</event>
<event>
 5   0  0.6098377E-05  0.1896412E+04  0.7818609E-02  0.8656644E-01
       -2   -1    0    0    0  501  0.00000000000E+00  0.00000000000E+00  0.88793652506E+03  0.88793652506E+03  0.25500000920E-02 0. -1.
        2   -1    0    0  501    0  0.00000000000E+00  0.00000000000E+00 -0.10125666860E+04  0.10125666860E+04  0.25500000920E-02 0.  1.
    10030    2    1    2    0    0  0.00000000000E+00  0.00000000000E+00 -0.12463016097E+03  0.19005032111E+04  0.18964123440E+04 0.  0.
        5    1    3    3  502    0 -0.91744137684E+03 -0.80086701934E+02 -0.28854591636E+03  0.96508724767E+03  0.46999998093E+01 0.  1.
       -5    1    3    3    0  502  0.91744137684E+03  0.80086701934E+02  0.16391575539E+03  0.93541596343E+03  0.46999998093E+01 0. -1.
</event>
<event>
 5   0  0.3147063E-05  0.1892445E+04  0.7818609E-02  0.8658626E-01
       -1   -1    0    0    0  501  0.00000000000E+00  0.00000000000E+00  0.74546280186E+03  0.74546280188E+03  0.50400001928E-02 0.  1.
        1   -1    0    0  501    0  0.00000000000E+00  0.00000000000E+00 -0.12010488871E+04  0.12010488871E+04  0.50400001928E-02 0. -1.
    10030    2    1    2    0    0  0.00000000000E+00  0.00000000000E+00 -0.45558608527E+03  0.19465116890E+04  0.18924452633E+04 0.  0.
        5    1    3    3  502    0 -0.93887105557E+03  0.11727443394E+03 -0.21842081664E+03  0.97106225082E+03  0.46999998093E+01 0. -1.
       -5    1    3    3    0  502  0.93887105557E+03 -0.11727443394E+03 -0.23716526863E+03  0.97544943820E+03  0.46999998093E+01 0.  1.
</event>
<event>
 5   0  0.3147063E-05  0.1912761E+04  0.7818609E-02  0.8648530E-01
       -1   -1    0    0    0  501  0.00000000000E+00  0.00000000000E+00  0.85053525985E+03  0.85053525986E+03  0.50400001928E-02 0.  1.
        1   -1    0    0  501    0  0.00000000000E+00  0.00000000000E+00 -0.10753974579E+04  0.10753974580E+04  0.50400001928E-02 0. -1.
    10030    2    1    2    0    0  0.00000000000E+00  0.00000000000E+00 -0.22486219809E+03  0.19259327178E+04  0.19127607863E+04 0.  0.
        5    1    3    3  502    0 -0.16174387773E+03  0.70904860186E+03 -0.73777996303E+03  0.10359789407E+04  0.46999998093E+01 0. -1.
       -5    1    3    3    0  502  0.16174387773E+03 -0.70904860186E+03  0.51291776493E+03  0.88995377710E+03  0.46999998093E+01 0.  1.
</event>
<event>
 5   0  0.6361762E-05  0.1901276E+04  0.7818609E-02  0.8654221E-01
       -2   -1    0    0    0  501  0.00000000000E+00  0.00000000000E+00  0.53292787112E+03  0.53292787113E+03  0.25500000920E-02 0.  1.
        2   -1    0    0  501    0  0.00000000000E+00  0.00000000000E+00 -0.16957503492E+04  0.16957503492E+04  0.25500000920E-02 0. -1.
    10030    2    1    2    0    0  0.00000000000E+00  0.00000000000E+00 -0.11628224781E+04  0.22286782203E+04  0.19012760174E+04 0.  0.
        1    1    3    3  502    0 -0.47836645675E+03 -0.75190161131E+03 -0.96934102495E+03  0.13167431499E+04  0.50400001928E-02 0. -1.
       -1    1    3    3    0  502  0.47836645675E+03  0.75190161131E+03 -0.19348145315E+03  0.91193507048E+03  0.50400001928E-02 0.  1.
</event>
<event>
 5   0  0.6395992E-05  0.1949589E+04  0.7818609E-02  0.8630559E-01
        2   -1    0    0  501    0  0.00000000000E+00  0.00000000000E+00  0.21241677583E+04  0.21241677583E+04  0.25500000920E-02 0. -1.
       -2   -1    0    0    0  501  0.00000000000E+00  0.00000000000E+00 -0.44733969157E+03  0.44733969158E+03  0.25500000920E-02 0.  1.
    10030    2    1    2    0    0  0.00000000000E+00  0.00000000000E+00  0.16768280667E+04  0.25715074499E+04  0.19495892386E+04 0.  0.
        4    1    3    3  502    0  0.52269580220E+03  0.44709402399E+03  0.17494971727E+04  0.18798526373E+04  0.12699999809E+01 0. -1.
       -4    1    3    3    0  502 -0.52269580220E+03 -0.44709402399E+03 -0.72669105910E+02  0.69165481259E+03  0.12699999809E+01 0.  1.
</event>
<event>
 5   0  0.3086139E-05  0.1970526E+04  0.7818609E-02  0.8620526E-01
       -1   -1    0    0    0  501  0.00000000000E+00  0.00000000000E+00  0.63450012775E+03  0.63450012777E+03  0.50400001928E-02 0.  1.
        1   -1    0    0  501    0  0.00000000000E+00  0.00000000000E+00 -0.15299335850E+04  0.15299335850E+04  0.50400001928E-02 0. -1.
    10030    2    1    2    0    0  0.00000000000E+00  0.00000000000E+00 -0.89543345725E+03  0.21644337128E+04  0.19705258741E+04 0.  0.
        2    1    3    3  502    0  0.73892985396E+03 -0.43859623030E+03  0.81754012182E+02  0.86317304223E+03  0.25500000920E-02 0.  1.
       -2    1    3    3    0  502 -0.73892985396E+03  0.43859623030E+03 -0.97718746943E+03  0.13012606706E+04  0.25500000920E-02 0. -1.
</event>
<event>
 5   0  0.3144958E-05  0.1899885E+04  0.7818609E-02  0.8654913E-01
        1   -1    0    0  501    0  0.00000000000E+00  0.00000000000E+00  0.18667547080E+04  0.18667547080E+04  0.50400001928E-02 0.  1.
       -1   -1    0    0    0  501  0.00000000000E+00  0.00000000000E+00 -0.48340097000E+03  0.48340097003E+03  0.50400001928E-02 0. -1.
    10030    2    1    2    0    0  0.00000000000E+00  0.00000000000E+00  0.13833537380E+04  0.23501556781E+04  0.18998852983E+04 0.  0.
        4    1    3    3  502    0 -0.37530550117E+03 -0.63305871223E+03 -0.51317605638E+02  0.73773481813E+03  0.12699999809E+01 0. -1.
       -4    1    3    3    0  502  0.37530550117E+03  0.63305871223E+03  0.14346713437E+04  0.16124208599E+04  0.12699999809E+01 0.  1.
</event>
<event>
 5   0  0.6098377E-05  0.1901175E+04  0.7818609E-02  0.8654272E-01
        2   -1    0    0  501    0  0.00000000000E+00  0.00000000000E+00  0.18802916674E+04  0.18802916674E+04  0.25500000920E-02 0.  1.
       -2   -1    0    0    0  501  0.00000000000E+00  0.00000000000E+00 -0.48057242621E+03  0.48057242622E+03  0.25500000920E-02 0. -1.
    10030    2    1    2    0    0  0.00000000000E+00  0.00000000000E+00  0.13997192412E+04  0.23608640936E+04  0.19011747196E+04 0.  0.
        5    1    3    3  502    0  0.60470352431E+03 -0.71890887538E+03  0.51948778403E+03  0.10734924178E+04  0.46999998093E+01 0.  1.
       -5    1    3    3    0  502 -0.60470352431E+03  0.71890887538E+03  0.88023145713E+03  0.12873716758E+04  0.46999998093E+01 0. -1.
</event>
<event>
 5   0  0.3203527E-05  0.1912965E+04  0.7818609E-02  0.8648430E-01
        1   -1    0    0  501    0  0.00000000000E+00  0.00000000000E+00  0.23835876704E+04  0.23835876704E+04  0.50400001928E-02 0.  1.
       -1   -1    0    0    0  501  0.00000000000E+00  0.00000000000E+00 -0.38381592320E+03  0.38381592323E+03  0.50400001928E-02 0. -1.
    10030    2    1    2    0    0  0.00000000000E+00  0.00000000000E+00  0.19997717472E+04  0.27674035937E+04  0.19129651354E+04 0.  0.
        1    1    3    3  502    0 -0.89525260865E+03  0.20131627831E+03  0.60941339180E+03  0.11015399037E+04  0.50400001928E-02 0. -1.
       -1    1    3    3    0  502  0.89525260865E+03 -0.20131627831E+03  0.13903583554E+04  0.16658636900E+04  0.50400001928E-02 0.  1.
</event>
<event>
 5   0  0.6098377E-05  0.1903201E+04  0.7818609E-02  0.8653265E-01
       -2   -1    0    0    0  501  0.00000000000E+00  0.00000000000E+00  0.12456018882E+04  0.12456018882E+04  0.25500000920E-02 0. -1.
        2   -1    0    0  501    0  0.00000000000E+00  0.00000000000E+00 -0.72699295964E+03  0.72699295965E+03  0.25500000920E-02 0.  1.
    10030    2    1    2    0    0  0.00000000000E+00  0.00000000000E+00  0.51860892859E+03  0.19725948479E+04  0.19032013065E+04 0.  0.
        5    1    3    3  502    0  0.55600180850E+03  0.64113053849E+03 -0.18689832499E+03  0.86898760194E+03  0.46999998093E+01 0.  1.
       -5    1    3    3    0  502 -0.55600180850E+03 -0.64113053849E+03  0.70550725357E+03  0.11036072459E+04  0.46999998093E+01 0. -1.
</event>
<event>
 5   0  0.3086139E-05  0.1913937E+04  0.7818609E-02  0.8647950E-01
       -1   -1    0    0    0  501  0.00000000000E+00  0.00000000000E+00  0.70716233190E+03  0.70716233192E+03  0.50400001928E-02 0. -1.
        1   -1    0    0  501    0  0.00000000000E+00  0.00000000000E+00 -0.12950185053E+04  0.12950185053E+04  0.50400001928E-02 0.  1.
    10030    2    1    2    0    0  0.00000000000E+00  0.00000000000E+00 -0.58785617339E+03  0.20021808372E+04  0.19139365779E+04 0.  0.
        2    1    3    3  502    0 -0.31670247469E+03  0.39155340908E+03 -0.11451871460E+04  0.12510268299E+04  0.25500000920E-02 0.  1.
       -2    1    3    3    0  502  0.31670247469E+03 -0.39155340908E+03  0.55733097265E+03  0.75115400733E+03  0.25500000920E-02 0. -1.
</event>
<event>
 5   0  0.6361762E-05  0.1896340E+04  0.7818609E-02  0.8656680E-01
       -2   -1    0    0    0  501  0.00000000000E+00  0.00000000000E+00  0.59346399292E+03  0.59346399293E+03  0.25500000920E-02 0.  1.
        2   -1    0    0  501    0  0.00000000000E+00  0.00000000000E+00 -0.15148800267E+04  0.15148800267E+04  0.25500000920E-02 0. -1.
    10030    2    1    2    0    0  0.00000000000E+00  0.00000000000E+00 -0.92141603382E+03  0.21083440197E+04  0.18963404225E+04 0.  0.
        1    1    3    3  502    0  0.58372482327E+03 -0.73447188513E+03 -0.61332458994E+03  0.11208704974E+04  0.50400001928E-02 0.  1.
       -1    1    3    3    0  502 -0.58372482327E+03  0.73447188513E+03 -0.30809144389E+03  0.98747352226E+03  0.50400001928E-02 0. -1.
</event>
<event>
 5   0  0.6423388E-05  0.1900645E+04  0.7818609E-02  0.8654535E-01
        2   -1    0    0  501    0  0.00000000000E+00  0.00000000000E+00  0.17218507665E+04  0.17218507665E+04  0.25500000920E-02 0. -1.
       -2   -1    0    0    0  501  0.00000000000E+00  0.00000000000E+00 -0.52450118256E+03  0.52450118257E+03  0.25500000920E-02 0.  1.
    10030    2    1    2    0    0  0.00000000000E+00  0.00000000000E+00  0.11973495840E+04  0.22463519491E+04  0.19006449045E+04 0.  0.
        2    1    3    3  502    0  0.74188183852E+03  0.55312668085E+03  0.85428818254E+03  0.12594229179E+04  0.25500000920E-02 0.  1.
       -2    1    3    3    0  502 -0.74188183852E+03 -0.55312668085E+03  0.34306140143E+03  0.98692903116E+03  0.25500000920E-02 0. -1.
</event>
<event>
 5   0  0.2279625E-05  0.1896376E+04  0.7818609E-02  0.8656662E-01
       -3   -1    0    0    0  501  0.00000000000E+00  0.00000000000E+00  0.47277663177E+03  0.47277664256E+03  0.10100000352E+00 0. -1.
        3   -1    0    0  501    0  0.00000000000E+00  0.00000000000E+00 -0.19016602990E+04  0.19016603017E+04  0.10100000352E+00 0.  1.
    10030    2    1    2    0    0  0.00000000000E+00  0.00000000000E+00 -0.14288836673E+04  0.23744369443E+04  0.18963760882E+04 0.  0.
        3    1    3    3  502    0 -0.42923437082E+03 -0.56681899104E+02  0.34178170298E+03  0.55160649513E+03  0.10100000352E+00 0. -1.
       -3    1    3    3    0  502  0.42923437082E+03  0.56681899104E+02 -0.17706653702E+04  0.18228304491E+04  0.10100000352E+00 0.  1.
</event>
<event>
 5   0  0.3144958E-05  0.1905223E+04  0.7818609E-02  0.8652261E-01
        1   -1    0    0  501    0  0.00000000000E+00  0.00000000000E+00  0.20947871780E+04  0.20947871780E+04  0.50400001928E-02 0.  1.
       -1   -1    0    0    0  501  0.00000000000E+00  0.00000000000E+00 -0.43320329342E+03  0.43320329345E+03  0.50400001928E-02 0. -1.
    10030    2    1    2    0    0  0.00000000000E+00  0.00000000000E+00  0.16615838846E+04  0.25279904715E+04  0.19052230364E+04 0.  0.
        4    1    3    3  502    0  0.48758344927E+03  0.68093100781E+03  0.14331143521E+04  0.16598864469E+04  0.12699999809E+01 0.  1.
       -4    1    3    3    0  502 -0.48758344927E+03 -0.68093100781E+03  0.22846953254E+03  0.86810402464E+03  0.12699999809E+01 0. -1.
</event>
<event>
 5   0  0.6395992E-05  0.1867031E+04  0.7818609E-02  0.8671444E-01
       -2   -1    0    0    0  501  0.00000000000E+00  0.00000000000E+00  0.92672153480E+03  0.92672153481E+03  0.25500000920E-02 0. -1.
        2   -1    0    0  501    0  0.00000000000E+00  0.00000000000E+00 -0.94035903722E+03  0.94035903722E+03  0.25500000920E-02 0.  1.
    10030    2    1    2    0    0  0.00000000000E+00  0.00000000000E+00 -0.13637502415E+02  0.18670805720E+04  0.18670307659E+04 0.  0.
        4    1    3    3  502    0  0.82416317163E+03 -0.43783930241E+03  0.15568653226E+02  0.93337676426E+03  0.12699999809E+01 0.  1.
       -4    1    3    3    0  502 -0.82416317163E+03  0.43783930241E+03 -0.29206155641E+02  0.93370380776E+03  0.12699999809E+01 0. -1.
</event>
<event>
 5   0  0.6098377E-05  0.1904622E+04  0.7818609E-02  0.8652559E-01
        2   -1    0    0  501    0  0.00000000000E+00  0.00000000000E+00  0.10872648097E+04  0.10872648097E+04  0.25500000920E-02 0. -1.
       -2   -1    0    0    0  501  0.00000000000E+00  0.00000000000E+00 -0.83410819345E+03  0.83410819346E+03  0.25500000920E-02 0.  1.
    10030    2    1    2    0    0  0.00000000000E+00  0.00000000000E+00  0.25315661621E+03  0.19213730031E+04  0.19046222578E+04 0.  0.
        5    1    3    3  502    0 -0.42274503680E+02  0.61485057598E+03 -0.60578588550E+03  0.86419152595E+03  0.46999998093E+01 0.  1.
       -5    1    3    3    0  502  0.42274503680E+02 -0.61485057598E+03  0.85894250172E+03  0.10571814772E+04  0.46999998093E+01 0. -1.
</event>
<event>
 5   0  0.3203527E-05  0.1900826E+04  0.7818609E-02  0.8654445E-01
        1   -1    0    0  501    0  0.00000000000E+00  0.00000000000E+00  0.12683595555E+04  0.12683595555E+04  0.50400001928E-02 0. -1.
       -1   -1    0    0    0  501  0.00000000000E+00  0.00000000000E+00 -0.71216761580E+03  0.71216761582E+03  0.50400001928E-02 0.  1.
    10030    2    1    2    0    0  0.00000000000E+00  0.00000000000E+00  0.55619193967E+03  0.19805271713E+04  0.19008257160E+04 0.  0.
        1    1    3    3  502    0  0.28705459034E+03 -0.39285245679E+03  0.11287545104E+04  0.12291542358E+04  0.50400001928E-02 0. -1.
       -1    1    3    3    0  502 -0.28705459034E+03  0.39285245679E+03 -0.57256257077E+03  0.75137293544E+03  0.50400001928E-02 0.  1.
</event>
<event>
 5   0  0.6395992E-05  0.1899984E+04  0.7818609E-02  0.8654865E-01
        2   -1    0    0  501    0  0.00000000000E+00  0.00000000000E+00  0.92360451557E+03  0.92360451557E+03  0.25500000920E-02 0. -1.
       -2   -1    0    0    0  501  0.00000000000E+00  0.00000000000E+00 -0.97713298813E+03  0.97713298813E+03  0.25500000920E-02 0.  1.
    10030    2    1    2    0    0  0.00000000000E+00  0.00000000000E+00 -0.53528472562E+02  0.19007375037E+04  0.18999836211E+04 0.  0.
        4    1    3    3  502    0 -0.87767853400E+03  0.36301002314E+03 -0.46442865300E+02  0.95092294040E+03  0.12699999809E+01 0.  1.
       -4    1    3    3    0  502  0.87767853400E+03 -0.36301002314E+03 -0.70856072627E+01  0.94981456331E+03  0.12699999809E+01 0. -1.
</event>
<event>
 5   0  0.3083469E-05  0.1898614E+04  0.7818609E-02  0.8655547E-01
        1   -1    0    0  501    0  0.00000000000E+00  0.00000000000E+00  0.17549481350E+04  0.17549481350E+04  0.50400001928E-02 0. -1.
       -1   -1    0    0    0  501  0.00000000000E+00  0.00000000000E+00 -0.51351015427E+03  0.51351015430E+03  0.50400001928E-02 0.  1.
    10030    2    1    2    0    0  0.00000000000E+00  0.00000000000E+00  0.12414379807E+04  0.22684582893E+04  0.18986139024E+04 0.  0.
        3    1    3    3  502    0 -0.43254692995E+03  0.83172339637E+03  0.44220566421E+03  0.10365358240E+04  0.10100000352E+00 0.  1.
       -3    1    3    3    0  502  0.43254692995E+03 -0.83172339637E+03  0.79923231652E+03  0.12319224654E+04  0.10100000352E+00 0. -1.
</event>
<event>
 5   0  0.3086139E-05  0.1894652E+04  0.7818609E-02  0.8657523E-01
        1   -1    0    0  501    0  0.00000000000E+00  0.00000000000E+00  0.25576272693E+04  0.25576272693E+04  0.50400001928E-02 0.  1.
       -1   -1    0    0    0  501  0.00000000000E+00  0.00000000000E+00 -0.35088252794E+03  0.35088252797E+03  0.50400001928E-02 0. -1.
    10030    2    1    2    0    0  0.00000000000E+00  0.00000000000E+00  0.22067447414E+04  0.29085097973E+04  0.18946521811E+04 0.  0.
        2    1    3    3  502    0  0.63101813421E+03  0.58248695263E+03  0.17173260184E+04  0.19200738499E+04  0.25500000920E-02 0.  1.
       -2    1    3    3    0  502 -0.63101813421E+03 -0.58248695263E+03  0.48941872303E+03  0.98843594741E+03  0.25500000920E-02 0. -1.
</event>
<event>
 5   0  0.3086139E-05  0.1963832E+04  0.7818609E-02  0.8623720E-01
       -1   -1    0    0    0  501  0.00000000000E+00  0.00000000000E+00  0.16275800577E+04  0.16275800578E+04  0.50400001928E-02 0.  1.
        1   -1    0    0  501    0  0.00000000000E+00  0.00000000000E+00 -0.59238797142E+03  0.59238797144E+03  0.50400001928E-02 0. -1.
    10030    2    1    2    0    0  0.00000000000E+00  0.00000000000E+00  0.10351920863E+04  0.22199680292E+04  0.19638318143E+04 0.  0.
        2    1    3    3  502    0  0.18713943025E+03 -0.62988643400E+03 -0.30721336423E+03  0.72536758768E+03  0.25500000920E-02 0. -1.
       -2    1    3    3    0  502 -0.18713943025E+03  0.62988643400E+03  0.13424054506E+04  0.14946004415E+04  0.25500000920E-02 0.  1.
</event>
<event>
 5   0  0.3203527E-05  0.1899662E+04  0.7818609E-02  0.8655025E-01
        1   -1    0    0  501    0  0.00000000000E+00  0.00000000000E+00  0.14220662781E+04  0.14220662781E+04  0.50400001928E-02 0. -1.
       -1   -1    0    0    0  501  0.00000000000E+00  0.00000000000E+00 -0.63441382714E+03  0.63441382716E+03  0.50400001928E-02 0.  1.
    10030    2    1    2    0    0  0.00000000000E+00  0.00000000000E+00  0.78765245097E+03  0.20564801053E+04  0.18996615593E+04 0.  0.
        1    1    3    3  502    0  0.17259631783E+03  0.87200604385E+03  0.31544366504E+02  0.88948247680E+03  0.50400001928E-02 0.  1.
       -1    1    3    3    0  502 -0.17259631783E+03 -0.87200604385E+03  0.75610808447E+03  0.11669976285E+04  0.50400001928E-02 0. -1.
</event>
<event>
 5   0  0.3147063E-05  0.1900098E+04  0.7818609E-02  0.8654808E-01
       -1   -1    0    0    0  501  0.00000000000E+00  0.00000000000E+00  0.53164017137E+03  0.53164017140E+03  0.50400001928E-02 0. -1.
        1   -1    0    0  501    0  0.00000000000E+00  0.00000000000E+00 -0.16977515833E+04  0.16977515833E+04  0.50400001928E-02 0.  1.
    10030    2    1    2    0    0  0.00000000000E+00  0.00000000000E+00 -0.11661114120E+04  0.22293917547E+04  0.19000978320E+04 0.  0.
        5    1    3    3  502    0  0.82267705210E+03  0.72987484441E+02 -0.11339416422E+04  0.14028436986E+04  0.46999998093E+01 0. -1.
       -5    1    3    3    0  502 -0.82267705210E+03 -0.72987484441E+02 -0.32169769770E+02  0.82654805609E+03  0.46999998093E+01 0.  1.
</event>
<event>
 5   0  0.3086139E-05  0.1886232E+04  0.7818609E-02  0.8661740E-01
       -1   -1    0    0    0  501  0.00000000000E+00  0.00000000000E+00  0.16066450912E+04  0.16066450912E+04  0.50400001928E-02 0.  1.
        1   -1    0    0  501    0  0.00000000000E+00  0.00000000000E+00 -0.55361837933E+03  0.55361837936E+03  0.50400001928E-02 0. -1.
    10030    2    1    2    0    0  0.00000000000E+00  0.00000000000E+00  0.10530267119E+04  0.21602634706E+04  0.18862324900E+04 0.  0.
        2    1    3    3  502    0 -0.66762336466E+03 -0.63794138790E+03  0.30687609038E+03  0.97306891137E+03  0.25500000920E-02 0. -1.
       -2    1    3    3    0  502  0.66762336466E+03  0.63794138790E+03  0.74615062150E+03  0.11871945592E+04  0.25500000920E-02 0.  1.
</event>
<event>
 5   0  0.6395992E-05  0.1894748E+04  0.7818609E-02  0.8657475E-01
       -2   -1    0    0    0  501  0.00000000000E+00  0.00000000000E+00  0.10977340386E+04  0.10977340386E+04  0.25500000920E-02 0. -1.
        2   -1    0    0  501    0  0.00000000000E+00  0.00000000000E+00 -0.81760962252E+03  0.81760962252E+03  0.25500000920E-02 0.  1.
    10030    2    1    2    0    0  0.00000000000E+00  0.00000000000E+00  0.28012441608E+03  0.19153436611E+04  0.18947484402E+04 0.  0.
        4    1    3    3  502    0 -0.36301807822E+02 -0.70805876835E+03 -0.49513987591E+03  0.86477173306E+03  0.12699999809E+01 0.  1.
       -4    1    3    3    0  502  0.36301807822E+02  0.70805876835E+03  0.77526429199E+03  0.10505719281E+04  0.12699999809E+01 0. -1.
</event>
<event>
 5   0  0.6395992E-05  0.1901479E+04  0.7818609E-02  0.8654120E-01
        2   -1    0    0  501    0  0.00000000000E+00  0.00000000000E+00  0.16874574653E+04  0.16874574653E+04  0.25500000920E-02 0. -1.
       -2   -1    0    0    0  501  0.00000000000E+00  0.00000000000E+00 -0.53566136783E+03  0.53566136783E+03  0.25500000920E-02 0.  1.
    10030    2    1    2    0    0  0.00000000000E+00  0.00000000000E+00  0.11517960975E+04  0.22231188331E+04  0.19014791863E+04 0.  0.
        4    1    3    3  502    0 -0.35278293545E+03 -0.41869874101E+03  0.14846383712E+04  0.15823770541E+04  0.12699999809E+01 0. -1.
       -4    1    3    3    0  502  0.35278293545E+03  0.41869874101E+03 -0.33284227374E+03  0.64074177900E+03  0.12699999809E+01 0.  1.
</event>
<event>
 5   0  0.6361762E-05  0.1899493E+04  0.7818609E-02  0.8655109E-01
       -2   -1    0    0    0  501  0.00000000000E+00  0.00000000000E+00  0.59191772802E+03  0.59191772803E+03  0.25500000920E-02 0.  1.
        2   -1    0    0  501    0  0.00000000000E+00  0.00000000000E+00 -0.15238920998E+04  0.15238920998E+04  0.25500000920E-02 0. -1.
    10030    2    1    2    0    0  0.00000000000E+00  0.00000000000E+00 -0.93197437174E+03  0.21158098278E+04  0.18994933529E+04 0.  0.
        1    1    3    3  502    0  0.67393555729E+03 -0.61074070440E+03 -0.16129354311E+03  0.92369310404E+03  0.50400001928E-02 0. -1.
       -1    1    3    3    0  502 -0.67393555729E+03  0.61074070440E+03 -0.77068082864E+03  0.11921167237E+04  0.50400001928E-02 0.  1.
</event>
<event>
 5   0  0.3144958E-05  0.1895970E+04  0.7818609E-02  0.8656865E-01
       -1   -1    0    0    0  501  0.00000000000E+00  0.00000000000E+00  0.46246432714E+03  0.46246432716E+03  0.50400001928E-02 0.  1.
        1   -1    0    0  501    0  0.00000000000E+00  0.00000000000E+00 -0.19432319257E+04  0.19432319257E+04  0.50400001928E-02 0. -1.
    10030    2    1    2    0    0  0.00000000000E+00  0.00000000000E+00 -0.14807675985E+04  0.24056962528E+04  0.18959698785E+04 0.  0.
        4    1    3    3  502    0  0.28454382959E+02  0.94683459504E+03 -0.78732137196E+03  0.12317394034E+04  0.12699999809E+01 0. -1.
       -4    1    3    3    0  502 -0.28454382959E+02 -0.94683459504E+03 -0.69344622657E+03  0.11739568494E+04  0.12699999809E+01 0.  1.
</event>
<event>
 5   0  0.3144958E-05  0.1906890E+04  0.7818609E-02  0.8651434E-01
       -1   -1    0    0    0  501  0.00000000000E+00  0.00000000000E+00  0.51584541472E+03  0.51584541475E+03  0.50400001928E-02 0.  1.
        1   -1    0    0  501    0  0.00000000000E+00  0.00000000000E+00 -0.17622671020E+04  0.17622671020E+04  0.50400001928E-02 0. -1.
    10030    2    1    2    0    0  0.00000000000E+00  0.00000000000E+00 -0.12464216873E+04  0.22781125168E+04  0.19068900379E+04 0.  0.
        4    1    3    3  502    0 -0.54588404608E+03  0.73520908399E+03 -0.94049529085E+03  0.13126518175E+04  0.12699999809E+01 0. -1.
       -4    1    3    3    0  502  0.54588404608E+03 -0.73520908399E+03 -0.30592639646E+03  0.96546069930E+03  0.12699999809E+01 0.  1.
</event>
<event>
 5   0  0.6098377E-05  0.1903814E+04  0.7818609E-02  0.8652960E-01
       -2   -1    0    0    0  501  0.00000000000E+00  0.00000000000E+00  0.71104313906E+03  0.71104313907E+03  0.25500000920E-02 0.  1.
        2   -1    0    0  501    0  0.00000000000E+00  0.00000000000E+00 -0.12743623578E+04  0.12743623578E+04  0.25500000920E-02 0. -1.
    10030    2    1    2    0    0  0.00000000000E+00  0.00000000000E+00 -0.56331921871E+03  0.19854054968E+04  0.19038136581E+04 0.  0.
        5    1    3    3  502    0  0.94637457101E+03 -0.10205805219E+03 -0.28999245529E+03  0.99506702729E+03  0.46999998093E+01 0.  1.
       -5    1    3    3    0  502 -0.94637457101E+03  0.10205805219E+03 -0.27332676342E+03  0.99033846955E+03  0.46999998093E+01 0. -1.
</event>
<event>
 5   0  0.3147063E-05  0.1904478E+04  0.7818609E-02  0.8652631E-01
        1   -1    0    0  501    0  0.00000000000E+00  0.00000000000E+00  0.64773851301E+03  0.64773851303E+03  0.50400001928E-02 0.  1.
       -1   -1    0    0    0  501  0.00000000000E+00  0.00000000000E+00 -0.13998840828E+04  0.13998840828E+04  0.50400001928E-02 0. -1.
    10030    2    1    2    0    0  0.00000000000E+00  0.00000000000E+00 -0.75214556974E+03  0.20476225958E+04  0.19044777071E+04 0.  0.
        5    1    3    3  502    0 -0.72005292876E+02 -0.51174814001E+03 -0.12359780215E+04  0.13396770807E+04  0.46999998093E+01 0. -1.
       -5    1    3    3    0  502  0.72005292876E+02  0.51174814001E+03  0.48383245172E+03  0.70794551510E+03  0.46999998093E+01 0.  1.
</event>
<event>
 5   0  0.2279625E-05  0.1888157E+04  0.7818609E-02  0.8660774E-01
        3   -1    0    0  501    0  0.00000000000E+00  0.00000000000E+00  0.75465076713E+03  0.75465077389E+03  0.10100000352E+00 0. -1.
       -3   -1    0    0    0  501  0.00000000000E+00  0.00000000000E+00 -0.11810545777E+04  0.11810545820E+04  0.10100000352E+00 0.  1.
    10030    2    1    2    0    0  0.00000000000E+00  0.00000000000E+00 -0.42640381059E+03  0.19357053559E+04  0.18881565124E+04 0.  0.
        2    1    3    3  502    0 -0.30871805928E+03  0.77002210531E+03 -0.67515207790E+03  0.10696126454E+04  0.25500000920E-02 0.  1.
       -2    1    3    3    0  502  0.30871805928E+03 -0.77002210531E+03  0.24874826732E+03  0.86609271057E+03  0.25500000920E-02 0. -1.
</event>
<event>
 5   0  0.6423388E-05  0.1901211E+04  0.7818609E-02  0.8654254E-01
        2   -1    0    0  501    0  0.00000000000E+00  0.00000000000E+00  0.16031090043E+04  0.16031090043E+04  0.25500000920E-02 0. -1.
       -2   -1    0    0    0  501  0.00000000000E+00  0.00000000000E+00 -0.56368641835E+03  0.56368641836E+03  0.25500000920E-02 0.  1.
    10030    2    1    2    0    0  0.00000000000E+00  0.00000000000E+00  0.10394225859E+04  0.21667954226E+04  0.19012109539E+04 0.  0.
        2    1    3    3  502    0  0.82846811926E+03  0.26850033952E+03  0.95399075233E+03  0.12917237369E+04  0.25500000920E-02 0. -1.
       -2    1    3    3    0  502 -0.82846811926E+03 -0.26850033952E+03  0.85431833599E+02  0.87507168573E+03  0.25500000920E-02 0.  1.
</event>
<event>
 5   0  0.3083469E-05  0.1899642E+04  0.7818609E-02  0.8655035E-01
        1   -1    0    0  501    0  0.00000000000E+00  0.00000000000E+00  0.22178853133E+04  0.22178853133E+04  0.50400001928E-02 0.  1.
       -1   -1    0    0    0  501  0.00000000000E+00  0.00000000000E+00 -0.40676574259E+03  0.40676574262E+03  0.50400001928E-02 0. -1.
    10030    2    1    2    0    0  0.00000000000E+00  0.00000000000E+00  0.18111195707E+04  0.26246510559E+04  0.18996418257E+04 0.  0.
        3    1    3    3  502    0  0.78054151167E+03  0.21667367466E+03  0.15907930994E+04  0.17851653223E+04  0.10100000352E+00 0.  1.
       -3    1    3    3    0  502 -0.78054151167E+03 -0.21667367466E+03  0.22032647129E+03  0.83948573358E+03  0.10100000352E+00 0. -1.
</event>
<event>
 5   0  0.6452182E-05  0.1899697E+04  0.7818609E-02  0.8655007E-01
       -2   -1    0    0    0  501  0.00000000000E+00  0.00000000000E+00  0.50971055586E+03  0.50971055586E+03  0.25500000920E-02 0. -1.
        2   -1    0    0  501    0  0.00000000000E+00  0.00000000000E+00 -0.17700472252E+04  0.17700472252E+04  0.25500000920E-02 0.  1.
    10030    2    1    2    0    0  0.00000000000E+00  0.00000000000E+00 -0.12603366694E+04  0.22797577811E+04  0.18996965601E+04 0.  0.
        3    1    3    3  502    0  0.89259024507E+03 -0.32276751015E+03 -0.67369500589E+03  0.11639420872E+04  0.10100000352E+00 0.  1.
       -3    1    3    3    0  502 -0.89259024507E+03  0.32276751015E+03 -0.58664166348E+03  0.11158156939E+04  0.10100000352E+00 0. -1.
</event>
<event>
 5   0  0.6395992E-05  0.1897859E+04  0.7818609E-02  0.8655923E-01
       -2   -1    0    0    0  501  0.00000000000E+00  0.00000000000E+00  0.88584606097E+03  0.88584606097E+03  0.25500000920E-02 0.  1.
        2   -1    0    0  501    0  0.00000000000E+00  0.00000000000E+00 -0.10165056377E+04  0.10165056377E+04  0.25500000920E-02 0. -1.
    10030    2    1    2    0    0  0.00000000000E+00  0.00000000000E+00 -0.13065957673E+03  0.19023516987E+04  0.18978593363E+04 0.  0.
        4    1    3    3  502    0 -0.23708152103E+03  0.25824392835E+03  0.81855583728E+03  0.89046776796E+03  0.12699999809E+01 0.  1.
       -4    1    3    3    0  502  0.23708152103E+03 -0.25824392835E+03 -0.94921541401E+03  0.10118839307E+04  0.12699999809E+01 0. -1.
</event>
<event>
 5   0  0.6395992E-05  0.1896896E+04  0.7818609E-02  0.8656403E-01
        2   -1    0    0  501    0  0.00000000000E+00  0.00000000000E+00  0.24903045307E+04  0.24903045307E+04  0.25500000920E-02 0.  1.
       -2   -1    0    0    0  501  0.00000000000E+00  0.00000000000E+00 -0.36122246264E+03  0.36122246264E+03  0.25500000920E-02 0. -1.
    10030    2    1    2    0    0  0.00000000000E+00  0.00000000000E+00  0.21290820681E+04  0.28515269934E+04  0.18968963444E+04 0.  0.
        4    1    3    3  502    0  0.48658717727E+03  0.81404679585E+03  0.10805248226E+04  0.14376977332E+04  0.12699999809E+01 0. -1.
       -4    1    3    3    0  502 -0.48658717727E+03 -0.81404679585E+03  0.10485572454E+04  0.14138292601E+04  0.12699999809E+01 0.  1.
</event>
<event>
 5   0  0.3086139E-05  0.1894875E+04  0.7818609E-02  0.8657412E-01
       -1   -1    0    0    0  501  0.00000000000E+00  0.00000000000E+00  0.53082803844E+03  0.53082803846E+03  0.50400001928E-02 0.  1.
        1   -1    0    0  501    0  0.00000000000E+00  0.00000000000E+00 -0.16910144987E+04  0.16910144987E+04  0.50400001928E-02 0. -1.
    10030    2    1    2    0    0  0.00000000000E+00  0.00000000000E+00 -0.11601864603E+04  0.22218425372E+04  0.18948750981E+04 0.  0.
        2    1    3    3  502    0 -0.32473690537E+03 -0.41508546308E+03  0.34309290136E+03  0.62885828161E+03  0.25500000920E-02 0.  1.
       -2    1    3    3    0  502  0.32473690537E+03  0.41508546308E+03 -0.15032793616E+04  0.15929842556E+04  0.25500000920E-02 0. -1.
</event>
<event>
 5   0  0.6361762E-05  0.1895977E+04  0.7818609E-02  0.8656862E-01
        2   -1    0    0  501    0  0.00000000000E+00  0.00000000000E+00  0.11789996404E+04  0.11789996404E+04  0.25500000920E-02 0. -1.
       -2   -1    0    0    0  501  0.00000000000E+00  0.00000000000E+00 -0.76224093901E+03  0.76224093901E+03  0.25500000920E-02 0.  1.
    10030    2    1    2    0    0  0.00000000000E+00  0.00000000000E+00  0.41675870138E+03  0.19412405794E+04  0.18959765747E+04 0.  0.
        1    1    3    3  502    0 -0.52745481206E+02 -0.13191030310E+03  0.11680387546E+04  0.11766464830E+04  0.50400001928E-02 0. -1.
       -1    1    3    3    0  502  0.52745481206E+02  0.13191030310E+03 -0.75128005319E+03  0.76459409636E+03  0.50400001928E-02 0.  1.
</event>
<event>
 5   0  0.3203527E-05  0.1905267E+04  0.7818609E-02  0.8652239E-01
        1   -1    0    0  501    0  0.00000000000E+00  0.00000000000E+00  0.14315094063E+04  0.14315094063E+04  0.50400001928E-02 0. -1.
       -1   -1    0    0    0  501  0.00000000000E+00  0.00000000000E+00 -0.63395335222E+03  0.63395335224E+03  0.50400001928E-02 0.  1.
    10030    2    1    2    0    0  0.00000000000E+00  0.00000000000E+00  0.79755605411E+03  0.20654627586E+04  0.19052665818E+04 0.  0.
        1    1    3    3  502    0  0.30769369631E+03 -0.68417633877E+03  0.10352889946E+04  0.12785131895E+04  0.50400001928E-02 0. -1.
       -1    1    3    3    0  502 -0.30769369631E+03  0.68417633877E+03 -0.23773294049E+03  0.78694956910E+03  0.50400001928E-02 0.  1.
</event>
<event>
 5   0  0.3147063E-05  0.1901211E+04  0.7818609E-02  0.8654254E-01
        1   -1    0    0  501    0  0.00000000000E+00  0.00000000000E+00  0.84522162626E+03  0.84522162628E+03  0.50400001928E-02 0. -1.
       -1   -1    0    0    0  501  0.00000000000E+00  0.00000000000E+00 -0.10691283673E+04  0.10691283674E+04  0.50400001928E-02 0.  1.
    10030    2    1    2    0    0  0.00000000000E+00  0.00000000000E+00 -0.22390674108E+03  0.19143499936E+04  0.19012105800E+04 0.  0.
        5    1    3    3  502    0  0.12405028600E+03  0.19561059214E+03  0.81635985915E+03  0.84859736438E+03  0.46999998093E+01 0. -1.
       -5    1    3    3    0  502 -0.12405028600E+03 -0.19561059214E+03 -0.10402666002E+04  0.10657526293E+04  0.46999998093E+01 0.  1.
</event>
<event>
 5   0  0.6361762E-05  0.1900725E+04  0.7818609E-02  0.8654496E-01
        2   -1    0    0  501    0  0.00000000000E+00  0.00000000000E+00  0.12327559303E+04  0.12327559303E+04  0.25500000920E-02 0.  1.
       -2   -1    0    0    0  501  0.00000000000E+00  0.00000000000E+00 -0.73265817290E+03  0.73265817290E+03  0.25500000920E-02 0. -1.
    10030    2    1    2    0    0  0.00000000000E+00  0.00000000000E+00  0.50009775736E+03  0.19654141032E+04  0.19007248170E+04 0.  0.
        1    1    3    3  502    0 -0.60780356140E+03  0.39761740261E+03 -0.38372535251E+03  0.82144379862E+03  0.50400001928E-02 0. -1.
       -1    1    3    3    0  502  0.60780356140E+03 -0.39761740261E+03  0.88382310986E+03  0.11439703045E+04  0.50400001928E-02 0.  1.
</event>
<event>
 5   0  0.3147063E-05  0.1897945E+04  0.7818609E-02  0.8655880E-01
       -1   -1    0    0    0  501  0.00000000000E+00  0.00000000000E+00  0.86350225257E+03  0.86350225259E+03  0.50400001928E-02 0.  1.
        1   -1    0    0  501    0  0.00000000000E+00  0.00000000000E+00 -0.10429030457E+04  0.10429030457E+04  0.50400001928E-02 0. -1.
    10030    2    1    2    0    0  0.00000000000E+00  0.00000000000E+00 -0.17940079310E+03  0.19064052983E+04  0.18979453408E+04 0.  0.
        5    1    3    3  502    0  0.32368206802E+03  0.88325331231E+03 -0.21523967174E+03  0.96501642533E+03  0.46999998093E+01 0. -1.
       -5    1    3    3    0  502 -0.32368206802E+03 -0.88325331231E+03  0.35838878642E+02  0.94138887294E+03  0.46999998093E+01 0.  1.
</event>
<event>
 5   0  0.3083469E-05  0.1886694E+04  0.7818609E-02  0.8661508E-01
        1   -1    0    0  501    0  0.00000000000E+00  0.00000000000E+00  0.10247667429E+04  0.10247667429E+04  0.50400001928E-02 0. -1.
       -1   -1    0    0    0  501  0.00000000000E+00  0.00000000000E+00 -0.86839580470E+03  0.86839580472E+03  0.50400001928E-02 0.  1.
    10030    2    1    2    0    0  0.00000000000E+00  0.00000000000E+00  0.15637093817E+03  0.18931625476E+04  0.18866935526E+04 0.  0.
        3    1    3    3  502    0 -0.53516367187E+02 -0.77019965480E+03 -0.46573550249E+03  0.90165463360E+03  0.10100000352E+00 0.  1.
       -3    1    3    3    0  502  0.53516367187E+02  0.77019965480E+03  0.62210644066E+03  0.99150791400E+03  0.10100000352E+00 0. -1.
</event>
<event>
 5   0  0.3144958E-05  0.1898602E+04  0.7818609E-02  0.8655553E-01
       -1   -1    0    0    0  501  0.00000000000E+00  0.00000000000E+00  0.12286947526E+04  0.12286947526E+04  0.50400001928E-02 0.  1.
        1   -1    0    0  501    0  0.00000000000E+00  0.00000000000E+00 -0.73343842618E+03  0.73343842620E+03  0.50400001928E-02 0. -1.
    10030    2    1    2    0    0  0.00000000000E+00  0.00000000000E+00  0.49525632639E+03  0.19621331788E+04  0.18986015333E+04 0.  0.
        4    1    3    3  502    0 -0.32368326914E+03 -0.56124106193E+03  0.96468120213E+03  0.11620558605E+04  0.12699999809E+01 0.  1.
       -4    1    3    3    0  502  0.32368326914E+03  0.56124106193E+03 -0.46942487574E+03  0.80007731826E+03  0.12699999809E+01 0. -1.
</event>
<event>
 5   0  0.6098377E-05  0.1894462E+04  0.7818609E-02  0.8657618E-01
        2   -1    0    0  501    0  0.00000000000E+00  0.00000000000E+00  0.68506510776E+03  0.68506510777E+03  0.25500000920E-02 0.  1.
       -2   -1    0    0    0  501  0.00000000000E+00  0.00000000000E+00 -0.13097239894E+04  0.13097239894E+04  0.25500000920E-02 0. -1.
    10030    2    1    2    0    0  0.00000000000E+00  0.00000000000E+00 -0.62465888163E+03  0.19947890972E+04  0.18944616184E+04 0.  0.
        5    1    3    3  502    0 -0.55145304430E+03 -0.62967443249E+03  0.15458813524E+03  0.85118149213E+03  0.46999998093E+01 0.  1.
       -5    1    3    3    0  502  0.55145304430E+03  0.62967443249E+03 -0.77924701687E+03  0.11436076050E+04  0.46999998093E+01 0. -1.
</event>
<event>
 5   0  0.6361762E-05  0.1901666E+04  0.7818609E-02  0.8654027E-01
        2   -1    0    0  501    0  0.00000000000E+00  0.00000000000E+00  0.11388602472E+04  0.11388602472E+04  0.25500000920E-02 0.  1.
       -2   -1    0    0    0  501  0.00000000000E+00  0.00000000000E+00 -0.79384948337E+03  0.79384948337E+03  0.25500000920E-02 0. -1.
    10030    2    1    2    0    0  0.00000000000E+00  0.00000000000E+00  0.34501076381E+03  0.19327097305E+04  0.19016662366E+04 0.  0.
        1    1    3    3  502    0  0.82740946112E+03  0.44642271350E+03  0.31689486509E+03  0.99213003735E+03  0.50400001928E-02 0. -1.
       -1    1    3    3    0  502 -0.82740946112E+03 -0.44642271350E+03  0.28115898720E+02  0.94057969320E+03  0.50400001928E-02 0.  1.
</event>
<event>
 5   0  0.3086139E-05  0.1899611E+04  0.7818609E-02  0.8655050E-01
        1   -1    0    0  501    0  0.00000000000E+00  0.00000000000E+00  0.11109899120E+04  0.11109899120E+04  0.50400001928E-02 0.  1.
       -1   -1    0    0    0  501  0.00000000000E+00  0.00000000000E+00 -0.81200571690E+03  0.81200571692E+03  0.50400001928E-02 0. -1.
    10030    2    1    2    0    0  0.00000000000E+00  0.00000000000E+00  0.29898419511E+03  0.19229956289E+04  0.18996106548E+04 0.  0.
        2    1    3    3  502    0 -0.16581068906E+03  0.89020461896E+03  0.43967880165E+03  0.10066155656E+04  0.25500000920E-02 0.  1.
       -2    1    3    3    0  502  0.16581068906E+03 -0.89020461896E+03 -0.14069460654E+03  0.91638006337E+03  0.25500000920E-02 0. -1.
</event>
<event>
 5   0  0.3147063E-05  0.1901649E+04  0.7818609E-02  0.8654036E-01
        1   -1    0    0  501    0  0.00000000000E+00  0.00000000000E+00  0.12058771168E+04  0.12058771168E+04  0.50400001928E-02 0.  1.
       -1   -1    0    0    0  501  0.00000000000E+00  0.00000000000E+00 -0.74971781331E+03  0.74971781333E+03  0.50400001928E-02 0. -1.
    10030    2    1    2    0    0  0.00000000000E+00  0.00000000000E+00  0.45615930349E+03  0.19555949301E+04  0.19016493422E+04 0.  0.
        5    1    3    3  502    0  0.66633966659E+03 -0.67645646837E+03  0.27891432016E+03  0.98965508782E+03  0.46999998093E+01 0. -1.
       -5    1    3    3    0  502 -0.66633966659E+03  0.67645646837E+03  0.17724498332E+03  0.96593984232E+03  0.46999998093E+01 0.  1.
</event>
<event>
 5   0  0.6452182E-05  0.1902218E+04  0.7818609E-02  0.8653753E-01
        2   -1    0    0  501    0  0.00000000000E+00  0.00000000000E+00  0.13233317341E+04  0.13233317341E+04  0.25500000920E-02 0.  1.
       -2   -1    0    0    0  501  0.00000000000E+00  0.00000000000E+00 -0.68358392823E+03  0.68358392823E+03  0.25500000920E-02 0. -1.
    10030    2    1    2    0    0  0.00000000000E+00  0.00000000000E+00  0.63974780585E+03  0.20069156623E+04  0.19022179740E+04 0.  0.
        3    1    3    3  502    0  0.54851825043E+03  0.23611335321E+02 -0.49951820768E+03  0.74225886065E+03  0.10100000352E+00 0. -1.
       -3    1    3    3    0  502 -0.54851825043E+03 -0.23611335321E+02  0.11392660135E+04  0.12646568017E+04  0.10100000352E+00 0.  1.
</event>
<event>
 5   0  0.6361762E-05  0.1906218E+04  0.7818609E-02  0.8651768E-01
       -2   -1    0    0    0  501  0.00000000000E+00  0.00000000000E+00  0.97794853152E+03  0.97794853152E+03  0.25500000920E-02 0. -1.
        2   -1    0    0  501    0  0.00000000000E+00  0.00000000000E+00 -0.92890008356E+03  0.92890008356E+03  0.25500000920E-02 0.  1.
    10030    2    1    2    0    0  0.00000000000E+00  0.00000000000E+00  0.49048447956E+02  0.19068486151E+04  0.19062176923E+04 0.  0.
        1    1    3    3  502    0  0.74511272848E+03 -0.52596520494E+03 -0.25230569113E+03  0.94630361764E+03  0.50400001928E-02 0.  1.
       -1    1    3    3    0  502 -0.74511272848E+03  0.52596520494E+03  0.30135413909E+03  0.96054499745E+03  0.50400001928E-02 0. -1.
</event>
<event>
 5   0  0.2279625E-05  0.1886026E+04  0.7818609E-02  0.8661843E-01
        3   -1    0    0  501    0  0.00000000000E+00  0.00000000000E+00  0.11747651571E+04  0.11747651614E+04  0.10100000352E+00 0.  1.
       -3   -1    0    0    0  501  0.00000000000E+00  0.00000000000E+00 -0.75697999582E+03  0.75698000256E+03  0.10100000352E+00 0. -1.
    10030    2    1    2    0    0  0.00000000000E+00  0.00000000000E+00  0.41778516125E+03  0.19317451640E+04  0.18860262293E+04 0.  0.
        4    1    3    3  502    0  0.61289450387E+03 -0.16571103422E+03  0.92305535960E+03  0.11203270190E+04  0.12699999809E+01 0.  1.
       -4    1    3    3    0  502 -0.61289450387E+03  0.16571103422E+03 -0.50527019834E+03  0.81141814496E+03  0.12699999809E+01 0. -1.
</event>
<event>
 5   0  0.3086139E-05  0.1899043E+04  0.7818609E-02  0.8655333E-01
       -1   -1    0    0    0  501  0.00000000000E+00  0.00000000000E+00  0.10445967871E+04  0.10445967871E+04  0.50400001928E-02 0. -1.
        1   -1    0    0  501    0  0.00000000000E+00  0.00000000000E+00 -0.86309917469E+03  0.86309917470E+03  0.50400001928E-02 0.  1.
    10030    2    1    2    0    0  0.00000000000E+00  0.00000000000E+00  0.18149761243E+03  0.19076959618E+04  0.18990425218E+04 0.  0.
        2    1    3    3  502    0 -0.75988936966E+03 -0.24755854042E+03  0.60579704669E+03  0.10028495136E+04  0.25500000920E-02 0. -1.
       -2    1    3    3    0  502  0.75988936966E+03  0.24755854042E+03 -0.42429943426E+03  0.90484644828E+03  0.25500000920E-02 0.  1.
</event>
<event>
 5   0  0.3147063E-05  0.1899148E+04  0.7818609E-02  0.8655281E-01
       -1   -1    0    0    0  501  0.00000000000E+00  0.00000000000E+00  0.13584153800E+04  0.13584153800E+04  0.50400001928E-02 0. -1.
        1   -1    0    0  501    0  0.00000000000E+00  0.00000000000E+00 -0.66378133781E+03  0.66378133783E+03  0.50400001928E-02 0.  1.
    10030    2    1    2    0    0  0.00000000000E+00  0.00000000000E+00  0.69463404215E+03  0.20221967178E+04  0.18991479966E+04 0.  0.
        5    1    3    3  502    0 -0.75025433930E+02  0.21559989019E+03 -0.63411616769E+03  0.67397146268E+03  0.46999998093E+01 0.  1.
       -5    1    3    3    0  502  0.75025433930E+02 -0.21559989019E+03  0.13287502098E+04  0.13482252551E+04  0.46999998093E+01 0. -1.
</event>
<event>
 5   0  0.3086139E-05  0.1901243E+04  0.7818609E-02  0.8654238E-01
        1   -1    0    0  501    0  0.00000000000E+00  0.00000000000E+00  0.73130558173E+03  0.73130558175E+03  0.50400001928E-02 0. -1.
       -1   -1    0    0    0  501  0.00000000000E+00  0.00000000000E+00 -0.12357090642E+04  0.12357090642E+04  0.50400001928E-02 0.  1.
    10030    2    1    2    0    0  0.00000000000E+00  0.00000000000E+00 -0.50440348248E+03  0.19670146460E+04  0.19012426842E+04 0.  0.
        2    1    3    3  502    0 -0.31097031645E+03  0.59053557148E+03  0.44815521083E+03  0.80391410729E+03  0.25500000920E-02 0. -1.
       -2    1    3    3    0  502  0.31097031645E+03 -0.59053557148E+03 -0.95255869331E+03  0.11631005387E+04  0.25500000920E-02 0.  1.
</event>
<event>
 5   0  0.3147063E-05  0.1896554E+04  0.7818609E-02  0.8656574E-01
        1   -1    0    0  501    0  0.00000000000E+00  0.00000000000E+00  0.11673085133E+04  0.11673085133E+04  0.50400001928E-02 0.  1.
       -1   -1    0    0    0  501  0.00000000000E+00  0.00000000000E+00 -0.77034413617E+03  0.77034413618E+03  0.50400001928E-02 0. -1.
    10030    2    1    2    0    0  0.00000000000E+00  0.00000000000E+00  0.39696437716E+03  0.19376526495E+04  0.18965539996E+04 0.  0.
        5    1    3    3  502    0  0.82108191084E+03 -0.46246523155E+03  0.30640066111E+03  0.99093544181E+03  0.46999998093E+01 0.  1.
       -5    1    3    3    0  502 -0.82108191084E+03  0.46246523155E+03  0.90563716045E+02  0.94671720771E+03  0.46999998093E+01 0. -1.
</event>
<event>
 5   0  0.3086139E-05  0.1896727E+04  0.7818609E-02  0.8656487E-01
        1   -1    0    0  501    0  0.00000000000E+00  0.00000000000E+00  0.16688964468E+04  0.16688964468E+04  0.50400001928E-02 0. -1.
       -1   -1    0    0    0  501  0.00000000000E+00  0.00000000000E+00 -0.53891524845E+03  0.53891524847E+03  0.50400001928E-02 0.  1.
    10030    2    1    2    0    0  0.00000000000E+00  0.00000000000E+00  0.11299811984E+04  0.22078116953E+04  0.18967274378E+04 0.  0.
        2    1    3    3  502    0 -0.31254791411E+03  0.46733426886E+03 -0.32401686796E+03  0.64890249514E+03  0.25500000920E-02 0.  1.
       -2    1    3    3    0  502  0.31254791411E+03 -0.46733426886E+03  0.14539980663E+04  0.15589092002E+04  0.25500000920E-02 0. -1.
</event>
<event>
 5   0  0.6452182E-05  0.1913966E+04  0.7818609E-02  0.8647936E-01
        2   -1    0    0  501    0  0.00000000000E+00  0.00000000000E+00  0.23946373239E+04  0.23946373239E+04  0.25500000920E-02 0.  1.
       -2   -1    0    0    0  501  0.00000000000E+00  0.00000000000E+00 -0.38244459337E+03  0.38244459338E+03  0.25500000920E-02 0. -1.
    10030    2    1    2    0    0  0.00000000000E+00  0.00000000000E+00  0.20121927306E+04  0.27770819173E+04  0.19139656190E+04 0.  0.
        3    1    3    3  502    0 -0.89467324770E+03  0.27780642754E+02  0.51490056841E+03  0.10326347805E+04  0.10100000352E+00 0.  1.
       -3    1    3    3    0  502  0.89467324770E+03 -0.27780642754E+02  0.14972921622E+04  0.17444471369E+04  0.10100000352E+00 0. -1.
</event>
<event>
 5   0  0.6423388E-05  0.1905012E+04  0.7818609E-02  0.8652366E-01
        2   -1    0    0  501    0  0.00000000000E+00  0.00000000000E+00  0.11010092931E+04  0.11010092931E+04  0.25500000920E-02 0. -1.
       -2   -1    0    0    0  501  0.00000000000E+00  0.00000000000E+00 -0.82403276605E+03  0.82403276605E+03  0.25500000920E-02 0.  1.
    10030    2    1    2    0    0  0.00000000000E+00  0.00000000000E+00  0.27697652705E+03  0.19250420592E+04  0.19050120559E+04 0.  0.
        2    1    3    3  502    0 -0.69478454406E+03  0.15035767724E+03 -0.50216090411E+03  0.87034393627E+03  0.25500000920E-02 0.  1.
       -2    1    3    3    0  502  0.69478454406E+03 -0.15035767724E+03  0.77913743116E+03  0.10546981229E+04  0.25500000920E-02 0. -1.
</event>
<event>
 5   0  0.6361762E-05  0.1901596E+04  0.7818609E-02  0.8654063E-01
       -2   -1    0    0    0  501  0.00000000000E+00  0.00000000000E+00  0.51597112424E+03  0.51597112424E+03  0.25500000920E-02 0.  1.
        2   -1    0    0  501    0  0.00000000000E+00  0.00000000000E+00 -0.17520678170E+04  0.17520678170E+04  0.25500000920E-02 0. -1.
    10030    2    1    2    0    0  0.00000000000E+00  0.00000000000E+00 -0.12360966927E+04  0.22680389412E+04  0.19015955419E+04 0.  0.
        1    1    3    3  502    0 -0.84286775732E+03  0.43594708116E+03 -0.54708013163E+03  0.10953413095E+04  0.50400001928E-02 0. -1.
       -1    1    3    3    0  502  0.84286775732E+03 -0.43594708116E+03 -0.68901656111E+03  0.11726976317E+04  0.50400001928E-02 0.  1.
</event>
<event>
 5   0  0.3086139E-05  0.1901775E+04  0.7818609E-02  0.8653973E-01
        1   -1    0    0  501    0  0.00000000000E+00  0.00000000000E+00  0.11217929918E+04  0.11217929918E+04  0.50400001928E-02 0.  1.
       -1   -1    0    0    0  501  0.00000000000E+00  0.00000000000E+00 -0.80601947480E+03  0.80601947482E+03  0.50400001928E-02 0. -1.
    10030    2    1    2    0    0  0.00000000000E+00  0.00000000000E+00  0.31577351698E+03  0.19278124666E+04  0.19017749584E+04 0.  0.
        2    1    3    3  502    0 -0.37320852133E+03 -0.34736692742E+03  0.97152066053E+03  0.10971785527E+04  0.25500000920E-02 0.  1.
       -2    1    3    3    0  502  0.37320852133E+03  0.34736692742E+03 -0.65574714355E+03  0.83063391391E+03  0.25500000920E-02 0. -1.
</event>
<event>
 5   0  0.6395992E-05  0.1903808E+04  0.7818609E-02  0.8652963E-01
       -2   -1    0    0    0  501  0.00000000000E+00  0.00000000000E+00  0.10222617987E+04  0.10222617987E+04  0.25500000920E-02 0.  1.
        2   -1    0    0  501    0  0.00000000000E+00  0.00000000000E+00 -0.88638834759E+03  0.88638834759E+03  0.25500000920E-02 0. -1.
    10030    2    1    2    0    0  0.00000000000E+00  0.00000000000E+00  0.13587345113E+03  0.19086501463E+04  0.19038077073E+04 0.  0.
        4    1    3    3  502    0 -0.69237989908E+03  0.17142395891E+03  0.69989173544E+03  0.99931284020E+03  0.12699999809E+01 0.  1.
       -4    1    3    3    0  502  0.69237989908E+03 -0.17142395891E+03 -0.56401828431E+03  0.90933730611E+03  0.12699999809E+01 0. -1.
</event>
<event>
 5   0  0.3203527E-05  0.1894679E+04  0.7818609E-02  0.8657509E-01
        1   -1    0    0  501    0  0.00000000000E+00  0.00000000000E+00  0.33216595255E+03  0.33216595258E+03  0.50400001928E-02 0. -1.
       -1   -1    0    0    0  501  0.00000000000E+00  0.00000000000E+00 -0.27018191684E+04  0.27018191684E+04  0.50400001928E-02 0.  1.
    10030    2    1    2    0    0  0.00000000000E+00  0.00000000000E+00 -0.23696532159E+04  0.30339851210E+04  0.18946792211E+04 0.  0.
        1    1    3    3  502    0  0.77744662803E+03 -0.52630465202E+03 -0.13875847319E+04  0.16753540624E+04  0.50400001928E-02 0.  1.
       -1    1    3    3    0  502 -0.77744662803E+03  0.52630465202E+03 -0.98206848398E+03  0.13586310586E+04  0.50400001928E-02 0. -1.
</event>
<event>
 5   0  0.3144958E-05  0.1900192E+04  0.7818609E-02  0.8654761E-01
       -1   -1    0    0    0  501  0.00000000000E+00  0.00000000000E+00  0.13623098122E+04  0.13623098122E+04  0.50400001928E-02 0. -1.
        1   -1    0    0  501    0  0.00000000000E+00  0.00000000000E+00 -0.66261137700E+03  0.66261137702E+03  0.50400001928E-02 0.  1.
    10030    2    1    2    0    0  0.00000000000E+00  0.00000000000E+00  0.69969843522E+03  0.20249211892E+04  0.19001915489E+04 0.  0.
        4    1    3    3  502    0 -0.29224958728E+03  0.89805926669E+03  0.23930936135E+03  0.97426426142E+03  0.12699999809E+01 0.  1.
       -4    1    3    3    0  502  0.29224958728E+03 -0.89805926669E+03  0.46038907386E+03  0.10506569278E+04  0.12699999809E+01 0. -1.
</event>
<event>
 5   0  0.6452182E-05  0.1903364E+04  0.7818609E-02  0.8653184E-01
       -2   -1    0    0    0  501  0.00000000000E+00  0.00000000000E+00  0.62147897775E+03  0.62147897775E+03  0.25500000920E-02 0. -1.
        2   -1    0    0  501    0  0.00000000000E+00  0.00000000000E+00 -0.14573277802E+04  0.14573277802E+04  0.25500000920E-02 0.  1.
    10030    2    1    2    0    0  0.00000000000E+00  0.00000000000E+00 -0.83584880246E+03  0.20788067580E+04  0.19033639474E+04 0.  0.
        3    1    3    3  502    0  0.88273266293E+03  0.35307280309E+03 -0.46453367574E+03  0.10581440850E+04  0.10100000352E+00 0. -1.
       -3    1    3    3    0  502 -0.88273266293E+03 -0.35307280309E+03 -0.37131512671E+03  0.10206626730E+04  0.10100000352E+00 0.  1.
</event>
<event>
 5   0  0.3147063E-05  0.1896197E+04  0.7818609E-02  0.8656752E-01
        1   -1    0    0  501    0  0.00000000000E+00  0.00000000000E+00  0.12777093573E+04  0.12777093573E+04  0.50400001928E-02 0. -1.
       -1   -1    0    0    0  501  0.00000000000E+00  0.00000000000E+00 -0.70351738584E+03  0.70351738586E+03  0.50400001928E-02 0.  1.
    10030    2    1    2    0    0  0.00000000000E+00  0.00000000000E+00  0.57419197147E+03  0.19812267432E+04  0.18961969802E+04 0.  0.
        5    1    3    3  502    0  0.61904905093E+03 -0.38295072120E+03  0.92178556619E+03  0.11745568110E+04  0.46999998093E+01 0. -1.
       -5    1    3    3    0  502 -0.61904905093E+03  0.38295072120E+03 -0.34759359473E+03  0.80666993214E+03  0.46999998093E+01 0.  1.
</event>
<event>
 5   0  0.6452182E-05  0.1897644E+04  0.7818609E-02  0.8656030E-01
        2   -1    0    0  501    0  0.00000000000E+00  0.00000000000E+00  0.14764404676E+04  0.14764404676E+04  0.25500000920E-02 0. -1.
       -2   -1    0    0    0  501  0.00000000000E+00  0.00000000000E+00 -0.60975260819E+03  0.60975260819E+03  0.25500000920E-02 0.  1.
    10030    2    1    2    0    0  0.00000000000E+00  0.00000000000E+00  0.86668785944E+03  0.20861930758E+04  0.18976442511E+04 0.  0.
        3    1    3    3  502    0 -0.38431919263E+03  0.18279178052E+03 -0.49894224365E+03  0.65578765584E+03  0.10100000352E+00 0.  1.
       -3    1    3    3    0  502  0.38431919263E+03 -0.18279178052E+03  0.13656301031E+04  0.14304054200E+04  0.10100000352E+00 0. -1.
</event>
<event>
 5   0  0.3144958E-05  0.1900232E+04  0.7818609E-02  0.8654741E-01
       -1   -1    0    0    0  501  0.00000000000E+00  0.00000000000E+00  0.93121268990E+03  0.93121268991E+03  0.50400001928E-02 0. -1.
        1   -1    0    0  501    0  0.00000000000E+00  0.00000000000E+00 -0.96940290803E+03  0.96940290804E+03  0.50400001928E-02 0.  1.
    10030    2    1    2    0    0  0.00000000000E+00  0.00000000000E+00 -0.38190218131E+02  0.19006155980E+04  0.19002318697E+04 0.  0.
        4    1    3    3  502    0  0.79240035707E+03 -0.33435122709E+03 -0.42294589592E+03  0.95842261697E+03  0.12699999809E+01 0. -1.
       -4    1    3    3    0  502 -0.79240035707E+03  0.33435122709E+03  0.38475567778E+03  0.94219298099E+03  0.12699999809E+01 0.  1.
</event>
<event>
 5   0  0.3147063E-05  0.1901249E+04  0.7818609E-02  0.8654235E-01
        1   -1    0    0  501    0  0.00000000000E+00  0.00000000000E+00  0.61051177362E+03  0.61051177364E+03  0.50400001928E-02 0. -1.
       -1   -1    0    0    0  501  0.00000000000E+00  0.00000000000E+00 -0.14802123200E+04  0.14802123200E+04  0.50400001928E-02 0.  1.
    10030    2    1    2    0    0  0.00000000000E+00  0.00000000000E+00 -0.86970054640E+03  0.20907240937E+04  0.19012491145E+04 0.  0.
        5    1    3    3  502    0 -0.14971886355E+03 -0.26082368517E+03 -0.14265079657E+04  0.14578723535E+04  0.46999998093E+01 0.  1.
       -5    1    3    3    0  502  0.14971886355E+03  0.26082368517E+03  0.55680741930E+03  0.63285174017E+03  0.46999998093E+01 0. -1.
</event>
<event>
 5   0  0.6098377E-05  0.1899947E+04  0.7818609E-02  0.8654883E-01
       -2   -1    0    0    0  501  0.00000000000E+00  0.00000000000E+00  0.74235730331E+03  0.74235730332E+03  0.25500000920E-02 0.  1.
        2   -1    0    0  501    0  0.00000000000E+00  0.00000000000E+00 -0.12156534755E+04  0.12156534755E+04  0.25500000920E-02 0. -1.
    10030    2    1    2    0    0  0.00000000000E+00  0.00000000000E+00 -0.47329617217E+03  0.19580107788E+04  0.18999465633E+04 0.  0.
        5    1    3    3  502    0  0.23444635056E+03 -0.40343154179E+00 -0.11853587471E+04  0.12083305439E+04  0.46999998093E+01 0. -1.
       -5    1    3    3    0  502 -0.23444635056E+03  0.40343154179E+00  0.71206257490E+03  0.74968023491E+03  0.46999998093E+01 0.  1.
</event>
<event>
 5   0  0.3203527E-05  0.1908211E+04  0.7818609E-02  0.8650780E-01
       -1   -1    0    0    0  501  0.00000000000E+00  0.00000000000E+00  0.11752725586E+04  0.11752725587E+04  0.50400001928E-02 0. -1.
        1   -1    0    0  501    0  0.00000000000E+00  0.00000000000E+00 -0.77455871248E+03  0.77455871250E+03  0.50400001928E-02 0.  1.
    10030    2    1    2    0    0  0.00000000000E+00  0.00000000000E+00  0.40071384616E+03  0.19498312712E+04  0.19082113089E+04 0.  0.
        1    1    3    3  502    0 -0.76936801248E+03 -0.55870088061E+03  0.11961583220E+03  0.95832236746E+03  0.50400001928E-02 0. -1.
       -1    1    3    3    0  502  0.76936801248E+03  0.55870088061E+03  0.28109801396E+03  0.99150890370E+03  0.50400001928E-02 0.  1.
</event>
<event>
 5   0  0.6098377E-05  0.1900668E+04  0.7818609E-02  0.8654524E-01
        2   -1    0    0  501    0  0.00000000000E+00  0.00000000000E+00  0.28631246105E+04  0.28631246105E+04  0.25500000920E-02 0.  1.
       -2   -1    0    0    0  501  0.00000000000E+00  0.00000000000E+00 -0.31543687675E+03  0.31543687676E+03  0.25500000920E-02 0. -1.
    10030    2    1    2    0    0  0.00000000000E+00  0.00000000000E+00  0.25476877337E+04  0.31785614873E+04  0.19006683929E+04 0.  0.
        5    1    3    3  502    0 -0.42363966838E+03 -0.13951707254E+03  0.26771916391E+04  0.27140951982E+04  0.46999998093E+01 0.  1.
       -5    1    3    3    0  502  0.42363966838E+03  0.13951707254E+03 -0.12950390541E+03  0.46446628906E+03  0.46999998093E+01 0. -1.
</event>
<event>
 5   0  0.3086139E-05  0.1907762E+04  0.7818609E-02  0.8651002E-01
       -1   -1    0    0    0  501  0.00000000000E+00  0.00000000000E+00  0.63098719071E+03  0.63098719073E+03  0.50400001928E-02 0.  1.
        1   -1    0    0  501    0  0.00000000000E+00  0.00000000000E+00 -0.14420083665E+04  0.14420083665E+04  0.50400001928E-02 0. -1.
    10030    2    1    2    0    0  0.00000000000E+00  0.00000000000E+00 -0.81102117580E+03  0.20729955572E+04  0.19077618386E+04 0.  0.
        2    1    3    3  502    0  0.62985999433E+03 -0.38137522992E+03  0.25340796410E+03  0.77870808056E+03  0.25500000920E-02 0.  1.
       -2    1    3    3    0  502 -0.62985999433E+03  0.38137522992E+03 -0.10644291399E+04  0.12942874767E+04  0.25500000920E-02 0. -1.
</event>
<event>
 5   0  0.3083469E-05  0.1875838E+04  0.7818609E-02  0.8666978E-01
       -1   -1    0    0    0  501  0.00000000000E+00  0.00000000000E+00  0.88035249373E+03  0.88035249374E+03  0.50400001928E-02 0.  1.
        1   -1    0    0  501    0  0.00000000000E+00  0.00000000000E+00 -0.99924958370E+03  0.99924958371E+03  0.50400001928E-02 0. -1.
    10030    2    1    2    0    0  0.00000000000E+00  0.00000000000E+00 -0.11889708997E+03  0.18796020775E+04  0.18758377999E+04 0.  0.
        3    1    3    3  502    0  0.52647036197E+03  0.72276293696E+03  0.22419997907E+03  0.92185841965E+03  0.10100000352E+00 0.  1.
       -3    1    3    3    0  502 -0.52647036197E+03 -0.72276293696E+03 -0.34309706905E+03  0.95774365780E+03  0.10100000352E+00 0. -1.
</event>
<event>
 5   0  0.3147063E-05  0.1911760E+04  0.7818609E-02  0.8649025E-01
        1   -1    0    0  501    0  0.00000000000E+00  0.00000000000E+00  0.18578626626E+04  0.18578626626E+04  0.50400001928E-02 0. -1.
       -1   -1    0    0    0  501  0.00000000000E+00  0.00000000000E+00 -0.49180531025E+03  0.49180531027E+03  0.50400001928E-02 0.  1.
    10030    2    1    2    0    0  0.00000000000E+00  0.00000000000E+00  0.13660573523E+04  0.23496679729E+04  0.19117601557E+04 0.  0.
        5    1    3    3  502    0  0.28547763175E+03 -0.13465354362E+03 -0.42589107702E+03  0.53012673439E+03  0.46999998093E+01 0.  1.
       -5    1    3    3    0  502 -0.28547763175E+03  0.13465354362E+03  0.17919484293E+04  0.18195412385E+04  0.46999998093E+01 0. -1.
</event>
<event>
 5   0  0.6423388E-05  0.1901228E+04  0.7818609E-02  0.8654245E-01
       -2   -1    0    0    0  501  0.00000000000E+00  0.00000000000E+00  0.36065309466E+03  0.36065309467E+03  0.25500000920E-02 0. -1.
        2   -1    0    0  501    0  0.00000000000E+00  0.00000000000E+00 -0.25056417109E+04  0.25056417109E+04  0.25500000920E-02 0.  1.
    10030    2    1    2    0    0  0.00000000000E+00  0.00000000000E+00 -0.21449886162E+04  0.28662948055E+04  0.19012284841E+04 0.  0.
        2    1    3    3  502    0 -0.93765456462E+03 -0.13982585900E+03 -0.96674615477E+03  0.13540108867E+04  0.25500000920E-02 0. -1.
       -2    1    3    3    0  502  0.93765456462E+03  0.13982585900E+03 -0.11782424614E+04  0.15122839189E+04  0.25500000920E-02 0.  1.
</event>
<event>
 5   0  0.6361762E-05  0.1918331E+04  0.7818609E-02  0.8645785E-01
        2   -1    0    0  501    0  0.00000000000E+00  0.00000000000E+00  0.12938138234E+04  0.12938138234E+04  0.25500000920E-02 0. -1.
       -2   -1    0    0    0  501  0.00000000000E+00  0.00000000000E+00 -0.71107463878E+03  0.71107463878E+03  0.25500000920E-02 0.  1.
    10030    2    1    2    0    0  0.00000000000E+00  0.00000000000E+00  0.58273918460E+03  0.20048884622E+04  0.19183307297E+04 0.  0.
        1    1    3    3  502    0 -0.13866035197E+03  0.25888983425E+03  0.12456676065E+04  0.12798196847E+04  0.50400001928E-02 0. -1.
       -1    1    3    3    0  502  0.13866035197E+03 -0.25888983425E+03 -0.66292842188E+03  0.72506877746E+03  0.50400001928E-02 0.  1.
</event>
<event>
 5   0  0.3203527E-05  0.1899185E+04  0.7818609E-02  0.8655262E-01
        1   -1    0    0  501    0  0.00000000000E+00  0.00000000000E+00  0.11500118993E+04  0.11500118994E+04  0.50400001928E-02 0. -1.
       -1   -1    0    0    0  501  0.00000000000E+00  0.00000000000E+00 -0.78410130931E+03  0.78410130933E+03  0.50400001928E-02 0.  1.
    10030    2    1    2    0    0  0.00000000000E+00  0.00000000000E+00  0.36591059003E+03  0.19341132087E+04  0.18991849157E+04 0.  0.
        1    1    3    3  502    0  0.27644967800E+03 -0.39766212136E+03 -0.64886913766E+03  0.80968558408E+03  0.50400001928E-02 0.  1.
       -1    1    3    3    0  502 -0.27644967800E+03  0.39766212136E+03  0.10147797277E+04  0.11244276246E+04  0.50400001928E-02 0. -1.
</event>
<event>
 5   0  0.3083469E-05  0.1898840E+04  0.7818609E-02  0.8655434E-01
       -1   -1    0    0    0  501  0.00000000000E+00  0.00000000000E+00  0.55455423475E+03  0.55455423477E+03  0.50400001928E-02 0.  1.
        1   -1    0    0  501    0  0.00000000000E+00  0.00000000000E+00 -0.16254474120E+04  0.16254474120E+04  0.50400001928E-02 0. -1.
    10030    2    1    2    0    0  0.00000000000E+00  0.00000000000E+00 -0.10708931773E+04  0.21800016468E+04  0.18988404311E+04 0.  0.
        3    1    3    3  502    0 -0.66620560280E+03 -0.18013753842E+02  0.24087652743E+03  0.70864371315E+03  0.10100000352E+00 0.  1.
       -3    1    3    3    0  502  0.66620560280E+03  0.18013753842E+02 -0.13117697047E+04  0.14713579337E+04  0.10100000352E+00 0. -1.
</event>
<event>
 5   0  0.3083469E-05  0.1918550E+04  0.7818609E-02  0.8645677E-01
       -1   -1    0    0    0  501  0.00000000000E+00  0.00000000000E+00  0.48339239524E+03  0.48339239527E+03  0.50400001928E-02 0.  1.
        1   -1    0    0  501    0  0.00000000000E+00  0.00000000000E+00 -0.19036475103E+04  0.19036475103E+04  0.50400001928E-02 0. -1.
    10030    2    1    2    0    0  0.00000000000E+00  0.00000000000E+00 -0.14202551151E+04  0.23870399056E+04  0.19185502128E+04 0.  0.
        3    1    3    3  502    0  0.20649645314E+02  0.76442544645E+03 -0.14307227759E+04  0.16222639559E+04  0.10100000352E+00 0. -1.
       -3    1    3    3    0  502 -0.20649645314E+02 -0.76442544645E+03  0.10467660835E+02  0.76477594965E+03  0.10100000352E+00 0.  1.
</event>
<event>
 5   0  0.3086139E-05  0.1895787E+04  0.7818609E-02  0.8656956E-01
        1   -1    0    0  501    0  0.00000000000E+00  0.00000000000E+00  0.20373219073E+04  0.20373219073E+04  0.50400001928E-02 0.  1.
       -1   -1    0    0    0  501  0.00000000000E+00  0.00000000000E+00 -0.44102136312E+03  0.44102136315E+03  0.50400001928E-02 0. -1.
    10030    2    1    2    0    0  0.00000000000E+00  0.00000000000E+00  0.15963005442E+04  0.24783432704E+04  0.18957874192E+04 0.  0.
        2    1    3    3  502    0 -0.94685310717E+03  0.26437167454E+02  0.75151182158E+03  0.12091318160E+04  0.25500000920E-02 0. -1.
       -2    1    3    3    0  502  0.94685310717E+03 -0.26437167454E+02  0.84478872258E+03  0.12692114545E+04  0.25500000920E-02 0.  1.
</event>
<event>
 5   0  0.6361762E-05  0.1895216E+04  0.7818609E-02  0.8657241E-01
       -2   -1    0    0    0  501  0.00000000000E+00  0.00000000000E+00  0.89646611136E+03  0.89646611136E+03  0.25500000920E-02 0.  1.
        2   -1    0    0  501    0  0.00000000000E+00  0.00000000000E+00 -0.10016677864E+04  0.10016677864E+04  0.25500000920E-02 0. -1.
    10030    2    1    2    0    0  0.00000000000E+00  0.00000000000E+00 -0.10520167502E+03  0.18981338977E+04  0.18952163205E+04 0.  0.
        1    1    3    3  502    0 -0.48030598060E+03 -0.61334480161E+03  0.48774388840E+03  0.91911902459E+03  0.50400001928E-02 0.  1.
       -1    1    3    3    0  502  0.48030598060E+03  0.61334480161E+03 -0.59294556342E+03  0.97901487316E+03  0.50400001928E-02 0. -1.
</event>
<event>
 5   0  0.6452182E-05  0.1900990E+04  0.7818609E-02  0.8654364E-01
       -2   -1    0    0    0  501  0.00000000000E+00  0.00000000000E+00  0.12480463135E+04  0.12480463135E+04  0.25500000920E-02 0.  1.
        2   -1    0    0  501    0  0.00000000000E+00  0.00000000000E+00 -0.72388406605E+03  0.72388406605E+03  0.25500000920E-02 0. -1.
    10030    2    1    2    0    0  0.00000000000E+00  0.00000000000E+00  0.52416224748E+03  0.19719303796E+04  0.19009901000E+04 0.  0.
        3    1    3    3  502    0 -0.65617526140E+03 -0.52845942916E+03  0.71850731155E+03  0.11072886294E+04  0.10100000352E+00 0.  1.
       -3    1    3    3    0  502  0.65617526140E+03  0.52845942916E+03 -0.19434506407E+03  0.86464175013E+03  0.10100000352E+00 0. -1.
</event>
<event>
 5   0  0.3083469E-05  0.1899183E+04  0.7818609E-02  0.8655263E-01
        1   -1    0    0  501    0  0.00000000000E+00  0.00000000000E+00  0.65341154806E+03  0.65341154808E+03  0.50400001928E-02 0. -1.
       -1   -1    0    0    0  501  0.00000000000E+00  0.00000000000E+00 -0.13800248939E+04  0.13800248939E+04  0.50400001928E-02 0.  1.
    10030    2    1    2    0    0  0.00000000000E+00  0.00000000000E+00 -0.72661334586E+03  0.20334364420E+04  0.18991831953E+04 0.  0.
        3    1    3    3  502    0 -0.45503231348E+03 -0.93102332603E+02 -0.12501080375E+04  0.13336013521E+04  0.10100000352E+00 0.  1.
       -3    1    3    3    0  502  0.45503231348E+03  0.93102332603E+02  0.52349469167E+03  0.69983508990E+03  0.10100000352E+00 0. -1.
</event>
<event>
 5   0  0.6395992E-05  0.1904609E+04  0.7818609E-02  0.8652565E-01
       -2   -1    0    0    0  501  0.00000000000E+00  0.00000000000E+00  0.59141029740E+03  0.59141029741E+03  0.25500000920E-02 0. -1.
        2   -1    0    0  501    0  0.00000000000E+00  0.00000000000E+00 -0.15334263082E+04  0.15334263082E+04  0.25500000920E-02 0.  1.
    10030    2    1    2    0    0  0.00000000000E+00  0.00000000000E+00 -0.94201601076E+03  0.21248366056E+04  0.19046092607E+04 0.  0.
        4    1    3    3  502    0 -0.94263450755E+03 -0.44233570493E+02 -0.32828568990E+03  0.99914439932E+03  0.12699999809E+01 0. -1.
       -4    1    3    3    0  502  0.94263450755E+03  0.44233570493E+02 -0.61373032086E+03  0.11256922063E+04  0.12699999809E+01 0.  1.
</event>
<event>
 5   0  0.3083469E-05  0.1900309E+04  0.7818609E-02  0.8654703E-01
        1   -1    0    0  501    0  0.00000000000E+00  0.00000000000E+00  0.98886992230E+03  0.98886992231E+03  0.50400001928E-02 0.  1.
       -1   -1    0    0    0  501  0.00000000000E+00  0.00000000000E+00 -0.91295481405E+03  0.91295481406E+03  0.50400001928E-02 0. -1.
    10030    2    1    2    0    0  0.00000000000E+00  0.00000000000E+00  0.75915108248E+02  0.19018247364E+04  0.19003089813E+04 0.  0.
        3    1    3    3  502    0  0.68697732312E+03 -0.15206778786E+03 -0.60109001280E+03  0.92540351646E+03  0.10100000352E+00 0. -1.
       -3    1    3    3    0  502 -0.68697732312E+03  0.15206778786E+03  0.67700512105E+03  0.97642121992E+03  0.10100000352E+00 0.  1.
</event>
<event>
 5   0  0.3083469E-05  0.1899840E+04  0.7818609E-02  0.8654936E-01
       -1   -1    0    0    0  501  0.00000000000E+00  0.00000000000E+00  0.77319233983E+03  0.77319233985E+03  0.50400001928E-02 0.  1.
        1   -1    0    0  501    0  0.00000000000E+00  0.00000000000E+00 -0.11670424444E+04  0.11670424444E+04  0.50400001928E-02 0. -1.
    10030    2    1    2    0    0  0.00000000000E+00  0.00000000000E+00 -0.39385010455E+03  0.19402347842E+04  0.18998402862E+04 0.  0.
        3    1    3    3  502    0 -0.30651925092E+03 -0.62709012161E+03 -0.85494773358E+03  0.11036900422E+04  0.10100000352E+00 0. -1.
       -3    1    3    3    0  502  0.30651925092E+03  0.62709012161E+03  0.46109762903E+03  0.83654474208E+03  0.10100000352E+00 0.  1.
</event>
<event>
 5   0  0.6098377E-05  0.1895319E+04  0.7818609E-02  0.8657190E-01
        2   -1    0    0  501    0  0.00000000000E+00  0.00000000000E+00  0.97118446457E+03  0.97118446457E+03  0.25500000920E-02 0. -1.
       -2   -1    0    0    0  501  0.00000000000E+00  0.00000000000E+00 -0.92470447316E+03  0.92470447316E+03  0.25500000920E-02 0.  1.
    10030    2    1    2    0    0  0.00000000000E+00  0.00000000000E+00  0.46479991414E+02  0.18958889377E+04  0.18953190957E+04 0.  0.
        5    1    3    3  502    0 -0.43479154317E+03  0.81437926953E+03 -0.19078518947E+03  0.94269738473E+03  0.46999998093E+01 0.  1.
       -5    1    3    3    0  502  0.43479154317E+03 -0.81437926953E+03  0.23726518089E+03  0.95319155300E+03  0.46999998093E+01 0. -1.
</event>
<event>
 5   0  0.3144958E-05  0.1902292E+04  0.7818609E-02  0.8653717E-01
        1   -1    0    0  501    0  0.00000000000E+00  0.00000000000E+00  0.10320667355E+04  0.10320667355E+04  0.50400001928E-02 0. -1.
       -1   -1    0    0    0  501  0.00000000000E+00  0.00000000000E+00 -0.87656953880E+03  0.87656953881E+03  0.50400001928E-02 0.  1.
    10030    2    1    2    0    0  0.00000000000E+00  0.00000000000E+00  0.15549719668E+03  0.19086362743E+04  0.19022915259E+04 0.  0.
        4    1    3    3  502    0  0.28734086477E+03 -0.74463954599E+03 -0.44130055352E+03  0.91203103974E+03  0.12699999809E+01 0.  1.
       -4    1    3    3    0  502 -0.28734086477E+03  0.74463954599E+03  0.59679775020E+03  0.99660523457E+03  0.12699999809E+01 0. -1.
</event>
<event>
 5   0  0.3083469E-05  0.1890535E+04  0.7818609E-02  0.8659582E-01
       -1   -1    0    0    0  501  0.00000000000E+00  0.00000000000E+00  0.75494697833E+03  0.75494697835E+03  0.50400001928E-02 0. -1.
        1   -1    0    0  501    0  0.00000000000E+00  0.00000000000E+00 -0.11835673175E+04  0.11835673175E+04  0.50400001928E-02 0.  1.
    10030    2    1    2    0    0  0.00000000000E+00  0.00000000000E+00 -0.42862033918E+03  0.19385142959E+04  0.18905349190E+04 0.  0.
        3    1    3    3  502    0  0.54149571984E+03 -0.42053283665E+03  0.45294677971E+03  0.82172153236E+03  0.10100000352E+00 0. -1.
       -3    1    3    3    0  502 -0.54149571984E+03  0.42053283665E+03 -0.88156711888E+03  0.11167927635E+04  0.10100000352E+00 0.  1.
</event>
<event>
 5   0  0.6423388E-05  0.1892886E+04  0.7818609E-02  0.8658406E-01
       -2   -1    0    0    0  501  0.00000000000E+00  0.00000000000E+00  0.40853097386E+03  0.40853097387E+03  0.25500000920E-02 0. -1.
        2   -1    0    0  501    0  0.00000000000E+00  0.00000000000E+00 -0.21926224981E+04  0.21926224981E+04  0.25500000920E-02 0.  1.
    10030    2    1    2    0    0  0.00000000000E+00  0.00000000000E+00 -0.17840915242E+04  0.26011534719E+04  0.18928858438E+04 0.  0.
        2    1    3    3  502    0 -0.35377751957E+03 -0.22112308077E+03  0.27535502772E+03  0.49987432570E+03  0.25500000920E-02 0. -1.
       -2    1    3    3    0  502  0.35377751957E+03  0.22112308077E+03 -0.20594465519E+04  0.21012791462E+04  0.25500000920E-02 0.  1.
</event>
<event>
 5   0  0.3144958E-05  0.1893221E+04  0.7818609E-02  0.8658238E-01
       -1   -1    0    0    0  501  0.00000000000E+00  0.00000000000E+00  0.39867198804E+03  0.39867198808E+03  0.50400001928E-02 0. -1.
        1   -1    0    0  501    0  0.00000000000E+00  0.00000000000E+00 -0.22476403135E+04  0.22476403135E+04  0.50400001928E-02 0.  1.
    10030    2    1    2    0    0  0.00000000000E+00  0.00000000000E+00 -0.18489683255E+04  0.26463123016E+04  0.18932207819E+04 0.  0.
        4    1    3    3  502    0 -0.65778671142E+02 -0.49078066167E+03 -0.20521731464E+04  0.21110681484E+04  0.12699999809E+01 0.  1.
       -4    1    3    3    0  502  0.65778671142E+02  0.49078066167E+03  0.20320482089E+03  0.53524415324E+03  0.12699999809E+01 0. -1.
</event>
<event>
 5   0  0.6361762E-05  0.1892090E+04  0.7818609E-02  0.8658804E-01
       -2   -1    0    0    0  501  0.00000000000E+00  0.00000000000E+00  0.74986292040E+03  0.74986292040E+03  0.25500000920E-02 0. -1.
        2   -1    0    0  501    0  0.00000000000E+00  0.00000000000E+00 -0.11935526348E+04  0.11935526348E+04  0.25500000920E-02 0.  1.
    10030    2    1    2    0    0  0.00000000000E+00  0.00000000000E+00 -0.44368971438E+03  0.19434155552E+04  0.18920897065E+04 0.  0.
        1    1    3    3  502    0 -0.44994313598E+02  0.20474483347E+02 -0.11922251621E+04  0.11932495673E+04  0.50400001928E-02 0.  1.
       -1    1    3    3    0  502  0.44994313598E+02 -0.20474483347E+02  0.74853544775E+03  0.75016598783E+03  0.50400001928E-02 0. -1.
</event>
<event>
 5   0  0.3086139E-05  0.1900977E+04  0.7818609E-02  0.8654370E-01
        1   -1    0    0  501    0  0.00000000000E+00  0.00000000000E+00  0.18150809859E+04  0.18150809859E+04  0.50400001928E-02 0.  1.
       -1   -1    0    0    0  501  0.00000000000E+00  0.00000000000E+00 -0.49773424949E+03  0.49773424952E+03  0.50400001928E-02 0. -1.
    10030    2    1    2    0    0  0.00000000000E+00  0.00000000000E+00  0.13173467364E+04  0.23128152354E+04  0.19009765620E+04 0.  0.
        2    1    3    3  502    0 -0.31531665544E+02 -0.92314556534E+03  0.93136490958E+03  0.13117288499E+04  0.25500000920E-02 0.  1.
       -2    1    3    3    0  502  0.31531665544E+02  0.92314556534E+03  0.38598182686E+03  0.10010863856E+04  0.25500000920E-02 0. -1.
</event>
<event>
 5   0  0.3144958E-05  0.1935499E+04  0.7818609E-02  0.8637385E-01
       -1   -1    0    0    0  501  0.00000000000E+00  0.00000000000E+00  0.98034958651E+03  0.98034958652E+03  0.50400001928E-02 0.  1.
        1   -1    0    0  501    0  0.00000000000E+00  0.00000000000E+00 -0.95531133045E+03  0.95531133047E+03  0.50400001928E-02 0. -1.
    10030    2    1    2    0    0  0.00000000000E+00  0.00000000000E+00  0.25038256058E+02  0.19356609170E+04  0.19354989722E+04 0.  0.
        4    1    3    3  502    0  0.54553370905E+03 -0.79615447581E+03 -0.58680071801E+02  0.96690947911E+03  0.12699999809E+01 0. -1.
       -4    1    3    3    0  502 -0.54553370905E+03  0.79615447581E+03  0.83718327859E+02  0.96875143788E+03  0.12699999809E+01 0.  1.
</event>
<event>
 5   0  0.6452182E-05  0.1910680E+04  0.7818609E-02  0.8649558E-01
        2   -1    0    0  501    0  0.00000000000E+00  0.00000000000E+00  0.87650968608E+03  0.87650968608E+03  0.25500000920E-02 0.  1.
       -2   -1    0    0    0  501  0.00000000000E+00  0.00000000000E+00 -0.10412604112E+04  0.10412604113E+04  0.25500000920E-02 0. -1.
    10030    2    1    2    0    0  0.00000000000E+00  0.00000000000E+00 -0.16475072517E+03  0.19177700973E+04  0.19106803356E+04 0.  0.
        3    1    3    3  502    0 -0.36117358880E+03 -0.27976877776E+03  0.75975989622E+03  0.88653936199E+03  0.10100000352E+00 0.  1.
       -3    1    3    3    0  502  0.36117358880E+03  0.27976877776E+03 -0.92451062138E+03  0.10312307353E+04  0.10100000352E+00 0. -1.
</event>
<event>
 5   0  0.3083469E-05  0.1901627E+04  0.7818609E-02  0.8654047E-01
        1   -1    0    0  501    0  0.00000000000E+00  0.00000000000E+00  0.11384286686E+04  0.11384286686E+04  0.50400001928E-02 0.  1.
       -1   -1    0    0    0  501  0.00000000000E+00  0.00000000000E+00 -0.79411770182E+03  0.79411770184E+03  0.50400001928E-02 0. -1.
    10030    2    1    2    0    0  0.00000000000E+00  0.00000000000E+00  0.34431096680E+03  0.19325463705E+04  0.19016270487E+04 0.  0.
        3    1    3    3  502    0 -0.36341878202E+03  0.59129585628E+03 -0.48828987420E+03  0.84860533361E+03  0.10100000352E+00 0. -1.
       -3    1    3    3    0  502  0.36341878202E+03 -0.59129585628E+03  0.83260084100E+03  0.10839410369E+04  0.10100000352E+00 0.  1.
</event>
<event>
 5   0  0.6423388E-05  0.1900948E+04  0.7818609E-02  0.8654385E-01
        2   -1    0    0  501    0  0.00000000000E+00  0.00000000000E+00  0.76735962133E+03  0.76735962134E+03  0.25500000920E-02 0.  1.
       -2   -1    0    0    0  501  0.00000000000E+00  0.00000000000E+00 -0.11772850444E+04  0.11772850444E+04  0.25500000920E-02 0. -1.
    10030    2    1    2    0    0  0.00000000000E+00  0.00000000000E+00 -0.40992542310E+03  0.19446446658E+04  0.19009481907E+04 0.  0.
        2    1    3    3  502    0 -0.78450079328E+03  0.52697951076E+02  0.34133749437E+03  0.85716384301E+03  0.25500000920E-02 0.  1.
       -2    1    3    3    0  502  0.78450079328E+03 -0.52697951076E+02 -0.75126291747E+03  0.10874808228E+04  0.25500000920E-02 0. -1.
</event>
<event>
 5   0  0.6452182E-05  0.1900787E+04  0.7818609E-02  0.8654465E-01
        2   -1    0    0  501    0  0.00000000000E+00  0.00000000000E+00  0.88476313082E+03  0.88476313083E+03  0.25500000920E-02 0. -1.
       -2   -1    0    0    0  501  0.00000000000E+00  0.00000000000E+00 -0.10208917040E+04  0.10208917040E+04  0.25500000920E-02 0.  1.
    10030    2    1    2    0    0  0.00000000000E+00  0.00000000000E+00 -0.13612857316E+03  0.19056548348E+04  0.19007865112E+04 0.  0.
        3    1    3    3  502    0 -0.64825337307E+03  0.51561335210E+03  0.39913113893E+03  0.91945377308E+03  0.10100000352E+00 0. -1.
       -3    1    3    3    0  502  0.64825337307E+03 -0.51561335210E+03 -0.53525971210E+03  0.98620106173E+03  0.10100000352E+00 0.  1.
</event>
<event>
 5   0  0.6423388E-05  0.1897799E+04  0.7818609E-02  0.8655953E-01
        2   -1    0    0  501    0  0.00000000000E+00  0.00000000000E+00  0.24045178784E+04  0.24045178784E+04  0.25500000920E-02 0.  1.
       -2   -1    0    0    0  501  0.00000000000E+00  0.00000000000E+00 -0.37446613283E+03  0.37446613284E+03  0.25500000920E-02 0. -1.
    10030    2    1    2    0    0  0.00000000000E+00  0.00000000000E+00  0.20300517455E+04  0.27789840112E+04  0.18977992636E+04 0.  0.
        2    1    3    3  502    0  0.49820705682E+03  0.19558466002E+03 -0.13233800467E+03  0.55134107247E+03  0.25500000920E-02 0. -1.
       -2    1    3    3    0  502 -0.49820705682E+03 -0.19558466002E+03  0.21623897502E+04  0.22276429387E+04  0.25500000920E-02 0.  1.
</event>
<event>
 5   0  0.6423388E-05  0.1891301E+04  0.7818609E-02  0.8659199E-01
       -2   -1    0    0    0  501  0.00000000000E+00  0.00000000000E+00  0.31984662178E+03  0.31984662179E+03  0.25500000920E-02 0. -1.
        2   -1    0    0  501    0  0.00000000000E+00  0.00000000000E+00 -0.27958861138E+04  0.27958861138E+04  0.25500000920E-02 0.  1.
    10030    2    1    2    0    0  0.00000000000E+00  0.00000000000E+00 -0.24760394921E+04  0.31157327356E+04  0.18913008522E+04 0.  0.
        2    1    3    3  502    0 -0.69387584246E+03  0.50149457215E+03 -0.57639916670E+03  0.10320835674E+04  0.25500000920E-02 0.  1.
       -2    1    3    3    0  502  0.69387584246E+03 -0.50149457215E+03 -0.18996403253E+04  0.20836491682E+04  0.25500000920E-02 0. -1.
</event>
<event>
 5   0  0.3147063E-05  0.1955520E+04  0.7818609E-02  0.8627704E-01
        1   -1    0    0  501    0  0.00000000000E+00  0.00000000000E+00  0.12782500219E+04  0.12782500219E+04  0.50400001928E-02 0. -1.
       -1   -1    0    0    0  501  0.00000000000E+00  0.00000000000E+00 -0.74790883617E+03  0.74790883618E+03  0.50400001928E-02 0.  1.
    10030    2    1    2    0    0  0.00000000000E+00  0.00000000000E+00  0.53034118577E+03  0.20261588581E+04  0.19555198657E+04 0.  0.
        5    1    3    3  502    0 -0.16131595901E+03  0.96434871825E+03  0.26626086088E+03  0.10133648035E+04  0.46999998093E+01 0.  1.
       -5    1    3    3    0  502  0.16131595901E+03 -0.96434871825E+03  0.26408032489E+03  0.10127940546E+04  0.46999998093E+01 0. -1.
</event>
<event>
 5   0  0.3144958E-05  0.1892328E+04  0.7818609E-02  0.8658685E-01
       -1   -1    0    0    0  501  0.00000000000E+00  0.00000000000E+00  0.12518777065E+04  0.12518777065E+04  0.50400001928E-02 0. -1.
        1   -1    0    0  501    0  0.00000000000E+00  0.00000000000E+00 -0.71510688393E+03  0.71510688395E+03  0.50400001928E-02 0.  1.
    10030    2    1    2    0    0  0.00000000000E+00  0.00000000000E+00  0.53677082260E+03  0.19669845905E+04  0.18923280538E+04 0.  0.
        4    1    3    3  502    0 -0.24139464721E+03 -0.46849103757E+02  0.12180821899E+04  0.12426552412E+04  0.12699999809E+01 0. -1.
       -4    1    3    3    0  502  0.24139464721E+03  0.46849103757E+02 -0.68131136727E+03  0.72432934932E+03  0.12699999809E+01 0.  1.
</event>
<event>
 5   0  0.6423388E-05  0.1883268E+04  0.7818609E-02  0.8663230E-01
       -2   -1    0    0    0  501  0.00000000000E+00  0.00000000000E+00  0.60748953790E+03  0.60748953790E+03  0.25500000920E-02 0.  1.
        2   -1    0    0  501    0  0.00000000000E+00  0.00000000000E+00 -0.14595719839E+04  0.14595719839E+04  0.25500000920E-02 0. -1.
    10030    2    1    2    0    0  0.00000000000E+00  0.00000000000E+00 -0.85208244603E+03  0.20670615218E+04  0.18832681275E+04 0.  0.
        2    1    3    3  502    0 -0.20013757820E+03  0.66920361842E+03 -0.11191657933E+04  0.13192500165E+04  0.25500000920E-02 0. -1.
       -2    1    3    3    0  502  0.20013757820E+03 -0.66920361842E+03  0.26708334727E+03  0.74781150534E+03  0.25500000920E-02 0.  1.
</event>
<event>
 5   0  0.6423388E-05  0.1899499E+04  0.7818609E-02  0.8655106E-01
       -2   -1    0    0    0  501  0.00000000000E+00  0.00000000000E+00  0.67872859569E+03  0.67872859570E+03  0.25500000920E-02 0. -1.
        2   -1    0    0  501    0  0.00000000000E+00  0.00000000000E+00 -0.13289905545E+04  0.13289905545E+04  0.25500000920E-02 0.  1.
    10030    2    1    2    0    0  0.00000000000E+00  0.00000000000E+00 -0.65026195884E+03  0.20077191502E+04  0.18994987684E+04 0.  0.
        2    1    3    3  502    0 -0.73460505932E+03  0.40931188486E+03  0.14142787802E+03  0.85275005538E+03  0.25500000920E-02 0. -1.
       -2    1    3    3    0  502  0.73460505932E+03 -0.40931188486E+03 -0.79168983685E+03  0.11549690948E+04  0.25500000920E-02 0.  1.
</event>
<event>
 5   0  0.6452182E-05  0.1902672E+04  0.7818609E-02  0.8653528E-01
        2   -1    0    0  501    0  0.00000000000E+00  0.00000000000E+00  0.17742198405E+04  0.17742198405E+04  0.25500000920E-02 0.  1.
       -2   -1    0    0    0  501  0.00000000000E+00  0.00000000000E+00 -0.51010597970E+03  0.51010597971E+03  0.25500000920E-02 0. -1.
    10030    2    1    2    0    0  0.00000000000E+00  0.00000000000E+00  0.12641138608E+04  0.22843258202E+04  0.19026719632E+04 0.  0.
        3    1    3    3  502    0  0.45113749633E+03 -0.93378385508E+02  0.16313587609E+04  0.16951625233E+04  0.10100000352E+00 0.  1.
       -3    1    3    3    0  502 -0.45113749633E+03  0.93378385508E+02 -0.36724490014E+03  0.58916329685E+03  0.10100000352E+00 0. -1.
</event>
<event>
 5   0  0.3086139E-05  0.1900693E+04  0.7818609E-02  0.8654512E-01
        1   -1    0    0  501    0  0.00000000000E+00  0.00000000000E+00  0.10772460686E+04  0.10772460686E+04  0.50400001928E-02 0.  1.
       -1   -1    0    0    0  501  0.00000000000E+00  0.00000000000E+00 -0.83839534552E+03  0.83839534554E+03  0.50400001928E-02 0. -1.
    10030    2    1    2    0    0  0.00000000000E+00  0.00000000000E+00  0.23885072311E+03  0.19156414142E+04  0.19006926000E+04 0.  0.
        2    1    3    3  502    0  0.35204476657E+03  0.58420389813E+03  0.78639164159E+03  0.10409810403E+04  0.25500000920E-02 0.  1.
       -2    1    3    3    0  502 -0.35204476657E+03 -0.58420389813E+03 -0.54754091848E+03  0.87466037390E+03  0.25500000920E-02 0. -1.
</event>
<event>
 5   0  0.3203527E-05  0.1895809E+04  0.7818609E-02  0.8656945E-01
        1   -1    0    0  501    0  0.00000000000E+00  0.00000000000E+00  0.27403934638E+04  0.27403934638E+04  0.50400001928E-02 0.  1.
       -1   -1    0    0    0  501  0.00000000000E+00  0.00000000000E+00 -0.32788111914E+03  0.32788111918E+03  0.50400001928E-02 0. -1.
    10030    2    1    2    0    0  0.00000000000E+00  0.00000000000E+00  0.24125123446E+04  0.30682745830E+04  0.18958093531E+04 0.  0.
        1    1    3    3  502    0  0.49572083317E+03 -0.70108405657E+03  0.18561912761E+04  0.20451660207E+04  0.50400001928E-02 0.  1.
       -1    1    3    3    0  502 -0.49572083317E+03  0.70108405657E+03  0.55632106853E+03  0.10231085622E+04  0.50400001928E-02 0. -1.
</event>
<event>
 5   0  0.6423388E-05  0.1886193E+04  0.7818609E-02  0.8661759E-01
       -2   -1    0    0    0  501  0.00000000000E+00  0.00000000000E+00  0.55671214875E+03  0.55671214876E+03  0.25500000920E-02 0. -1.
        2   -1    0    0  501    0  0.00000000000E+00  0.00000000000E+00 -0.15976505445E+04  0.15976505445E+04  0.25500000920E-02 0.  1.
    10030    2    1    2    0    0  0.00000000000E+00  0.00000000000E+00 -0.10409383957E+04  0.21543626932E+04  0.18861934870E+04 0.  0.
        2    1    3    3  502    0 -0.68320488402E+03 -0.61312498955E+03 -0.76740174279E+03  0.11964934606E+04  0.25500000920E-02 0.  1.
       -2    1    3    3    0  502  0.68320488402E+03  0.61312498955E+03 -0.27353665293E+03  0.95786923265E+03  0.25500000920E-02 0. -1.
</event>
<event>
 5   0  0.6098377E-05  0.1895470E+04  0.7818609E-02  0.8657115E-01
        2   -1    0    0  501    0  0.00000000000E+00  0.00000000000E+00  0.40404052513E+03  0.40404052513E+03  0.25500000920E-02 0.  1.
       -2   -1    0    0    0  501  0.00000000000E+00  0.00000000000E+00 -0.22230483709E+04  0.22230483709E+04  0.25500000920E-02 0. -1.
    10030    2    1    2    0    0  0.00000000000E+00  0.00000000000E+00 -0.18190078457E+04  0.26270888960E+04  0.18954700010E+04 0.  0.
        5    1    3    3  502    0  0.32916994131E+03 -0.29533998975E+03  0.25224486879E+03  0.50914450172E+03  0.46999998093E+01 0.  1.
       -5    1    3    3    0  502 -0.32916994131E+03  0.29533998975E+03 -0.20712527145E+04  0.21179443943E+04  0.46999998093E+01 0. -1.
</event>
<event>
 5   0  0.3086139E-05  0.1908035E+04  0.7818609E-02  0.8650867E-01
       -1   -1    0    0    0  501  0.00000000000E+00  0.00000000000E+00  0.11009746865E+04  0.11009746865E+04  0.50400001928E-02 0.  1.
        1   -1    0    0  501    0  0.00000000000E+00  0.00000000000E+00 -0.82667631459E+03  0.82667631461E+03  0.50400001928E-02 0. -1.
    10030    2    1    2    0    0  0.00000000000E+00  0.00000000000E+00  0.27429837189E+03  0.19276510011E+04  0.19080353207E+04 0.  0.
        2    1    3    3  502    0 -0.57370399521E+03  0.11741039873E+03 -0.62373912618E+03  0.85555360637E+03  0.25500000920E-02 0. -1.
       -2    1    3    3    0  502  0.57370399521E+03 -0.11741039873E+03  0.89803749806E+03  0.10720973947E+04  0.25500000920E-02 0.  1.
</event>
<event>
 5   0  0.3147063E-05  0.1903296E+04  0.7818609E-02  0.8653218E-01
        1   -1    0    0  501    0  0.00000000000E+00  0.00000000000E+00  0.11748828847E+04  0.11748828847E+04  0.50400001928E-02 0.  1.
       -1   -1    0    0    0  501  0.00000000000E+00  0.00000000000E+00 -0.77082871315E+03  0.77082871316E+03  0.50400001928E-02 0. -1.
    10030    2    1    2    0    0  0.00000000000E+00  0.00000000000E+00  0.40405417159E+03  0.19457115979E+04  0.19032955232E+04 0.  0.
        5    1    3    3  502    0 -0.10858280176E+03  0.34599249932E+03  0.11014701457E+04  0.11596377048E+04  0.46999998093E+01 0.  1.
       -5    1    3    3    0  502  0.10858280176E+03 -0.34599249932E+03 -0.69741597416E+03  0.78607389311E+03  0.46999998093E+01 0. -1.
</event>
<event>
 5   0  0.6395992E-05  0.1900146E+04  0.7818609E-02  0.8654783E-01
        2   -1    0    0  501    0  0.00000000000E+00  0.00000000000E+00  0.19034989911E+04  0.19034989911E+04  0.25500000920E-02 0.  1.
       -2   -1    0    0    0  501  0.00000000000E+00  0.00000000000E+00 -0.47419997372E+03  0.47419997373E+03  0.25500000920E-02 0. -1.
    10030    2    1    2    0    0  0.00000000000E+00  0.00000000000E+00  0.14292990174E+04  0.23776989649E+04  0.19001464908E+04 0.  0.
        4    1    3    3  502    0  0.25227603107E+03 -0.89192121534E+03  0.45375247408E+03  0.10320172338E+04  0.12699999809E+01 0.  1.
       -4    1    3    3    0  502 -0.25227603107E+03  0.89192121534E+03  0.97554654333E+03  0.13456817311E+04  0.12699999809E+01 0. -1.
</event>
<event>
 5   0  0.3083469E-05  0.1898600E+04  0.7818609E-02  0.8655553E-01
       -1   -1    0    0    0  501  0.00000000000E+00  0.00000000000E+00  0.57417285581E+03  0.57417285583E+03  0.50400001928E-02 0. -1.
        1   -1    0    0  501    0  0.00000000000E+00  0.00000000000E+00 -0.15695114559E+04  0.15695114559E+04  0.50400001928E-02 0.  1.
    10030    2    1    2    0    0  0.00000000000E+00  0.00000000000E+00 -0.99533860012E+03  0.21436843118E+04  0.18986004055E+04 0.  0.
        3    1    3    3  502    0 -0.86052157318E+03 -0.37949464214E+03 -0.35194579515E+03  0.10041809669E+04  0.10100000352E+00 0.  1.
       -3    1    3    3    0  502  0.86052157318E+03  0.37949464214E+03 -0.64339280497E+03  0.11395033449E+04  0.10100000352E+00 0. -1.
</event>
<event>
 5   0  0.3086139E-05  0.1900030E+04  0.7818609E-02  0.8654842E-01
        1   -1    0    0  501    0  0.00000000000E+00  0.00000000000E+00  0.11534907449E+04  0.11534907449E+04  0.50400001928E-02 0. -1.
       -1   -1    0    0    0  501  0.00000000000E+00  0.00000000000E+00 -0.78243202965E+03  0.78243202967E+03  0.50400001928E-02 0.  1.
    10030    2    1    2    0    0  0.00000000000E+00  0.00000000000E+00  0.37105871528E+03  0.19359227746E+04  0.19000295837E+04 0.  0.
        2    1    3    3  502    0 -0.90108184722E+03  0.30060563122E+03  0.17055950178E+03  0.96509211196E+03  0.25500000920E-02 0.  1.
       -2    1    3    3    0  502  0.90108184722E+03 -0.30060563122E+03  0.20049921350E+03  0.97083066265E+03  0.25500000920E-02 0. -1.
</event>
<event>
 5   0  0.6423388E-05  0.1901476E+04  0.7818609E-02  0.8654122E-01
       -2   -1    0    0    0  501  0.00000000000E+00  0.00000000000E+00  0.38355227058E+03  0.38355227059E+03  0.25500000920E-02 0.  1.
        2   -1    0    0  501    0  0.00000000000E+00  0.00000000000E+00 -0.23566600775E+04  0.23566600775E+04  0.25500000920E-02 0. -1.
    10030    2    1    2    0    0  0.00000000000E+00  0.00000000000E+00 -0.19731078070E+04  0.27402123481E+04  0.19014755573E+04 0.  0.
        2    1    3    3  502    0 -0.78107529010E+03  0.40801369880E+03 -0.15008230281E+04  0.17404090177E+04  0.25500000920E-02 0. -1.
       -2    1    3    3    0  502  0.78107529010E+03 -0.40801369880E+03 -0.47228477889E+03  0.99980333046E+03  0.25500000920E-02 0.  1.
</event>
<event>
 5   0  0.6098377E-05  0.1890873E+04  0.7818609E-02  0.8659413E-01
       -2   -1    0    0    0  501  0.00000000000E+00  0.00000000000E+00  0.98551072995E+03  0.98551072996E+03  0.25500000920E-02 0. -1.
        2   -1    0    0  501    0  0.00000000000E+00  0.00000000000E+00 -0.90699205844E+03  0.90699205845E+03  0.25500000920E-02 0.  1.
    10030    2    1    2    0    0  0.00000000000E+00  0.00000000000E+00  0.78518671510E+02  0.18925027884E+04  0.18908732433E+04 0.  0.
        5    1    3    3  502    0  0.75500253436E+03 -0.41472970505E+03 -0.35069003532E+03  0.93007265631E+03  0.46999998093E+01 0.  1.
       -5    1    3    3    0  502 -0.75500253436E+03  0.41472970505E+03  0.42920870683E+03  0.96243013209E+03  0.46999998093E+01 0. -1.
</event>
<event>
 5   0  0.3144958E-05  0.1900694E+04  0.7818609E-02  0.8654511E-01
       -1   -1    0    0    0  501  0.00000000000E+00  0.00000000000E+00  0.17038339396E+04  0.17038339396E+04  0.50400001928E-02 0. -1.
        1   -1    0    0  501    0  0.00000000000E+00  0.00000000000E+00 -0.53007479445E+03  0.53007479448E+03  0.50400001928E-02 0.  1.
    10030    2    1    2    0    0  0.00000000000E+00  0.00000000000E+00  0.11737591452E+04  0.22339087341E+04  0.19006940052E+04 0.  0.
        4    1    3    3  502    0 -0.48355677631E+03  0.64343947745E+03 -0.69919334259E+01  0.80491739768E+03  0.12699999809E+01 0.  1.
       -4    1    3    3    0  502  0.48355677631E+03 -0.64343947745E+03  0.11807510786E+04  0.14289913364E+04  0.12699999809E+01 0. -1.
</event>
<event>
 5   0  0.6098377E-05  0.1894338E+04  0.7818609E-02  0.8657680E-01
        2   -1    0    0  501    0  0.00000000000E+00  0.00000000000E+00  0.69066708449E+03  0.69066708449E+03  0.25500000920E-02 0.  1.
       -2   -1    0    0    0  501  0.00000000000E+00  0.00000000000E+00 -0.12989307071E+04  0.12989307071E+04  0.25500000920E-02 0. -1.
    10030    2    1    2    0    0  0.00000000000E+00  0.00000000000E+00 -0.60826362263E+03  0.19895977916E+04  0.18943375459E+04 0.  0.
        5    1    3    3  502    0  0.70534259191E+03 -0.19750366972E+03  0.32655710347E+03  0.80198348071E+03  0.46999998093E+01 0.  1.
       -5    1    3    3    0  502 -0.70534259191E+03  0.19750366972E+03 -0.93482072611E+03  0.11876143109E+04  0.46999998093E+01 0. -1.
</event>
<event>
 5   0  0.3083469E-05  0.1903855E+04  0.7818609E-02  0.8652940E-01
        1   -1    0    0  501    0  0.00000000000E+00  0.00000000000E+00  0.16425531697E+04  0.16425531697E+04  0.50400001928E-02 0.  1.
       -1   -1    0    0    0  501  0.00000000000E+00  0.00000000000E+00 -0.55168147786E+03  0.55168147788E+03  0.50400001928E-02 0. -1.
    10030    2    1    2    0    0  0.00000000000E+00  0.00000000000E+00  0.10908716918E+04  0.21942346476E+04  0.19038552047E+04 0.  0.
        3    1    3    3  502    0  0.92136623039E+03 -0.40381768448E+02  0.27362699181E+03  0.96198656881E+03  0.10100000352E+00 0. -1.
       -3    1    3    3    0  502 -0.92136623039E+03  0.40381768448E+02  0.81724470003E+03  0.12322480788E+04  0.10100000352E+00 0.  1.
</event>
<event>
 5   0  0.6423388E-05  0.1897097E+04  0.7818609E-02  0.8656303E-01
        2   -1    0    0  501    0  0.00000000000E+00  0.00000000000E+00  0.16648077392E+04  0.16648077392E+04  0.25500000920E-02 0.  1.
       -2   -1    0    0    0  501  0.00000000000E+00  0.00000000000E+00 -0.54044936793E+03  0.54044936793E+03  0.25500000920E-02 0. -1.
    10030    2    1    2    0    0  0.00000000000E+00  0.00000000000E+00  0.11243583712E+04  0.22052571071E+04  0.18970970353E+04 0.  0.
        2    1    3    3  502    0 -0.22659808430E+03 -0.90217652572E+02 -0.50337639916E+03  0.55935115614E+03  0.25500000920E-02 0. -1.
       -2    1    3    3    0  502  0.22659808430E+03  0.90217652572E+02  0.16277347704E+04  0.16459059510E+04  0.25500000920E-02 0.  1.
</event>
<event>
 5   0  0.6452182E-05  0.1900395E+04  0.7818609E-02  0.8654660E-01
        2   -1    0    0  501    0  0.00000000000E+00  0.00000000000E+00  0.81168843949E+03  0.81168843950E+03  0.25500000920E-02 0.  1.
       -2   -1    0    0    0  501  0.00000000000E+00  0.00000000000E+00 -0.11123423521E+04  0.11123423521E+04  0.25500000920E-02 0. -1.
    10030    2    1    2    0    0  0.00000000000E+00  0.00000000000E+00 -0.30065391263E+03  0.19240307916E+04  0.19003951463E+04 0.  0.
        3    1    3    3  502    0  0.79012561702E+03  0.60867902658E+02 -0.68112996633E+03  0.10449600153E+04  0.10100000352E+00 0. -1.
       -3    1    3    3    0  502 -0.79012561702E+03 -0.60867902658E+02  0.38047605370E+03  0.87907077638E+03  0.10100000352E+00 0.  1.
</event>
<event>
 5   0  0.6361762E-05  0.1904827E+04  0.7818609E-02  0.8652457E-01
       -2   -1    0    0    0  501  0.00000000000E+00  0.00000000000E+00  0.63169706015E+03  0.63169706016E+03  0.25500000920E-02 0.  1.
        2   -1    0    0  501    0  0.00000000000E+00  0.00000000000E+00 -0.14359603116E+04  0.14359603116E+04  0.25500000920E-02 0. -1.
    10030    2    1    2    0    0  0.00000000000E+00  0.00000000000E+00 -0.80426325140E+03  0.20676573717E+04  0.19048274539E+04 0.  0.
        1    1    3    3  502    0 -0.75756184632E+03  0.38617021459E+03 -0.86783348895E+03  0.12149742179E+04  0.50400001928E-02 0. -1.
       -1    1    3    3    0  502  0.75756184632E+03 -0.38617021459E+03  0.63570237549E+02  0.85268315380E+03  0.50400001928E-02 0.  1.
</event>
<event>
 5   0  0.3203527E-05  0.1900955E+04  0.7818609E-02  0.8654381E-01
       -1   -1    0    0    0  501  0.00000000000E+00  0.00000000000E+00  0.59825909150E+03  0.59825909152E+03  0.50400001928E-02 0. -1.
        1   -1    0    0  501    0  0.00000000000E+00  0.00000000000E+00 -0.15100600223E+04  0.15100600223E+04  0.50400001928E-02 0.  1.
    10030    2    1    2    0    0  0.00000000000E+00  0.00000000000E+00 -0.91180093077E+03  0.21083191138E+04  0.19009546413E+04 0.  0.
        1    1    3    3  502    0 -0.80556573715E+03 -0.37614130097E+02  0.10202096864E+03  0.81287099697E+03  0.50400001928E-02 0. -1.
       -1    1    3    3    0  502  0.80556573715E+03  0.37614130097E+02 -0.10138218994E+04  0.12954481168E+04  0.50400001928E-02 0.  1.
</event>
<event>
 5   0  0.6452182E-05  0.1897390E+04  0.7818609E-02  0.8656157E-01
       -2   -1    0    0    0  501  0.00000000000E+00  0.00000000000E+00  0.76029010256E+03  0.76029010257E+03  0.25500000920E-02 0.  1.
        2   -1    0    0  501    0  0.00000000000E+00  0.00000000000E+00 -0.11837877695E+04  0.11837877695E+04  0.25500000920E-02 0. -1.
    10030    2    1    2    0    0  0.00000000000E+00  0.00000000000E+00 -0.42349766690E+03  0.19440778720E+04  0.18973899174E+04 0.  0.
        3    1    3    3  502    0 -0.15419686542E+03 -0.50508839135E+03  0.59576268589E+03  0.79613073328E+03  0.10100000352E+00 0.  1.
       -3    1    3    3    0  502  0.15419686542E+03  0.50508839135E+03 -0.10192603528E+04  0.11479471387E+04  0.10100000352E+00 0. -1.
</event>
<event>
 5   0  0.3144958E-05  0.1902416E+04  0.7818609E-02  0.8653655E-01
        1   -1    0    0  501    0  0.00000000000E+00  0.00000000000E+00  0.71873956215E+03  0.71873956217E+03  0.50400001928E-02 0. -1.
       -1   -1    0    0    0  501  0.00000000000E+00  0.00000000000E+00 -0.12588662041E+04  0.12588662041E+04  0.50400001928E-02 0.  1.
    10030    2    1    2    0    0  0.00000000000E+00  0.00000000000E+00 -0.54012664195E+03  0.19776057663E+04  0.19024162997E+04 0.  0.
        4    1    3    3  502    0 -0.12914118009E+03  0.27093897118E+03 -0.12083502677E+04  0.12450692161E+04  0.12699999809E+01 0.  1.
       -4    1    3    3    0  502  0.12914118009E+03 -0.27093897118E+03  0.66822362574E+03  0.73253655021E+03  0.12699999809E+01 0. -1.
</event>
<event>
 5   0  0.6098377E-05  0.1899766E+04  0.7818609E-02  0.8654973E-01
        2   -1    0    0  501    0  0.00000000000E+00  0.00000000000E+00  0.79508624408E+03  0.79508624408E+03  0.25500000920E-02 0.  1.
       -2   -1    0    0    0  501  0.00000000000E+00  0.00000000000E+00 -0.11348176515E+04  0.11348176515E+04  0.25500000920E-02 0. -1.
    10030    2    1    2    0    0  0.00000000000E+00  0.00000000000E+00 -0.33973140739E+03  0.19299038955E+04  0.18997662006E+04 0.  0.
        5    1    3    3  502    0 -0.30856645528E+03 -0.55034339923E+03 -0.89117535501E+03  0.10919279820E+04  0.46999998093E+01 0. -1.
       -5    1    3    3    0  502  0.30856645528E+03  0.55034339923E+03  0.55144394762E+03  0.83797591359E+03  0.46999998093E+01 0.  1.
</event>
<event>
 5   0  0.3144958E-05  0.1907827E+04  0.7818609E-02  0.8650970E-01
        1   -1    0    0  501    0  0.00000000000E+00  0.00000000000E+00  0.70486929265E+03  0.70486929267E+03  0.50400001928E-02 0.  1.
       -1   -1    0    0    0  501  0.00000000000E+00  0.00000000000E+00 -0.12909501671E+04  0.12909501671E+04  0.50400001928E-02 0. -1.
    10030    2    1    2    0    0  0.00000000000E+00  0.00000000000E+00 -0.58608087441E+03  0.19958194597E+04  0.19078271737E+04 0.  0.
        4    1    3    3  502    0  0.15002999118E+03  0.25144460718E+03 -0.12427761677E+04  0.12768036672E+04  0.12699999809E+01 0. -1.
       -4    1    3    3    0  502 -0.15002999118E+03 -0.25144460718E+03  0.65669529330E+03  0.71901579251E+03  0.12699999809E+01 0.  1.
</event>
<event>
 5   0  0.3083469E-05  0.1896691E+04  0.7818609E-02  0.8656505E-01
       -1   -1    0    0    0  501  0.00000000000E+00  0.00000000000E+00  0.51646960126E+03  0.51646960128E+03  0.50400001928E-02 0. -1.
        1   -1    0    0  501    0  0.00000000000E+00  0.00000000000E+00 -0.17413584768E+04  0.17413584768E+04  0.50400001928E-02 0.  1.
    10030    2    1    2    0    0  0.00000000000E+00  0.00000000000E+00 -0.12248888755E+04  0.22578280781E+04  0.18966905053E+04 0.  0.
        3    1    3    3  502    0  0.26478640403E+03  0.90468599583E+03 -0.48879063408E+03  0.10618309117E+04  0.10100000352E+00 0.  1.
       -3    1    3    3    0  502 -0.26478640403E+03 -0.90468599583E+03 -0.73609824147E+03  0.11959971664E+04  0.10100000352E+00 0. -1.
</event>
<event>
 5   0  0.6361762E-05  0.1896819E+04  0.7818609E-02  0.8656442E-01
        2   -1    0    0  501    0  0.00000000000E+00  0.00000000000E+00  0.18084986274E+04  0.18084986274E+04  0.25500000920E-02 0.  1.
       -2   -1    0    0    0  501  0.00000000000E+00  0.00000000000E+00 -0.49736300999E+03  0.49736301000E+03  0.25500000920E-02 0. -1.
    10030    2    1    2    0    0  0.00000000000E+00  0.00000000000E+00  0.13111356174E+04  0.23058616374E+04  0.18968187272E+04 0.  0.
        1    1    3    3  502    0 -0.46442540531E+03  0.79216170299E+03  0.94393296733E+03  0.13168980855E+04  0.50400001928E-02 0.  1.
       -1    1    3    3    0  502  0.46442540531E+03 -0.79216170299E+03  0.36720265011E+03  0.98896355193E+03  0.50400001928E-02 0. -1.
</event>
<event>
 5   0  0.6395992E-05  0.1895543E+04  0.7818609E-02  0.8657078E-01
        2   -1    0    0  501    0  0.00000000000E+00  0.00000000000E+00  0.80219086476E+03  0.80219086476E+03  0.25500000920E-02 0. -1.
       -2   -1    0    0    0  501  0.00000000000E+00  0.00000000000E+00 -0.11197719460E+04  0.11197719460E+04  0.25500000920E-02 0.  1.
    10030    2    1    2    0    0  0.00000000000E+00  0.00000000000E+00 -0.31758108125E+03  0.19219628108E+04  0.18955430100E+04 0.  0.
        4    1    3    3  502    0  0.25641775868E+03  0.73138688649E+03 -0.71191419514E+03  0.10523783915E+04  0.12699999809E+01 0.  1.
       -4    1    3    3    0  502 -0.25641775868E+03 -0.73138688649E+03  0.39433311389E+03  0.86958441931E+03  0.12699999809E+01 0. -1.
</event>
<event>
 5   0  0.6452182E-05  0.1904998E+04  0.7818609E-02  0.8652372E-01
       -2   -1    0    0    0  501  0.00000000000E+00  0.00000000000E+00  0.46712656763E+03  0.46712656764E+03  0.25500000920E-02 0.  1.
        2   -1    0    0  501    0  0.00000000000E+00  0.00000000000E+00 -0.19422030556E+04  0.19422030556E+04  0.25500000920E-02 0. -1.
    10030    2    1    2    0    0  0.00000000000E+00  0.00000000000E+00 -0.14750764880E+04  0.24093296233E+04  0.19049983171E+04 0.  0.
        3    1    3    3  502    0  0.34886786529E+03  0.13408858462E+03  0.37051216178E+03  0.52627731111E+03  0.10100000352E+00 0.  1.
       -3    1    3    3    0  502 -0.34886786529E+03 -0.13408858462E+03 -0.18455886498E+04  0.18830523122E+04  0.10100000352E+00 0. -1.
</event>
<event>
 5   0  0.3144958E-05  0.1894566E+04  0.7818609E-02  0.8657566E-01
       -1   -1    0    0    0  501  0.00000000000E+00  0.00000000000E+00  0.44513680521E+03  0.44513680524E+03  0.50400001928E-02 0. -1.
        1   -1    0    0  501    0  0.00000000000E+00  0.00000000000E+00 -0.20158861727E+04  0.20158861727E+04  0.50400001928E-02 0.  1.
    10030    2    1    2    0    0  0.00000000000E+00  0.00000000000E+00 -0.15707493675E+04  0.24610229779E+04  0.18945660512E+04 0.  0.
        4    1    3    3  502    0 -0.73425848483E+03 -0.58787670436E+03 -0.63951145565E+03  0.11374141976E+04  0.12699999809E+01 0. -1.
       -4    1    3    3    0  502  0.73425848483E+03  0.58787670436E+03 -0.93123791185E+03  0.13236087804E+04  0.12699999809E+01 0.  1.
</event>
<event>
 5   0  0.3086139E-05  0.1908532E+04  0.7818609E-02  0.8650621E-01
       -1   -1    0    0    0  501  0.00000000000E+00  0.00000000000E+00  0.55217393167E+03  0.55217393169E+03  0.50400001928E-02 0.  1.
        1   -1    0    0  501    0  0.00000000000E+00  0.00000000000E+00 -0.16491603999E+04  0.16491603999E+04  0.50400001928E-02 0. -1.
    10030    2    1    2    0    0  0.00000000000E+00  0.00000000000E+00 -0.10969864682E+04  0.22013343316E+04  0.19085317728E+04 0.  0.
        2    1    3    3  502    0 -0.37727614443E+03  0.29481841162E+03  0.40359575347E+03  0.62621459358E+03  0.25500000920E-02 0.  1.
       -2    1    3    3    0  502  0.37727614443E+03 -0.29481841162E+03 -0.15005822217E+04  0.15751197380E+04  0.25500000920E-02 0. -1.
</event>
<event>
 5   0  0.6098377E-05  0.2020518E+04  0.7818609E-02  0.8597087E-01
       -2   -1    0    0    0  501  0.00000000000E+00  0.00000000000E+00  0.13954515818E+04  0.13954515818E+04  0.25500000920E-02 0. -1.
        2   -1    0    0  501    0  0.00000000000E+00  0.00000000000E+00 -0.73139310950E+03  0.73139310950E+03  0.25500000920E-02 0.  1.
    10030    2    1    2    0    0  0.00000000000E+00  0.00000000000E+00  0.66405847227E+03  0.21268446913E+04  0.20205184202E+04 0.  0.
        5    1    3    3  502    0 -0.29782580690E+03  0.76109670838E+03  0.95710771209E+03  0.12585887626E+04  0.46999998093E+01 0. -1.
       -5    1    3    3    0  502  0.29782580690E+03 -0.76109670838E+03 -0.29304923982E+03  0.86825592870E+03  0.46999998093E+01 0.  1.
</event>
<event>
 5   0  0.3203527E-05  0.1904178E+04  0.7818609E-02  0.8652780E-01
       -1   -1    0    0    0  501  0.00000000000E+00  0.00000000000E+00  0.89512561506E+03  0.89512561508E+03  0.50400001928E-02 0. -1.
        1   -1    0    0  501    0  0.00000000000E+00  0.00000000000E+00 -0.10126771873E+04  0.10126771873E+04  0.50400001928E-02 0.  1.
    10030    2    1    2    0    0  0.00000000000E+00  0.00000000000E+00 -0.11755157224E+03  0.19078028024E+04  0.19041778175E+04 0.  0.
        1    1    3    3  502    0 -0.64587908192E+03  0.69018256544E+03 -0.17284122677E+03  0.96092968099E+03  0.50400001928E-02 0. -1.
       -1    1    3    3    0  502  0.64587908192E+03 -0.69018256544E+03  0.55289654536E+02  0.94687312140E+03  0.50400001928E-02 0.  1.
</event>
<event>
 5   0  0.6452182E-05  0.1898936E+04  0.7818609E-02  0.8655386E-01
       -2   -1    0    0    0  501  0.00000000000E+00  0.00000000000E+00  0.51415141620E+03  0.51415141621E+03  0.25500000920E-02 0.  1.
        2   -1    0    0  501    0  0.00000000000E+00  0.00000000000E+00 -0.17533548726E+04  0.17533548726E+04  0.25500000920E-02 0. -1.
    10030    2    1    2    0    0  0.00000000000E+00  0.00000000000E+00 -0.12392034564E+04  0.22675062889E+04  0.18989364296E+04 0.  0.
        3    1    3    3  502    0 -0.87493543148E+03 -0.36333626751E+03 -0.69478813031E+03  0.11748428868E+04  0.10100000352E+00 0.  1.
       -3    1    3    3    0  502  0.87493543148E+03  0.36333626751E+03 -0.54441532613E+03  0.10926634020E+04  0.10100000352E+00 0. -1.
</event>
<event>
 5   0  0.3086139E-05  0.1888318E+04  0.7818609E-02  0.8660693E-01
       -1   -1    0    0    0  501  0.00000000000E+00  0.00000000000E+00  0.10285207611E+04  0.10285207611E+04  0.50400001928E-02 0. -1.
        1   -1    0    0  501    0  0.00000000000E+00  0.00000000000E+00 -0.86671642030E+03  0.86671642031E+03  0.50400001928E-02 0.  1.
    10030    2    1    2    0    0  0.00000000000E+00  0.00000000000E+00  0.16180434082E+03  0.18952371814E+04  0.18883175922E+04 0.  0.
        2    1    3    3  502    0  0.17983317148E+03  0.69663305359E+03  0.69453298652E+03  0.10000068251E+04  0.25500000920E-02 0. -1.
       -2    1    3    3    0  502 -0.17983317148E+03 -0.69663305359E+03 -0.53272864570E+03  0.89523035632E+03  0.25500000920E-02 0.  1.
</event>
<event>
 5   0  0.3144958E-05  0.1897748E+04  0.7818609E-02  0.8655978E-01
       -1   -1    0    0    0  501  0.00000000000E+00  0.00000000000E+00  0.73683549577E+03  0.73683549578E+03  0.50400001928E-02 0. -1.
        1   -1    0    0  501    0  0.00000000000E+00  0.00000000000E+00 -0.12219306488E+04  0.12219306488E+04  0.50400001928E-02 0.  1.
    10030    2    1    2    0    0  0.00000000000E+00  0.00000000000E+00 -0.48509515301E+03  0.19587661446E+04  0.18977480079E+04 0.  0.
        4    1    3    3  502    0  0.78826999598E+03 -0.42129426567E+03  0.86289633326E+02  0.89794540957E+03  0.12699999809E+01 0. -1.
       -4    1    3    3    0  502 -0.78826999598E+03  0.42129426567E+03 -0.57138478634E+03  0.10608207350E+04  0.12699999809E+01 0.  1.
</event>
<event>
 5   0  0.2279625E-05  0.1915013E+04  0.7818609E-02  0.8647419E-01
        3   -1    0    0  501    0  0.00000000000E+00  0.00000000000E+00  0.40531099115E+03  0.40531100373E+03  0.10100000352E+00 0.  1.
       -3   -1    0    0    0  501  0.00000000000E+00  0.00000000000E+00 -0.22620136751E+04  0.22620136774E+04  0.10100000352E+00 0. -1.
    10030    2    1    2    0    0  0.00000000000E+00  0.00000000000E+00 -0.18567026840E+04  0.26673246811E+04  0.19150133414E+04 0.  0.
        1    1    3    3  502    0  0.32820962389E+03  0.48676321466E+03  0.12521639205E+03  0.60028254116E+03  0.50400001928E-02 0.  1.
       -1    1    3    3    0  502 -0.32820962389E+03 -0.48676321466E+03 -0.19819190760E+04  0.20670421399E+04  0.50400001928E-02 0. -1.
</event>
<event>
 5   0  0.6395992E-05  0.1909182E+04  0.7818609E-02  0.8650299E-01
       -2   -1    0    0    0  501  0.00000000000E+00  0.00000000000E+00  0.87444671807E+03  0.87444671808E+03  0.25500000920E-02 0. -1.
        2   -1    0    0  501    0  0.00000000000E+00  0.00000000000E+00 -0.10420807161E+04  0.10420807161E+04  0.25500000920E-02 0.  1.
    10030    2    1    2    0    0  0.00000000000E+00  0.00000000000E+00 -0.16763399798E+03  0.19165274341E+04  0.19091820889E+04 0.  0.
        4    1    3    3  502    0  0.76336251614E+03  0.42200765370E+03 -0.47316183926E+03  0.99231876423E+03  0.12699999809E+01 0.  1.
       -4    1    3    3    0  502 -0.76336251614E+03 -0.42200765370E+03  0.30552784128E+03  0.92420866990E+03  0.12699999809E+01 0. -1.
</event>
<event>
 5   0  0.3147063E-05  0.1901418E+04  0.7818609E-02  0.8654151E-01
       -1   -1    0    0    0  501  0.00000000000E+00  0.00000000000E+00  0.71682113689E+03  0.71682113691E+03  0.50400001928E-02 0. -1.
        1   -1    0    0  501    0  0.00000000000E+00  0.00000000000E+00 -0.12609108548E+04  0.12609108548E+04  0.50400001928E-02 0.  1.
    10030    2    1    2    0    0  0.00000000000E+00  0.00000000000E+00 -0.54408971793E+03  0.19777319917E+04  0.19014179472E+04 0.  0.
        5    1    3    3  502    0 -0.43738432432E+03 -0.68204118042E+03 -0.78933862170E+03  0.11311776026E+04  0.46999998093E+01 0.  1.
       -5    1    3    3    0  502  0.43738432432E+03  0.68204118042E+03  0.24524890377E+03  0.84655438912E+03  0.46999998093E+01 0. -1.
</event>
<event>
 5   0  0.6423388E-05  0.1898676E+04  0.7818609E-02  0.8655515E-01
        2   -1    0    0  501    0  0.00000000000E+00  0.00000000000E+00  0.10764465239E+04  0.10764465239E+04  0.25500000920E-02 0.  1.
       -2   -1    0    0    0  501  0.00000000000E+00  0.00000000000E+00 -0.83723905128E+03  0.83723905129E+03  0.25500000920E-02 0. -1.
    10030    2    1    2    0    0  0.00000000000E+00  0.00000000000E+00  0.23920747259E+03  0.19136855752E+04  0.18986764510E+04 0.  0.
        2    1    3    3  502    0 -0.19188621235E+03  0.58473165692E+03  0.84816756033E+03  0.10479120381E+04  0.25500000920E-02 0.  1.
       -2    1    3    3    0  502  0.19188621235E+03 -0.58473165692E+03 -0.60896008774E+03  0.86577353711E+03  0.25500000920E-02 0. -1.
</event>
<event>
 5   0  0.3144958E-05  0.1916411E+04  0.7818609E-02  0.8646731E-01
       -1   -1    0    0    0  501  0.00000000000E+00  0.00000000000E+00  0.44737386396E+03  0.44737386399E+03  0.50400001928E-02 0. -1.
        1   -1    0    0  501    0  0.00000000000E+00  0.00000000000E+00 -0.20523268282E+04  0.20523268282E+04  0.50400001928E-02 0.  1.
    10030    2    1    2    0    0  0.00000000000E+00  0.00000000000E+00 -0.16049529643E+04  0.24997006922E+04  0.19164105858E+04 0.  0.
        4    1    3    3  502    0  0.45707691449E+03  0.30061036944E+02  0.29531062334E+03  0.54500729248E+03  0.12699999809E+01 0. -1.
       -4    1    3    3    0  502 -0.45707691449E+03 -0.30061036944E+02 -0.19002635876E+04  0.19546933997E+04  0.12699999809E+01 0.  1.
</event>
<event>
 5   0  0.3203527E-05  0.1901125E+04  0.7818609E-02  0.8654297E-01
        1   -1    0    0  501    0  0.00000000000E+00  0.00000000000E+00  0.88560700506E+03  0.88560700507E+03  0.50400001928E-02 0.  1.
       -1   -1    0    0    0  501  0.00000000000E+00  0.00000000000E+00 -0.10202823687E+04  0.10202823687E+04  0.50400001928E-02 0. -1.
    10030    2    1    2    0    0  0.00000000000E+00  0.00000000000E+00 -0.13467536365E+03  0.19058893738E+04  0.19011251541E+04 0.  0.
        1    1    3    3  502    0  0.88067183406E+03  0.16324981007E+02  0.29093702065E+03  0.92762801505E+03  0.50400001928E-02 0.  1.
       -1    1    3    3    0  502 -0.88067183406E+03 -0.16324981007E+02 -0.42561238429E+03  0.97826135873E+03  0.50400001928E-02 0. -1.
</event>
<event>
 5   0  0.6423388E-05  0.1890894E+04  0.7818609E-02  0.8659402E-01
       -2   -1    0    0    0  501  0.00000000000E+00  0.00000000000E+00  0.47179917141E+03  0.47179917141E+03  0.25500000920E-02 0.  1.
        2   -1    0    0  501    0  0.00000000000E+00  0.00000000000E+00 -0.18945985826E+04  0.18945985826E+04  0.25500000920E-02 0. -1.
    10030    2    1    2    0    0  0.00000000000E+00  0.00000000000E+00 -0.14227994111E+04  0.23663977540E+04  0.18908940123E+04 0.  0.
        2    1    3    3  502    0 -0.17524069211E+03  0.19257829295E+03 -0.18488439684E+04  0.18670885674E+04  0.25500000920E-02 0. -1.
       -2    1    3    3    0  502  0.17524069211E+03 -0.19257829295E+03  0.42604455721E+03  0.49930918660E+03  0.25500000920E-02 0.  1.
</event>
<event>
 5   0  0.6361762E-05  0.1844488E+04  0.7818609E-02  0.8682993E-01
       -2   -1    0    0    0  501  0.00000000000E+00  0.00000000000E+00  0.63681132595E+03  0.63681132595E+03  0.25500000920E-02 0. -1.
        2   -1    0    0  501    0  0.00000000000E+00  0.00000000000E+00 -0.13356132702E+04  0.13356132702E+04  0.25500000920E-02 0.  1.
    10030    2    1    2    0    0  0.00000000000E+00  0.00000000000E+00 -0.69880194422E+03  0.19724245961E+04  0.18444876335E+04 0.  0.
        1    1    3    3  502    0  0.91647492065E+02  0.42550631565E+03 -0.12188642956E+04  0.12942507712E+04  0.50400001928E-02 0.  1.
       -1    1    3    3    0  502 -0.91647492065E+02 -0.42550631565E+03  0.52006235142E+03  0.67817382495E+03  0.50400001928E-02 0. -1.
</event>
<event>
 5   0  0.3086139E-05  0.1897696E+04  0.7818609E-02  0.8656004E-01
        1   -1    0    0  501    0  0.00000000000E+00  0.00000000000E+00  0.92604763932E+03  0.92604763933E+03  0.50400001928E-02 0.  1.
       -1   -1    0    0    0  501  0.00000000000E+00  0.00000000000E+00 -0.97221024051E+03  0.97221024052E+03  0.50400001928E-02 0. -1.
    10030    2    1    2    0    0  0.00000000000E+00  0.00000000000E+00 -0.46162601188E+02  0.18982578799E+04  0.18976964965E+04 0.  0.
        2    1    3    3  502    0  0.88037580575E+03 -0.33593314319E+03  0.88308554633E+02  0.94642011647E+03  0.25500000920E-02 0.  1.
       -2    1    3    3    0  502 -0.88037580575E+03  0.33593314319E+03 -0.13447115582E+03  0.95183776338E+03  0.25500000920E-02 0. -1.
</event>
<event>
 5   0  0.3203527E-05  0.1895437E+04  0.7818609E-02  0.8657131E-01
       -1   -1    0    0    0  501  0.00000000000E+00  0.00000000000E+00  0.50907060160E+03  0.50907060163E+03  0.50400001928E-02 0.  1.
        1   -1    0    0  501    0  0.00000000000E+00  0.00000000000E+00 -0.17643335518E+04  0.17643335518E+04  0.50400001928E-02 0. -1.
    10030    2    1    2    0    0  0.00000000000E+00  0.00000000000E+00 -0.12552629502E+04  0.22734041534E+04  0.18954369867E+04 0.  0.
        1    1    3    3  502    0  0.78530809884E+03  0.52171573307E+03 -0.51212504940E+03  0.10729250591E+04  0.50400001928E-02 0.  1.
       -1    1    3    3    0  502 -0.78530809884E+03 -0.52171573307E+03 -0.74313790077E+03  0.12004790943E+04  0.50400001928E-02 0. -1.
</event>
<event>
 5   0  0.3144958E-05  0.1899089E+04  0.7818609E-02  0.8655310E-01
       -1   -1    0    0    0  501  0.00000000000E+00  0.00000000000E+00  0.18772511278E+04  0.18772511278E+04  0.50400001928E-02 0.  1.
        1   -1    0    0  501    0  0.00000000000E+00  0.00000000000E+00 -0.48029520604E+03  0.48029520607E+03  0.50400001928E-02 0. -1.
    10030    2    1    2    0    0  0.00000000000E+00  0.00000000000E+00  0.13969559218E+04  0.23575463339E+04  0.18990889576E+04 0.  0.
        4    1    3    3  502    0 -0.31456782371E+03  0.76519734956E+03  0.12769708833E+04  0.15215571462E+04  0.12699999809E+01 0. -1.
       -4    1    3    3    0  502  0.31456782371E+03 -0.76519734956E+03  0.11998503842E+03  0.83598918763E+03  0.12699999809E+01 0.  1.
</event>
<event>
 5   0  0.6395992E-05  0.1907211E+04  0.7818609E-02  0.8651275E-01
       -2   -1    0    0    0  501  0.00000000000E+00  0.00000000000E+00  0.93412742877E+03  0.93412742878E+03  0.25500000920E-02 0. -1.
        2   -1    0    0  501    0  0.00000000000E+00  0.00000000000E+00 -0.97348979896E+03  0.97348979896E+03  0.25500000920E-02 0.  1.
    10030    2    1    2    0    0  0.00000000000E+00  0.00000000000E+00 -0.39362370181E+02  0.19076172277E+04  0.19072110768E+04 0.  0.
        4    1    3    3  502    0 -0.55014163935E+03 -0.75704262670E+03  0.16364054549E+03  0.95002589597E+03  0.12699999809E+01 0. -1.
       -4    1    3    3    0  502  0.55014163935E+03  0.75704262670E+03 -0.20300291567E+03  0.95759133176E+03  0.12699999809E+01 0.  1.
</event>
<event>
 5   0  0.3083469E-05  0.1900602E+04  0.7818609E-02  0.8654557E-01
        1   -1    0    0  501    0  0.00000000000E+00  0.00000000000E+00  0.11723342574E+04  0.11723342574E+04  0.50400001928E-02 0. -1.
       -1   -1    0    0    0  501  0.00000000000E+00  0.00000000000E+00 -0.77031989704E+03  0.77031989705E+03  0.50400001928E-02 0.  1.
    10030    2    1    2    0    0  0.00000000000E+00  0.00000000000E+00  0.40201436038E+03  0.19426541545E+04  0.19006024355E+04 0.  0.
        3    1    3    3  502    0 -0.15759902660E+03  0.86513762714E+03  0.56921619711E+03  0.10475245373E+04  0.10100000352E+00 0. -1.
       -3    1    3    3    0  502  0.15759902660E+03 -0.86513762714E+03 -0.16720183673E+03  0.89512961714E+03  0.10100000352E+00 0.  1.
</event>
<event>
 5   0  0.3203527E-05  0.1876755E+04  0.7818609E-02  0.8666514E-01
       -1   -1    0    0    0  501  0.00000000000E+00  0.00000000000E+00  0.62293541359E+03  0.62293541361E+03  0.50400001928E-02 0.  1.
        1   -1    0    0  501    0  0.00000000000E+00  0.00000000000E+00 -0.14135525222E+04  0.14135525222E+04  0.50400001928E-02 0. -1.
    10030    2    1    2    0    0  0.00000000000E+00  0.00000000000E+00 -0.79061710861E+03  0.20364879358E+04  0.18767545658E+04 0.  0.
        1    1    3    3  502    0 -0.67400484651E+03 -0.65279414970E+03 -0.38297498211E+03  0.10134557573E+04  0.50400001928E-02 0. -1.
       -1    1    3    3    0  502  0.67400484651E+03  0.65279414970E+03 -0.40764212650E+03  0.10230321785E+04  0.50400001928E-02 0.  1.
</event>
<event>
 5   0  0.3203527E-05  0.1907221E+04  0.7818609E-02  0.8651270E-01
        1   -1    0    0  501    0  0.00000000000E+00  0.00000000000E+00  0.12207683580E+04  0.12207683580E+04  0.50400001928E-02 0. -1.
       -1   -1    0    0    0  501  0.00000000000E+00  0.00000000000E+00 -0.74491873852E+03  0.74491873853E+03  0.50400001928E-02 0.  1.
    10030    2    1    2    0    0  0.00000000000E+00  0.00000000000E+00  0.47584961947E+03  0.19656870965E+04  0.19072212512E+04 0.  0.
        1    1    3    3  502    0 -0.51021465460E+03 -0.73064059823E+03 -0.11191925312E+03  0.89815399392E+03  0.50400001928E-02 0.  1.
       -1    1    3    3    0  502  0.51021465460E+03  0.73064059823E+03  0.58776887260E+03  0.10675331026E+04  0.50400001928E-02 0. -1.
</event>
<event>
 5   0  0.6395992E-05  0.1926161E+04  0.7818609E-02  0.8641943E-01
       -2   -1    0    0    0  501  0.00000000000E+00  0.00000000000E+00  0.76938586500E+03  0.76938586501E+03  0.25500000920E-02 0.  1.
        2   -1    0    0  501    0  0.00000000000E+00  0.00000000000E+00 -0.12055378985E+04  0.12055378985E+04  0.25500000920E-02 0. -1.
    10030    2    1    2    0    0  0.00000000000E+00  0.00000000000E+00 -0.43615203353E+03  0.19749237635E+04  0.19261607605E+04 0.  0.
        4    1    3    3  502    0 -0.72092981967E+02 -0.92906267280E+03  0.31325386448E+02  0.93238282951E+03  0.12699999809E+01 0.  1.
       -4    1    3    3    0  502  0.72092981967E+02  0.92906267280E+03 -0.46747741997E+03  0.10425409340E+04  0.12699999809E+01 0. -1.
</event>
<event>
 5   0  0.6452182E-05  0.1907352E+04  0.7818609E-02  0.8651206E-01
       -2   -1    0    0    0  501  0.00000000000E+00  0.00000000000E+00  0.51289231534E+03  0.51289231534E+03  0.25500000920E-02 0. -1.
        2   -1    0    0  501    0  0.00000000000E+00  0.00000000000E+00 -0.17732718156E+04  0.17732718156E+04  0.25500000920E-02 0.  1.
    10030    2    1    2    0    0  0.00000000000E+00  0.00000000000E+00 -0.12603795002E+04  0.22861641309E+04  0.19073515536E+04 0.  0.
        3    1    3    3  502    0  0.31348197238E+03 -0.88608916716E+03 -0.82372859548E+03  0.12497814883E+04  0.10100000352E+00 0. -1.
       -3    1    3    3    0  502 -0.31348197238E+03  0.88608916716E+03 -0.43665090475E+03  0.10363826427E+04  0.10100000352E+00 0.  1.
</event>
<event>
 5   0  0.6098377E-05  0.1897701E+04  0.7818609E-02  0.8656001E-01
        2   -1    0    0  501    0  0.00000000000E+00  0.00000000000E+00  0.59304062529E+03  0.59304062529E+03  0.25500000920E-02 0. -1.
       -2   -1    0    0    0  501  0.00000000000E+00  0.00000000000E+00 -0.15181379873E+04  0.15181379873E+04  0.25500000920E-02 0.  1.
    10030    2    1    2    0    0  0.00000000000E+00  0.00000000000E+00 -0.92509736197E+03  0.21111786126E+04  0.18977012423E+04 0.  0.
        5    1    3    3  502    0 -0.67264983990E+03  0.63926799699E+03 -0.68273801276E+03  0.11520740702E+04  0.46999998093E+01 0. -1.
       -5    1    3    3    0  502  0.67264983990E+03 -0.63926799699E+03 -0.24235934921E+03  0.95910454239E+03  0.46999998093E+01 0.  1.
</event>
<event>
 5   0  0.6452182E-05  0.1898424E+04  0.7818609E-02  0.8655641E-01
        2   -1    0    0  501    0  0.00000000000E+00  0.00000000000E+00  0.17950731799E+04  0.17950731799E+04  0.25500000920E-02 0. -1.
       -2   -1    0    0    0  501  0.00000000000E+00  0.00000000000E+00 -0.50193149250E+03  0.50193149251E+03  0.25500000920E-02 0.  1.
    10030    2    1    2    0    0  0.00000000000E+00  0.00000000000E+00  0.12931416874E+04  0.22970046724E+04  0.18984243576E+04 0.  0.
        3    1    3    3  502    0 -0.44057628590E+03 -0.83541740563E+03  0.53195023813E+03  0.10839745252E+04  0.10100000352E+00 0.  1.
       -3    1    3    3    0  502  0.44057628590E+03  0.83541740563E+03  0.76119144929E+03  0.12130301472E+04  0.10100000352E+00 0. -1.
</event>
<event>
 5   0  0.3147063E-05  0.1914116E+04  0.7818609E-02  0.8647862E-01
       -1   -1    0    0    0  501  0.00000000000E+00  0.00000000000E+00  0.85948896458E+03  0.85948896460E+03  0.50400001928E-02 0. -1.
        1   -1    0    0  501    0  0.00000000000E+00  0.00000000000E+00 -0.10657027545E+04  0.10657027545E+04  0.50400001928E-02 0.  1.
    10030    2    1    2    0    0  0.00000000000E+00  0.00000000000E+00 -0.20621378991E+03  0.19251917191E+04  0.19141157301E+04 0.  0.
        5    1    3    3  502    0 -0.78925053989E+02 -0.15983115819E+03 -0.10488470721E+04  0.10638972854E+04  0.46999998093E+01 0.  1.
       -5    1    3    3    0  502  0.78925053989E+02  0.15983115819E+03  0.84263328218E+03  0.86129443369E+03  0.46999998093E+01 0. -1.
</event>
<event>
 5   0  0.6098377E-05  0.1890471E+04  0.7818609E-02  0.8659614E-01
        2   -1    0    0  501    0  0.00000000000E+00  0.00000000000E+00  0.23748722755E+04  0.23748722755E+04  0.25500000920E-02 0.  1.
       -2   -1    0    0    0  501  0.00000000000E+00  0.00000000000E+00 -0.37621816767E+03  0.37621816768E+03  0.25500000920E-02 0. -1.
    10030    2    1    2    0    0  0.00000000000E+00  0.00000000000E+00  0.19986541078E+04  0.27510904431E+04  0.18904709423E+04 0.  0.
        5    1    3    3  502    0  0.30146199802E+02  0.98834116589E+02  0.23666115776E+04  0.23688709178E+04  0.46999998093E+01 0.  1.
       -5    1    3    3    0  502 -0.30146199802E+02 -0.98834116589E+02 -0.36795746981E+03  0.38221952534E+03  0.46999998093E+01 0. -1.
</event>
<event>
 5   0  0.6423388E-05  0.1907232E+04  0.7818609E-02  0.8651265E-01
       -2   -1    0    0    0  501  0.00000000000E+00  0.00000000000E+00  0.86876862511E+03  0.86876862511E+03  0.25500000920E-02 0.  1.
        2   -1    0    0  501    0  0.00000000000E+00  0.00000000000E+00 -0.10467501452E+04  0.10467501452E+04  0.25500000920E-02 0. -1.
    10030    2    1    2    0    0  0.00000000000E+00  0.00000000000E+00 -0.17798152009E+03  0.19155187703E+04  0.19072322192E+04 0.  0.
        2    1    3    3  502    0 -0.34220260705E+03 -0.19768184145E+03 -0.96063415464E+03  0.10387486288E+04  0.25500000920E-02 0. -1.
       -2    1    3    3    0  502  0.34220260705E+03  0.19768184145E+03  0.78265263455E+03  0.87677014154E+03  0.25500000920E-02 0.  1.
</event>
<event>
 5   0  0.6098377E-05  0.1891896E+04  0.7818609E-02  0.8658901E-01
        2   -1    0    0  501    0  0.00000000000E+00  0.00000000000E+00  0.16145472587E+04  0.16145472587E+04  0.25500000920E-02 0.  1.
       -2   -1    0    0    0  501  0.00000000000E+00  0.00000000000E+00 -0.55422218928E+03  0.55422218928E+03  0.25500000920E-02 0. -1.
    10030    2    1    2    0    0  0.00000000000E+00  0.00000000000E+00  0.10603250694E+04  0.21687694479E+04  0.18918963147E+04 0.  0.
        5    1    3    3  502    0  0.16759636005E+03 -0.70651570976E+03 -0.16481383446E+03  0.74460639136E+03  0.46999998093E+01 0. -1.
       -5    1    3    3    0  502 -0.16759636005E+03  0.70651570976E+03  0.12251389038E+04  0.14241630566E+04  0.46999998093E+01 0.  1.
</event>
<event>
 5   0  0.3203527E-05  0.1862665E+04  0.7818609E-02  0.8673667E-01
        1   -1    0    0  501    0  0.00000000000E+00  0.00000000000E+00  0.89400357439E+03  0.89400357441E+03  0.50400001928E-02 0.  1.
       -1   -1    0    0    0  501  0.00000000000E+00  0.00000000000E+00 -0.97021958824E+03  0.97021958826E+03  0.50400001928E-02 0. -1.
    10030    2    1    2    0    0  0.00000000000E+00  0.00000000000E+00 -0.76216013853E+02  0.18642231627E+04  0.18626645214E+04 0.  0.
        1    1    3    3  502    0  0.57435126260E+03 -0.35417454325E+03 -0.68056477376E+03  0.95837747847E+03  0.50400001928E-02 0. -1.
       -1    1    3    3    0  502 -0.57435126260E+03  0.35417454325E+03  0.60434875991E+03  0.90584568419E+03  0.50400001928E-02 0.  1.
</event>
<event>
 5   0  0.6423388E-05  0.1903473E+04  0.7818609E-02  0.8653130E-01
       -2   -1    0    0    0  501  0.00000000000E+00  0.00000000000E+00  0.46458458759E+03  0.46458458760E+03  0.25500000920E-02 0. -1.
        2   -1    0    0  501    0  0.00000000000E+00  0.00000000000E+00 -0.19497029456E+04  0.19497029456E+04  0.25500000920E-02 0.  1.
    10030    2    1    2    0    0  0.00000000000E+00  0.00000000000E+00 -0.14851183580E+04  0.24142875332E+04  0.19034725518E+04 0.  0.
        2    1    3    3  502    0  0.12736993694E+03 -0.83155576452E+03 -0.17804108322E+03  0.85988761921E+03  0.25500000920E-02 0. -1.
       -2    1    3    3    0  502 -0.12736993694E+03  0.83155576452E+03 -0.13070772748E+04  0.15543999140E+04  0.25500000920E-02 0.  1.
</event>
<event>
 5   0  0.3147063E-05  0.1901976E+04  0.7818609E-02  0.8653873E-01
       -1   -1    0    0    0  501  0.00000000000E+00  0.00000000000E+00  0.12854316796E+04  0.12854316796E+04  0.50400001928E-02 0.  1.
        1   -1    0    0  501    0  0.00000000000E+00  0.00000000000E+00 -0.70356010555E+03  0.70356010557E+03  0.50400001928E-02 0. -1.
    10030    2    1    2    0    0  0.00000000000E+00  0.00000000000E+00  0.58187157406E+03  0.19889917852E+04  0.19019762861E+04 0.  0.
        5    1    3    3  502    0  0.32019121961E+03  0.15336400709E+03 -0.63164658388E+03  0.72459811807E+03  0.46999998093E+01 0. -1.
       -5    1    3    3    0  502 -0.32019121961E+03 -0.15336400709E+03  0.12135181579E+04  0.12643936671E+04  0.46999998093E+01 0.  1.
</event>
<event>
 5   0  0.3083469E-05  0.1895080E+04  0.7818609E-02  0.8657309E-01
        1   -1    0    0  501    0  0.00000000000E+00  0.00000000000E+00  0.15717374872E+04  0.15717374873E+04  0.50400001928E-02 0.  1.
       -1   -1    0    0    0  501  0.00000000000E+00  0.00000000000E+00 -0.57123517834E+03  0.57123517836E+03  0.50400001928E-02 0. -1.
    10030    2    1    2    0    0  0.00000000000E+00  0.00000000000E+00  0.10005023089E+04  0.21429726656E+04  0.18950796752E+04 0.  0.
        3    1    3    3  502    0  0.74195090767E+03  0.88068883746E+02  0.11592172330E+04  0.13791417190E+04  0.10100000352E+00 0.  1.
       -3    1    3    3    0  502 -0.74195090767E+03 -0.88068883746E+02 -0.15871492406E+03  0.76383094661E+03  0.10100000352E+00 0. -1.
</event>
<event>
 5   0  0.6395992E-05  0.1908336E+04  0.7818609E-02  0.8650718E-01
       -2   -1    0    0    0  501  0.00000000000E+00  0.00000000000E+00  0.72912782651E+03  0.72912782651E+03  0.25500000920E-02 0. -1.
        2   -1    0    0  501    0  0.00000000000E+00  0.00000000000E+00 -0.12486654708E+04  0.12486654708E+04  0.25500000920E-02 0.  1.
    10030    2    1    2    0    0  0.00000000000E+00  0.00000000000E+00 -0.51953764434E+03  0.19777932974E+04  0.19083361767E+04 0.  0.
        4    1    3    3  502    0  0.10574420097E+03  0.91180065647E+03 -0.52977523269E+03  0.10598234208E+04  0.12699999809E+01 0.  1.
       -4    1    3    3    0  502 -0.10574420097E+03 -0.91180065647E+03  0.10237588354E+02  0.91796987657E+03  0.12699999809E+01 0. -1.
</event>
<event>
 5   0  0.3147063E-05  0.1906576E+04  0.7818609E-02  0.8651590E-01
       -1   -1    0    0    0  501  0.00000000000E+00  0.00000000000E+00  0.96595894699E+03  0.96595894700E+03  0.50400001928E-02 0.  1.
        1   -1    0    0  501    0  0.00000000000E+00  0.00000000000E+00 -0.94078345178E+03  0.94078345180E+03  0.50400001928E-02 0. -1.
    10030    2    1    2    0    0  0.00000000000E+00  0.00000000000E+00  0.25175495203E+02  0.19067423988E+04  0.19065761904E+04 0.  0.
        5    1    3    3  502    0  0.92741572092E+03 -0.92446279921E+02  0.21282974734E+03  0.95601507594E+03  0.46999998093E+01 0.  1.
       -5    1    3    3    0  502 -0.92741572092E+03  0.92446279921E+02 -0.18765425214E+03  0.95072732285E+03  0.46999998093E+01 0. -1.
</event>
<event>
 5   0  0.3203527E-05  0.1902316E+04  0.7818609E-02  0.8653704E-01
        1   -1    0    0  501    0  0.00000000000E+00  0.00000000000E+00  0.23136575210E+04  0.23136575210E+04  0.50400001928E-02 0. -1.
       -1   -1    0    0    0  501  0.00000000000E+00  0.00000000000E+00 -0.39102673650E+03  0.39102673654E+03  0.50400001928E-02 0.  1.
    10030    2    1    2    0    0  0.00000000000E+00  0.00000000000E+00  0.19226307845E+04  0.27046842575E+04  0.19023164299E+04 0.  0.
        1    1    3    3  502    0  0.12876846729E+03  0.93966093877E+03  0.10634263748E+04  0.14249279464E+04  0.50400001928E-02 0. -1.
       -1    1    3    3    0  502 -0.12876846729E+03 -0.93966093877E+03  0.85920440970E+03  0.12797563111E+04  0.50400001928E-02 0.  1.
</event>
<event>
 5   0  0.3147063E-05  0.1898545E+04  0.7818609E-02  0.8655581E-01
        1   -1    0    0  501    0  0.00000000000E+00  0.00000000000E+00  0.13495366862E+04  0.13495366863E+04  0.50400001928E-02 0.  1.
       -1   -1    0    0    0  501  0.00000000000E+00  0.00000000000E+00 -0.66772429606E+03  0.66772429608E+03  0.50400001928E-02 0. -1.
    10030    2    1    2    0    0  0.00000000000E+00  0.00000000000E+00  0.68181239019E+03  0.20172609823E+04  0.18985451629E+04 0.  0.
        5    1    3    3  502    0  0.44124675966E+03 -0.42640719526E+03  0.11104702283E+04  0.12687348096E+04  0.46999998093E+01 0.  1.
       -5    1    3    3    0  502 -0.44124675966E+03  0.42640719526E+03 -0.42865783813E+03  0.74852617274E+03  0.46999998093E+01 0. -1.
</event>
<event>
 5   0  0.6098377E-05  0.1907177E+04  0.7818609E-02  0.8651292E-01
       -2   -1    0    0    0  501  0.00000000000E+00  0.00000000000E+00  0.10921609574E+04  0.10921609574E+04  0.25500000920E-02 0. -1.
        2   -1    0    0  501    0  0.00000000000E+00  0.00000000000E+00 -0.83259812352E+03  0.83259812353E+03  0.25500000920E-02 0.  1.
    10030    2    1    2    0    0  0.00000000000E+00  0.00000000000E+00  0.25956283385E+03  0.19247590809E+04  0.19071771430E+04 0.  0.
        5    1    3    3  502    0 -0.69036832950E+03  0.64988113136E+03  0.23247982647E+03  0.97622890502E+03  0.46999998093E+01 0. -1.
       -5    1    3    3    0  502  0.69036832950E+03 -0.64988113136E+03  0.27083007376E+02  0.94853017588E+03  0.46999998093E+01 0.  1.
</event>
<event>
 5   0  0.3144958E-05  0.1924994E+04  0.7818609E-02  0.8642514E-01
        1   -1    0    0  501    0  0.00000000000E+00  0.00000000000E+00  0.13726665215E+04  0.13726665215E+04  0.50400001928E-02 0. -1.
       -1   -1    0    0    0  501  0.00000000000E+00  0.00000000000E+00 -0.67489098093E+03  0.67489098095E+03  0.50400001928E-02 0.  1.
    10030    2    1    2    0    0  0.00000000000E+00  0.00000000000E+00  0.69777554053E+03  0.20475575024E+04  0.19249937716E+04 0.  0.
        4    1    3    3  502    0 -0.42532692930E+03 -0.68461431153E+03 -0.21072671896E+03  0.83307089454E+03  0.12699999809E+01 0.  1.
       -4    1    3    3    0  502  0.42532692930E+03  0.68461431153E+03  0.90850225949E+03  0.12144866079E+04  0.12699999809E+01 0. -1.
</event>
<event>
 5   0  0.2279625E-05  0.1897495E+04  0.7818609E-02  0.8656104E-01
        3   -1    0    0  501    0  0.00000000000E+00  0.00000000000E+00  0.17564424418E+04  0.17564424447E+04  0.10100000352E+00 0.  1.
       -3   -1    0    0    0  501  0.00000000000E+00  0.00000000000E+00 -0.51246886485E+03  0.51246887480E+03  0.10100000352E+00 0. -1.
    10030    2    1    2    0    0  0.00000000000E+00  0.00000000000E+00  0.12439735770E+04  0.22689113195E+04  0.18974952742E+04 0.  0.
        4    1    3    3  502    0  0.78546997947E+03 -0.29710060909E+03  0.11498605103E+04  0.14238724193E+04  0.12699999809E+01 0.  1.
       -4    1    3    3    0  502 -0.78546997947E+03  0.29710060909E+03  0.94113066673E+02  0.84503890016E+03  0.12699999809E+01 0. -1.
</event>
<event>
 5   0  0.6098377E-05  0.1899991E+04  0.7818609E-02  0.8654861E-01
        2   -1    0    0  501    0  0.00000000000E+00  0.00000000000E+00  0.16032298944E+04  0.16032298944E+04  0.25500000920E-02 0. -1.
       -2   -1    0    0    0  501  0.00000000000E+00  0.00000000000E+00 -0.56292074243E+03  0.56292074244E+03  0.25500000920E-02 0.  1.
    10030    2    1    2    0    0  0.00000000000E+00  0.00000000000E+00  0.10403091519E+04  0.21661506368E+04  0.18999909078E+04 0.  0.
        5    1    3    3  502    0 -0.57269011862E+03  0.50449960998E+03  0.11650591500E+04  0.13927952977E+04  0.46999998093E+01 0.  1.
       -5    1    3    3    0  502  0.57269011862E+03 -0.50449960998E+03 -0.12474999806E+03  0.77335533906E+03  0.46999998093E+01 0. -1.
</event>
<event>
 5   0  0.3147063E-05  0.1903217E+04  0.7818609E-02  0.8653257E-01
       -1   -1    0    0    0  501  0.00000000000E+00  0.00000000000E+00  0.63932075796E+03  0.63932075798E+03  0.50400001928E-02 0. -1.
        1   -1    0    0  501    0  0.00000000000E+00  0.00000000000E+00 -0.14164385967E+04  0.14164385967E+04  0.50400001928E-02 0.  1.
    10030    2    1    2    0    0  0.00000000000E+00  0.00000000000E+00 -0.77711783872E+03  0.20557593547E+04  0.19032168529E+04 0.  0.
        5    1    3    3  502    0  0.70058632869E+03  0.63937800109E+03 -0.47160463589E+03  0.10592726065E+04  0.46999998093E+01 0.  1.
       -5    1    3    3    0  502 -0.70058632869E+03 -0.63937800109E+03 -0.30551320284E+03  0.99648674820E+03  0.46999998093E+01 0. -1.
</event>
<event>
 5   0  0.6395992E-05  0.1866173E+04  0.7818609E-02  0.8671880E-01
        2   -1    0    0  501    0  0.00000000000E+00  0.00000000000E+00  0.74219280367E+03  0.74219280368E+03  0.25500000920E-02 0.  1.
       -2   -1    0    0    0  501  0.00000000000E+00  0.00000000000E+00 -0.11730787188E+04  0.11730787188E+04  0.25500000920E-02 0. -1.
    10030    2    1    2    0    0  0.00000000000E+00  0.00000000000E+00 -0.43088591512E+03  0.19152715225E+04  0.18661731787E+04 0.  0.
        4    1    3    3  502    0  0.52378132792E+03 -0.17102226653E+03 -0.98828442457E+03  0.11315048439E+04  0.12699999809E+01 0. -1.
       -4    1    3    3    0  502 -0.52378132792E+03  0.17102226653E+03  0.55739850945E+03  0.78376667852E+03  0.12699999809E+01 0.  1.
</event>
<event>
 5   0  0.3144958E-05  0.1901766E+04  0.7818609E-02  0.8653978E-01
        1   -1    0    0  501    0  0.00000000000E+00  0.00000000000E+00  0.84899777756E+03  0.84899777757E+03  0.50400001928E-02 0. -1.
       -1   -1    0    0    0  501  0.00000000000E+00  0.00000000000E+00 -0.10649948484E+04  0.10649948484E+04  0.50400001928E-02 0.  1.
    10030    2    1    2    0    0  0.00000000000E+00  0.00000000000E+00 -0.21599707081E+03  0.19139926260E+04  0.19017657683E+04 0.  0.
        4    1    3    3  502    0 -0.47257808845E+03  0.10000275890E+03 -0.93231631322E+03  0.10500218675E+04  0.12699999809E+01 0.  1.
       -4    1    3    3    0  502  0.47257808845E+03 -0.10000275890E+03  0.71631924241E+03  0.86397075843E+03  0.12699999809E+01 0. -1.
</event>
<event>
 5   0  0.3086139E-05  0.1870197E+04  0.7818609E-02  0.8669835E-01
        1   -1    0    0  501    0  0.00000000000E+00  0.00000000000E+00  0.25703973621E+04  0.25703973621E+04  0.50400001928E-02 0. -1.
       -1   -1    0    0    0  501  0.00000000000E+00  0.00000000000E+00 -0.34018450922E+03  0.34018450926E+03  0.50400001928E-02 0.  1.
    10030    2    1    2    0    0  0.00000000000E+00  0.00000000000E+00  0.22302128529E+04  0.29105818714E+04  0.18701971716E+04 0.  0.
        2    1    3    3  502    0 -0.10656821150E+03  0.49918484753E+03  0.23344598232E+04  0.23896118852E+04  0.25500000920E-02 0. -1.
       -2    1    3    3    0  502  0.10656821150E+03 -0.49918484753E+03 -0.10424697030E+03  0.52096998620E+03  0.25500000920E-02 0.  1.
</event>
<event>
 5   0  0.3083469E-05  0.1902298E+04  0.7818609E-02  0.8653713E-01
        1   -1    0    0  501    0  0.00000000000E+00  0.00000000000E+00  0.87507637316E+03  0.87507637318E+03  0.50400001928E-02 0.  1.
       -1   -1    0    0    0  501  0.00000000000E+00  0.00000000000E+00 -0.10338349485E+04  0.10338349485E+04  0.50400001928E-02 0. -1.
    10030    2    1    2    0    0  0.00000000000E+00  0.00000000000E+00 -0.15875857533E+03  0.19089113217E+04  0.19022981230E+04 0.  0.
        3    1    3    3  502    0  0.80207596924E+03  0.32703309416E+03 -0.47369320337E+03  0.98724959672E+03  0.10100000352E+00 0. -1.
       -3    1    3    3    0  502 -0.80207596924E+03 -0.32703309416E+03  0.31493462804E+03  0.92166172496E+03  0.10100000352E+00 0.  1.
</event>
<event>
 5   0  0.6452182E-05  0.1894723E+04  0.7818609E-02  0.8657488E-01
        2   -1    0    0  501    0  0.00000000000E+00  0.00000000000E+00  0.18608842290E+04  0.18608842290E+04  0.25500000920E-02 0. -1.
       -2   -1    0    0    0  501  0.00000000000E+00  0.00000000000E+00 -0.48229415611E+03  0.48229415611E+03  0.25500000920E-02 0.  1.
    10030    2    1    2    0    0  0.00000000000E+00  0.00000000000E+00  0.13785900729E+04  0.23431783851E+04  0.18947227648E+04 0.  0.
        3    1    3    3  502    0  0.11348371309E+03 -0.81620461726E+03  0.11131757984E+03  0.83154082531E+03  0.10100000352E+00 0. -1.
       -3    1    3    3    0  502 -0.11348371309E+03  0.81620461726E+03  0.12672724931E+04  0.15116375598E+04  0.10100000352E+00 0.  1.
</event>
<event>
 5   0  0.3086139E-05  0.1904245E+04  0.7818609E-02  0.8652746E-01
       -1   -1    0    0    0  501  0.00000000000E+00  0.00000000000E+00  0.90672556069E+03  0.90672556071E+03  0.50400001928E-02 0. -1.
        1   -1    0    0  501    0  0.00000000000E+00  0.00000000000E+00 -0.99979251929E+03  0.99979251930E+03  0.50400001928E-02 0.  1.
    10030    2    1    2    0    0  0.00000000000E+00  0.00000000000E+00 -0.93066958595E+02  0.19065180800E+04  0.19042451866E+04 0.  0.
        2    1    3    3  502    0 -0.30846181424E+03  0.67840738512E+03  0.54675475362E+03  0.92429758824E+03  0.25500000920E-02 0. -1.
       -2    1    3    3    0  502  0.30846181424E+03 -0.67840738512E+03 -0.63982171221E+03  0.98222049177E+03  0.25500000920E-02 0.  1.
</event>
<event>
 5   0  0.3086139E-05  0.1896072E+04  0.7818609E-02  0.8656814E-01
       -1   -1    0    0    0  501  0.00000000000E+00  0.00000000000E+00  0.59002045058E+03  0.59002045060E+03  0.50400001928E-02 0.  1.
        1   -1    0    0  501    0  0.00000000000E+00  0.00000000000E+00 -0.15232906844E+04  0.15232906844E+04  0.50400001928E-02 0. -1.
    10030    2    1    2    0    0  0.00000000000E+00  0.00000000000E+00 -0.93327023380E+03  0.21133111350E+04  0.18960724205E+04 0.  0.
        2    1    3    3  502    0 -0.71367426614E+03 -0.56903660565E+03 -0.75219002423E+03  0.11827609434E+04  0.25500000920E-02 0. -1.
       -2    1    3    3    0  502  0.71367426614E+03  0.56903660565E+03 -0.18108020957E+03  0.93055019157E+03  0.25500000920E-02 0.  1.
</event>
<event>
 5   0  0.6098377E-05  0.1901762E+04  0.7818609E-02  0.8653980E-01
       -2   -1    0    0    0  501  0.00000000000E+00  0.00000000000E+00  0.50655335750E+03  0.50655335751E+03  0.25500000920E-02 0.  1.
        2   -1    0    0  501    0  0.00000000000E+00  0.00000000000E+00 -0.17849537222E+04  0.17849537222E+04  0.25500000920E-02 0. -1.
    10030    2    1    2    0    0  0.00000000000E+00  0.00000000000E+00 -0.12784003647E+04  0.22915070797E+04  0.19017616054E+04 0.  0.
        5    1    3    3  502    0 -0.92002219724E+03  0.23974074597E+03 -0.62069966585E+03  0.11354323555E+04  0.46999998093E+01 0. -1.
       -5    1    3    3    0  502  0.92002219724E+03 -0.23974074597E+03 -0.65770069881E+03  0.11560747242E+04  0.46999998093E+01 0.  1.
</event>
<event>
 5   0  0.6395992E-05  0.1900859E+04  0.7818609E-02  0.8654429E-01
        2   -1    0    0  501    0  0.00000000000E+00  0.00000000000E+00  0.22924997345E+04  0.22924997345E+04  0.25500000920E-02 0. -1.
       -2   -1    0    0    0  501  0.00000000000E+00  0.00000000000E+00 -0.39403111951E+03  0.39403111952E+03  0.25500000920E-02 0.  1.
    10030    2    1    2    0    0  0.00000000000E+00  0.00000000000E+00  0.18984686150E+04  0.26865308540E+04  0.19008590025E+04 0.  0.
        4    1    3    3  502    0  0.67067716432E+03  0.66514122035E+02  0.21141916390E+01  0.67397186134E+03  0.12699999809E+01 0.  1.
       -4    1    3    3    0  502 -0.67067716432E+03 -0.66514122035E+02  0.18963544234E+04  0.20125589927E+04  0.12699999809E+01 0. -1.
</event>
<event>
 5   0  0.3086139E-05  0.1861598E+04  0.7818609E-02  0.8674211E-01
        1   -1    0    0  501    0  0.00000000000E+00  0.00000000000E+00  0.84319381043E+03  0.84319381044E+03  0.50400001928E-02 0.  1.
       -1   -1    0    0    0  501  0.00000000000E+00  0.00000000000E+00 -0.10275061019E+04  0.10275061019E+04  0.50400001928E-02 0. -1.
    10030    2    1    2    0    0  0.00000000000E+00  0.00000000000E+00 -0.18431229143E+03  0.18706999123E+04  0.18615980074E+04 0.  0.
        2    1    3    3  502    0  0.61942852858E+03 -0.12472646943E+03 -0.77897308965E+03  0.10030191766E+04  0.25500000920E-02 0. -1.
       -2    1    3    3    0  502 -0.61942852858E+03  0.12472646943E+03  0.59466079823E+03  0.86768073572E+03  0.25500000920E-02 0.  1.
</event>
<event>
 5   0  0.3083469E-05  0.1911294E+04  0.7818609E-02  0.8649255E-01
       -1   -1    0    0    0  501  0.00000000000E+00  0.00000000000E+00  0.11859233719E+04  0.11859233719E+04  0.50400001928E-02 0. -1.
        1   -1    0    0  501    0  0.00000000000E+00  0.00000000000E+00 -0.77008466225E+03  0.77008466227E+03  0.50400001928E-02 0.  1.
    10030    2    1    2    0    0  0.00000000000E+00  0.00000000000E+00  0.41583870963E+03  0.19560080342E+04  0.19112942205E+04 0.  0.
        3    1    3    3  502    0  0.33660108070E+03 -0.44862575173E+03  0.99977547782E+03  0.11463491479E+04  0.10100000352E+00 0. -1.
       -3    1    3    3    0  502 -0.33660108070E+03  0.44862575173E+03 -0.58393676819E+03  0.80965888625E+03  0.10100000352E+00 0.  1.
</event>
<event>
 5   0  0.3083469E-05  0.1895521E+04  0.7818609E-02  0.8657089E-01
        1   -1    0    0  501    0  0.00000000000E+00  0.00000000000E+00  0.78867786541E+03  0.78867786543E+03  0.50400001928E-02 0.  1.
       -1   -1    0    0    0  501  0.00000000000E+00  0.00000000000E+00 -0.11389310536E+04  0.11389310536E+04  0.50400001928E-02 0. -1.
    10030    2    1    2    0    0  0.00000000000E+00  0.00000000000E+00 -0.35025318818E+03  0.19276089190E+04  0.18955207329E+04 0.  0.
        3    1    3    3  502    0 -0.84779576777E+03 -0.22424562851E+03  0.19041064038E+03  0.89738508341E+03  0.10100000352E+00 0.  1.
       -3    1    3    3    0  502  0.84779576777E+03  0.22424562851E+03 -0.54066382857E+03  0.10302238356E+04  0.10100000352E+00 0. -1.
</event>
<event>
 5   0  0.6423388E-05  0.1908831E+04  0.7818609E-02  0.8650473E-01
        2   -1    0    0  501    0  0.00000000000E+00  0.00000000000E+00  0.16616534182E+04  0.16616534182E+04  0.25500000920E-02 0.  1.
       -2   -1    0    0    0  501  0.00000000000E+00  0.00000000000E+00 -0.54819410531E+03  0.54819410531E+03  0.25500000920E-02 0. -1.
    10030    2    1    2    0    0  0.00000000000E+00  0.00000000000E+00  0.11134593129E+04  0.22098475235E+04  0.19088306462E+04 0.  0.
        2    1    3    3  502    0 -0.11469324496E+03  0.50835432106E+03  0.14824023142E+04  0.15713355076E+04  0.25500000920E-02 0.  1.
       -2    1    3    3    0  502  0.11469324496E+03 -0.50835432106E+03 -0.36894300136E+03  0.63851201590E+03  0.25500000920E-02 0. -1.
</event>
<event>
 5   0  0.3203527E-05  0.1897025E+04  0.7818609E-02  0.8656339E-01
        1   -1    0    0  501    0  0.00000000000E+00  0.00000000000E+00  0.16856795299E+04  0.16856795299E+04  0.50400001928E-02 0. -1.
       -1   -1    0    0    0  501  0.00000000000E+00  0.00000000000E+00 -0.53371687982E+03  0.53371687984E+03  0.50400001928E-02 0.  1.
    10030    2    1    2    0    0  0.00000000000E+00  0.00000000000E+00  0.11519626501E+04  0.22193964098E+04  0.18970246378E+04 0.  0.
        1    1    3    3  502    0 -0.37532536617E+02  0.36247412208E+02 -0.53203654309E+03  0.53458904722E+03  0.50400001928E-02 0.  1.
       -1    1    3    3    0  502  0.37532536617E+02 -0.36247412208E+02  0.16839991932E+04  0.16848073625E+04  0.50400001928E-02 0. -1.
</event>
<event>
 5   0  0.6098377E-05  0.1906566E+04  0.7818609E-02  0.8651595E-01
        2   -1    0    0  501    0  0.00000000000E+00  0.00000000000E+00  0.11367687994E+04  0.11367687994E+04  0.25500000920E-02 0. -1.
       -2   -1    0    0    0  501  0.00000000000E+00  0.00000000000E+00 -0.79941388756E+03  0.79941388756E+03  0.25500000920E-02 0.  1.
    10030    2    1    2    0    0  0.00000000000E+00  0.00000000000E+00  0.33735491189E+03  0.19361826870E+04  0.19065663012E+04 0.  0.
        5    1    3    3  502    0  0.27018990702E+03 -0.25494092933E+02  0.10966966046E+04  0.11297867353E+04  0.46999998093E+01 0. -1.
       -5    1    3    3    0  502 -0.27018990702E+03  0.25494092933E+02 -0.75934169274E+03  0.80639595172E+03  0.46999998093E+01 0.  1.
</event>
<event>
 5   0  0.3083469E-05  0.1890685E+04  0.7818609E-02  0.8659507E-01
       -1   -1    0    0    0  501  0.00000000000E+00  0.00000000000E+00  0.40694674632E+03  0.40694674635E+03  0.50400001928E-02 0.  1.
        1   -1    0    0  501    0  0.00000000000E+00  0.00000000000E+00 -0.21960434931E+04  0.21960434931E+04  0.50400001928E-02 0. -1.
    10030    2    1    2    0    0  0.00000000000E+00  0.00000000000E+00 -0.17890967468E+04  0.26029902395E+04  0.18906853301E+04 0.  0.
        3    1    3    3  502    0 -0.27600566948E+03  0.25176381137E+03  0.30100847437E+03  0.47976062588E+03  0.10100000352E+00 0.  1.
       -3    1    3    3    0  502  0.27600566948E+03 -0.25176381137E+03 -0.20901052212E+04  0.21232296136E+04  0.10100000352E+00 0. -1.
</event>
<event>
 5   0  0.6423388E-05  0.1900583E+04  0.7818609E-02  0.8654566E-01
        2   -1    0    0  501    0  0.00000000000E+00  0.00000000000E+00  0.77282767237E+03  0.77282767238E+03  0.25500000920E-02 0.  1.
       -2   -1    0    0    0  501  0.00000000000E+00  0.00000000000E+00 -0.11685055995E+04  0.11685055995E+04  0.25500000920E-02 0. -1.
    10030    2    1    2    0    0  0.00000000000E+00  0.00000000000E+00 -0.39567792709E+03  0.19413332718E+04  0.19005825029E+04 0.  0.
        2    1    3    3  502    0  0.14337268827E+03 -0.43199303465E+03 -0.10499191591E+04  0.11443355934E+04  0.25500000920E-02 0. -1.
       -2    1    3    3    0  502 -0.14337268827E+03  0.43199303465E+03  0.65424123201E+03  0.79699767842E+03  0.25500000920E-02 0.  1.
</event>
<event>
 5   0  0.6098377E-05  0.1899306E+04  0.7818609E-02  0.8655202E-01
        2   -1    0    0  501    0  0.00000000000E+00  0.00000000000E+00  0.12208201539E+04  0.12208201539E+04  0.25500000920E-02 0. -1.
       -2   -1    0    0    0  501  0.00000000000E+00  0.00000000000E+00 -0.73871722995E+03  0.73871722996E+03  0.25500000920E-02 0.  1.
    10030    2    1    2    0    0  0.00000000000E+00  0.00000000000E+00  0.48210292399E+03  0.19595373839E+04  0.18993060653E+04 0.  0.
        5    1    3    3  502    0  0.60697206614E+03  0.19456417049E+03 -0.48522450855E+03  0.80108377790E+03  0.46999998093E+01 0.  1.
       -5    1    3    3    0  502 -0.60697206614E+03 -0.19456417049E+03  0.96732743254E+03  0.11584536060E+04  0.46999998093E+01 0. -1.
</event>
<event>
 5   0  0.3203527E-05  0.1893447E+04  0.7818609E-02  0.8658125E-01
        1   -1    0    0  501    0  0.00000000000E+00  0.00000000000E+00  0.72253233958E+03  0.72253233960E+03  0.50400001928E-02 0.  1.
       -1   -1    0    0    0  501  0.00000000000E+00  0.00000000000E+00 -0.12404773274E+04  0.12404773274E+04  0.50400001928E-02 0. -1.
    10030    2    1    2    0    0  0.00000000000E+00  0.00000000000E+00 -0.51794498782E+03  0.19630096670E+04  0.18934465776E+04 0.  0.
        1    1    3    3  502    0 -0.68591036028E+03 -0.64705602853E+03 -0.34651684552E+03  0.10046036286E+04  0.50400001928E-02 0. -1.
       -1    1    3    3    0  502  0.68591036028E+03  0.64705602853E+03 -0.17142814229E+03  0.95840603837E+03  0.50400001928E-02 0.  1.
</event>
<event>
 5   0  0.3144958E-05  0.1901893E+04  0.7818609E-02  0.8653915E-01
       -1   -1    0    0    0  501  0.00000000000E+00  0.00000000000E+00  0.77605947793E+03  0.77605947795E+03  0.50400001928E-02 0.  1.
        1   -1    0    0  501    0  0.00000000000E+00  0.00000000000E+00 -0.11652448111E+04  0.11652448111E+04  0.50400001928E-02 0. -1.
    10030    2    1    2    0    0  0.00000000000E+00  0.00000000000E+00 -0.38918533318E+03  0.19413042891E+04  0.19018930357E+04 0.  0.
        4    1    3    3  502    0  0.30979218724E+03  0.24452109018E+03 -0.10777007177E+04  0.11476943028E+04  0.12699999809E+01 0. -1.
       -4    1    3    3    0  502 -0.30979218724E+03 -0.24452109018E+03  0.68851538448E+03  0.79360998632E+03  0.12699999809E+01 0.  1.
</event>
<event>
 5   0  0.6452182E-05  0.1934630E+04  0.7818609E-02  0.8637808E-01
        2   -1    0    0  501    0  0.00000000000E+00  0.00000000000E+00  0.10797525093E+04  0.10797525093E+04  0.25500000920E-02 0.  1.
       -2   -1    0    0    0  501  0.00000000000E+00  0.00000000000E+00 -0.86658623687E+03  0.86658623687E+03  0.25500000920E-02 0. -1.
    10030    2    1    2    0    0  0.00000000000E+00  0.00000000000E+00  0.21316627243E+03  0.19463387462E+04  0.19346303665E+04 0.  0.
        3    1    3    3  502    0 -0.68017431497E+03 -0.93528489622E+02  0.79211288576E+03  0.10482497370E+04  0.10100000352E+00 0.  1.
       -3    1    3    3    0  502  0.68017431497E+03  0.93528489622E+02 -0.57894661333E+03  0.89808900918E+03  0.10100000352E+00 0. -1.
</event>
<event>
 5   0  0.3147063E-05  0.1907161E+04  0.7818609E-02  0.8651300E-01
       -1   -1    0    0    0  501  0.00000000000E+00  0.00000000000E+00  0.91346390036E+03  0.91346390038E+03  0.50400001928E-02 0.  1.
        1   -1    0    0  501    0  0.00000000000E+00  0.00000000000E+00 -0.99545867784E+03  0.99545867785E+03  0.50400001928E-02 0. -1.
    10030    2    1    2    0    0  0.00000000000E+00  0.00000000000E+00 -0.81994777479E+02  0.19089225782E+04  0.19071607866E+04 0.  0.
        5    1    3    3  502    0  0.33045183544E+03 -0.87565815605E+03  0.14170302097E+03  0.94661367936E+03  0.46999998093E+01 0.  1.
       -5    1    3    3    0  502 -0.33045183544E+03  0.87565815605E+03 -0.22369779844E+03  0.96230889886E+03  0.46999998093E+01 0. -1.
</event>
<event>
 5   0  0.6361762E-05  0.1904372E+04  0.7818609E-02  0.8652683E-01
        2   -1    0    0  501    0  0.00000000000E+00  0.00000000000E+00  0.19885323971E+04  0.19885323971E+04  0.25500000920E-02 0.  1.
       -2   -1    0    0    0  501  0.00000000000E+00  0.00000000000E+00 -0.45594329496E+03  0.45594329497E+03  0.25500000920E-02 0. -1.
    10030    2    1    2    0    0  0.00000000000E+00  0.00000000000E+00  0.15325891022E+04  0.24444756921E+04  0.19043718264E+04 0.  0.
        1    1    3    3  502    0  0.48814118529E+03  0.23335053916E+03  0.17720471945E+04  0.18528047794E+04  0.50400001928E-02 0.  1.
       -1    1    3    3    0  502 -0.48814118529E+03 -0.23335053916E+03 -0.23945809237E+03  0.59167091269E+03  0.50400001928E-02 0. -1.
</event>
<event>
 5   0  0.3203527E-05  0.1895457E+04  0.7818609E-02  0.8657121E-01
        1   -1    0    0  501    0  0.00000000000E+00  0.00000000000E+00  0.28320299025E+03  0.28320299030E+03  0.50400001928E-02 0.  1.
       -1   -1    0    0    0  501  0.00000000000E+00  0.00000000000E+00 -0.31715394494E+04  0.31715394494E+04  0.50400001928E-02 0. -1.
    10030    2    1    2    0    0  0.00000000000E+00  0.00000000000E+00 -0.28883364592E+04  0.34547424397E+04  0.18954571542E+04 0.  0.
        1    1    3    3  502    0 -0.64438737563E+03  0.68504502536E+03 -0.12310850877E+04  0.15492231182E+04  0.50400001928E-02 0.  1.
       -1    1    3    3    0  502  0.64438737563E+03 -0.68504502536E+03 -0.16572513715E+04  0.19055193216E+04  0.50400001928E-02 0. -1.
</event>
<event>
 5   0  0.6423388E-05  0.1904610E+04  0.7818609E-02  0.8652565E-01
       -2   -1    0    0    0  501  0.00000000000E+00  0.00000000000E+00  0.16479686578E+04  0.16479686578E+04  0.25500000920E-02 0. -1.
        2   -1    0    0  501    0  0.00000000000E+00  0.00000000000E+00 -0.55030444755E+03  0.55030444756E+03  0.25500000920E-02 0.  1.
    10030    2    1    2    0    0  0.00000000000E+00  0.00000000000E+00  0.10976642102E+04  0.21982731053E+04  0.19046096522E+04 0.  0.
        2    1    3    3  502    0 -0.82831681702E+03  0.37598227646E+03  0.22357886491E+03  0.93672777818E+03  0.25500000920E-02 0. -1.
       -2    1    3    3    0  502  0.82831681702E+03 -0.37598227646E+03  0.87408534529E+03  0.12615453271E+04  0.25500000920E-02 0.  1.
</event>
<event>
 5   0  0.3083469E-05  0.1895355E+04  0.7818609E-02  0.8657172E-01
       -1   -1    0    0    0  501  0.00000000000E+00  0.00000000000E+00  0.58374189314E+03  0.58374189316E+03  0.50400001928E-02 0. -1.
        1   -1    0    0  501    0  0.00000000000E+00  0.00000000000E+00 -0.15385097183E+04  0.15385097183E+04  0.50400001928E-02 0.  1.
    10030    2    1    2    0    0  0.00000000000E+00  0.00000000000E+00 -0.95476782518E+03  0.21222516115E+04  0.18953549278E+04 0.  0.
        3    1    3    3  502    0  0.48165829243E+03  0.81606300877E+03 -0.49058609399E+03  0.10670652608E+04  0.10100000352E+00 0. -1.
       -3    1    3    3    0  502 -0.48165829243E+03 -0.81606300877E+03 -0.46418173118E+03  0.10551863507E+04  0.10100000352E+00 0.  1.
</event>
<event>
 5   0  0.6395992E-05  0.1902017E+04  0.7818609E-02  0.8653853E-01
       -2   -1    0    0    0  501  0.00000000000E+00  0.00000000000E+00  0.90553379089E+03  0.90553379089E+03  0.25500000920E-02 0.  1.
        2   -1    0    0  501    0  0.00000000000E+00  0.00000000000E+00 -0.99876705212E+03  0.99876705213E+03  0.25500000920E-02 0. -1.
    10030    2    1    2    0    0  0.00000000000E+00  0.00000000000E+00 -0.93233261235E+02  0.19043008430E+04  0.19020171555E+04 0.  0.
        4    1    3    3  502    0  0.27505849764E+03 -0.40648248514E+03 -0.86216848545E+03  0.99207928013E+03  0.12699999809E+01 0. -1.
       -4    1    3    3    0  502 -0.27505849764E+03  0.40648248514E+03  0.76893522422E+03  0.91222156289E+03  0.12699999809E+01 0.  1.
</event>
<event>
 5   0  0.6361762E-05  0.1890939E+04  0.7818609E-02  0.8659380E-01
       -2   -1    0    0    0  501  0.00000000000E+00  0.00000000000E+00  0.89327448853E+03  0.89327448853E+03  0.25500000920E-02 0. -1.
        2   -1    0    0  501    0  0.00000000000E+00  0.00000000000E+00 -0.10007147591E+04  0.10007147591E+04  0.25500000920E-02 0.  1.
    10030    2    1    2    0    0  0.00000000000E+00  0.00000000000E+00 -0.10744027053E+03  0.18939892476E+04  0.18909394116E+04 0.  0.
        1    1    3    3  502    0 -0.36291331218E+02 -0.86995664832E+03  0.31534577968E+03  0.92605863285E+03  0.50400001928E-02 0. -1.
       -1    1    3    3    0  502  0.36291331218E+02  0.86995664832E+03 -0.42278605022E+03  0.96793061475E+03  0.50400001928E-02 0.  1.
</event>
<event>
 5   0  0.3083469E-05  0.1892811E+04  0.7818609E-02  0.8658443E-01
        1   -1    0    0  501    0  0.00000000000E+00  0.00000000000E+00  0.20042615572E+04  0.20042615572E+04  0.50400001928E-02 0.  1.
       -1   -1    0    0    0  501  0.00000000000E+00  0.00000000000E+00 -0.44688943690E+03  0.44688943693E+03  0.50400001928E-02 0. -1.
    10030    2    1    2    0    0  0.00000000000E+00  0.00000000000E+00  0.15573721203E+04  0.24511509941E+04  0.18928109454E+04 0.  0.
        3    1    3    3  502    0  0.83228312893E+03  0.41640555334E+03  0.55591003303E+03  0.10840317184E+04  0.10100000352E+00 0.  1.
       -3    1    3    3    0  502 -0.83228312893E+03 -0.41640555334E+03  0.10014620873E+04  0.13671192757E+04  0.10100000352E+00 0. -1.
</event>
<event>
 5   0  0.3147063E-05  0.1896978E+04  0.7818609E-02  0.8656362E-01
        1   -1    0    0  501    0  0.00000000000E+00  0.00000000000E+00  0.17576020137E+04  0.17576020137E+04  0.50400001928E-02 0.  1.
       -1   -1    0    0    0  501  0.00000000000E+00  0.00000000000E+00 -0.51185143631E+03  0.51185143633E+03  0.50400001928E-02 0. -1.
    10030    2    1    2    0    0  0.00000000000E+00  0.00000000000E+00  0.12457505774E+04  0.22694534500E+04  0.18969777175E+04 0.  0.
        5    1    3    3  502    0  0.21622452685E+03  0.51760803499E+03  0.15378601969E+04  0.16369811236E+04  0.46999998093E+01 0.  1.
       -5    1    3    3    0  502 -0.21622452685E+03 -0.51760803499E+03 -0.29210961949E+03  0.63247232643E+03  0.46999998093E+01 0. -1.
</event>
<event>
 5   0  0.3083469E-05  0.1860174E+04  0.7818609E-02  0.8674938E-01
       -1   -1    0    0    0  501  0.00000000000E+00  0.00000000000E+00  0.47737348494E+03  0.47737348496E+03  0.50400001928E-02 0. -1.
        1   -1    0    0  501    0  0.00000000000E+00  0.00000000000E+00 -0.18121276756E+04  0.18121276757E+04  0.50400001928E-02 0.  1.
    10030    2    1    2    0    0  0.00000000000E+00  0.00000000000E+00 -0.13347541907E+04  0.22895011606E+04  0.18601738668E+04 0.  0.
        3    1    3    3  502    0  0.47716690852E+03  0.64538679666E+03 -0.12457865191E+04  0.14819569620E+04  0.10100000352E+00 0.  1.
       -3    1    3    3    0  502 -0.47716690852E+03 -0.64538679666E+03 -0.88967671592E+02  0.80754419859E+03  0.10100000352E+00 0. -1.
</event>
<event>
 5   0  0.2279625E-05  0.1883041E+04  0.7818609E-02  0.8663344E-01
       -3   -1    0    0    0  501  0.00000000000E+00  0.00000000000E+00  0.93384488077E+03  0.93384488623E+03  0.10100000352E+00 0. -1.
        3   -1    0    0  501    0  0.00000000000E+00  0.00000000000E+00 -0.94925888627E+03  0.94925889164E+03  0.10100000352E+00 0.  1.
    10030    2    1    2    0    0  0.00000000000E+00  0.00000000000E+00 -0.15414005499E+02  0.18831037779E+04  0.18830406917E+04 0.  0.
        2    1    3    3  502    0  0.42207899530E+03 -0.83973086120E+03 -0.63940231361E+02  0.94201218183E+03  0.25500000920E-02 0.  1.
       -2    1    3    3    0  502 -0.42207899530E+03  0.83973086120E+03  0.48526225862E+02  0.94109159604E+03  0.25500000920E-02 0. -1.
</event>
<event>
 5   0  0.6423388E-05  0.1892723E+04  0.7818609E-02  0.8658487E-01
        2   -1    0    0  501    0  0.00000000000E+00  0.00000000000E+00  0.75228067272E+03  0.75228067273E+03  0.25500000920E-02 0. -1.
       -2   -1    0    0    0  501  0.00000000000E+00  0.00000000000E+00 -0.11905134183E+04  0.11905134183E+04  0.25500000920E-02 0.  1.
    10030    2    1    2    0    0  0.00000000000E+00  0.00000000000E+00 -0.43823274560E+03  0.19427940911E+04  0.18927231549E+04 0.  0.
        2    1    3    3  502    0 -0.34607624342E+03  0.56227346732E+03 -0.91504946984E+03  0.11283774859E+04  0.25500000920E-02 0.  1.
       -2    1    3    3    0  502  0.34607624342E+03 -0.56227346732E+03  0.47681672424E+03  0.81441660520E+03  0.25500000920E-02 0. -1.
</event>
<event>
 5   0  0.3083469E-05  0.1904623E+04  0.7818609E-02  0.8652559E-01
        1   -1    0    0  501    0  0.00000000000E+00  0.00000000000E+00  0.14051108375E+04  0.14051108375E+04  0.50400001928E-02 0. -1.
       -1   -1    0    0    0  501  0.00000000000E+00  0.00000000000E+00 -0.64542725214E+03  0.64542725216E+03  0.50400001928E-02 0.  1.
    10030    2    1    2    0    0  0.00000000000E+00  0.00000000000E+00  0.75968358536E+03  0.20505380897E+04  0.19046226155E+04 0.  0.
        3    1    3    3  502    0  0.90910061922E+03 -0.22682706130E+03  0.56312632475E+03  0.10931723192E+04  0.10100000352E+00 0. -1.
       -3    1    3    3    0  502 -0.90910061922E+03  0.22682706130E+03  0.19655726061E+03  0.95736577049E+03  0.10100000352E+00 0.  1.
</event>
<event>
 5   0  0.6361762E-05  0.1901816E+04  0.7818609E-02  0.8653953E-01
        2   -1    0    0  501    0  0.00000000000E+00  0.00000000000E+00  0.15690555728E+04  0.15690555728E+04  0.25500000920E-02 0. -1.
       -2   -1    0    0    0  501  0.00000000000E+00  0.00000000000E+00 -0.57628682241E+03  0.57628682242E+03  0.25500000920E-02 0.  1.
    10030    2    1    2    0    0  0.00000000000E+00  0.00000000000E+00  0.99276875034E+03  0.21453423952E+04  0.19018160271E+04 0.  0.
        1    1    3    3  502    0  0.11639691914E+03 -0.21223144289E+03 -0.54095233354E+03  0.59263804749E+03  0.50400001928E-02 0.  1.
       -1    1    3    3    0  502 -0.11639691914E+03  0.21223144289E+03  0.15337210839E+04  0.15527043477E+04  0.50400001928E-02 0. -1.
</event>
<event>
 5   0  0.6395992E-05  0.1886988E+04  0.7818609E-02  0.8661361E-01
       -2   -1    0    0    0  501  0.00000000000E+00  0.00000000000E+00  0.91661429956E+03  0.91661429957E+03  0.25500000920E-02 0.  1.
        2   -1    0    0  501    0  0.00000000000E+00  0.00000000000E+00 -0.97116167580E+03  0.97116167581E+03  0.25500000920E-02 0. -1.
    10030    2    1    2    0    0  0.00000000000E+00  0.00000000000E+00 -0.54547376239E+02  0.18877759754E+04  0.18869877363E+04 0.  0.
        4    1    3    3  502    0  0.77811370617E+03  0.31112010934E+03 -0.46095494914E+03  0.95641922827E+03  0.12699999809E+01 0.  1.
       -4    1    3    3    0  502 -0.77811370617E+03 -0.31112010934E+03  0.40640757290E+03  0.93135674710E+03  0.12699999809E+01 0. -1.
</event>
<event>
 5   0  0.3147063E-05  0.1897494E+04  0.7818609E-02  0.8656105E-01
        1   -1    0    0  501    0  0.00000000000E+00  0.00000000000E+00  0.23161053192E+04  0.23161053192E+04  0.50400001928E-02 0. -1.
       -1   -1    0    0    0  501  0.00000000000E+00  0.00000000000E+00 -0.38863559399E+03  0.38863559402E+03  0.50400001928E-02 0.  1.
    10030    2    1    2    0    0  0.00000000000E+00  0.00000000000E+00  0.19274697252E+04  0.27047409132E+04  0.18974941017E+04 0.  0.
        5    1    3    3  502    0 -0.11068505296E+03 -0.56060306766E+03  0.20432759286E+04  0.21216798983E+04  0.46999998093E+01 0. -1.
       -5    1    3    3    0  502  0.11068505296E+03  0.56060306766E+03 -0.11580620337E+03  0.58306101495E+03  0.46999998093E+01 0.  1.
</event>
<event>
 5   0  0.6452182E-05  0.2023868E+04  0.7818609E-02  0.8595542E-01
        2   -1    0    0  501    0  0.00000000000E+00  0.00000000000E+00  0.86779638601E+03  0.86779638602E+03  0.25500000920E-02 0. -1.
       -2   -1    0    0    0  501  0.00000000000E+00  0.00000000000E+00 -0.11800125163E+04  0.11800125163E+04  0.25500000920E-02 0.  1.
    10030    2    1    2    0    0  0.00000000000E+00  0.00000000000E+00 -0.31221613030E+03  0.20478089023E+04  0.20238681747E+04 0.  0.
        3    1    3    3  502    0 -0.87580849603E+02 -0.10079840787E+04 -0.17387363087E+03  0.10266130516E+04  0.10100000352E+00 0. -1.
       -3    1    3    3    0  502  0.87580849603E+02  0.10079840787E+04 -0.13834249943E+03  0.10211958507E+04  0.10100000352E+00 0.  1.
</event>
<event>
 5   0  0.6452182E-05  0.1901346E+04  0.7818609E-02  0.8654187E-01
        2   -1    0    0  501    0  0.00000000000E+00  0.00000000000E+00  0.94245880732E+03  0.94245880732E+03  0.25500000920E-02 0. -1.
       -2   -1    0    0    0  501  0.00000000000E+00  0.00000000000E+00 -0.95895830820E+03  0.95895830821E+03  0.25500000920E-02 0.  1.
    10030    2    1    2    0    0  0.00000000000E+00  0.00000000000E+00 -0.16499500885E+02  0.19014171155E+04  0.19013455272E+04 0.  0.
        3    1    3    3  502    0 -0.53534790507E+02  0.70326681584E+03 -0.64571277166E+03  0.95624012766E+03  0.10100000352E+00 0.  1.
       -3    1    3    3    0  502  0.53534790507E+02 -0.70326681584E+03  0.62921327078E+03  0.94517698786E+03  0.10100000352E+00 0. -1.
</event>
<event>
 5   0  0.3086139E-05  0.1905793E+04  0.7818609E-02  0.8651978E-01
        1   -1    0    0  501    0  0.00000000000E+00  0.00000000000E+00  0.97601440528E+03  0.97601440529E+03  0.50400001928E-02 0. -1.
       -1   -1    0    0    0  501  0.00000000000E+00  0.00000000000E+00 -0.93032663390E+03  0.93032663392E+03  0.50400001928E-02 0.  1.
    10030    2    1    2    0    0  0.00000000000E+00  0.00000000000E+00  0.45687771376E+02  0.19063410392E+04  0.19057934792E+04 0.  0.
        2    1    3    3  502    0  0.66269731166E+03  0.96591496850E+02  0.70091367523E+03  0.96942128318E+03  0.25500000920E-02 0. -1.
       -2    1    3    3    0  502 -0.66269731166E+03 -0.96591496850E+02 -0.65522590385E+03  0.93691975603E+03  0.25500000920E-02 0.  1.
</event>
<event>
 5   0  0.3147063E-05  0.1889582E+04  0.7818609E-02  0.8660060E-01
        1   -1    0    0  501    0  0.00000000000E+00  0.00000000000E+00  0.15416391718E+04  0.15416391718E+04  0.50400001928E-02 0. -1.
       -1   -1    0    0    0  501  0.00000000000E+00  0.00000000000E+00 -0.57901339658E+03  0.57901339660E+03  0.50400001928E-02 0.  1.
    10030    2    1    2    0    0  0.00000000000E+00  0.00000000000E+00  0.96262577520E+03  0.21206525684E+04  0.18895816819E+04 0.  0.
        5    1    3    3  502    0  0.99303190034E+02 -0.35900567978E+03 -0.49311480538E+03  0.61800526126E+03  0.46999998093E+01 0.  1.
       -5    1    3    3    0  502 -0.99303190034E+02  0.35900567978E+03  0.14557405806E+04  0.15026473071E+04  0.46999998093E+01 0. -1.
</event>
<event>
 5   0  0.3203527E-05  0.1900689E+04  0.7818609E-02  0.8654513E-01
        1   -1    0    0  501    0  0.00000000000E+00  0.00000000000E+00  0.15179611739E+04  0.15179611739E+04  0.50400001928E-02 0. -1.
       -1   -1    0    0    0  501  0.00000000000E+00  0.00000000000E+00 -0.59497904271E+03  0.59497904273E+03  0.50400001928E-02 0.  1.
    10030    2    1    2    0    0  0.00000000000E+00  0.00000000000E+00  0.92298213123E+03  0.21129402167E+04  0.19006894393E+04 0.  0.
        1    1    3    3  502    0 -0.42244546973E+03  0.62242484845E+03 -0.18412268416E+03  0.77445079231E+03  0.50400001928E-02 0.  1.
       -1    1    3    3    0  502  0.42244546973E+03 -0.62242484845E+03  0.11071048154E+04  0.13384894244E+04  0.50400001928E-02 0. -1.
</event>
<event>
 5   0  0.6098377E-05  0.1903702E+04  0.7818609E-02  0.8653016E-01
       -2   -1    0    0    0  501  0.00000000000E+00  0.00000000000E+00  0.12722859127E+04  0.12722859127E+04  0.25500000920E-02 0.  1.
        2   -1    0    0  501    0  0.00000000000E+00  0.00000000000E+00 -0.71212018096E+03  0.71212018096E+03  0.25500000920E-02 0. -1.
    10030    2    1    2    0    0  0.00000000000E+00  0.00000000000E+00  0.56016573171E+03  0.19844060936E+04  0.19037021557E+04 0.  0.
        5    1    3    3  502    0 -0.51377749388E+03  0.17369751562E+03  0.10954583852E+04  0.12223703628E+04  0.46999998093E+01 0.  1.
       -5    1    3    3    0  502  0.51377749388E+03 -0.17369751562E+03 -0.53529265350E+03  0.76203573082E+03  0.46999998093E+01 0. -1.
</event>
<event>
 5   0  0.6452182E-05  0.1903614E+04  0.7818609E-02  0.8653060E-01
       -2   -1    0    0    0  501  0.00000000000E+00  0.00000000000E+00  0.45530621718E+03  0.45530621719E+03  0.25500000920E-02 0.  1.
        2   -1    0    0  501    0  0.00000000000E+00  0.00000000000E+00 -0.19897302506E+04  0.19897302506E+04  0.25500000920E-02 0. -1.
    10030    2    1    2    0    0  0.00000000000E+00  0.00000000000E+00 -0.15344240334E+04  0.24450364678E+04  0.19036139878E+04 0.  0.
        3    1    3    3  502    0 -0.21240194394E+03 -0.47471130410E+03  0.25668049791E+03  0.57995715034E+03  0.10100000352E+00 0.  1.
       -3    1    3    3    0  502  0.21240194394E+03  0.47471130410E+03 -0.17911045313E+04  0.18650793174E+04  0.10100000352E+00 0. -1.
</event>
<event>
 5   0  0.6395992E-05  0.1900181E+04  0.7818609E-02  0.8654766E-01
        2   -1    0    0  501    0  0.00000000000E+00  0.00000000000E+00  0.16112574791E+04  0.16112574791E+04  0.25500000920E-02 0.  1.
       -2   -1    0    0    0  501  0.00000000000E+00  0.00000000000E+00 -0.56022804408E+03  0.56022804408E+03  0.25500000920E-02 0. -1.
    10030    2    1    2    0    0  0.00000000000E+00  0.00000000000E+00  0.10510294351E+04  0.21714855232E+04  0.19001806504E+04 0.  0.
        4    1    3    3  502    0  0.76027100810E+03 -0.37843068088E+03  0.38728345103E+02  0.85013133315E+03  0.12699999809E+01 0. -1.
       -4    1    3    3    0  502 -0.76027100810E+03  0.37843068088E+03  0.10123010900E+04  0.13213541901E+04  0.12699999809E+01 0.  1.
</event>
<event>
 5   0  0.6452182E-05  0.1903036E+04  0.7818609E-02  0.8653346E-01
        2   -1    0    0  501    0  0.00000000000E+00  0.00000000000E+00  0.76574980077E+03  0.76574980077E+03  0.25500000920E-02 0. -1.
       -2   -1    0    0    0  501  0.00000000000E+00  0.00000000000E+00 -0.11823534906E+04  0.11823534906E+04  0.25500000920E-02 0.  1.
    10030    2    1    2    0    0  0.00000000000E+00  0.00000000000E+00 -0.41660368978E+03  0.19481032913E+04  0.19030364682E+04 0.  0.
        3    1    3    3  502    0 -0.87036136953E+03 -0.26066384710E+03 -0.49768411230E+03  0.10359363111E+04  0.10100000352E+00 0.  1.
       -3    1    3    3    0  502  0.87036136953E+03  0.26066384710E+03  0.81080422520E+02  0.91216698026E+03  0.10100000352E+00 0. -1.
</event>
<event>
 5   0  0.3147063E-05  0.1903034E+04  0.7818609E-02  0.8653348E-01
       -1   -1    0    0    0  501  0.00000000000E+00  0.00000000000E+00  0.76558200940E+03  0.76558200942E+03  0.50400001928E-02 0.  1.
        1   -1    0    0  501    0  0.00000000000E+00  0.00000000000E+00 -0.11826091932E+04  0.11826091932E+04  0.50400001928E-02 0. -1.
    10030    2    1    2    0    0  0.00000000000E+00  0.00000000000E+00 -0.41702718376E+03  0.19481912026E+04  0.19030337070E+04 0.  0.
        5    1    3    3  502    0 -0.31931182381E+03 -0.16293897964E+03  0.69379385840E+03  0.78094888429E+03  0.46999998093E+01 0.  1.
       -5    1    3    3    0  502  0.31931182381E+03  0.16293897964E+03 -0.11108210422E+04  0.11672423183E+04  0.46999998093E+01 0. -1.
</event>
<event>
 5   0  0.3144958E-05  0.1893425E+04  0.7818609E-02  0.8658136E-01
       -1   -1    0    0    0  501  0.00000000000E+00  0.00000000000E+00  0.87706854683E+03  0.87706854685E+03  0.50400001928E-02 0. -1.
        1   -1    0    0  501    0  0.00000000000E+00  0.00000000000E+00 -0.10218865134E+04  0.10218865135E+04  0.50400001928E-02 0.  1.
    10030    2    1    2    0    0  0.00000000000E+00  0.00000000000E+00 -0.14481796661E+03  0.18989550603E+04  0.18934249596E+04 0.  0.
        4    1    3    3  502    0  0.47532371333E+03  0.25558552015E+03  0.70768430884E+03  0.88998611474E+03  0.12699999809E+01 0. -1.
       -4    1    3    3    0  502 -0.47532371333E+03 -0.25558552015E+03 -0.85250227544E+03  0.10089689456E+04  0.12699999809E+01 0.  1.
</event>
<event>
 5   0  0.3147063E-05  0.2010553E+04  0.7818609E-02  0.8601703E-01
        1   -1    0    0  501    0  0.00000000000E+00  0.00000000000E+00  0.71164454588E+03  0.71164454590E+03  0.50400001928E-02 0. -1.
       -1   -1    0    0    0  501  0.00000000000E+00  0.00000000000E+00 -0.14200634921E+04  0.14200634921E+04  0.50400001928E-02 0.  1.
    10030    2    1    2    0    0  0.00000000000E+00  0.00000000000E+00 -0.70841894619E+03  0.21317080380E+04  0.20105525996E+04 0.  0.
        5    1    3    3  502    0  0.55177889068E+03  0.50639476783E+03 -0.10651867757E+04  0.13021292417E+04  0.46999998093E+01 0.  1.
       -5    1    3    3    0  502 -0.55177889068E+03 -0.50639476783E+03  0.35676782947E+03  0.82957879627E+03  0.46999998093E+01 0. -1.
</event>
<event>
 5   0  0.3144958E-05  0.1893336E+04  0.7818609E-02  0.8658181E-01
        1   -1    0    0  501    0  0.00000000000E+00  0.00000000000E+00  0.22996699734E+04  0.22996699734E+04  0.50400001928E-02 0. -1.
       -1   -1    0    0    0  501  0.00000000000E+00  0.00000000000E+00 -0.38969940524E+03  0.38969940527E+03  0.50400001928E-02 0.  1.
    10030    2    1    2    0    0  0.00000000000E+00  0.00000000000E+00  0.19099705682E+04  0.26893693787E+04  0.18933357029E+04 0.  0.
        4    1    3    3  502    0  0.28149747529E+03 -0.79573395238E+03  0.34610675062E+03  0.91226358433E+03  0.12699999809E+01 0.  1.
       -4    1    3    3    0  502 -0.28149747529E+03  0.79573395238E+03  0.15638638175E+04  0.17771057943E+04  0.12699999809E+01 0. -1.
</event>
<event>
 5   0  0.6452182E-05  0.1901004E+04  0.7818609E-02  0.8654357E-01
        2   -1    0    0  501    0  0.00000000000E+00  0.00000000000E+00  0.21378687447E+04  0.21378687447E+04  0.25500000920E-02 0. -1.
       -2   -1    0    0    0  501  0.00000000000E+00  0.00000000000E+00 -0.42259557773E+03  0.42259557774E+03  0.25500000920E-02 0.  1.
    10030    2    1    2    0    0  0.00000000000E+00  0.00000000000E+00  0.17152731669E+04  0.25604643224E+04  0.19010038162E+04 0.  0.
        3    1    3    3  502    0  0.26026690141E+02  0.60148908589E+03  0.18483072373E+04  0.19438894420E+04  0.10100000352E+00 0. -1.
       -3    1    3    3    0  502 -0.26026690141E+02 -0.60148908589E+03 -0.13303407039E+03  0.61657488039E+03  0.10100000352E+00 0.  1.
</event>
<event>
 5   0  0.3083469E-05  0.1901958E+04  0.7818609E-02  0.8653882E-01
       -1   -1    0    0    0  501  0.00000000000E+00  0.00000000000E+00  0.52450165205E+03  0.52450165208E+03  0.50400001928E-02 0. -1.
        1   -1    0    0  501    0  0.00000000000E+00  0.00000000000E+00 -0.17242290739E+04  0.17242290739E+04  0.50400001928E-02 0.  1.
    10030    2    1    2    0    0  0.00000000000E+00  0.00000000000E+00 -0.11997274218E+04  0.22487307260E+04  0.19019579362E+04 0.  0.
        3    1    3    3  502    0  0.52489337661E+03  0.76088784444E+03 -0.33575881177E+03  0.98346192529E+03  0.10100000352E+00 0.  1.
       -3    1    3    3    0  502 -0.52489337661E+03 -0.76088784444E+03 -0.86396861007E+03  0.12652688007E+04  0.10100000352E+00 0. -1.
</event>
<event>
 5   0  0.6098377E-05  0.1903880E+04  0.7818609E-02  0.8652927E-01
       -2   -1    0    0    0  501  0.00000000000E+00  0.00000000000E+00  0.10856204382E+04  0.10856204382E+04  0.25500000920E-02 0.  1.
        2   -1    0    0  501    0  0.00000000000E+00  0.00000000000E+00 -0.83472057002E+03  0.83472057003E+03  0.25500000920E-02 0. -1.
    10030    2    1    2    0    0  0.00000000000E+00  0.00000000000E+00  0.25089986815E+03  0.19203410082E+04  0.19038799447E+04 0.  0.
        5    1    3    3  502    0 -0.37650858343E+03 -0.59403048997E+03  0.77250773048E+03  0.10447110701E+04  0.46999998093E+01 0.  1.
       -5    1    3    3    0  502  0.37650858343E+03  0.59403048997E+03 -0.52160786232E+03  0.87562993807E+03  0.46999998093E+01 0. -1.
</event>
<event>
 5   0  0.6452182E-05  0.1896427E+04  0.7818609E-02  0.8656637E-01
       -2   -1    0    0    0  501  0.00000000000E+00  0.00000000000E+00  0.75644221378E+03  0.75644221378E+03  0.25500000920E-02 0.  1.
        2   -1    0    0  501    0  0.00000000000E+00  0.00000000000E+00 -0.11886027685E+04  0.11886027685E+04  0.25500000920E-02 0. -1.
    10030    2    1    2    0    0  0.00000000000E+00  0.00000000000E+00 -0.43216055470E+03  0.19450449823E+04  0.18964274935E+04 0.  0.
        3    1    3    3  502    0  0.45385050111E+03 -0.82659062834E+03 -0.31801096305E+03  0.99516999907E+03  0.10100000352E+00 0. -1.
       -3    1    3    3    0  502 -0.45385050111E+03  0.82659062834E+03 -0.11414959165E+03  0.94987498320E+03  0.10100000352E+00 0.  1.
</event>
<event>
 5   0  0.3083469E-05  0.1903484E+04  0.7818609E-02  0.8653124E-01
       -1   -1    0    0    0  501  0.00000000000E+00  0.00000000000E+00  0.65246038710E+03  0.65246038712E+03  0.50400001928E-02 0. -1.
        1   -1    0    0  501    0  0.00000000000E+00  0.00000000000E+00 -0.13883034640E+04  0.13883034640E+04  0.50400001928E-02 0.  1.
    10030    2    1    2    0    0  0.00000000000E+00  0.00000000000E+00 -0.73584307689E+03  0.20407638511E+04  0.19034841902E+04 0.  0.
        3    1    3    3  502    0 -0.31190896172E+03  0.40682550606E+03 -0.12276381501E+04  0.13303719895E+04  0.10100000352E+00 0.  1.
       -3    1    3    3    0  502  0.31190896172E+03 -0.40682550606E+03  0.49179507320E+03  0.71039186159E+03  0.10100000352E+00 0. -1.
</event>
<event>
 5   0  0.6395992E-05  0.1892282E+04  0.7818609E-02  0.8658708E-01
       -2   -1    0    0    0  501  0.00000000000E+00  0.00000000000E+00  0.72256661447E+03  0.72256661447E+03  0.25500000920E-02 0.  1.
        2   -1    0    0  501    0  0.00000000000E+00  0.00000000000E+00 -0.12388926496E+04  0.12388926496E+04  0.25500000920E-02 0. -1.
    10030    2    1    2    0    0  0.00000000000E+00  0.00000000000E+00 -0.51632603517E+03  0.19614592641E+04  0.18922816572E+04 0.  0.
        4    1    3    3  502    0  0.71205358200E+02  0.43690255897E+03  0.60860434118E+03  0.75256554935E+03  0.12699999809E+01 0.  1.
       -4    1    3    3    0  502 -0.71205358200E+02 -0.43690255897E+03 -0.11249303764E+04  0.12088937148E+04  0.12699999809E+01 0. -1.
</event>
<event>
 5   0  0.2279625E-05  0.1941086E+04  0.7818609E-02  0.8634671E-01
       -4   -1    0    0    0  501  0.00000000000E+00  0.00000000000E+00  0.88592353974E+03  0.88592445004E+03  0.12699999809E+01 0. -1.
        4   -1    0    0  501    0  0.00000000000E+00  0.00000000000E+00 -0.10632430968E+04  0.10632438553E+04  0.12699999809E+01 0.  1.
    10030    2    1    2    0    0  0.00000000000E+00  0.00000000000E+00 -0.17731955704E+03  0.19491683053E+04  0.19410859994E+04 0.  0.
        4    1    3    3  502    0 -0.70585155127E+03  0.34478724895E+03 -0.66098685061E+03  0.10266498376E+04  0.12699999809E+01 0.  1.
       -4    1    3    3    0  502  0.70585155127E+03 -0.34478724895E+03  0.48366729357E+03  0.92251846770E+03  0.12699999809E+01 0. -1.
</event>
<event>
 5   0  0.3086139E-05  0.1916186E+04  0.7818609E-02  0.8646841E-01
       -1   -1    0    0    0  501  0.00000000000E+00  0.00000000000E+00  0.94999516265E+03  0.94999516266E+03  0.50400001928E-02 0. -1.
        1   -1    0    0  501    0  0.00000000000E+00  0.00000000000E+00 -0.96625985968E+03  0.96625985969E+03  0.50400001928E-02 0.  1.
    10030    2    1    2    0    0  0.00000000000E+00  0.00000000000E+00 -0.16264697035E+02  0.19162550224E+04  0.19161859958E+04 0.  0.
        2    1    3    3  502    0 -0.10444712721E+03 -0.80708533093E+03  0.49750059875E+03  0.95383582421E+03  0.25500000920E-02 0. -1.
       -2    1    3    3    0  502  0.10444712721E+03  0.80708533093E+03 -0.51376529579E+03  0.96241919814E+03  0.25500000920E-02 0.  1.
</event>
<event>
 5   0  0.3144958E-05  0.1900906E+04  0.7818609E-02  0.8654406E-01
        1   -1    0    0  501    0  0.00000000000E+00  0.00000000000E+00  0.12968022959E+04  0.12968022959E+04  0.50400001928E-02 0.  1.
       -1   -1    0    0    0  501  0.00000000000E+00  0.00000000000E+00 -0.69660639024E+03  0.69660639026E+03  0.50400001928E-02 0. -1.
    10030    2    1    2    0    0  0.00000000000E+00  0.00000000000E+00  0.60019590561E+03  0.19934086861E+04  0.19009058537E+04 0.  0.
        4    1    3    3  502    0 -0.64763480908E+03  0.13249266276E+03  0.10162461524E+04  0.12123295785E+04  0.12699999809E+01 0.  1.
       -4    1    3    3    0  502  0.64763480908E+03 -0.13249266276E+03 -0.41605024682E+03  0.78107910764E+03  0.12699999809E+01 0. -1.
</event>
<event>
 5   0  0.3083469E-05  0.1923622E+04  0.7818609E-02  0.8643187E-01
        1   -1    0    0  501    0  0.00000000000E+00  0.00000000000E+00  0.80449281513E+03  0.80449281514E+03  0.50400001928E-02 0.  1.
       -1   -1    0    0    0  501  0.00000000000E+00  0.00000000000E+00 -0.11498924245E+04  0.11498924245E+04  0.50400001928E-02 0. -1.
    10030    2    1    2    0    0  0.00000000000E+00  0.00000000000E+00 -0.34539960935E+03  0.19543852396E+04  0.19236217858E+04 0.  0.
        3    1    3    3  502    0  0.61363273047E+03 -0.65863342604E+03  0.17144590241E+03  0.91637155426E+03  0.10100000352E+00 0.  1.
       -3    1    3    3    0  502 -0.61363273047E+03  0.65863342604E+03 -0.51684551177E+03  0.10380136854E+04  0.10100000352E+00 0. -1.
</event>
<event>
 5   0  0.3147063E-05  0.1919835E+04  0.7818609E-02  0.8645046E-01
       -1   -1    0    0    0  501  0.00000000000E+00  0.00000000000E+00  0.60260591761E+03  0.60260591763E+03  0.50400001928E-02 0.  1.
        1   -1    0    0  501    0  0.00000000000E+00  0.00000000000E+00 -0.15290952813E+04  0.15290952813E+04  0.50400001928E-02 0. -1.
    10030    2    1    2    0    0  0.00000000000E+00  0.00000000000E+00 -0.92648936366E+03  0.21317011989E+04  0.19198352691E+04 0.  0.
        5    1    3    3  502    0 -0.14912418194E+01 -0.44662713378E+03 -0.14066828537E+04  0.14758918529E+04  0.46999998093E+01 0. -1.
       -5    1    3    3    0  502  0.14912418194E+01  0.44662713378E+03  0.48019349007E+03  0.65580934603E+03  0.46999998093E+01 0.  1.
</event>
<event>
 5   0  0.6452182E-05  0.1884844E+04  0.7818609E-02  0.8662437E-01
       -2   -1    0    0    0  501  0.00000000000E+00  0.00000000000E+00  0.10007070381E+04  0.10007070381E+04  0.25500000920E-02 0. -1.
        2   -1    0    0  501    0  0.00000000000E+00  0.00000000000E+00 -0.88753201978E+03  0.88753201979E+03  0.25500000920E-02 0.  1.
    10030    2    1    2    0    0  0.00000000000E+00  0.00000000000E+00  0.11317501827E+03  0.18882390578E+04  0.18848443317E+04 0.  0.
        3    1    3    3  502    0 -0.53941558419E+03 -0.59861178911E+03 -0.43301992615E+03  0.91477402301E+03  0.10100000352E+00 0.  1.
       -3    1    3    3    0  502  0.53941558419E+03  0.59861178911E+03  0.54619494442E+03  0.97346503483E+03  0.10100000352E+00 0. -1.
</event>
<event>
 5   0  0.3203527E-05  0.1878086E+04  0.7818609E-02  0.8665842E-01
        1   -1    0    0  501    0  0.00000000000E+00  0.00000000000E+00  0.12497320418E+04  0.12497320418E+04  0.50400001928E-02 0.  1.
       -1   -1    0    0    0  501  0.00000000000E+00  0.00000000000E+00 -0.70559271436E+03  0.70559271438E+03  0.50400001928E-02 0. -1.
    10030    2    1    2    0    0  0.00000000000E+00  0.00000000000E+00  0.54413932744E+03  0.19553247562E+04  0.18780860722E+04 0.  0.
        1    1    3    3  502    0 -0.17025485338E+03 -0.21165089185E+03 -0.66379746983E+03  0.71722374201E+03  0.50400001928E-02 0. -1.
       -1    1    3    3    0  502  0.17025485338E+03  0.21165089185E+03  0.12079367973E+04  0.12381010142E+04  0.50400001928E-02 0.  1.
</event>
<event>
 5   0  0.6361762E-05  0.1901660E+04  0.7818609E-02  0.8654030E-01
       -2   -1    0    0    0  501  0.00000000000E+00  0.00000000000E+00  0.39981453100E+03  0.39981453101E+03  0.25500000920E-02 0.  1.
        2   -1    0    0  501    0  0.00000000000E+00  0.00000000000E+00 -0.22612431284E+04  0.22612431284E+04  0.25500000920E-02 0. -1.
    10030    2    1    2    0    0  0.00000000000E+00  0.00000000000E+00 -0.18614285974E+04  0.26610576594E+04  0.19016601809E+04 0.  0.
        1    1    3    3  502    0 -0.93900806931E+03 -0.86738211322E+01 -0.72190632830E+03  0.11844661820E+04  0.50400001928E-02 0. -1.
       -1    1    3    3    0  502  0.93900806931E+03  0.86738211322E+01 -0.11395222691E+04  0.14765914774E+04  0.50400001928E-02 0.  1.
</event>
<event>
 5   0  0.3083469E-05  0.1892159E+04  0.7818609E-02  0.8658769E-01
       -1   -1    0    0    0  501  0.00000000000E+00  0.00000000000E+00  0.13729118747E+04  0.13729118747E+04  0.50400001928E-02 0.  1.
        1   -1    0    0  501    0  0.00000000000E+00  0.00000000000E+00 -0.65194773356E+03  0.65194773358E+03  0.50400001928E-02 0. -1.
    10030    2    1    2    0    0  0.00000000000E+00  0.00000000000E+00  0.72096414109E+03  0.20248596082E+04  0.18921593856E+04 0.  0.
        3    1    3    3  502    0  0.39655063607E+03 -0.79604293632E+03  0.15159345832E+02  0.88947545183E+03  0.10100000352E+00 0.  1.
       -3    1    3    3    0  502 -0.39655063607E+03  0.79604293632E+03  0.70580479526E+03  0.11353841564E+04  0.10100000352E+00 0. -1.
</event>
<event>
 5   0  0.3086139E-05  0.1884152E+04  0.7818609E-02  0.8662786E-01
        1   -1    0    0  501    0  0.00000000000E+00  0.00000000000E+00  0.19035095056E+04  0.19035095056E+04  0.50400001928E-02 0. -1.
       -1   -1    0    0    0  501  0.00000000000E+00  0.00000000000E+00 -0.46624760369E+03  0.46624760371E+03  0.50400001928E-02 0.  1.
    10030    2    1    2    0    0  0.00000000000E+00  0.00000000000E+00  0.14372619019E+04  0.23697571093E+04  0.18841515285E+04 0.  0.
        2    1    3    3  502    0  0.18857214800E+03 -0.47818486227E+03 -0.27432933244E+03  0.58264637659E+03  0.25500000920E-02 0.  1.
       -2    1    3    3    0  502 -0.18857214800E+03  0.47818486227E+03  0.17115912343E+04  0.17871107327E+04  0.25500000920E-02 0. -1.
</event>
<event>
 5   0  0.3147063E-05  0.1895037E+04  0.7818609E-02  0.8657331E-01
       -1   -1    0    0    0  501  0.00000000000E+00  0.00000000000E+00  0.10729304020E+04  0.10729304020E+04  0.50400001928E-02 0.  1.
        1   -1    0    0  501    0  0.00000000000E+00  0.00000000000E+00 -0.83676602706E+03  0.83676602708E+03  0.50400001928E-02 0. -1.
    10030    2    1    2    0    0  0.00000000000E+00  0.00000000000E+00  0.23616437490E+03  0.19096964291E+04  0.18950374242E+04 0.  0.
        5    1    3    3  502    0 -0.64446842348E+03  0.47872380579E+03 -0.38905370535E+03  0.89213278537E+03  0.46999998093E+01 0. -1.
       -5    1    3    3    0  502  0.64446842348E+03 -0.47872380579E+03  0.62521808025E+03  0.10175636437E+04  0.46999998093E+01 0.  1.
</event>
<event>
 5   0  0.6098377E-05  0.1894441E+04  0.7818609E-02  0.8657629E-01
        2   -1    0    0  501    0  0.00000000000E+00  0.00000000000E+00  0.80576854638E+03  0.80576854638E+03  0.25500000920E-02 0. -1.
       -2   -1    0    0    0  501  0.00000000000E+00  0.00000000000E+00 -0.11135039809E+04  0.11135039809E+04  0.25500000920E-02 0.  1.
    10030    2    1    2    0    0  0.00000000000E+00  0.00000000000E+00 -0.30773543455E+03  0.19192725273E+04  0.18944407978E+04 0.  0.
        5    1    3    3  502    0 -0.97461395528E+02 -0.31040614667E+03  0.74737325213E+03  0.81513162588E+03  0.46999998093E+01 0. -1.
       -5    1    3    3    0  502  0.97461395528E+02  0.31040614667E+03 -0.10551086867E+04  0.11041409014E+04  0.46999998093E+01 0.  1.
</event>
<event>
 5   0  0.6098377E-05  0.1896432E+04  0.7818609E-02  0.8656634E-01
       -2   -1    0    0    0  501  0.00000000000E+00  0.00000000000E+00  0.68852777749E+03  0.68852777749E+03  0.25500000920E-02 0. -1.
        2   -1    0    0  501    0  0.00000000000E+00  0.00000000000E+00 -0.13058495636E+04  0.13058495636E+04  0.25500000920E-02 0.  1.
    10030    2    1    2    0    0  0.00000000000E+00  0.00000000000E+00 -0.61732178606E+03  0.19943773411E+04  0.18964321214E+04 0.  0.
        5    1    3    3  502    0 -0.79235982028E+03  0.47693255692E+03 -0.88585402496E+02  0.92906846474E+03  0.46999998093E+01 0.  1.
       -5    1    3    3    0  502  0.79235982028E+03 -0.47693255692E+03 -0.52873638357E+03  0.10653088763E+04  0.46999998093E+01 0. -1.
</event>
<event>
 5   0  0.6098377E-05  0.1895927E+04  0.7818609E-02  0.8656886E-01
       -2   -1    0    0    0  501  0.00000000000E+00  0.00000000000E+00  0.92203265294E+03  0.92203265294E+03  0.25500000920E-02 0.  1.
        2   -1    0    0  501    0  0.00000000000E+00  0.00000000000E+00 -0.97462391842E+03  0.97462391842E+03  0.25500000920E-02 0. -1.
    10030    2    1    2    0    0  0.00000000000E+00  0.00000000000E+00 -0.52591265481E+02  0.18966565714E+04  0.18959272952E+04 0.  0.
        5    1    3    3  502    0 -0.87989131480E+03 -0.23537261974E+03  0.23649151819E+03  0.94104161659E+03  0.46999998093E+01 0.  1.
       -5    1    3    3    0  502  0.87989131480E+03  0.23537261974E+03 -0.28908278367E+03  0.95561495478E+03  0.46999998093E+01 0. -1.
</event>
<event>
 5   0  0.3144958E-05  0.1885136E+04  0.7818609E-02  0.8662291E-01
       -1   -1    0    0    0  501  0.00000000000E+00  0.00000000000E+00  0.41180974393E+03  0.41180974396E+03  0.50400001928E-02 0. -1.
        1   -1    0    0  501    0  0.00000000000E+00  0.00000000000E+00 -0.21573902284E+04  0.21573902284E+04  0.50400001928E-02 0.  1.
    10030    2    1    2    0    0  0.00000000000E+00  0.00000000000E+00 -0.17455804845E+04  0.25691999723E+04  0.18851358758E+04 0.  0.
        4    1    3    3  502    0  0.58917441018E+03  0.46331127739E+03 -0.93864895315E+02  0.75537808867E+03  0.12699999809E+01 0. -1.
       -4    1    3    3    0  502 -0.58917441018E+03 -0.46331127739E+03 -0.16517155891E+04  0.18138218837E+04  0.12699999809E+01 0.  1.
</event>
<event>
 5   0  0.6423388E-05  0.1939692E+04  0.7818609E-02  0.8635348E-01
       -2   -1    0    0    0  501  0.00000000000E+00  0.00000000000E+00  0.96407745690E+03  0.96407745690E+03  0.25500000920E-02 0. -1.
        2   -1    0    0  501    0  0.00000000000E+00  0.00000000000E+00 -0.97564871709E+03  0.97564871709E+03  0.25500000920E-02 0.  1.
    10030    2    1    2    0    0  0.00000000000E+00  0.00000000000E+00 -0.11571260185E+02  0.19397261740E+04  0.19396916600E+04 0.  0.
        2    1    3    3  502    0 -0.29186337267E+03 -0.57824546726E+03 -0.72763563393E+03  0.97416921758E+03  0.25500000920E-02 0.  1.
       -2    1    3    3    0  502  0.29186337267E+03  0.57824546726E+03  0.71606437374E+03  0.96555695641E+03  0.25500000920E-02 0. -1.
</event>
<event>
 5   0  0.6452182E-05  0.1900783E+04  0.7818609E-02  0.8654467E-01
        2   -1    0    0  501    0  0.00000000000E+00  0.00000000000E+00  0.94893160634E+03  0.94893160634E+03  0.25500000920E-02 0.  1.
       -2   -1    0    0    0  501  0.00000000000E+00  0.00000000000E+00 -0.95185370145E+03  0.95185370145E+03  0.25500000920E-02 0. -1.
    10030    2    1    2    0    0  0.00000000000E+00  0.00000000000E+00 -0.29220951112E+01  0.19007853078E+04  0.19007830617E+04 0.  0.
        3    1    3    3  502    0  0.46136602925E+03  0.81797561633E+03  0.14448887605E+03  0.95016828371E+03  0.10100000352E+00 0.  1.
       -3    1    3    3    0  502 -0.46136602925E+03 -0.81797561633E+03 -0.14741097116E+03  0.95061702408E+03  0.10100000352E+00 0. -1.
</event>
<event>
 5   0  0.3083469E-05  0.1901284E+04  0.7818609E-02  0.8654218E-01
        1   -1    0    0  501    0  0.00000000000E+00  0.00000000000E+00  0.87301058277E+03  0.87301058278E+03  0.50400001928E-02 0. -1.
       -1   -1    0    0    0  501  0.00000000000E+00  0.00000000000E+00 -0.10351765070E+04  0.10351765071E+04  0.50400001928E-02 0.  1.
    10030    2    1    2    0    0  0.00000000000E+00  0.00000000000E+00 -0.16216592428E+03  0.19081870898E+04  0.19012838249E+04 0.  0.
        3    1    3    3  502    0 -0.52265506244E+03  0.73002260009E+03  0.23249141212E+03  0.92744464948E+03  0.10100000352E+00 0. -1.
       -3    1    3    3    0  502  0.52265506244E+03 -0.73002260009E+03 -0.39465733640E+03  0.98074244036E+03  0.10100000352E+00 0.  1.
</event>
<event>
 5   0  0.6452182E-05  0.1896604E+04  0.7818609E-02  0.8656549E-01
       -2   -1    0    0    0  501  0.00000000000E+00  0.00000000000E+00  0.13398905764E+04  0.13398905764E+04  0.25500000920E-02 0.  1.
        2   -1    0    0  501    0  0.00000000000E+00  0.00000000000E+00 -0.67115694884E+03  0.67115694884E+03  0.25500000920E-02 0. -1.
    10030    2    1    2    0    0  0.00000000000E+00  0.00000000000E+00  0.66873362758E+03  0.20110475253E+04  0.18966041981E+04 0.  0.
        3    1    3    3  502    0 -0.53252732475E+03  0.58090973266E+03  0.89367581973E+03  0.11915107847E+04  0.10100000352E+00 0.  1.
       -3    1    3    3    0  502  0.53252732475E+03 -0.58090973266E+03 -0.22494219215E+03  0.81953674055E+03  0.10100000352E+00 0. -1.
</event>
<event>
 5   0  0.3144958E-05  0.1901550E+04  0.7818609E-02  0.8654085E-01
        1   -1    0    0  501    0  0.00000000000E+00  0.00000000000E+00  0.94899849586E+03  0.94899849587E+03  0.50400001928E-02 0. -1.
       -1   -1    0    0    0  501  0.00000000000E+00  0.00000000000E+00 -0.95255449816E+03  0.95255449817E+03  0.50400001928E-02 0.  1.
    10030    2    1    2    0    0  0.00000000000E+00  0.00000000000E+00 -0.35560023015E+01  0.19015529940E+04  0.19015496691E+04 0.  0.
        4    1    3    3  502    0 -0.73712882479E+03 -0.54788643468E+03  0.24405310916E+03  0.95031678015E+03  0.12699999809E+01 0. -1.
       -4    1    3    3    0  502  0.73712882479E+03  0.54788643468E+03 -0.24760911146E+03  0.95123621389E+03  0.12699999809E+01 0.  1.
</event>
<event>
 5   0  0.6098377E-05  0.1897991E+04  0.7818609E-02  0.8655857E-01
        2   -1    0    0  501    0  0.00000000000E+00  0.00000000000E+00  0.10310672110E+04  0.10310672110E+04  0.25500000920E-02 0. -1.
       -2   -1    0    0    0  501  0.00000000000E+00  0.00000000000E+00 -0.87345620733E+03  0.87345620733E+03  0.25500000920E-02 0.  1.
    10030    2    1    2    0    0  0.00000000000E+00  0.00000000000E+00  0.15761100367E+03  0.19045234183E+04  0.18979905749E+04 0.  0.
        5    1    3    3  502    0  0.58871429824E+03  0.20663519642E+03 -0.63869925356E+03  0.89288378630E+03  0.46999998093E+01 0.  1.
       -5    1    3    3    0  502 -0.58871429824E+03 -0.20663519642E+03  0.79631025723E+03  0.10116396320E+04  0.46999998093E+01 0. -1.
</event>
<event>
 5   0  0.3083469E-05  0.1914479E+04  0.7818609E-02  0.8647683E-01
       -1   -1    0    0    0  501  0.00000000000E+00  0.00000000000E+00  0.62873885944E+03  0.62873885946E+03  0.50400001928E-02 0.  1.
        1   -1    0    0  501    0  0.00000000000E+00  0.00000000000E+00 -0.14573734902E+04  0.14573734902E+04  0.50400001928E-02 0. -1.
    10030    2    1    2    0    0  0.00000000000E+00  0.00000000000E+00 -0.82863463078E+03  0.20861123497E+04  0.19144788806E+04 0.  0.
        3    1    3    3  502    0  0.14298531921E+03 -0.60577845316E+03 -0.12067672702E+04  0.13578289989E+04  0.10100000352E+00 0. -1.
       -3    1    3    3    0  502 -0.14298531921E+03  0.60577845316E+03  0.37813263938E+03  0.72828335076E+03  0.10100000352E+00 0.  1.
</event>
<event>
 5   0  0.6423388E-05  0.1896502E+04  0.7818609E-02  0.8656600E-01
       -2   -1    0    0    0  501  0.00000000000E+00  0.00000000000E+00  0.61879691646E+03  0.61879691647E+03  0.25500000920E-02 0. -1.
        2   -1    0    0  501    0  0.00000000000E+00  0.00000000000E+00 -0.14531093395E+04  0.14531093396E+04  0.25500000920E-02 0.  1.
    10030    2    1    2    0    0  0.00000000000E+00  0.00000000000E+00 -0.83431242309E+03  0.20719062560E+04  0.18965015988E+04 0.  0.
        2    1    3    3  502    0  0.43650599843E+03  0.80724505828E+03 -0.15633385049E+03  0.93092553064E+03  0.25500000920E-02 0. -1.
       -2    1    3    3    0  502 -0.43650599843E+03 -0.80724505828E+03 -0.67797857260E+03  0.11409807254E+04  0.25500000920E-02 0.  1.
</event>
<event>
 5   0  0.3147063E-05  0.1910495E+04  0.7818609E-02  0.8649650E-01
       -1   -1    0    0    0  501  0.00000000000E+00  0.00000000000E+00  0.31889643036E+03  0.31889643040E+03  0.50400001928E-02 0. -1.
        1   -1    0    0  501    0  0.00000000000E+00  0.00000000000E+00 -0.28614228543E+04  0.28614228543E+04  0.50400001928E-02 0.  1.
    10030    2    1    2    0    0  0.00000000000E+00  0.00000000000E+00 -0.25425264239E+04  0.31803192847E+04  0.19104947360E+04 0.  0.
        5    1    3    3  502    0  0.85573831972E+02  0.59648199065E+03 -0.37436679266E+02  0.60376919500E+03  0.46999998093E+01 0. -1.
       -5    1    3    3    0  502 -0.85573831972E+02 -0.59648199065E+03 -0.25050897446E+04  0.25765500897E+04  0.46999998093E+01 0.  1.
</event>
<event>
 5   0  0.3086139E-05  0.1898276E+04  0.7818609E-02  0.8655715E-01
        1   -1    0    0  501    0  0.00000000000E+00  0.00000000000E+00  0.10203249996E+04  0.10203249996E+04  0.50400001928E-02 0.  1.
       -1   -1    0    0    0  501  0.00000000000E+00  0.00000000000E+00 -0.88291774543E+03  0.88291774545E+03  0.50400001928E-02 0. -1.
    10030    2    1    2    0    0  0.00000000000E+00  0.00000000000E+00  0.13740725419E+03  0.19032427451E+04  0.18982761109E+04 0.  0.
        2    1    3    3  502    0  0.44374427185E+03  0.30681988174E+03 -0.71424645910E+03  0.89509520330E+03  0.25500000920E-02 0. -1.
       -2    1    3    3    0  502 -0.44374427185E+03 -0.30681988174E+03  0.85165371329E+03  0.10081475418E+04  0.25500000920E-02 0.  1.
</event>
<event>
 5   0  0.3147063E-05  0.1898272E+04  0.7818609E-02  0.8655717E-01
       -1   -1    0    0    0  501  0.00000000000E+00  0.00000000000E+00  0.69966238504E+03  0.69966238506E+03  0.50400001928E-02 0.  1.
        1   -1    0    0  501    0  0.00000000000E+00  0.00000000000E+00 -0.12875619938E+04  0.12875619938E+04  0.50400001928E-02 0. -1.
    10030    2    1    2    0    0  0.00000000000E+00  0.00000000000E+00 -0.58789960876E+03  0.19872243789E+04  0.18982715248E+04 0.  0.
        5    1    3    3  502    0  0.44756575437E+03  0.12442342050E+03 -0.11604060531E+04  0.12499442348E+04  0.46999998093E+01 0. -1.
       -5    1    3    3    0  502 -0.44756575437E+03 -0.12442342050E+03  0.57250644432E+03  0.73728014408E+03  0.46999998093E+01 0.  1.
</event>
<event>
 5   0  0.6098377E-05  0.1903106E+04  0.7818609E-02  0.8653312E-01
       -2   -1    0    0    0  501  0.00000000000E+00  0.00000000000E+00  0.59747571961E+03  0.59747571962E+03  0.25500000920E-02 0. -1.
        2   -1    0    0  501    0  0.00000000000E+00  0.00000000000E+00 -0.15154640741E+04  0.15154640742E+04  0.25500000920E-02 0.  1.
    10030    2    1    2    0    0  0.00000000000E+00  0.00000000000E+00 -0.91798835454E+03  0.21129397938E+04  0.19031058702E+04 0.  0.
        5    1    3    3  502    0  0.26800711056E+02 -0.89957757083E+03 -0.11593895436E+03  0.90742603841E+03  0.46999998093E+01 0. -1.
       -5    1    3    3    0  502 -0.26800711056E+02  0.89957757083E+03 -0.80204940017E+03  0.12055137554E+04  0.46999998093E+01 0.  1.
</event>
<event>
 5   0  0.3147063E-05  0.1891936E+04  0.7818609E-02  0.8658881E-01
       -1   -1    0    0    0  501  0.00000000000E+00  0.00000000000E+00  0.12028772294E+04  0.12028772294E+04  0.50400001928E-02 0. -1.
        1   -1    0    0  501    0  0.00000000000E+00  0.00000000000E+00 -0.74392892489E+03  0.74392892491E+03  0.50400001928E-02 0.  1.
    10030    2    1    2    0    0  0.00000000000E+00  0.00000000000E+00  0.45894830447E+03  0.19468061543E+04  0.18919356903E+04 0.  0.
        5    1    3    3  502    0  0.52360883214E+03  0.70287145946E+03  0.59565814046E+03  0.10597288370E+04  0.46999998093E+01 0. -1.
       -5    1    3    3    0  502 -0.52360883214E+03 -0.70287145946E+03 -0.13670983599E+03  0.88707731730E+03  0.46999998093E+01 0.  1.
</event>
<event>
 5   0  0.6361762E-05  0.1902011E+04  0.7818609E-02  0.8653856E-01
        2   -1    0    0  501    0  0.00000000000E+00  0.00000000000E+00  0.21994416678E+04  0.21994416678E+04  0.25500000920E-02 0. -1.
       -2   -1    0    0    0  501  0.00000000000E+00  0.00000000000E+00 -0.41120031922E+03  0.41120031923E+03  0.25500000920E-02 0.  1.
    10030    2    1    2    0    0  0.00000000000E+00  0.00000000000E+00  0.17882413486E+04  0.26106419871E+04  0.19020106371E+04 0.  0.
        1    1    3    3  502    0  0.67580919323E+03 -0.26471090706E+03  0.50664439272E+02  0.72756911384E+03  0.50400001928E-02 0.  1.
       -1    1    3    3    0  502 -0.67580919323E+03  0.26471090706E+03  0.17375769093E+04  0.18830728732E+04  0.50400001928E-02 0. -1.
</event>
<event>
 5   0  0.6098377E-05  0.1899901E+04  0.7818609E-02  0.8654906E-01
        2   -1    0    0  501    0  0.00000000000E+00  0.00000000000E+00  0.14557661110E+04  0.14557661110E+04  0.25500000920E-02 0. -1.
       -2   -1    0    0    0  501  0.00000000000E+00  0.00000000000E+00 -0.61988375283E+03  0.61988375284E+03  0.25500000920E-02 0.  1.
    10030    2    1    2    0    0  0.00000000000E+00  0.00000000000E+00  0.83588235816E+03  0.20756498638E+04  0.18999007976E+04 0.  0.
        5    1    3    3  502    0 -0.28338833802E+03  0.52741975485E+03 -0.38777845378E+03  0.71335458724E+03  0.46999998093E+01 0.  1.
       -5    1    3    3    0  502  0.28338833802E+03 -0.52741975485E+03  0.12236608119E+04  0.13622952766E+04  0.46999998093E+01 0. -1.
</event>
<event>
 5   0  0.6098377E-05  0.1902022E+04  0.7818609E-02  0.8653850E-01
       -2   -1    0    0    0  501  0.00000000000E+00  0.00000000000E+00  0.72552747159E+03  0.72552747160E+03  0.25500000920E-02 0.  1.
        2   -1    0    0  501    0  0.00000000000E+00  0.00000000000E+00 -0.12465719886E+04  0.12465719886E+04  0.25500000920E-02 0. -1.
    10030    2    1    2    0    0  0.00000000000E+00  0.00000000000E+00 -0.52104451700E+03  0.19720994602E+04  0.19020223164E+04 0.  0.
        5    1    3    3  502    0 -0.30636045968E+03  0.50297494435E+03  0.51368788623E+03  0.78149719152E+03  0.46999998093E+01 0.  1.
       -5    1    3    3    0  502  0.30636045968E+03 -0.50297494435E+03 -0.10347324032E+04  0.11906022687E+04  0.46999998093E+01 0. -1.
</event>
<event>
 5   0  0.3147063E-05  0.1899900E+04  0.7818609E-02  0.8654906E-01
       -1   -1    0    0    0  501  0.00000000000E+00  0.00000000000E+00  0.72017928730E+03  0.72017928732E+03  0.50400001928E-02 0. -1.
        1   -1    0    0  501    0  0.00000000000E+00  0.00000000000E+00 -0.12530277900E+04  0.12530277900E+04  0.50400001928E-02 0.  1.
    10030    2    1    2    0    0  0.00000000000E+00  0.00000000000E+00 -0.53284850268E+03  0.19732070773E+04  0.18998996403E+04 0.  0.
        5    1    3    3  502    0 -0.57709043647E+03  0.83414035065E+02  0.51243915539E+03  0.77627781824E+03  0.46999998093E+01 0. -1.
       -5    1    3    3    0  502  0.57709043647E+03 -0.83414035065E+02 -0.10452876581E+04  0.11969292591E+04  0.46999998093E+01 0.  1.
</event>
<event>
 5   0  0.3147063E-05  0.1896970E+04  0.7818609E-02  0.8656366E-01
        1   -1    0    0  501    0  0.00000000000E+00  0.00000000000E+00  0.15572896783E+04  0.15572896783E+04  0.50400001928E-02 0. -1.
       -1   -1    0    0    0  501  0.00000000000E+00  0.00000000000E+00 -0.57768536692E+03  0.57768536694E+03  0.50400001928E-02 0.  1.
    10030    2    1    2    0    0  0.00000000000E+00  0.00000000000E+00  0.97960431135E+03  0.21349750452E+04  0.18969696457E+04 0.  0.
        5    1    3    3  502    0  0.29992550162E+03 -0.11694403509E+03  0.14939110491E+04  0.15282092548E+04  0.46999998093E+01 0. -1.
       -5    1    3    3    0  502 -0.29992550162E+03  0.11694403509E+03 -0.51430673777E+03  0.60676579038E+03  0.46999998093E+01 0.  1.
</event>
<event>
 5   0  0.6098377E-05  0.1902578E+04  0.7818609E-02  0.8653574E-01
       -2   -1    0    0    0  501  0.00000000000E+00  0.00000000000E+00  0.10996514319E+04  0.10996514319E+04  0.25500000920E-02 0. -1.
        2   -1    0    0  501    0  0.00000000000E+00  0.00000000000E+00 -0.82294295548E+03  0.82294295548E+03  0.25500000920E-02 0.  1.
    10030    2    1    2    0    0  0.00000000000E+00  0.00000000000E+00  0.27670847642E+03  0.19225943874E+04  0.19025776193E+04 0.  0.
        5    1    3    3  502    0  0.86320950164E+03  0.10612601633E+02 -0.26545606886E+03  0.90317898864E+03  0.46999998093E+01 0.  1.
       -5    1    3    3    0  502 -0.86320950164E+03 -0.10612601633E+02  0.54216454528E+03  0.10194153987E+04  0.46999998093E+01 0. -1.
</event>
<event>
 5   0  0.3144958E-05  0.1903990E+04  0.7818609E-02  0.8652873E-01
       -1   -1    0    0    0  501  0.00000000000E+00  0.00000000000E+00  0.65882989656E+03  0.65882989658E+03  0.50400001928E-02 0. -1.
        1   -1    0    0  501    0  0.00000000000E+00  0.00000000000E+00 -0.13756123458E+04  0.13756123458E+04  0.50400001928E-02 0.  1.
    10030    2    1    2    0    0  0.00000000000E+00  0.00000000000E+00 -0.71678244922E+03  0.20344422424E+04  0.19039900625E+04 0.  0.
        4    1    3    3  502    0  0.48754998404E+03 -0.78296547167E+03 -0.61023689229E+03  0.11059523472E+04  0.12699999809E+01 0.  1.
       -4    1    3    3    0  502 -0.48754998404E+03  0.78296547167E+03 -0.10654555693E+03  0.92848989513E+03  0.12699999809E+01 0. -1.
</event>
<event>
 5   0  0.6361762E-05  0.1847836E+04  0.7818609E-02  0.8681266E-01
        2   -1    0    0  501    0  0.00000000000E+00  0.00000000000E+00  0.18920271547E+04  0.18920271547E+04  0.25500000920E-02 0. -1.
       -2   -1    0    0    0  501  0.00000000000E+00  0.00000000000E+00 -0.45116938116E+03  0.45116938116E+03  0.25500000920E-02 0.  1.
    10030    2    1    2    0    0  0.00000000000E+00  0.00000000000E+00  0.14408577735E+04  0.23431965358E+04  0.18478362704E+04 0.  0.
        1    1    3    3  502    0 -0.23256523813E+03 -0.79519299225E+03  0.20190178093E+03  0.85275014750E+03  0.50400001928E-02 0.  1.
       -1    1    3    3    0  502  0.23256523813E+03  0.79519299225E+03  0.12389559926E+04  0.14904463883E+04  0.50400001928E-02 0. -1.
</event>
<event>
 5   0  0.3147063E-05  0.1905300E+04  0.7818609E-02  0.8652223E-01
        1   -1    0    0  501    0  0.00000000000E+00  0.00000000000E+00  0.11353583304E+04  0.11353583304E+04  0.50400001928E-02 0. -1.
       -1   -1    0    0    0  501  0.00000000000E+00  0.00000000000E+00 -0.79934440950E+03  0.79934440952E+03  0.50400001928E-02 0.  1.
    10030    2    1    2    0    0  0.00000000000E+00  0.00000000000E+00  0.33601392087E+03  0.19347027399E+04  0.19053003272E+04 0.  0.
        5    1    3    3  502    0  0.90726347803E+02  0.38223545434E+02 -0.79415318036E+03  0.80024600810E+03  0.46999998093E+01 0.  1.
       -5    1    3    3    0  502 -0.90726347803E+02 -0.38223545434E+02  0.11301671012E+04  0.11344567318E+04  0.46999998093E+01 0. -1.
</event>
<event>
 5   0  0.3203527E-05  0.1897544E+04  0.7818609E-02  0.8656080E-01
       -1   -1    0    0    0  501  0.00000000000E+00  0.00000000000E+00  0.44473997136E+03  0.44473997138E+03  0.50400001928E-02 0. -1.
        1   -1    0    0  501    0  0.00000000000E+00  0.00000000000E+00 -0.20240335693E+04  0.20240335693E+04  0.50400001928E-02 0.  1.
    10030    2    1    2    0    0  0.00000000000E+00  0.00000000000E+00 -0.15792935979E+04  0.24687735407E+04  0.18975443412E+04 0.  0.
        1    1    3    3  502    0  0.69727591972E+03  0.34229376940E+03 -0.14984546372E+04  0.16878166466E+04  0.50400001928E-02 0.  1.
       -1    1    3    3    0  502 -0.69727591972E+03 -0.34229376940E+03 -0.80838960720E+02  0.78095689406E+03  0.50400001928E-02 0. -1.
</event>
<event>
 5   0  0.3203527E-05  0.1904212E+04  0.7818609E-02  0.8652763E-01
        1   -1    0    0  501    0  0.00000000000E+00  0.00000000000E+00  0.96733498390E+03  0.96733498391E+03  0.50400001928E-02 0.  1.
       -1   -1    0    0    0  501  0.00000000000E+00  0.00000000000E+00 -0.93711633945E+03  0.93711633947E+03  0.50400001928E-02 0. -1.
    10030    2    1    2    0    0  0.00000000000E+00  0.00000000000E+00  0.30218644442E+02  0.19044513234E+04  0.19042115630E+04 0.  0.
        1    1    3    3  502    0  0.69979881687E+03  0.25061195332E+03 -0.57992834830E+03  0.94278397548E+03  0.50400001928E-02 0. -1.
       -1    1    3    3    0  502 -0.69979881687E+03 -0.25061195332E+03  0.61014699274E+03  0.96166734790E+03  0.50400001928E-02 0.  1.
</event>
<event>
 5   0  0.3144958E-05  0.1907429E+04  0.7818609E-02  0.8651167E-01
        1   -1    0    0  501    0  0.00000000000E+00  0.00000000000E+00  0.18357584269E+04  0.18357584269E+04  0.50400001928E-02 0.  1.
       -1   -1    0    0    0  501  0.00000000000E+00  0.00000000000E+00 -0.49547466421E+03  0.49547466423E+03  0.50400001928E-02 0. -1.
    10030    2    1    2    0    0  0.00000000000E+00  0.00000000000E+00  0.13402837627E+04  0.23312330911E+04  0.19074294641E+04 0.  0.
        4    1    3    3  502    0 -0.41129546687E+03  0.11029033003E+03 -0.37283612590E+03  0.56598260366E+03  0.12699999809E+01 0. -1.
       -4    1    3    3    0  502  0.41129546687E+03 -0.11029033003E+03  0.17131198886E+04  0.17652504875E+04  0.12699999809E+01 0.  1.
</event>
<event>
 5   0  0.6395992E-05  0.1893447E+04  0.7818609E-02  0.8658125E-01
       -2   -1    0    0    0  501  0.00000000000E+00  0.00000000000E+00  0.11351139097E+04  0.11351139097E+04  0.25500000920E-02 0. -1.
        2   -1    0    0  501    0  0.00000000000E+00  0.00000000000E+00 -0.78959951652E+03  0.78959951653E+03  0.25500000920E-02 0.  1.
    10030    2    1    2    0    0  0.00000000000E+00  0.00000000000E+00  0.34551439316E+03  0.19247134262E+04  0.18934470093E+04 0.  0.
        4    1    3    3  502    0 -0.31769684573E+03 -0.77982752827E+03 -0.26707883690E+03  0.88339967040E+03  0.12699999809E+01 0.  1.
       -4    1    3    3    0  502  0.31769684573E+03  0.77982752827E+03  0.61259323006E+03  0.10413137558E+04  0.12699999809E+01 0. -1.
</event>
<event>
 5   0  0.6452182E-05  0.1899558E+04  0.7818609E-02  0.8655077E-01
        2   -1    0    0  501    0  0.00000000000E+00  0.00000000000E+00  0.71805876159E+03  0.71805876160E+03  0.25500000920E-02 0. -1.
       -2   -1    0    0    0  501  0.00000000000E+00  0.00000000000E+00 -0.12562756090E+04  0.12562756090E+04  0.25500000920E-02 0.  1.
    10030    2    1    2    0    0  0.00000000000E+00  0.00000000000E+00 -0.53821684737E+03  0.19743343706E+04  0.18995575358E+04 0.  0.
        3    1    3    3  502    0 -0.34133908161E+03  0.21268070307E+03 -0.11634062470E+04  0.12309587954E+04  0.10100000352E+00 0.  1.
       -3    1    3    3    0  502  0.34133908161E+03 -0.21268070307E+03  0.62518939968E+03  0.74337557517E+03  0.10100000352E+00 0. -1.
</event>
<event>
 5   0  0.3144958E-05  0.1881207E+04  0.7818609E-02  0.8664268E-01
        1   -1    0    0  501    0  0.00000000000E+00  0.00000000000E+00  0.21051555873E+04  0.21051555873E+04  0.50400001928E-02 0.  1.
       -1   -1    0    0    0  501  0.00000000000E+00  0.00000000000E+00 -0.42027041084E+03  0.42027041087E+03  0.50400001928E-02 0. -1.
    10030    2    1    2    0    0  0.00000000000E+00  0.00000000000E+00  0.16848851765E+04  0.25254259982E+04  0.18812066379E+04 0.  0.
        4    1    3    3  502    0  0.17118762553E+03 -0.16662837127E+02  0.20838642794E+04  0.20909506931E+04  0.12699999809E+01 0.  1.
       -4    1    3    3    0  502 -0.17118762553E+03  0.16662837127E+02 -0.39897910290E+03  0.43447530508E+03  0.12699999809E+01 0. -1.
</event>
<event>
 5   0  0.6098377E-05  0.1912884E+04  0.7818609E-02  0.8648470E-01
       -2   -1    0    0    0  501  0.00000000000E+00  0.00000000000E+00  0.77973396607E+03  0.77973396607E+03  0.25500000920E-02 0. -1.
        2   -1    0    0  501    0  0.00000000000E+00  0.00000000000E+00 -0.11731967659E+04  0.11731967659E+04  0.25500000920E-02 0.  1.
    10030    2    1    2    0    0  0.00000000000E+00  0.00000000000E+00 -0.39346279979E+03  0.19529307319E+04  0.19128840710E+04 0.  0.
        5    1    3    3  502    0 -0.61400434529E+03 -0.64094189363E+03  0.16703031438E+03  0.90317720464E+03  0.46999998093E+01 0. -1.
       -5    1    3    3    0  502  0.61400434529E+03  0.64094189363E+03 -0.56049311416E+03  0.10497535273E+04  0.46999998093E+01 0.  1.
</event>
<event>
 5   0  0.6452182E-05  0.1908245E+04  0.7818609E-02  0.8650763E-01
       -2   -1    0    0    0  501  0.00000000000E+00  0.00000000000E+00  0.66418791813E+03  0.66418791813E+03  0.25500000920E-02 0.  1.
        2   -1    0    0  501    0  0.00000000000E+00  0.00000000000E+00 -0.13706203828E+04  0.13706203828E+04  0.25500000920E-02 0. -1.
    10030    2    1    2    0    0  0.00000000000E+00  0.00000000000E+00 -0.70643246466E+03  0.20348083009E+04  0.19082447417E+04 0.  0.
        3    1    3    3  502    0  0.92367836624E+03  0.14613243362E+03 -0.15142130803E+03  0.94734620659E+03  0.10100000352E+00 0. -1.
       -3    1    3    3    0  502 -0.92367836624E+03 -0.14613243362E+03 -0.55501115663E+03  0.10874620943E+04  0.10100000352E+00 0.  1.
</event>
<event>
 5   0  0.6395992E-05  0.1907221E+04  0.7818609E-02  0.8651271E-01
       -2   -1    0    0    0  501  0.00000000000E+00  0.00000000000E+00  0.80759123986E+03  0.80759123987E+03  0.25500000920E-02 0.  1.
        2   -1    0    0  501    0  0.00000000000E+00  0.00000000000E+00 -0.11260307132E+04  0.11260307132E+04  0.25500000920E-02 0. -1.
    10030    2    1    2    0    0  0.00000000000E+00  0.00000000000E+00 -0.31843947335E+03  0.19336219531E+04  0.19072205324E+04 0.  0.
        4    1    3    3  502    0 -0.29736095511E+02 -0.70322172468E+03 -0.81152808586E+03  0.10742366948E+04  0.12699999809E+01 0. -1.
       -4    1    3    3    0  502  0.29736095511E+02  0.70322172468E+03  0.49308861251E+03  0.85938525827E+03  0.12699999809E+01 0.  1.
</event>
<event>
 5   0  0.6423388E-05  0.1884366E+04  0.7818609E-02  0.8662678E-01
       -2   -1    0    0    0  501  0.00000000000E+00  0.00000000000E+00  0.46724199349E+03  0.46724199349E+03  0.25500000920E-02 0. -1.
        2   -1    0    0  501    0  0.00000000000E+00  0.00000000000E+00 -0.18998898913E+04  0.18998898913E+04  0.25500000920E-02 0.  1.
    10030    2    1    2    0    0  0.00000000000E+00  0.00000000000E+00 -0.14326478978E+04  0.23671318848E+04  0.18843655062E+04 0.  0.
        2    1    3    3  502    0 -0.38366686990E+03 -0.28150711778E+02  0.36408880323E+03  0.52967290498E+03  0.25500000920E-02 0. -1.
       -2    1    3    3    0  502  0.38366686990E+03  0.28150711778E+02 -0.17967367011E+04  0.18374589798E+04  0.25500000920E-02 0.  1.
</event>
<event>
 5   0  0.6423388E-05  0.1886444E+04  0.7818609E-02  0.8661634E-01
        2   -1    0    0  501    0  0.00000000000E+00  0.00000000000E+00  0.75865448291E+03  0.75865448292E+03  0.25500000920E-02 0.  1.
       -2   -1    0    0    0  501  0.00000000000E+00  0.00000000000E+00 -0.11726912331E+04  0.11726912331E+04  0.25500000920E-02 0. -1.
    10030    2    1    2    0    0  0.00000000000E+00  0.00000000000E+00 -0.41403675021E+03  0.19313457160E+04  0.18864437029E+04 0.  0.
        2    1    3    3  502    0  0.64092371610E+03 -0.54846901957E+03 -0.63904116354E+03  0.10582887527E+04  0.25500000920E-02 0. -1.
       -2    1    3    3    0  502 -0.64092371610E+03  0.54846901957E+03  0.22500441333E+03  0.87305696339E+03  0.25500000920E-02 0.  1.
</event>
<event>
 5   0  0.6423388E-05  0.1907587E+04  0.7818609E-02  0.8651089E-01
       -2   -1    0    0    0  501  0.00000000000E+00  0.00000000000E+00  0.48531077146E+03  0.48531077147E+03  0.25500000920E-02 0. -1.
        2   -1    0    0  501    0  0.00000000000E+00  0.00000000000E+00 -0.18745140149E+04  0.18745140149E+04  0.25500000920E-02 0.  1.
    10030    2    1    2    0    0  0.00000000000E+00  0.00000000000E+00 -0.13892032434E+04  0.23598247864E+04  0.19075867925E+04 0.  0.
        2    1    3    3  502    0 -0.76070954394E+03 -0.44683458437E+03 -0.11429987970E+04  0.14438789444E+04  0.25500000920E-02 0. -1.
       -2    1    3    3    0  502  0.76070954394E+03  0.44683458437E+03 -0.24620444644E+03  0.91594584200E+03  0.25500000920E-02 0.  1.
</event>
<event>
 5   0  0.6452182E-05  0.1903657E+04  0.7818609E-02  0.8653038E-01
       -2   -1    0    0    0  501  0.00000000000E+00  0.00000000000E+00  0.40766715164E+03  0.40766715165E+03  0.25500000920E-02 0.  1.
        2   -1    0    0  501    0  0.00000000000E+00  0.00000000000E+00 -0.22223462105E+04  0.22223462105E+04  0.25500000920E-02 0. -1.
    10030    2    1    2    0    0  0.00000000000E+00  0.00000000000E+00 -0.18146790588E+04  0.26300133621E+04  0.19036570590E+04 0.  0.
        3    1    3    3  502    0  0.27536230252E+03  0.65470710493E+03 -0.31915687814E+02  0.71097426973E+03  0.10100000352E+00 0.  1.
       -3    1    3    3    0  502 -0.27536230252E+03 -0.65470710493E+03 -0.17827633710E+04  0.19190390924E+04  0.10100000352E+00 0. -1.
</event>
<event>
 5   0  0.6395992E-05  0.1878523E+04  0.7818609E-02  0.8665621E-01
        2   -1    0    0  501    0  0.00000000000E+00  0.00000000000E+00  0.13155832613E+04  0.13155832613E+04  0.25500000920E-02 0.  1.
       -2   -1    0    0    0  501  0.00000000000E+00  0.00000000000E+00 -0.67058656157E+03  0.67058656157E+03  0.25500000920E-02 0. -1.
    10030    2    1    2    0    0  0.00000000000E+00  0.00000000000E+00  0.64499669977E+03  0.19861698229E+04  0.18785233091E+04 0.  0.
        4    1    3    3  502    0  0.31349515522E+03 -0.84223186240E+03  0.33761246055E+02  0.89931927424E+03  0.12699999809E+01 0. -1.
       -4    1    3    3    0  502 -0.31349515522E+03  0.84223186240E+03  0.61123545372E+03  0.10868505487E+04  0.12699999809E+01 0.  1.
</event>
<event>
 5   0  0.6361762E-05  0.1900492E+04  0.7818609E-02  0.8654612E-01
       -2   -1    0    0    0  501  0.00000000000E+00  0.00000000000E+00  0.15307418896E+04  0.15307418896E+04  0.25500000920E-02 0. -1.
        2   -1    0    0  501    0  0.00000000000E+00  0.00000000000E+00 -0.58988866906E+03  0.58988866906E+03  0.25500000920E-02 0.  1.
    10030    2    1    2    0    0  0.00000000000E+00  0.00000000000E+00  0.94085322056E+03  0.21206305587E+04  0.19004918268E+04 0.  0.
        1    1    3    3  502    0  0.38307541312E+03 -0.86639924384E+03  0.38712783371E+03  0.10233583837E+04  0.50400001928E-02 0.  1.
       -1    1    3    3    0  502 -0.38307541312E+03  0.86639924384E+03  0.55372538686E+03  0.10972721750E+04  0.50400001928E-02 0. -1.
</event>
<event>
 5   0  0.3203527E-05  0.1905229E+04  0.7818609E-02  0.8652258E-01
       -1   -1    0    0    0  501  0.00000000000E+00  0.00000000000E+00  0.94119027895E+03  0.94119027897E+03  0.50400001928E-02 0. -1.
        1   -1    0    0  501    0  0.00000000000E+00  0.00000000000E+00 -0.96417736827E+03  0.96417736829E+03  0.50400001928E-02 0.  1.
    10030    2    1    2    0    0  0.00000000000E+00  0.00000000000E+00 -0.22987089321E+02  0.19053676473E+04  0.19052289797E+04 0.  0.
        1    1    3    3  502    0  0.59765672416E+03  0.69510007871E+03 -0.27058128475E+03  0.95580955793E+03  0.50400001928E-02 0.  1.
       -1    1    3    3    0  502 -0.59765672416E+03 -0.69510007871E+03  0.24759419543E+03  0.94955808932E+03  0.50400001928E-02 0. -1.
</event>
<event>
 5   0  0.3083469E-05  0.1902707E+04  0.7818609E-02  0.8653510E-01
       -1   -1    0    0    0  501  0.00000000000E+00  0.00000000000E+00  0.59039601603E+03  0.59039601605E+03  0.50400001928E-02 0. -1.
        1   -1    0    0  501    0  0.00000000000E+00  0.00000000000E+00 -0.15329932595E+04  0.15329932595E+04  0.50400001928E-02 0.  1.
    10030    2    1    2    0    0  0.00000000000E+00  0.00000000000E+00 -0.94259724346E+03  0.21233892755E+04  0.19027066122E+04 0.  0.
        3    1    3    3  502    0  0.85230067730E+03 -0.24019563490E+03 -0.83162952603E+02  0.88939669127E+03  0.10100000352E+00 0. -1.
       -3    1    3    3    0  502 -0.85230067730E+03  0.24019563490E+03 -0.85943429086E+03  0.12339925843E+04  0.10100000352E+00 0.  1.
</event>
<event>
 5   0  0.3203527E-05  0.1892088E+04  0.7818609E-02  0.8658805E-01
        1   -1    0    0  501    0  0.00000000000E+00  0.00000000000E+00  0.82509098751E+03  0.82509098752E+03  0.50400001928E-02 0.  1.
       -1   -1    0    0    0  501  0.00000000000E+00  0.00000000000E+00 -0.10847280648E+04  0.10847280648E+04  0.50400001928E-02 0. -1.
    10030    2    1    2    0    0  0.00000000000E+00  0.00000000000E+00 -0.25963707726E+03  0.19098190523E+04  0.18920881059E+04 0.  0.
        1    1    3    3  502    0 -0.63559892665E+03  0.16938637245E+03  0.55649562792E+03  0.86160612965E+03  0.50400001928E-02 0.  1.
       -1    1    3    3    0  502  0.63559892665E+03 -0.16938637245E+03 -0.81613270518E+03  0.10482129227E+04  0.50400001928E-02 0. -1.
</event>
<event>
 5   0  0.6395992E-05  0.1895227E+04  0.7818609E-02  0.8657236E-01
       -2   -1    0    0    0  501  0.00000000000E+00  0.00000000000E+00  0.60861477293E+03  0.60861477294E+03  0.25500000920E-02 0. -1.
        2   -1    0    0  501    0  0.00000000000E+00  0.00000000000E+00 -0.14754341943E+04  0.14754341943E+04  0.25500000920E-02 0.  1.
    10030    2    1    2    0    0  0.00000000000E+00  0.00000000000E+00 -0.86681942141E+03  0.20840489673E+04  0.18952266853E+04 0.  0.
        4    1    3    3  502    0  0.72587101096E+03 -0.14430909105E+03  0.21737793161E+03  0.77134208777E+03  0.12699999809E+01 0. -1.
       -4    1    3    3    0  502 -0.72587101096E+03  0.14430909105E+03 -0.10841973530E+04  0.13127068795E+04  0.12699999809E+01 0.  1.
</event>
<event>
 5   0  0.6423388E-05  0.1888277E+04  0.7818609E-02  0.8660714E-01
        2   -1    0    0  501    0  0.00000000000E+00  0.00000000000E+00  0.97589286705E+03  0.97589286705E+03  0.25500000920E-02 0.  1.
       -2   -1    0    0    0  501  0.00000000000E+00  0.00000000000E+00 -0.91341769463E+03  0.91341769464E+03  0.25500000920E-02 0. -1.
    10030    2    1    2    0    0  0.00000000000E+00  0.00000000000E+00  0.62475172414E+02  0.18893105617E+04  0.18882773237E+04 0.  0.
        2    1    3    3  502    0 -0.50152976235E+03 -0.72391828297E+03 -0.30925441298E+03  0.93339599040E+03  0.25500000920E-02 0. -1.
       -2    1    3    3    0  502  0.50152976235E+03  0.72391828297E+03  0.37172958539E+03  0.95591457129E+03  0.25500000920E-02 0.  1.
</event>
<event>
 5   0  0.6423388E-05  0.1897557E+04  0.7818609E-02  0.8656074E-01
       -2   -1    0    0    0  501  0.00000000000E+00  0.00000000000E+00  0.15318026762E+04  0.15318026762E+04  0.25500000920E-02 0.  1.
        2   -1    0    0  501    0  0.00000000000E+00  0.00000000000E+00 -0.58766072985E+03  0.58766072985E+03  0.25500000920E-02 0. -1.
    10030    2    1    2    0    0  0.00000000000E+00  0.00000000000E+00  0.94414194637E+03  0.21194634061E+04  0.18975566170E+04 0.  0.
        2    1    3    3  502    0  0.80368451858E+03  0.48423294643E+03  0.31494308463E+03  0.98973708548E+03  0.25500000920E-02 0. -1.
       -2    1    3    3    0  502 -0.80368451858E+03 -0.48423294643E+03  0.62919886174E+03  0.11297263206E+04  0.25500000920E-02 0.  1.
</event>
<event>
 5   0  0.6361762E-05  0.1897727E+04  0.7818609E-02  0.8655989E-01
        2   -1    0    0  501    0  0.00000000000E+00  0.00000000000E+00  0.93074709024E+03  0.93074709024E+03  0.25500000920E-02 0.  1.
       -2   -1    0    0    0  501  0.00000000000E+00  0.00000000000E+00 -0.96733235689E+03  0.96733235689E+03  0.25500000920E-02 0. -1.
    10030    2    1    2    0    0  0.00000000000E+00  0.00000000000E+00 -0.36585266652E+02  0.18980794471E+04  0.18977268259E+04 0.  0.
        1    1    3    3  502    0  0.64705998432E+03 -0.62664411324E+03  0.28004505434E+03  0.94328929838E+03  0.50400001928E-02 0.  1.
       -1    1    3    3    0  502 -0.64705998432E+03  0.62664411324E+03 -0.31663032099E+03  0.95479014875E+03  0.50400001928E-02 0. -1.
</event>
<event>
 5   0  0.6098377E-05  0.1903698E+04  0.7818609E-02  0.8653018E-01
       -2   -1    0    0    0  501  0.00000000000E+00  0.00000000000E+00  0.50257576368E+03  0.50257576369E+03  0.25500000920E-02 0. -1.
        2   -1    0    0  501    0  0.00000000000E+00  0.00000000000E+00 -0.18027463143E+04  0.18027463143E+04  0.25500000920E-02 0.  1.
    10030    2    1    2    0    0  0.00000000000E+00  0.00000000000E+00 -0.13001705506E+04  0.23053220780E+04  0.19036980912E+04 0.  0.
        5    1    3    3  502    0  0.85805301452E+03 -0.30740535099E+03 -0.31791388137E+03  0.96532085418E+03  0.46999998093E+01 0. -1.
       -5    1    3    3    0  502 -0.85805301452E+03  0.30740535099E+03 -0.98225666924E+03  0.13400012238E+04  0.46999998093E+01 0.  1.
</event>
<event>
 5   0  0.3086139E-05  0.1899602E+04  0.7818609E-02  0.8655055E-01
        1   -1    0    0  501    0  0.00000000000E+00  0.00000000000E+00  0.71257589247E+03  0.71257589249E+03  0.50400001928E-02 0.  1.
       -1   -1    0    0    0  501  0.00000000000E+00  0.00000000000E+00 -0.12660007234E+04  0.12660007234E+04  0.50400001928E-02 0. -1.
    10030    2    1    2    0    0  0.00000000000E+00  0.00000000000E+00 -0.55342483094E+03  0.19785766159E+04  0.18996016376E+04 0.  0.
        2    1    3    3  502    0  0.64892063074E+03  0.13184847505E+03  0.43250696242E+03  0.79091357172E+03  0.25500000920E-02 0.  1.
       -2    1    3    3    0  502 -0.64892063074E+03 -0.13184847505E+03 -0.98593179337E+03  0.11876630442E+04  0.25500000920E-02 0. -1.
</event>
<event>
 5   0  0.3083469E-05  0.1900296E+04  0.7818609E-02  0.8654709E-01
       -1   -1    0    0    0  501  0.00000000000E+00  0.00000000000E+00  0.12887691368E+04  0.12887691368E+04  0.50400001928E-02 0. -1.
        1   -1    0    0  501    0  0.00000000000E+00  0.00000000000E+00 -0.70049855925E+03  0.70049855927E+03  0.50400001928E-02 0.  1.
    10030    2    1    2    0    0  0.00000000000E+00  0.00000000000E+00  0.58827057757E+03  0.19892676961E+04  0.19002956860E+04 0.  0.
        3    1    3    3  502    0  0.86944622195E+03  0.17277059671E+03  0.65219443618E+03  0.11005198793E+04  0.10100000352E+00 0. -1.
       -3    1    3    3    0  502 -0.86944622195E+03 -0.17277059671E+03 -0.63923858613E+02  0.88874781679E+03  0.10100000352E+00 0.  1.
</event>
<event>
 5   0  0.3203527E-05  0.1898474E+04  0.7818609E-02  0.8655616E-01
       -1   -1    0    0    0  501  0.00000000000E+00  0.00000000000E+00  0.59842512867E+03  0.59842512869E+03  0.50400001928E-02 0. -1.
        1   -1    0    0  501    0  0.00000000000E+00  0.00000000000E+00 -0.15057043250E+04  0.15057043250E+04  0.50400001928E-02 0.  1.
    10030    2    1    2    0    0  0.00000000000E+00  0.00000000000E+00 -0.90727919637E+03  0.21041294537E+04  0.18984744449E+04 0.  0.
        1    1    3    3  502    0  0.66289599266E+03 -0.45716356806E+03  0.10342172850E+03  0.81186555476E+03  0.50400001928E-02 0. -1.
       -1    1    3    3    0  502 -0.66289599266E+03  0.45716356806E+03 -0.10107009249E+04  0.12922638990E+04  0.50400001928E-02 0.  1.
</event>
<event>
 5   0  0.3086139E-05  0.1817318E+04  0.7818609E-02  0.8697144E-01
        1   -1    0    0  501    0  0.00000000000E+00  0.00000000000E+00  0.95065345899E+03  0.95065345901E+03  0.50400001928E-02 0.  1.
       -1   -1    0    0    0  501  0.00000000000E+00  0.00000000000E+00 -0.86851930596E+03  0.86851930598E+03  0.50400001928E-02 0. -1.
    10030    2    1    2    0    0  0.00000000000E+00  0.00000000000E+00  0.82134153033E+02  0.18191727650E+04  0.18173176744E+04 0.  0.
        2    1    3    3  502    0  0.18035902290E+01  0.90491206949E+03 -0.41429280732E+02  0.90586173986E+03  0.25500000920E-02 0. -1.
       -2    1    3    3    0  502 -0.18035902290E+01 -0.90491206949E+03  0.12356343376E+03  0.91331102512E+03  0.25500000920E-02 0.  1.
</event>
<event>
 5   0  0.6452182E-05  0.1901422E+04  0.7818609E-02  0.8654149E-01
       -2   -1    0    0    0  501  0.00000000000E+00  0.00000000000E+00  0.10982345814E+04  0.10982345814E+04  0.25500000920E-02 0. -1.
        2   -1    0    0  501    0  0.00000000000E+00  0.00000000000E+00 -0.82300409510E+03  0.82300409511E+03  0.25500000920E-02 0.  1.
    10030    2    1    2    0    0  0.00000000000E+00  0.00000000000E+00  0.27523048630E+03  0.19212386765E+04  0.19014221603E+04 0.  0.
        3    1    3    3  502    0 -0.21729191572E+03  0.47782131910E+03 -0.66331389866E+03  0.84588080010E+03  0.10100000352E+00 0.  1.
       -3    1    3    3    0  502  0.21729191572E+03 -0.47782131910E+03  0.93854438496E+03  0.10753578764E+04  0.10100000352E+00 0. -1.
</event>
<event>
 5   0  0.3086139E-05  0.1927253E+04  0.7818609E-02  0.8641408E-01
       -1   -1    0    0    0  501  0.00000000000E+00  0.00000000000E+00  0.14353719780E+04  0.14353719780E+04  0.50400001928E-02 0.  1.
        1   -1    0    0  501    0  0.00000000000E+00  0.00000000000E+00 -0.64692371692E+03  0.64692371694E+03  0.50400001928E-02 0. -1.
    10030    2    1    2    0    0  0.00000000000E+00  0.00000000000E+00  0.78844826108E+03  0.20822956950E+04  0.19272531491E+04 0.  0.
        2    1    3    3  502    0 -0.14304344979E+03  0.30250640562E+02  0.14233181946E+04  0.14308078882E+04  0.25500000920E-02 0.  1.
       -2    1    3    3    0  502  0.14304344979E+03 -0.30250640562E+02 -0.63486993356E+03  0.65148780674E+03  0.25500000920E-02 0. -1.
</event>
<event>
 5   0  0.6098377E-05  0.1884359E+04  0.7818609E-02  0.8662681E-01
        2   -1    0    0  501    0  0.00000000000E+00  0.00000000000E+00  0.23144642467E+04  0.23144642467E+04  0.25500000920E-02 0.  1.
       -2   -1    0    0    0  501  0.00000000000E+00  0.00000000000E+00 -0.38354562974E+03  0.38354562975E+03  0.25500000920E-02 0. -1.
    10030    2    1    2    0    0  0.00000000000E+00  0.00000000000E+00  0.19309186169E+04  0.26980098764E+04  0.18843594636E+04 0.  0.
        5    1    3    3  502    0 -0.67017949096E+03  0.59395841821E+03  0.54617803369E+03  0.10489326419E+04  0.46999998093E+01 0. -1.
       -5    1    3    3    0  502  0.67017949096E+03 -0.59395841821E+03  0.13847405832E+04  0.16490772346E+04  0.46999998093E+01 0.  1.
</event>
<event>
 5   0  0.6361762E-05  0.1948640E+04  0.7818609E-02  0.8631017E-01
        2   -1    0    0  501    0  0.00000000000E+00  0.00000000000E+00  0.86661376785E+03  0.86661376785E+03  0.25500000920E-02 0.  1.
       -2   -1    0    0    0  501  0.00000000000E+00  0.00000000000E+00 -0.10954121590E+04  0.10954121590E+04  0.25500000920E-02 0. -1.
    10030    2    1    2    0    0  0.00000000000E+00  0.00000000000E+00 -0.22879839118E+03  0.19620259269E+04  0.19486397907E+04 0.  0.
        1    1    3    3  502    0  0.33794582126E+03 -0.49806551430E+03 -0.88583642702E+03  0.10709728335E+04  0.50400001928E-02 0. -1.
       -1    1    3    3    0  502 -0.33794582126E+03  0.49806551430E+03  0.65703803585E+03  0.89105309338E+03  0.50400001928E-02 0.  1.
</event>
<event>
 5   0  0.3147063E-05  0.1897158E+04  0.7818609E-02  0.8656272E-01
       -1   -1    0    0    0  501  0.00000000000E+00  0.00000000000E+00  0.82570674386E+03  0.82570674388E+03  0.50400001928E-02 0.  1.
        1   -1    0    0  501    0  0.00000000000E+00  0.00000000000E+00 -0.10897353517E+04  0.10897353517E+04  0.50400001928E-02 0. -1.
    10030    2    1    2    0    0  0.00000000000E+00  0.00000000000E+00 -0.26402860782E+03  0.19154420956E+04  0.18971576940E+04 0.  0.
        5    1    3    3  502    0 -0.47135643198E+03  0.82315618298E+03 -0.12788201294E+03  0.95715144402E+03  0.46999998093E+01 0.  1.
       -5    1    3    3    0  502  0.47135643198E+03 -0.82315618298E+03 -0.13614659488E+03  0.95829065155E+03  0.46999998093E+01 0. -1.
</event>
<event>
 5   0  0.3083469E-05  0.1906661E+04  0.7818609E-02  0.8651548E-01
        1   -1    0    0  501    0  0.00000000000E+00  0.00000000000E+00  0.12652851058E+04  0.12652851058E+04  0.50400001928E-02 0. -1.
       -1   -1    0    0    0  501  0.00000000000E+00  0.00000000000E+00 -0.71828830887E+03  0.71828830889E+03  0.50400001928E-02 0.  1.
    10030    2    1    2    0    0  0.00000000000E+00  0.00000000000E+00  0.54699679690E+03  0.19835734147E+04  0.19066614790E+04 0.  0.
        3    1    3    3  502    0  0.20100886918E+02 -0.85309928055E+03 -0.16868471808E+03  0.86984882160E+03  0.10100000352E+00 0.  1.
       -3    1    3    3    0  502 -0.20100886918E+02  0.85309928055E+03  0.71568151497E+03  0.11137245931E+04  0.10100000352E+00 0. -1.
</event>
<event>
 5   0  0.3203527E-05  0.1899420E+04  0.7818609E-02  0.8655145E-01
        1   -1    0    0  501    0  0.00000000000E+00  0.00000000000E+00  0.16104385626E+04  0.16104385626E+04  0.50400001928E-02 0.  1.
       -1   -1    0    0    0  501  0.00000000000E+00  0.00000000000E+00 -0.56006431866E+03  0.56006431868E+03  0.50400001928E-02 0. -1.
    10030    2    1    2    0    0  0.00000000000E+00  0.00000000000E+00  0.10503742439E+04  0.21705028813E+04  0.18994200971E+04 0.  0.
        1    1    3    3  502    0  0.87703433872E+03 -0.35693050910E+03  0.60885221220E+03  0.11257395951E+04  0.50400001928E-02 0. -1.
       -1    1    3    3    0  502 -0.87703433872E+03  0.35693050910E+03  0.44152203171E+03  0.10447632862E+04  0.50400001928E-02 0.  1.
</event>
<event>
 5   0  0.3147063E-05  0.1907845E+04  0.7818609E-02  0.8650961E-01
       -1   -1    0    0    0  501  0.00000000000E+00  0.00000000000E+00  0.62902946037E+03  0.62902946039E+03  0.50400001928E-02 0.  1.
        1   -1    0    0  501    0  0.00000000000E+00  0.00000000000E+00 -0.14466222445E+04  0.14466222445E+04  0.50400001928E-02 0. -1.
    10030    2    1    2    0    0  0.00000000000E+00  0.00000000000E+00 -0.81759278413E+03  0.20756517049E+04  0.19078448678E+04 0.  0.
        5    1    3    3  502    0  0.11912239849E+03  0.26622547778E+03  0.57931691615E+03  0.64861107775E+03  0.46999998093E+01 0.  1.
       -5    1    3    3    0  502 -0.11912239849E+03 -0.26622547778E+03 -0.13969097003E+04  0.14270406272E+04  0.46999998093E+01 0. -1.
</event>
<event>
 5   0  0.6423388E-05  0.1903437E+04  0.7818609E-02  0.8653148E-01
        2   -1    0    0  501    0  0.00000000000E+00  0.00000000000E+00  0.25238878352E+04  0.25238878352E+04  0.25500000920E-02 0.  1.
       -2   -1    0    0    0  501  0.00000000000E+00  0.00000000000E+00 -0.35887792715E+03  0.35887792716E+03  0.25500000920E-02 0. -1.
    10030    2    1    2    0    0  0.00000000000E+00  0.00000000000E+00  0.21650099081E+04  0.28827657624E+04  0.19034365077E+04 0.  0.
        2    1    3    3  502    0 -0.53859382280E+03  0.71040759264E+03  0.15870999933E+04  0.18203430013E+04  0.25500000920E-02 0.  1.
       -2    1    3    3    0  502  0.53859382280E+03 -0.71040759264E+03  0.57790991473E+03  0.10624227610E+04  0.25500000920E-02 0. -1.
</event>
<event>
 5   0  0.3086139E-05  0.1902950E+04  0.7818609E-02  0.8653389E-01
        1   -1    0    0  501    0  0.00000000000E+00  0.00000000000E+00  0.18396928931E+04  0.18396928931E+04  0.50400001928E-02 0.  1.
       -1   -1    0    0    0  501  0.00000000000E+00  0.00000000000E+00 -0.49209569017E+03  0.49209569019E+03  0.50400001928E-02 0. -1.
    10030    2    1    2    0    0  0.00000000000E+00  0.00000000000E+00  0.13475972029E+04  0.23317885833E+04  0.19029502820E+04 0.  0.
        2    1    3    3  502    0 -0.34534579445E+03 -0.63685736494E+02 -0.40978154504E+03  0.53966703201E+03  0.25500000920E-02 0. -1.
       -2    1    3    3    0  502  0.34534579445E+03  0.63685736494E+02  0.17573787479E+04  0.17921215512E+04  0.25500000920E-02 0.  1.
</event>
<event>
 5   0  0.6098377E-05  0.1908132E+04  0.7818609E-02  0.8650819E-01
       -2   -1    0    0    0  501  0.00000000000E+00  0.00000000000E+00  0.52671236558E+03  0.52671236558E+03  0.25500000920E-02 0.  1.
        2   -1    0    0  501    0  0.00000000000E+00  0.00000000000E+00 -0.17281570522E+04  0.17281570522E+04  0.25500000920E-02 0. -1.
    10030    2    1    2    0    0  0.00000000000E+00  0.00000000000E+00 -0.12014446867E+04  0.22548694178E+04  0.19081317450E+04 0.  0.
        5    1    3    3  502    0  0.89469258855E+03  0.23491346697E+03 -0.87674958663E+03  0.12745081768E+04  0.46999998093E+01 0. -1.
       -5    1    3    3    0  502 -0.89469258855E+03 -0.23491346697E+03 -0.32469510002E+03  0.98036124105E+03  0.46999998093E+01 0.  1.
</event>
<event>
 5   0  0.3203527E-05  0.1898856E+04  0.7818609E-02  0.8655426E-01
       -1   -1    0    0    0  501  0.00000000000E+00  0.00000000000E+00  0.38582790036E+03  0.38582790040E+03  0.50400001928E-02 0. -1.
        1   -1    0    0  501    0  0.00000000000E+00  0.00000000000E+00 -0.23363091172E+04  0.23363091172E+04  0.50400001928E-02 0.  1.
    10030    2    1    2    0    0  0.00000000000E+00  0.00000000000E+00 -0.19504812168E+04  0.27221370176E+04  0.18988556989E+04 0.  0.
        1    1    3    3  502    0  0.91248563371E+01 -0.56055128611E+02  0.38339062777E+03  0.38757426892E+03  0.50400001928E-02 0. -1.
       -1    1    3    3    0  502 -0.91248563371E+01  0.56055128611E+02 -0.23338718446E+04  0.23345627487E+04  0.50400001928E-02 0.  1.
</event>
<event>
 5   0  0.6452182E-05  0.1900751E+04  0.7818609E-02  0.8654483E-01
       -2   -1    0    0    0  501  0.00000000000E+00  0.00000000000E+00  0.39664300613E+03  0.39664300614E+03  0.25500000920E-02 0.  1.
        2   -1    0    0  501    0  0.00000000000E+00  0.00000000000E+00 -0.22771448349E+04  0.22771448349E+04  0.25500000920E-02 0. -1.
    10030    2    1    2    0    0  0.00000000000E+00  0.00000000000E+00 -0.18805018287E+04  0.26737878410E+04  0.19007509808E+04 0.  0.
        3    1    3    3  502    0 -0.10628476879E+03 -0.24751613522E+03  0.34181840259E+03  0.43520170016E+03  0.10100000352E+00 0.  1.
       -3    1    3    3    0  502  0.10628476879E+03  0.24751613522E+03 -0.22223202313E+04  0.22385861409E+04  0.10100000352E+00 0. -1.
</event>
<event>
 5   0  0.6098377E-05  0.1897767E+04  0.7818609E-02  0.8655969E-01
        2   -1    0    0  501    0  0.00000000000E+00  0.00000000000E+00  0.11676116160E+04  0.11676116160E+04  0.25500000920E-02 0.  1.
       -2   -1    0    0    0  501  0.00000000000E+00  0.00000000000E+00 -0.77112980638E+03  0.77112980638E+03  0.25500000920E-02 0. -1.
    10030    2    1    2    0    0  0.00000000000E+00  0.00000000000E+00  0.39648180966E+03  0.19387414224E+04  0.18977672348E+04 0.  0.
        5    1    3    3  502    0 -0.51149998167E+03  0.78366894423E+03  0.35843461916E+03  0.10021310850E+04  0.46999998093E+01 0.  1.
       -5    1    3    3    0  502  0.51149998167E+03 -0.78366894423E+03  0.38047190508E+02  0.93661033739E+03  0.46999998093E+01 0. -1.
</event>
<event>
 5   0  0.6098377E-05  0.1904590E+04  0.7818609E-02  0.8652575E-01
       -2   -1    0    0    0  501  0.00000000000E+00  0.00000000000E+00  0.10870422809E+04  0.10870422809E+04  0.25500000920E-02 0. -1.
        2   -1    0    0  501    0  0.00000000000E+00  0.00000000000E+00 -0.83425029025E+03  0.83425029025E+03  0.25500000920E-02 0.  1.
    10030    2    1    2    0    0  0.00000000000E+00  0.00000000000E+00  0.25279199066E+03  0.19212925712E+04  0.19045895499E+04 0.  0.
        5    1    3    3  502    0 -0.20908486235E+03  0.38417260919E+03 -0.72691729716E+03  0.84837251265E+03  0.46999998093E+01 0.  1.
       -5    1    3    3    0  502  0.20908486235E+03 -0.38417260919E+03  0.97970928782E+03  0.10729200585E+04  0.46999998093E+01 0. -1.
</event>
<event>
 5   0  0.6452182E-05  0.1902431E+04  0.7818609E-02  0.8653647E-01
       -2   -1    0    0    0  501  0.00000000000E+00  0.00000000000E+00  0.49492421506E+03  0.49492421507E+03  0.25500000920E-02 0.  1.
        2   -1    0    0  501    0  0.00000000000E+00  0.00000000000E+00 -0.18281801005E+04  0.18281801005E+04  0.25500000920E-02 0. -1.
    10030    2    1    2    0    0  0.00000000000E+00  0.00000000000E+00 -0.13332558854E+04  0.23231043155E+04  0.19024306571E+04 0.  0.
        3    1    3    3  502    0  0.67063440173E+03  0.16404993051E+03 -0.14656461740E+04  0.16201177729E+04  0.10100000352E+00 0. -1.
       -3    1    3    3    0  502 -0.67063440173E+03 -0.16404993051E+03  0.13239028856E+03  0.70298654268E+03  0.10100000352E+00 0.  1.
</event>
<event>
 5   0  0.3203527E-05  0.1893855E+04  0.7818609E-02  0.8657921E-01
        1   -1    0    0  501    0  0.00000000000E+00  0.00000000000E+00  0.13356916408E+04  0.13356916408E+04  0.50400001928E-02 0.  1.
       -1   -1    0    0    0  501  0.00000000000E+00  0.00000000000E+00 -0.67131606484E+03  0.67131606486E+03  0.50400001928E-02 0. -1.
    10030    2    1    2    0    0  0.00000000000E+00  0.00000000000E+00  0.66437557600E+03  0.20070077057E+04  0.18938545416E+04 0.  0.
        1    1    3    3  502    0 -0.59545552599E+02  0.94504855669E+03  0.33533308530E+03  0.10045450341E+04  0.50400001928E-02 0. -1.
       -1    1    3    3    0  502  0.59545552599E+02 -0.94504855669E+03  0.32904249069E+03  0.10024626716E+04  0.50400001928E-02 0.  1.
</event>
<event>
 5   0  0.3144958E-05  0.1859043E+04  0.7818609E-02  0.8675516E-01
        1   -1    0    0  501    0  0.00000000000E+00  0.00000000000E+00  0.20923827911E+04  0.20923827911E+04  0.50400001928E-02 0. -1.
       -1   -1    0    0    0  501  0.00000000000E+00  0.00000000000E+00 -0.41293104863E+03  0.41293104867E+03  0.50400001928E-02 0.  1.
    10030    2    1    2    0    0  0.00000000000E+00  0.00000000000E+00  0.16794517424E+04  0.25053138397E+04  0.18590425709E+04 0.  0.
        4    1    3    3  502    0 -0.23038952523E+03  0.67039148749E+03  0.16499952612E+04  0.17958257306E+04  0.12699999809E+01 0. -1.
       -4    1    3    3    0  502  0.23038952523E+03 -0.67039148749E+03  0.29456481257E+02  0.70948810915E+03  0.12699999809E+01 0.  1.
</event>
<event>
 5   0  0.3147063E-05  0.1891060E+04  0.7818609E-02  0.8659319E-01
        1   -1    0    0  501    0  0.00000000000E+00  0.00000000000E+00  0.92252224401E+03  0.92252224403E+03  0.50400001928E-02 0. -1.
       -1   -1    0    0    0  501  0.00000000000E+00  0.00000000000E+00 -0.96911113408E+03  0.96911113409E+03  0.50400001928E-02 0.  1.
    10030    2    1    2    0    0  0.00000000000E+00  0.00000000000E+00 -0.46588890066E+02  0.18916333781E+04  0.18910595740E+04 0.  0.
        5    1    3    3  502    0  0.86317165351E+03  0.19955410853E+03 -0.35372381944E+03  0.95395480820E+03  0.46999998093E+01 0.  1.
       -5    1    3    3    0  502 -0.86317165351E+03 -0.19955410853E+03  0.30713492937E+03  0.93767856992E+03  0.46999998093E+01 0. -1.
</event>
<event>
 5   0  0.6423388E-05  0.1897130E+04  0.7818609E-02  0.8656286E-01
       -2   -1    0    0    0  501  0.00000000000E+00  0.00000000000E+00  0.51049291755E+03  0.51049291756E+03  0.25500000920E-02 0.  1.
        2   -1    0    0  501    0  0.00000000000E+00  0.00000000000E+00 -0.17625623900E+04  0.17625623900E+04  0.25500000920E-02 0. -1.
    10030    2    1    2    0    0  0.00000000000E+00  0.00000000000E+00 -0.12520694724E+04  0.22730553075E+04  0.18971300607E+04 0.  0.
        2    1    3    3  502    0 -0.29383582365E+03 -0.37166141849E+03  0.35857138475E+03  0.59417601704E+03  0.25500000920E-02 0.  1.
       -2    1    3    3    0  502  0.29383582365E+03  0.37166141849E+03 -0.16106408572E+04  0.16788792905E+04  0.25500000920E-02 0. -1.
</event>
<event>
 5   0  0.3083469E-05  0.1899519E+04  0.7818609E-02  0.8655096E-01
        1   -1    0    0  501    0  0.00000000000E+00  0.00000000000E+00  0.58244602780E+03  0.58244602782E+03  0.50400001928E-02 0.  1.
       -1   -1    0    0    0  501  0.00000000000E+00  0.00000000000E+00 -0.15487160327E+04  0.15487160327E+04  0.50400001928E-02 0. -1.
    10030    2    1    2    0    0  0.00000000000E+00  0.00000000000E+00 -0.96627000491E+03  0.21311620605E+04  0.18995194145E+04 0.  0.
        3    1    3    3  502    0  0.62129226345E+03 -0.30000786154E+03 -0.12154454413E+04  0.13976109704E+04  0.10100000352E+00 0. -1.
       -3    1    3    3    0  502 -0.62129226345E+03  0.30000786154E+03  0.24917543635E+03  0.73355109017E+03  0.10100000352E+00 0.  1.
</event>
<event>
 5   0  0.3144958E-05  0.1900750E+04  0.7818609E-02  0.8654483E-01
        1   -1    0    0  501    0  0.00000000000E+00  0.00000000000E+00  0.90514925785E+03  0.90514925786E+03  0.50400001928E-02 0.  1.
       -1   -1    0    0    0  501  0.00000000000E+00  0.00000000000E+00 -0.99786010663E+03  0.99786010664E+03  0.50400001928E-02 0. -1.
    10030    2    1    2    0    0  0.00000000000E+00  0.00000000000E+00 -0.92710848783E+02  0.19030093645E+04  0.19007496784E+04 0.  0.
        4    1    3    3  502    0  0.12108534059E+03 -0.56575912410E+03  0.70850754866E+03  0.91472925263E+03  0.12699999809E+01 0.  1.
       -4    1    3    3    0  502 -0.12108534059E+03  0.56575912410E+03 -0.80121839745E+03  0.98828011187E+03  0.12699999809E+01 0. -1.
</event>
<event>
 5   0  0.6395992E-05  0.1932887E+04  0.7818609E-02  0.8638657E-01
       -2   -1    0    0    0  501  0.00000000000E+00  0.00000000000E+00  0.77620241051E+03  0.77620241051E+03  0.25500000920E-02 0.  1.
        2   -1    0    0  501    0  0.00000000000E+00  0.00000000000E+00 -0.12033110405E+04  0.12033110405E+04  0.25500000920E-02 0. -1.
    10030    2    1    2    0    0  0.00000000000E+00  0.00000000000E+00 -0.42710863000E+03  0.19795134510E+04  0.19328868878E+04 0.  0.
        4    1    3    3  502    0 -0.13054485513E+03  0.70266384689E+03 -0.87981120807E+03  0.11335112773E+04  0.12699999809E+01 0. -1.
       -4    1    3    3    0  502  0.13054485513E+03 -0.70266384689E+03  0.45270257807E+03  0.84600217376E+03  0.12699999809E+01 0.  1.
</event>
<event>
 5   0  0.3144958E-05  0.1891221E+04  0.7818609E-02  0.8659239E-01
        1   -1    0    0  501    0  0.00000000000E+00  0.00000000000E+00  0.12825448401E+04  0.12825448401E+04  0.50400001928E-02 0.  1.
       -1   -1    0    0    0  501  0.00000000000E+00  0.00000000000E+00 -0.69719150692E+03  0.69719150694E+03  0.50400001928E-02 0. -1.
    10030    2    1    2    0    0  0.00000000000E+00  0.00000000000E+00  0.58535333314E+03  0.19797363470E+04  0.18912211608E+04 0.  0.
        4    1    3    3  502    0 -0.53784823443E+03 -0.59328444996E+03  0.81911626569E+03  0.11455218162E+04  0.12699999809E+01 0.  1.
       -4    1    3    3    0  502  0.53784823443E+03  0.59328444996E+03 -0.23376293255E+03  0.83421453078E+03  0.12699999809E+01 0. -1.
</event>
<event>
 5   0  0.3144958E-05  0.1938766E+04  0.7818609E-02  0.8635797E-01
        1   -1    0    0  501    0  0.00000000000E+00  0.00000000000E+00  0.19638913887E+04  0.19638913887E+04  0.50400001928E-02 0.  1.
       -1   -1    0    0    0  501  0.00000000000E+00  0.00000000000E+00 -0.47849051244E+03  0.47849051246E+03  0.50400001928E-02 0. -1.
    10030    2    1    2    0    0  0.00000000000E+00  0.00000000000E+00  0.14854008763E+04  0.24423819012E+04  0.19387659962E+04 0.  0.
        4    1    3    3  502    0  0.50701947889E+02 -0.12086932928E+03 -0.46727477784E+03  0.48531166603E+03  0.12699999809E+01 0. -1.
       -4    1    3    3    0  502 -0.50701947889E+02  0.12086932928E+03  0.19526756541E+04  0.19570702351E+04  0.12699999809E+01 0.  1.
</event>
<event>
 5   0  0.3203527E-05  0.1908927E+04  0.7818609E-02  0.8650426E-01
        1   -1    0    0  501    0  0.00000000000E+00  0.00000000000E+00  0.74575968994E+03  0.74575968996E+03  0.50400001928E-02 0.  1.
       -1   -1    0    0    0  501  0.00000000000E+00  0.00000000000E+00 -0.12215733867E+04  0.12215733867E+04  0.50400001928E-02 0. -1.
    10030    2    1    2    0    0  0.00000000000E+00  0.00000000000E+00 -0.47581369673E+03  0.19673330766E+04  0.19089265990E+04 0.  0.
        1    1    3    3  502    0  0.78811529614E+02 -0.12560495123E+03  0.73381631719E+03  0.74864828082E+03  0.50400001928E-02 0.  1.
       -1    1    3    3    0  502 -0.78811529614E+02  0.12560495123E+03 -0.12096300139E+04  0.12186847958E+04  0.50400001928E-02 0. -1.
</event>
<event>
 5   0  0.6361762E-05  0.1898153E+04  0.7818609E-02  0.8655776E-01
       -2   -1    0    0    0  501  0.00000000000E+00  0.00000000000E+00  0.76561856656E+03  0.76561856656E+03  0.25500000920E-02 0.  1.
        2   -1    0    0  501    0  0.00000000000E+00  0.00000000000E+00 -0.11764952331E+04  0.11764952331E+04  0.25500000920E-02 0. -1.
    10030    2    1    2    0    0  0.00000000000E+00  0.00000000000E+00 -0.41087666653E+03  0.19421137996E+04  0.18981534121E+04 0.  0.
        1    1    3    3  502    0  0.49842324899E+03 -0.17218060651E+03  0.60193420511E+03  0.80024788890E+03  0.50400001928E-02 0.  1.
       -1    1    3    3    0  502 -0.49842324899E+03  0.17218060651E+03 -0.10128108716E+04  0.11418659107E+04  0.50400001928E-02 0. -1.
</event>
<event>
 5   0  0.3083469E-05  0.1909129E+04  0.7818609E-02  0.8650325E-01
       -1   -1    0    0    0  501  0.00000000000E+00  0.00000000000E+00  0.61975164693E+03  0.61975164695E+03  0.50400001928E-02 0.  1.
        1   -1    0    0  501    0  0.00000000000E+00  0.00000000000E+00 -0.14702564046E+04  0.14702564046E+04  0.50400001928E-02 0. -1.
    10030    2    1    2    0    0  0.00000000000E+00  0.00000000000E+00 -0.85050475766E+03  0.20900080516E+04  0.19091294646E+04 0.  0.
        3    1    3    3  502    0  0.93688929042E+03  0.18212978713E+03 -0.44293905608E+03  0.10522014158E+04  0.10100000352E+00 0. -1.
       -3    1    3    3    0  502 -0.93688929042E+03 -0.18212978713E+03 -0.40756570158E+03  0.10378066357E+04  0.10100000352E+00 0.  1.
</event>
<event>
 5   0  0.6423388E-05  0.1899845E+04  0.7818609E-02  0.8654933E-01
        2   -1    0    0  501    0  0.00000000000E+00  0.00000000000E+00  0.12353996652E+04  0.12353996652E+04  0.25500000920E-02 0.  1.
       -2   -1    0    0    0  501  0.00000000000E+00  0.00000000000E+00 -0.73041384235E+03  0.73041384236E+03  0.25500000920E-02 0. -1.
    10030    2    1    2    0    0  0.00000000000E+00  0.00000000000E+00  0.50498582282E+03  0.19658135075E+04  0.18998452740E+04 0.  0.
        2    1    3    3  502    0 -0.27752711575E+03 -0.73269669408E+02  0.11894534101E+04  0.12235968124E+04  0.25500000920E-02 0.  1.
       -2    1    3    3    0  502  0.27752711575E+03  0.73269669408E+02 -0.68446758732E+03  0.74221669513E+03  0.25500000920E-02 0. -1.
</event>
<event>
 5   0  0.6452182E-05  0.1907470E+04  0.7818609E-02  0.8651147E-01
       -2   -1    0    0    0  501  0.00000000000E+00  0.00000000000E+00  0.58138319637E+03  0.58138319638E+03  0.25500000920E-02 0.  1.
        2   -1    0    0  501    0  0.00000000000E+00  0.00000000000E+00 -0.15645621702E+04  0.15645621702E+04  0.25500000920E-02 0. -1.
    10030    2    1    2    0    0  0.00000000000E+00  0.00000000000E+00 -0.98317897387E+03  0.21459453666E+04  0.19074696909E+04 0.  0.
        3    1    3    3  502    0 -0.12763630342E+02  0.83275963549E+03 -0.10144023829E+04  0.13125028478E+04  0.10100000352E+00 0. -1.
       -3    1    3    3    0  502  0.12763630342E+02 -0.83275963549E+03  0.31223409032E+02  0.83344251885E+03  0.10100000352E+00 0.  1.
</event>
<event>
 5   0  0.3147063E-05  0.1899010E+04  0.7818609E-02  0.8655349E-01
        1   -1    0    0  501    0  0.00000000000E+00  0.00000000000E+00  0.87033125970E+03  0.87033125972E+03  0.50400001928E-02 0. -1.
       -1   -1    0    0    0  501  0.00000000000E+00  0.00000000000E+00 -0.10358815137E+04  0.10358815137E+04  0.50400001928E-02 0.  1.
    10030    2    1    2    0    0  0.00000000000E+00  0.00000000000E+00 -0.16555025397E+03  0.19062127734E+04  0.18990103346E+04 0.  0.
        5    1    3    3  502    0 -0.19792970462E+03 -0.26464684294E+03  0.81072663354E+03  0.87550778625E+03  0.46999998093E+01 0. -1.
       -5    1    3    3    0  502  0.19792970462E+03  0.26464684294E+03 -0.97627688751E+03  0.10307049871E+04  0.46999998093E+01 0.  1.
</event>
<event>
 5   0  0.6395992E-05  0.1900656E+04  0.7818609E-02  0.8654530E-01
       -2   -1    0    0    0  501  0.00000000000E+00  0.00000000000E+00  0.81797460028E+03  0.81797460028E+03  0.25500000920E-02 0.  1.
        2   -1    0    0  501    0  0.00000000000E+00  0.00000000000E+00 -0.11040964262E+04  0.11040964262E+04  0.25500000920E-02 0. -1.
    10030    2    1    2    0    0  0.00000000000E+00  0.00000000000E+00 -0.28612182592E+03  0.19220710265E+04  0.19006555005E+04 0.  0.
        4    1    3    3  502    0 -0.68477503707E+03  0.43713648586E+02 -0.80795943995E+03  0.10600131150E+04  0.12699999809E+01 0. -1.
       -4    1    3    3    0  502  0.68477503707E+03 -0.43713648586E+02  0.52183761402E+03  0.86205791150E+03  0.12699999809E+01 0.  1.
</event>
<event>
 5   0  0.6395992E-05  0.1896572E+04  0.7818609E-02  0.8656564E-01
       -2   -1    0    0    0  501  0.00000000000E+00  0.00000000000E+00  0.88323104414E+03  0.88323104414E+03  0.25500000920E-02 0.  1.
        2   -1    0    0  501    0  0.00000000000E+00  0.00000000000E+00 -0.10181328683E+04  0.10181328683E+04  0.25500000920E-02 0. -1.
    10030    2    1    2    0    0  0.00000000000E+00  0.00000000000E+00 -0.13490182420E+03  0.19013639125E+04  0.18965722305E+04 0.  0.
        4    1    3    3  502    0  0.80880242320E+03  0.58914813467E+02  0.42533203946E+03  0.91571899167E+03  0.12699999809E+01 0.  1.
       -4    1    3    3    0  502 -0.80880242320E+03 -0.58914813467E+02 -0.56023386367E+03  0.98564492081E+03  0.12699999809E+01 0. -1.
</event>
<event>
 5   0  0.6423388E-05  0.1875597E+04  0.7818609E-02  0.8667100E-01
        2   -1    0    0  501    0  0.00000000000E+00  0.00000000000E+00  0.10801836930E+04  0.10801836931E+04  0.25500000920E-02 0. -1.
       -2   -1    0    0    0  501  0.00000000000E+00  0.00000000000E+00 -0.81418181924E+03  0.81418181924E+03  0.25500000920E-02 0.  1.
    10030    2    1    2    0    0  0.00000000000E+00  0.00000000000E+00  0.26600187381E+03  0.18943655123E+04  0.18755968909E+04 0.  0.
        2    1    3    3  502    0 -0.56764149045E+03  0.30946076186E+03 -0.55312237436E+03  0.85083910690E+03  0.25500000920E-02 0.  1.
       -2    1    3    3    0  502  0.56764149045E+03 -0.30946076186E+03  0.81912424817E+03  0.10435264054E+04  0.25500000920E-02 0. -1.
</event>
<event>
 5   0  0.3147063E-05  0.1895990E+04  0.7818609E-02  0.8656855E-01
        1   -1    0    0  501    0  0.00000000000E+00  0.00000000000E+00  0.20401582429E+04  0.20401582429E+04  0.50400001928E-02 0.  1.
       -1   -1    0    0    0  501  0.00000000000E+00  0.00000000000E+00 -0.44050253435E+03  0.44050253438E+03  0.50400001928E-02 0. -1.
    10030    2    1    2    0    0  0.00000000000E+00  0.00000000000E+00  0.15996557086E+04  0.24806607773E+04  0.18959903761E+04 0.  0.
        5    1    3    3  502    0  0.12174682924E+02 -0.20263379770E+03  0.20113719526E+04  0.20215953850E+04  0.46999998093E+01 0.  1.
       -5    1    3    3    0  502 -0.12174682924E+02  0.20263379770E+03 -0.41171624401E+03  0.45906539235E+03  0.46999998093E+01 0. -1.
</event>
<event>
 5   0  0.6452182E-05  0.1903992E+04  0.7818609E-02  0.8652872E-01
        2   -1    0    0  501    0  0.00000000000E+00  0.00000000000E+00  0.79908925327E+03  0.79908925327E+03  0.25500000920E-02 0.  1.
       -2   -1    0    0    0  501  0.00000000000E+00  0.00000000000E+00 -0.11341617208E+04  0.11341617208E+04  0.25500000920E-02 0. -1.
    10030    2    1    2    0    0  0.00000000000E+00  0.00000000000E+00 -0.33507246755E+03  0.19332509741E+04  0.19039920615E+04 0.  0.
        3    1    3    3  502    0  0.19145661455E+03  0.81832074503E+03  0.28654062319E+03  0.88792455532E+03  0.10100000352E+00 0.  1.
       -3    1    3    3    0  502 -0.19145661455E+03 -0.81832074503E+03 -0.62161309075E+03  0.10453264188E+04  0.10100000352E+00 0. -1.
</event>
<event>
 5   0  0.2279625E-05  0.1896189E+04  0.7818609E-02  0.8656756E-01
        3   -1    0    0  501    0  0.00000000000E+00  0.00000000000E+00  0.16259968405E+04  0.16259968436E+04  0.10100000352E+00 0.  1.
       -3   -1    0    0    0  501  0.00000000000E+00  0.00000000000E+00 -0.55281978240E+03  0.55281979162E+03  0.10100000352E+00 0. -1.
    10030    2    1    2    0    0  0.00000000000E+00  0.00000000000E+00  0.10731770581E+04  0.21788166352E+04  0.18961890549E+04 0.  0.
        1    1    3    3  502    0  0.83191036595E+03 -0.13500231165E+03  0.37600609644E+02  0.84363160621E+03  0.50400001928E-02 0.  1.
       -1    1    3    3    0  502 -0.83191036595E+03  0.13500231165E+03  0.10355764484E+04  0.13351850290E+04  0.50400001928E-02 0. -1.
</event>
<event>
 5   0  0.3083469E-05  0.1901114E+04  0.7818609E-02  0.8654302E-01
        1   -1    0    0  501    0  0.00000000000E+00  0.00000000000E+00  0.12463451371E+04  0.12463451371E+04  0.50400001928E-02 0.  1.
       -1   -1    0    0    0  501  0.00000000000E+00  0.00000000000E+00 -0.72496666899E+03  0.72496666901E+03  0.50400001928E-02 0. -1.
    10030    2    1    2    0    0  0.00000000000E+00  0.00000000000E+00  0.52137846806E+03  0.19713118061E+04  0.19011140760E+04 0.  0.
        3    1    3    3  502    0  0.39582549115E+03  0.64521360117E+03  0.85688049394E+03  0.11433383583E+04  0.10100000352E+00 0.  1.
       -3    1    3    3    0  502 -0.39582549115E+03 -0.64521360117E+03 -0.33550202588E+03  0.82797344773E+03  0.10100000352E+00 0. -1.
</event>
<event>
 5   0  0.2279625E-05  0.1894185E+04  0.7818609E-02  0.8657756E-01
       -3   -1    0    0    0  501  0.00000000000E+00  0.00000000000E+00  0.10028367857E+04  0.10028367908E+04  0.10100000352E+00 0. -1.
        3   -1    0    0  501    0  0.00000000000E+00  0.00000000000E+00 -0.89444666797E+03  0.89444667368E+03  0.10100000352E+00 0.  1.
    10030    2    1    2    0    0  0.00000000000E+00  0.00000000000E+00  0.10839011776E+03  0.18972834645E+04  0.18941848186E+04 0.  0.
        3    1    3    3  502    0 -0.46608731639E+03  0.56662581027E+03 -0.54568518076E+03  0.91437110741E+03  0.10100000352E+00 0.  1.
       -3    1    3    3    0  502  0.46608731639E+03 -0.56662581027E+03  0.65407529852E+03  0.98291235708E+03  0.10100000352E+00 0. -1.
</event>
<event>
 5   0  0.6395992E-05  0.1901623E+04  0.7818609E-02  0.8654049E-01
        2   -1    0    0  501    0  0.00000000000E+00  0.00000000000E+00  0.69858304547E+03  0.69858304548E+03  0.25500000920E-02 0. -1.
       -2   -1    0    0    0  501  0.00000000000E+00  0.00000000000E+00 -0.12941081813E+04  0.12941081813E+04  0.25500000920E-02 0.  1.
    10030    2    1    2    0    0  0.00000000000E+00  0.00000000000E+00 -0.59552513578E+03  0.19926912267E+04  0.19016225014E+04 0.  0.
        4    1    3    3  502    0 -0.26369754464E+01  0.80451333534E+03 -0.82877690137E+03  0.11550417419E+04  0.12699999809E+01 0.  1.
       -4    1    3    3    0  502  0.26369754464E+01 -0.80451333534E+03  0.23325176559E+03  0.83764948483E+03  0.12699999809E+01 0. -1.
</event>
<event>
 5   0  0.3144958E-05  0.1902754E+04  0.7818609E-02  0.8653487E-01
       -1   -1    0    0    0  501  0.00000000000E+00  0.00000000000E+00  0.55952944953E+03  0.55952944955E+03  0.50400001928E-02 0. -1.
        1   -1    0    0  501    0  0.00000000000E+00  0.00000000000E+00 -0.16176418276E+04  0.16176418276E+04  0.50400001928E-02 0.  1.
    10030    2    1    2    0    0  0.00000000000E+00  0.00000000000E+00 -0.10581123781E+04  0.21771712772E+04  0.19027540476E+04 0.  0.
        4    1    3    3  502    0 -0.68004727275E+03 -0.64304525664E+03 -0.33371538813E+03  0.99364936896E+03  0.12699999809E+01 0. -1.
       -4    1    3    3    0  502  0.68004727275E+03  0.64304525664E+03 -0.72439698995E+03  0.11835219082E+04  0.12699999809E+01 0.  1.
</event>
<event>
 5   0  0.3083469E-05  0.1858627E+04  0.7818609E-02  0.8675729E-01
        1   -1    0    0  501    0  0.00000000000E+00  0.00000000000E+00  0.10227251795E+04  0.10227251795E+04  0.50400001928E-02 0. -1.
       -1   -1    0    0    0  501  0.00000000000E+00  0.00000000000E+00 -0.84443360555E+03  0.84443360557E+03  0.50400001928E-02 0.  1.
    10030    2    1    2    0    0  0.00000000000E+00  0.00000000000E+00  0.17829157398E+03  0.18671587851E+04  0.18586269242E+04 0.  0.
        3    1    3    3  502    0  0.39120479951E+03 -0.64095746367E+03 -0.46086708237E+03  0.88105967063E+03  0.10100000352E+00 0. -1.
       -3    1    3    3    0  502 -0.39120479951E+03  0.64095746367E+03  0.63915865635E+03  0.98609911448E+03  0.10100000352E+00 0.  1.
</event>
<event>
 5   0  0.6423388E-05  0.1997832E+04  0.7818609E-02  0.8607635E-01
        2   -1    0    0  501    0  0.00000000000E+00  0.00000000000E+00  0.83961302179E+03  0.83961302179E+03  0.25500000920E-02 0.  1.
       -2   -1    0    0    0  501  0.00000000000E+00  0.00000000000E+00 -0.11884445818E+04  0.11884445818E+04  0.25500000920E-02 0. -1.
    10030    2    1    2    0    0  0.00000000000E+00  0.00000000000E+00 -0.34883156004E+03  0.20280576036E+04  0.19978323719E+04 0.  0.
        2    1    3    3  502    0 -0.74938558645E+03  0.65418789827E+03 -0.26685933374E+03  0.10299293507E+04  0.25500000920E-02 0.  1.
       -2    1    3    3    0  502  0.74938558645E+03 -0.65418789827E+03 -0.81972226300E+02  0.99812825293E+03  0.25500000920E-02 0. -1.
</event>
<event>
 5   0  0.3083469E-05  0.1893355E+04  0.7818609E-02  0.8658171E-01
        1   -1    0    0  501    0  0.00000000000E+00  0.00000000000E+00  0.18237437181E+04  0.18237437181E+04  0.50400001928E-02 0. -1.
       -1   -1    0    0    0  501  0.00000000000E+00  0.00000000000E+00 -0.49140559380E+03  0.49140559383E+03  0.50400001928E-02 0.  1.
    10030    2    1    2    0    0  0.00000000000E+00  0.00000000000E+00  0.13323381243E+04  0.23151493119E+04  0.18933545519E+04 0.  0.
        3    1    3    3  502    0  0.66047127458E+03 -0.64875482320E+03  0.90793496680E+03  0.12967077694E+04  0.10100000352E+00 0. -1.
       -3    1    3    3    0  502 -0.66047127458E+03  0.64875482320E+03  0.42440315747E+03  0.10184415425E+04  0.10100000352E+00 0.  1.
</event>
<event>
 5   0  0.6395992E-05  0.1900018E+04  0.7818609E-02  0.8654848E-01
       -2   -1    0    0    0  501  0.00000000000E+00  0.00000000000E+00  0.59301445262E+03  0.59301445262E+03  0.25500000920E-02 0.  1.
        2   -1    0    0  501    0  0.00000000000E+00  0.00000000000E+00 -0.15219137664E+04  0.15219137664E+04  0.25500000920E-02 0. -1.
    10030    2    1    2    0    0  0.00000000000E+00  0.00000000000E+00 -0.92889931373E+03  0.21149282190E+04  0.19000177463E+04 0.  0.
        4    1    3    3  502    0 -0.47757179522E+03  0.30004464693E+03  0.38648878774E+03  0.68372275499E+03  0.12699999809E+01 0.  1.
       -4    1    3    3    0  502  0.47757179522E+03 -0.30004464693E+03 -0.13153881015E+04  0.14312054640E+04  0.12699999809E+01 0. -1.
</event>
<event>
 5   0  0.6361762E-05  0.1905992E+04  0.7818609E-02  0.8651879E-01
       -2   -1    0    0    0  501  0.00000000000E+00  0.00000000000E+00  0.14736342844E+04  0.14736342844E+04  0.25500000920E-02 0.  1.
        2   -1    0    0  501    0  0.00000000000E+00  0.00000000000E+00 -0.61630062411E+03  0.61630062412E+03  0.25500000920E-02 0. -1.
    10030    2    1    2    0    0  0.00000000000E+00  0.00000000000E+00  0.85733366033E+03  0.20899349086E+04  0.19059923706E+04 0.  0.
        1    1    3    3  502    0 -0.65636563389E+03  0.53444903987E+03 -0.51485908632E+02  0.84799906863E+03  0.50400001928E-02 0. -1.
       -1    1    3    3    0  502  0.65636563389E+03 -0.53444903987E+03  0.90881956896E+03  0.12419358399E+04  0.50400001928E-02 0.  1.
</event>
<event>
 5   0  0.6452182E-05  0.1904157E+04  0.7818609E-02  0.8652790E-01
        2   -1    0    0  501    0  0.00000000000E+00  0.00000000000E+00  0.11094612633E+04  0.11094612633E+04  0.25500000920E-02 0.  1.
       -2   -1    0    0    0  501  0.00000000000E+00  0.00000000000E+00 -0.81702089048E+03  0.81702089048E+03  0.25500000920E-02 0. -1.
    10030    2    1    2    0    0  0.00000000000E+00  0.00000000000E+00  0.29244037285E+03  0.19264821538E+04  0.19041565370E+04 0.  0.
        3    1    3    3  502    0 -0.73102224002E+03  0.43313493438E+03 -0.28829598893E+03  0.89728143535E+03  0.10100000352E+00 0. -1.
       -3    1    3    3    0  502  0.73102224002E+03 -0.43313493438E+03  0.58073636177E+03  0.10292007185E+04  0.10100000352E+00 0.  1.
</event>
<event>
 5   0  0.6452182E-05  0.1901034E+04  0.7818609E-02  0.8654342E-01
        2   -1    0    0  501    0  0.00000000000E+00  0.00000000000E+00  0.93888229899E+03  0.93888229900E+03  0.25500000920E-02 0.  1.
       -2   -1    0    0    0  501  0.00000000000E+00  0.00000000000E+00 -0.96229574547E+03  0.96229574547E+03  0.25500000920E-02 0. -1.
    10030    2    1    2    0    0  0.00000000000E+00  0.00000000000E+00 -0.23413446478E+02  0.19011780445E+04  0.19010338680E+04 0.  0.
        3    1    3    3  502    0 -0.88288234126E+03  0.31736529089E+03 -0.16429770143E+03  0.95246821535E+03  0.10100000352E+00 0. -1.
       -3    1    3    3    0  502  0.88288234126E+03 -0.31736529089E+03  0.14088425495E+03  0.94870982911E+03  0.10100000352E+00 0.  1.
</event>
<event>
 5   0  0.6098377E-05  0.1901096E+04  0.7818609E-02  0.8654311E-01
       -2   -1    0    0    0  501  0.00000000000E+00  0.00000000000E+00  0.56716902325E+03  0.56716902326E+03  0.25500000920E-02 0. -1.
        2   -1    0    0  501    0  0.00000000000E+00  0.00000000000E+00 -0.15930725259E+04  0.15930725259E+04  0.25500000920E-02 0.  1.
    10030    2    1    2    0    0  0.00000000000E+00  0.00000000000E+00 -0.10259035026E+04  0.21602415491E+04  0.19010958824E+04 0.  0.
        5    1    3    3  502    0 -0.88964500530E+03 -0.25750002946E+03 -0.75598693499E+03  0.11955387223E+04  0.46999998093E+01 0.  1.
       -5    1    3    3    0  502  0.88964500530E+03  0.25750002946E+03 -0.26991656762E+03  0.96470282683E+03  0.46999998093E+01 0. -1.
</event>
<event>
 5   0  0.3083469E-05  0.1898251E+04  0.7818609E-02  0.8655728E-01
        1   -1    0    0  501    0  0.00000000000E+00  0.00000000000E+00  0.12938753184E+04  0.12938753184E+04  0.50400001928E-02 0.  1.
       -1   -1    0    0    0  501  0.00000000000E+00  0.00000000000E+00 -0.69623313091E+03  0.69623313093E+03  0.50400001928E-02 0. -1.
    10030    2    1    2    0    0  0.00000000000E+00  0.00000000000E+00  0.59764218750E+03  0.19901084493E+04  0.18982506304E+04 0.  0.
        3    1    3    3  502    0  0.14018130999E+03  0.80874020117E+03  0.79846189853E+03  0.11450995268E+04  0.10100000352E+00 0.  1.
       -3    1    3    3    0  502 -0.14018130999E+03 -0.80874020117E+03 -0.20081971103E+03  0.84500892255E+03  0.10100000352E+00 0. -1.
</event>
<event>
 5   0  0.3144958E-05  0.1889279E+04  0.7818609E-02  0.8660212E-01
       -1   -1    0    0    0  501  0.00000000000E+00  0.00000000000E+00  0.12141310149E+04  0.12141310149E+04  0.50400001928E-02 0.  1.
        1   -1    0    0  501    0  0.00000000000E+00  0.00000000000E+00 -0.73496478498E+03  0.73496478499E+03  0.50400001928E-02 0. -1.
    10030    2    1    2    0    0  0.00000000000E+00  0.00000000000E+00  0.47916622990E+03  0.19490957999E+04  0.18892787410E+04 0.  0.
        4    1    3    3  502    0  0.34958990485E+03  0.86717758299E+02 -0.66134070611E+03  0.75306454812E+03  0.12699999809E+01 0. -1.
       -4    1    3    3    0  502 -0.34958990485E+03 -0.86717758299E+02  0.11405069360E+04  0.11960312518E+04  0.12699999809E+01 0.  1.
</event>
<event>
 5   0  0.6395992E-05  0.1911857E+04  0.7818609E-02  0.8648977E-01
        2   -1    0    0  501    0  0.00000000000E+00  0.00000000000E+00  0.14230739539E+04  0.14230739539E+04  0.25500000920E-02 0. -1.
       -2   -1    0    0    0  501  0.00000000000E+00  0.00000000000E+00 -0.64213073429E+03  0.64213073430E+03  0.25500000920E-02 0.  1.
    10030    2    1    2    0    0  0.00000000000E+00  0.00000000000E+00  0.78094321961E+03  0.20652046882E+04  0.19118572363E+04 0.  0.
        4    1    3    3  502    0 -0.50167536911E+03 -0.67625206933E+03 -0.98378441678E+02  0.84774699524E+03  0.12699999809E+01 0.  1.
       -4    1    3    3    0  502  0.50167536911E+03  0.67625206933E+03  0.87932166129E+03  0.12174576930E+04  0.12699999809E+01 0. -1.
</event>
<event>
 5   0  0.3083469E-05  0.1897242E+04  0.7818609E-02  0.8656230E-01
        1   -1    0    0  501    0  0.00000000000E+00  0.00000000000E+00  0.15645570014E+04  0.15645570014E+04  0.50400001928E-02 0.  1.
       -1   -1    0    0    0  501  0.00000000000E+00  0.00000000000E+00 -0.57516707937E+03  0.57516707939E+03  0.50400001928E-02 0. -1.
    10030    2    1    2    0    0  0.00000000000E+00  0.00000000000E+00  0.98938992206E+03  0.21397240808E+04  0.18972418729E+04 0.  0.
        3    1    3    3  502    0 -0.11005585001E+03  0.92769266345E+03  0.68054625861E+03  0.11557980742E+04  0.10100000352E+00 0.  1.
       -3    1    3    3    0  502  0.11005585001E+03 -0.92769266345E+03  0.30884366345E+03  0.98392600666E+03  0.10100000352E+00 0. -1.
</event>
<event>
 5   0  0.3086139E-05  0.1907038E+04  0.7818609E-02  0.8651361E-01
       -1   -1    0    0    0  501  0.00000000000E+00  0.00000000000E+00  0.69137326185E+03  0.69137326187E+03  0.50400001928E-02 0. -1.
        1   -1    0    0  501    0  0.00000000000E+00  0.00000000000E+00 -0.13150619746E+04  0.13150619746E+04  0.50400001928E-02 0.  1.
    10030    2    1    2    0    0  0.00000000000E+00  0.00000000000E+00 -0.62368871274E+03  0.20064352365E+04  0.19070382135E+04 0.  0.
        2    1    3    3  502    0  0.42555104866E+03  0.31971575160E+03 -0.11442090629E+04  0.12619533416E+04  0.25500000920E-02 0.  1.
       -2    1    3    3    0  502 -0.42555104866E+03 -0.31971575160E+03  0.52052035015E+03  0.74448189485E+03  0.25500000920E-02 0. -1.
</event>
<event>
 5   0  0.3147063E-05  0.1896069E+04  0.7818609E-02  0.8656816E-01
        1   -1    0    0  501    0  0.00000000000E+00  0.00000000000E+00  0.21685346775E+04  0.21685346775E+04  0.50400001928E-02 0.  1.
       -1   -1    0    0    0  501  0.00000000000E+00  0.00000000000E+00 -0.41445927870E+03  0.41445927873E+03  0.50400001928E-02 0. -1.
    10030    2    1    2    0    0  0.00000000000E+00  0.00000000000E+00  0.17540753988E+04  0.25829939562E+04  0.18960688999E+04 0.  0.
        5    1    3    3  502    0  0.83973693937E+03 -0.12742033632E+03  0.14507428373E+04  0.16810921865E+04  0.46999998093E+01 0.  1.
       -5    1    3    3    0  502 -0.83973693937E+03  0.12742033632E+03  0.30333256152E+03  0.90190176977E+03  0.46999998093E+01 0. -1.
</event>
<event>
 5   0  0.3083469E-05  0.1896545E+04  0.7818609E-02  0.8656578E-01
       -1   -1    0    0    0  501  0.00000000000E+00  0.00000000000E+00  0.11974101231E+04  0.11974101232E+04  0.50400001928E-02 0.  1.
        1   -1    0    0  501    0  0.00000000000E+00  0.00000000000E+00 -0.75097176093E+03  0.75097176095E+03  0.50400001928E-02 0. -1.
    10030    2    1    2    0    0  0.00000000000E+00  0.00000000000E+00  0.44643836221E+03  0.19483818841E+04  0.18965454793E+04 0.  0.
        3    1    3    3  502    0  0.70738795697E+02  0.76464904674E+03  0.79477877548E+03  0.11051540409E+04  0.10100000352E+00 0.  1.
       -3    1    3    3    0  502 -0.70738795697E+02 -0.76464904674E+03 -0.34834041326E+03  0.84322784324E+03  0.10100000352E+00 0. -1.
</event>
<event>
 5   0  0.3147063E-05  0.1909972E+04  0.7818609E-02  0.8649908E-01
       -1   -1    0    0    0  501  0.00000000000E+00  0.00000000000E+00  0.78139158629E+03  0.78139158631E+03  0.50400001928E-02 0.  1.
        1   -1    0    0  501    0  0.00000000000E+00  0.00000000000E+00 -0.11671468186E+04  0.11671468186E+04  0.50400001928E-02 0. -1.
    10030    2    1    2    0    0  0.00000000000E+00  0.00000000000E+00 -0.38575523233E+03  0.19485384049E+04  0.19099724648E+04 0.  0.
        5    1    3    3  502    0  0.71552963914E+03 -0.59074788029E+03  0.37538748607E+02  0.92865331001E+03  0.46999998093E+01 0.  1.
       -5    1    3    3    0  502 -0.71552963914E+03  0.59074788029E+03 -0.42329398094E+03  0.10198850949E+04  0.46999998093E+01 0. -1.
</event>
<event>
 5   0  0.3086139E-05  0.1903039E+04  0.7818609E-02  0.8653345E-01
       -1   -1    0    0    0  501  0.00000000000E+00  0.00000000000E+00  0.82717722077E+03  0.82717722079E+03  0.50400001928E-02 0.  1.
        1   -1    0    0  501    0  0.00000000000E+00  0.00000000000E+00 -0.10945530627E+04  0.10945530627E+04  0.50400001928E-02 0. -1.
    10030    2    1    2    0    0  0.00000000000E+00  0.00000000000E+00 -0.26737584189E+03  0.19217302835E+04  0.19030390016E+04 0.  0.
        2    1    3    3  502    0 -0.58916310413E+03 -0.68063886234E+03 -0.44494726762E+03  0.10041715467E+04  0.25500000920E-02 0. -1.
       -2    1    3    3    0  502  0.58916310413E+03  0.68063886234E+03  0.17757142573E+03  0.91755873678E+03  0.25500000920E-02 0.  1.
</event>
<event>
 5   0  0.3086139E-05  0.1896907E+04  0.7818609E-02  0.8656397E-01
        1   -1    0    0  501    0  0.00000000000E+00  0.00000000000E+00  0.16626778868E+04  0.16626778868E+04  0.50400001928E-02 0. -1.
       -1   -1    0    0    0  501  0.00000000000E+00  0.00000000000E+00 -0.54103344381E+03  0.54103344383E+03  0.50400001928E-02 0.  1.
    10030    2    1    2    0    0  0.00000000000E+00  0.00000000000E+00  0.11216444429E+04  0.22037113306E+04  0.18969073178E+04 0.  0.
        2    1    3    3  502    0  0.78630861004E+02 -0.27434312480E+01  0.16588801402E+04  0.16607449107E+04  0.25500000920E-02 0. -1.
       -2    1    3    3    0  502 -0.78630861004E+02  0.27434312480E+01 -0.53723569728E+03  0.54296641991E+03  0.25500000920E-02 0.  1.
</event>
<event>
 5   0  0.6098377E-05  0.1854284E+04  0.7818609E-02  0.8677953E-01
        2   -1    0    0  501    0  0.00000000000E+00  0.00000000000E+00  0.23107503304E+04  0.23107503304E+04  0.25500000920E-02 0. -1.
       -2   -1    0    0    0  501  0.00000000000E+00  0.00000000000E+00 -0.37199715505E+03  0.37199715506E+03  0.25500000920E-02 0.  1.
    10030    2    1    2    0    0  0.00000000000E+00  0.00000000000E+00  0.19387531753E+04  0.26827474855E+04  0.18542842813E+04 0.  0.
        5    1    3    3  502    0 -0.23189191316E+03  0.71495887045E+03  0.17546886478E+04  0.19088987366E+04  0.46999998093E+01 0. -1.
       -5    1    3    3    0  502  0.23189191316E+03 -0.71495887045E+03  0.18406452755E+03  0.77384874887E+03  0.46999998093E+01 0.  1.
</event>
<event>
 5   0  0.3083469E-05  0.1896873E+04  0.7818609E-02  0.8656415E-01
        1   -1    0    0  501    0  0.00000000000E+00  0.00000000000E+00  0.97331843048E+03  0.97331843049E+03  0.50400001928E-02 0.  1.
       -1   -1    0    0    0  501  0.00000000000E+00  0.00000000000E+00 -0.92419036056E+03  0.92419036057E+03  0.50400001928E-02 0. -1.
    10030    2    1    2    0    0  0.00000000000E+00  0.00000000000E+00  0.49128069917E+02  0.18975087911E+04  0.18968727013E+04 0.  0.
        3    1    3    3  502    0 -0.61579276170E+03 -0.77596702954E+02 -0.69283022082E+03  0.93018046569E+03  0.10100000352E+00 0. -1.
       -3    1    3    3    0  502  0.61579276170E+03  0.77596702954E+02  0.74195829074E+03  0.96732832537E+03  0.10100000352E+00 0.  1.
</event>
<event>
 5   0  0.6098377E-05  0.1897217E+04  0.7818609E-02  0.8656243E-01
        2   -1    0    0  501    0  0.00000000000E+00  0.00000000000E+00  0.15162728376E+04  0.15162728376E+04  0.25500000920E-02 0.  1.
       -2   -1    0    0    0  501  0.00000000000E+00  0.00000000000E+00 -0.59346727325E+03  0.59346727326E+03  0.25500000920E-02 0. -1.
    10030    2    1    2    0    0  0.00000000000E+00  0.00000000000E+00  0.92280556436E+03  0.21097401109E+04  0.18972172321E+04 0.  0.
        5    1    3    3  502    0  0.79885170762E+03  0.24941426749E+03  0.95804645981E+03  0.12721032335E+04  0.46999998093E+01 0. -1.
       -5    1    3    3    0  502 -0.79885170762E+03 -0.24941426749E+03 -0.35240895445E+02  0.83763687735E+03  0.46999998093E+01 0.  1.
</event>
<event>
 5   0  0.3083469E-05  0.1905485E+04  0.7818609E-02  0.8652131E-01
        1   -1    0    0  501    0  0.00000000000E+00  0.00000000000E+00  0.39547714167E+03  0.39547714170E+03  0.50400001928E-02 0. -1.
       -1   -1    0    0    0  501  0.00000000000E+00  0.00000000000E+00 -0.22952486980E+04  0.22952486980E+04  0.50400001928E-02 0.  1.
    10030    2    1    2    0    0  0.00000000000E+00  0.00000000000E+00 -0.18997715563E+04  0.26907258397E+04  0.19054851294E+04 0.  0.
        3    1    3    3  502    0  0.34409398643E+03 -0.55811547501E+03 -0.19259946099E+04  0.20345389656E+04  0.10100000352E+00 0.  1.
       -3    1    3    3    0  502 -0.34409398643E+03  0.55811547501E+03  0.26223053635E+02  0.65618687406E+03  0.10100000352E+00 0. -1.
</event>
<event>
 5   0  0.6395992E-05  0.1899507E+04  0.7818609E-02  0.8655102E-01
        2   -1    0    0  501    0  0.00000000000E+00  0.00000000000E+00  0.11956168109E+04  0.11956168109E+04  0.25500000920E-02 0. -1.
       -2   -1    0    0    0  501  0.00000000000E+00  0.00000000000E+00 -0.75444847984E+03  0.75444847984E+03  0.25500000920E-02 0.  1.
    10030    2    1    2    0    0  0.00000000000E+00  0.00000000000E+00  0.44116833105E+03  0.19500652907E+04  0.18995065522E+04 0.  0.
        4    1    3    3  502    0 -0.14664379501E+03 -0.74456035806E+03  0.80688494565E+03  0.11076729923E+04  0.12699999809E+01 0. -1.
       -4    1    3    3    0  502  0.14664379501E+03  0.74456035806E+03 -0.36571661460E+03  0.84239229846E+03  0.12699999809E+01 0.  1.
</event>
<event>
 5   0  0.3144958E-05  0.1897959E+04  0.7818609E-02  0.8655873E-01
        1   -1    0    0  501    0  0.00000000000E+00  0.00000000000E+00  0.78426131498E+03  0.78426131499E+03  0.50400001928E-02 0. -1.
       -1   -1    0    0    0  501  0.00000000000E+00  0.00000000000E+00 -0.11482929157E+04  0.11482929157E+04  0.50400001928E-02 0.  1.
    10030    2    1    2    0    0  0.00000000000E+00  0.00000000000E+00 -0.36403160075E+03  0.19325542307E+04  0.18979586003E+04 0.  0.
        4    1    3    3  502    0  0.48728661292E+03  0.24541876376E+03  0.60859169715E+03  0.81735187005E+03  0.12699999809E+01 0. -1.
       -4    1    3    3    0  502 -0.48728661292E+03 -0.24541876376E+03 -0.97262329790E+03  0.11152023607E+04  0.12699999809E+01 0.  1.
</event>
<event>
 5   0  0.6395992E-05  0.1949638E+04  0.7818609E-02  0.8630535E-01
        2   -1    0    0  501    0  0.00000000000E+00  0.00000000000E+00  0.18726359292E+04  0.18726359292E+04  0.25500000920E-02 0. -1.
       -2   -1    0    0    0  501  0.00000000000E+00  0.00000000000E+00 -0.50745160310E+03  0.50745160310E+03  0.25500000920E-02 0.  1.
    10030    2    1    2    0    0  0.00000000000E+00  0.00000000000E+00  0.13651843261E+04  0.23800875323E+04  0.19496380221E+04 0.  0.
        4    1    3    3  502    0 -0.68091751968E+03 -0.67856486205E+03  0.88008605662E+03  0.13033234520E+04  0.12699999809E+01 0.  1.
       -4    1    3    3    0  502  0.68091751968E+03  0.67856486205E+03  0.48509826945E+03  0.10767640803E+04  0.12699999809E+01 0. -1.
</event>
<event>
 5   0  0.6423388E-05  0.1907746E+04  0.7818609E-02  0.8651010E-01
       -2   -1    0    0    0  501  0.00000000000E+00  0.00000000000E+00  0.44974129690E+03  0.44974129691E+03  0.25500000920E-02 0. -1.
        2   -1    0    0  501    0  0.00000000000E+00  0.00000000000E+00 -0.20231051002E+04  0.20231051002E+04  0.25500000920E-02 0.  1.
    10030    2    1    2    0    0  0.00000000000E+00  0.00000000000E+00 -0.15733638033E+04  0.24728463971E+04  0.19077462216E+04 0.  0.
        2    1    3    3  502    0  0.40745462435E+03 -0.68405752197E+03 -0.10580580507E+03  0.80321157403E+03  0.25500000920E-02 0. -1.
       -2    1    3    3    0  502 -0.40745462435E+03  0.68405752197E+03 -0.14675579983E+04  0.16696348231E+04  0.25500000920E-02 0.  1.
</event>
<event>
 5   0  0.3203527E-05  0.1868797E+04  0.7818609E-02  0.8670546E-01
       -1   -1    0    0    0  501  0.00000000000E+00  0.00000000000E+00  0.88999577484E+03  0.88999577485E+03  0.50400001928E-02 0.  1.
        1   -1    0    0  501    0  0.00000000000E+00  0.00000000000E+00 -0.98101686718E+03  0.98101686719E+03  0.50400001928E-02 0. -1.
    10030    2    1    2    0    0  0.00000000000E+00  0.00000000000E+00 -0.91021092342E+02  0.18710126420E+04  0.18687973318E+04 0.  0.
        1    1    3    3  502    0 -0.81420636709E+03 -0.18042453339E+03 -0.46745508613E+03  0.95603309464E+03  0.50400001928E-02 0. -1.
       -1    1    3    3    0  502  0.81420636709E+03  0.18042453339E+03  0.37643399379E+03  0.91497954741E+03  0.50400001928E-02 0.  1.
</event>
<event>
 5   0  0.2279625E-05  0.1892880E+04  0.7818609E-02  0.8658409E-01
       -3   -1    0    0    0  501  0.00000000000E+00  0.00000000000E+00  0.16686890894E+04  0.16686890924E+04  0.10100000352E+00 0.  1.
        3   -1    0    0  501    0  0.00000000000E+00  0.00000000000E+00 -0.53679787463E+03  0.53679788413E+03  0.10100000352E+00 0. -1.
    10030    2    1    2    0    0  0.00000000000E+00  0.00000000000E+00  0.11318912147E+04  0.22054869766E+04  0.18928801023E+04 0.  0.
        5    1    3    3  502    0 -0.54572863071E+03 -0.62688214737E+03  0.10933935729E+04  0.13734382259E+04  0.46999998093E+01 0. -1.
       -5    1    3    3    0  502  0.54572863071E+03  0.62688214737E+03  0.38497641849E+02  0.83204875067E+03  0.46999998093E+01 0.  1.
</event>
<event>
 5   0  0.3203527E-05  0.1897725E+04  0.7818609E-02  0.8655990E-01
        1   -1    0    0  501    0  0.00000000000E+00  0.00000000000E+00  0.11982590579E+04  0.11982590579E+04  0.50400001928E-02 0. -1.
       -1   -1    0    0    0  501  0.00000000000E+00  0.00000000000E+00 -0.75137309498E+03  0.75137309500E+03  0.50400001928E-02 0.  1.
    10030    2    1    2    0    0  0.00000000000E+00  0.00000000000E+00  0.44688596296E+03  0.19496321529E+04  0.18977245501E+04 0.  0.
        1    1    3    3  502    0  0.74714509695E+03 -0.20868358540E+03 -0.33791375317E+03  0.84614439626E+03  0.50400001928E-02 0.  1.
       -1    1    3    3    0  502 -0.74714509695E+03  0.20868358540E+03  0.78479971613E+03  0.11034877567E+04  0.50400001928E-02 0. -1.
</event>
<event>
 5   0  0.6098377E-05  0.1896164E+04  0.7818609E-02  0.8656768E-01
        2   -1    0    0  501    0  0.00000000000E+00  0.00000000000E+00  0.14576424845E+04  0.14576424845E+04  0.25500000920E-02 0.  1.
       -2   -1    0    0    0  501  0.00000000000E+00  0.00000000000E+00 -0.61665308998E+03  0.61665308998E+03  0.25500000920E-02 0. -1.
    10030    2    1    2    0    0  0.00000000000E+00  0.00000000000E+00  0.84098939450E+03  0.20742955745E+04  0.18961642778E+04 0.  0.
        5    1    3    3  502    0 -0.43191835766E+03  0.30300850625E+03 -0.44120330199E+03  0.68778635217E+03  0.46999998093E+01 0. -1.
       -5    1    3    3    0  502  0.43191835766E+03 -0.30300850625E+03  0.12821926965E+04  0.13865092223E+04  0.46999998093E+01 0.  1.
</event>
<event>
 5   0  0.6452182E-05  0.1997867E+04  0.7818609E-02  0.8607618E-01
        2   -1    0    0  501    0  0.00000000000E+00  0.00000000000E+00  0.14870713454E+04  0.14870713454E+04  0.25500000920E-02 0.  1.
       -2   -1    0    0    0  501  0.00000000000E+00  0.00000000000E+00 -0.67102924249E+03  0.67102924250E+03  0.25500000920E-02 0. -1.
    10030    2    1    2    0    0  0.00000000000E+00  0.00000000000E+00  0.81604210294E+03  0.21581005879E+04  0.19978672213E+04 0.  0.
        3    1    3    3  502    0 -0.60895870708E+03 -0.35320657893E+03  0.11735809829E+04  0.13685313033E+04  0.10100000352E+00 0.  1.
       -3    1    3    3    0  502  0.60895870708E+03  0.35320657893E+03 -0.35753888001E+03  0.78956928464E+03  0.10100000352E+00 0. -1.
</event>
<event>
 5   0  0.6098377E-05  0.1897984E+04  0.7818609E-02  0.8655861E-01
        2   -1    0    0  501    0  0.00000000000E+00  0.00000000000E+00  0.93175952718E+03  0.93175952718E+03  0.25500000920E-02 0.  1.
       -2   -1    0    0    0  501  0.00000000000E+00  0.00000000000E+00 -0.96654307143E+03  0.96654307143E+03  0.25500000920E-02 0. -1.
    10030    2    1    2    0    0  0.00000000000E+00  0.00000000000E+00 -0.34783544247E+02  0.18983025986E+04  0.18979838938E+04 0.  0.
        5    1    3    3  502    0  0.47297241562E+02 -0.31064682414E+03 -0.91298903123E+03  0.96556177407E+03  0.46999998093E+01 0. -1.
       -5    1    3    3    0  502 -0.47297241562E+02  0.31064682414E+03  0.87820548698E+03  0.93274082454E+03  0.46999998093E+01 0.  1.
</event>
<event>
 5   0  0.3086139E-05  0.1900967E+04  0.7818609E-02  0.8654375E-01
        1   -1    0    0  501    0  0.00000000000E+00  0.00000000000E+00  0.64434759621E+03  0.64434759623E+03  0.50400001928E-02 0. -1.
       -1   -1    0    0    0  501  0.00000000000E+00  0.00000000000E+00 -0.14020676011E+04  0.14020676011E+04  0.50400001928E-02 0.  1.
    10030    2    1    2    0    0  0.00000000000E+00  0.00000000000E+00 -0.75772000491E+03  0.20464151974E+04  0.19009670050E+04 0.  0.
        2    1    3    3  502    0  0.32110026686E+03  0.71160268909E+03 -0.96249982036E+03  0.12393101600E+04  0.25500000920E-02 0.  1.
       -2    1    3    3    0  502 -0.32110026686E+03 -0.71160268909E+03  0.20477981546E+03  0.80710503735E+03  0.25500000920E-02 0. -1.
</event>
<event>
 5   0  0.6395992E-05  0.1902768E+04  0.7818609E-02  0.8653480E-01
       -2   -1    0    0    0  501  0.00000000000E+00  0.00000000000E+00  0.58655407595E+03  0.58655407595E+03  0.25500000920E-02 0. -1.
        2   -1    0    0  501    0  0.00000000000E+00  0.00000000000E+00 -0.15431337761E+04  0.15431337761E+04  0.25500000920E-02 0.  1.
    10030    2    1    2    0    0  0.00000000000E+00  0.00000000000E+00 -0.95657970014E+03  0.21296878520E+04  0.19027678851E+04 0.  0.
        4    1    3    3  502    0  0.15006846110E+03 -0.11597265078E+03  0.56518000012E+03  0.59615454723E+03  0.12699999809E+01 0. -1.
       -4    1    3    3    0  502 -0.15006846110E+03  0.11597265078E+03 -0.15217597003E+04  0.15335333048E+04  0.12699999809E+01 0.  1.
</event>
<event>
 5   0  0.3203527E-05  0.1950202E+04  0.7818609E-02  0.8630263E-01
        1   -1    0    0  501    0  0.00000000000E+00  0.00000000000E+00  0.14009827120E+04  0.14009827120E+04  0.50400001928E-02 0. -1.
       -1   -1    0    0    0  501  0.00000000000E+00  0.00000000000E+00 -0.67868244068E+03  0.67868244070E+03  0.50400001928E-02 0.  1.
    10030    2    1    2    0    0  0.00000000000E+00  0.00000000000E+00  0.72230027134E+03  0.20796651527E+04  0.19502024165E+04 0.  0.
        1    1    3    3  502    0 -0.13476381792E+03  0.76807321612E+03 -0.26313985625E+03  0.82300688692E+03  0.50400001928E-02 0.  1.
       -1    1    3    3    0  502  0.13476381792E+03 -0.76807321612E+03  0.98544012758E+03  0.12566582658E+04  0.50400001928E-02 0. -1.
</event>
<event>
 5   0  0.6452182E-05  0.1900377E+04  0.7818609E-02  0.8654669E-01
        2   -1    0    0  501    0  0.00000000000E+00  0.00000000000E+00  0.14715449300E+04  0.14715449300E+04  0.25500000920E-02 0.  1.
       -2   -1    0    0    0  501  0.00000000000E+00  0.00000000000E+00 -0.61354423915E+03  0.61354423916E+03  0.25500000920E-02 0. -1.
    10030    2    1    2    0    0  0.00000000000E+00  0.00000000000E+00  0.85800069085E+03  0.20850891692E+04  0.19003767147E+04 0.  0.
        3    1    3    3  502    0  0.29680876452E+03 -0.65687597579E+03  0.11082680695E+04  0.13220588544E+04  0.10100000352E+00 0.  1.
       -3    1    3    3    0  502 -0.29680876452E+03  0.65687597579E+03 -0.25026737867E+03  0.76303031480E+03  0.10100000352E+00 0. -1.
</event>
<event>
 5   0  0.3203527E-05  0.1901380E+04  0.7818609E-02  0.8654170E-01
       -1   -1    0    0    0  501  0.00000000000E+00  0.00000000000E+00  0.76090754580E+03  0.76090754582E+03  0.50400001928E-02 0.  1.
        1   -1    0    0  501    0  0.00000000000E+00  0.00000000000E+00 -0.11878076835E+04  0.11878076835E+04  0.50400001928E-02 0. -1.
    10030    2    1    2    0    0  0.00000000000E+00  0.00000000000E+00 -0.42690013770E+03  0.19487152293E+04  0.19013803716E+04 0.  0.
        1    1    3    3  502    0  0.62519818225E+03  0.71264006441E+03 -0.14037857137E+03  0.95835002573E+03  0.50400001928E-02 0.  1.
       -1    1    3    3    0  502 -0.62519818225E+03 -0.71264006441E+03 -0.28652156632E+03  0.99036520359E+03  0.50400001928E-02 0. -1.
</event>
<event>
 5   0  0.6098377E-05  0.1893868E+04  0.7818609E-02  0.8657915E-01
        2   -1    0    0  501    0  0.00000000000E+00  0.00000000000E+00  0.97314900721E+03  0.97314900721E+03  0.25500000920E-02 0. -1.
       -2   -1    0    0    0  501  0.00000000000E+00  0.00000000000E+00 -0.92142505916E+03  0.92142505917E+03  0.25500000920E-02 0.  1.
    10030    2    1    2    0    0  0.00000000000E+00  0.00000000000E+00  0.51723948044E+02  0.18945740664E+04  0.18938678745E+04 0.  0.
        5    1    3    3  502    0 -0.67628698855E+03 -0.50402377779E+03  0.45643823544E+03  0.95904223694E+03  0.46999998093E+01 0. -1.
       -5    1    3    3    0  502  0.67628698855E+03  0.50402377779E+03 -0.40471428740E+03  0.93553182944E+03  0.46999998093E+01 0.  1.
</event>
<event>
 5   0  0.3144958E-05  0.1900312E+04  0.7818609E-02  0.8654701E-01
       -1   -1    0    0    0  501  0.00000000000E+00  0.00000000000E+00  0.60058387534E+03  0.60058387536E+03  0.50400001928E-02 0.  1.
        1   -1    0    0  501    0  0.00000000000E+00  0.00000000000E+00 -0.15031978217E+04  0.15031978217E+04  0.50400001928E-02 0. -1.
    10030    2    1    2    0    0  0.00000000000E+00  0.00000000000E+00 -0.90261394632E+03  0.21037816970E+04  0.19003119462E+04 0.  0.
        4    1    3    3  502    0 -0.66066478171E+03 -0.44841908565E+03  0.11884802255E+03  0.80726953091E+03  0.12699999809E+01 0.  1.
       -4    1    3    3    0  502  0.66066478171E+03  0.44841908565E+03 -0.10214619689E+04  0.12965121661E+04  0.12699999809E+01 0. -1.
</event>
<event>
 5   0  0.6423388E-05  0.1898298E+04  0.7818609E-02  0.8655704E-01
        2   -1    0    0  501    0  0.00000000000E+00  0.00000000000E+00  0.70642500925E+03  0.70642500925E+03  0.25500000920E-02 0. -1.
       -2   -1    0    0    0  501  0.00000000000E+00  0.00000000000E+00 -0.12752716591E+04  0.12752716591E+04  0.25500000920E-02 0.  1.
    10030    2    1    2    0    0  0.00000000000E+00  0.00000000000E+00 -0.56884664981E+03  0.19816966683E+04  0.18982979677E+04 0.  0.
        2    1    3    3  502    0 -0.63079063175E+03  0.23254795756E+03  0.41501861849E+03  0.79007330506E+03  0.25500000920E-02 0. -1.
       -2    1    3    3    0  502  0.63079063175E+03 -0.23254795756E+03 -0.98386526830E+03  0.11916233632E+04  0.25500000920E-02 0.  1.
</event>
<event>
 5   0  0.6452182E-05  0.1907377E+04  0.7818609E-02  0.8651193E-01
       -2   -1    0    0    0  501  0.00000000000E+00  0.00000000000E+00  0.11069937776E+04  0.11069937776E+04  0.25500000920E-02 0. -1.
        2   -1    0    0  501    0  0.00000000000E+00  0.00000000000E+00 -0.82161399723E+03  0.82161399723E+03  0.25500000920E-02 0.  1.
    10030    2    1    2    0    0  0.00000000000E+00  0.00000000000E+00  0.28537978033E+03  0.19286077748E+04  0.19073768191E+04 0.  0.
        3    1    3    3  502    0  0.84110499370E+03 -0.38625758556E+03 -0.89802168464E+02  0.92990159290E+03  0.10100000352E+00 0.  1.
       -3    1    3    3    0  502 -0.84110499370E+03  0.38625758556E+03  0.37518194879E+03  0.99870618188E+03  0.10100000352E+00 0. -1.
</event>
<event>
 5   0  0.3147063E-05  0.1889155E+04  0.7818609E-02  0.8660273E-01
        1   -1    0    0  501    0  0.00000000000E+00  0.00000000000E+00  0.57145625532E+03  0.57145625534E+03  0.50400001928E-02 0. -1.
       -1   -1    0    0    0  501  0.00000000000E+00  0.00000000000E+00 -0.15613215116E+04  0.15613215116E+04  0.50400001928E-02 0.  1.
    10030    2    1    2    0    0  0.00000000000E+00  0.00000000000E+00 -0.98986525626E+03  0.21327777669E+04  0.18891553079E+04 0.  0.
        5    1    3    3  502    0  0.46249620293E+03  0.23800926939E+03 -0.13850601002E+04  0.14795150290E+04  0.46999998093E+01 0.  1.
       -5    1    3    3    0  502 -0.46249620293E+03 -0.23800926939E+03  0.39519484393E+03  0.65326273788E+03  0.46999998093E+01 0. -1.
</event>
<event>
 5   0  0.2279625E-05  0.1901021E+04  0.7818609E-02  0.8654348E-01
        4   -1    0    0  501    0  0.00000000000E+00  0.00000000000E+00  0.54104227501E+03  0.54104376556E+03  0.12699999809E+01 0. -1.
       -4   -1    0    0    0  501  0.00000000000E+00  0.00000000000E+00 -0.16698665553E+04  0.16698670383E+04  0.12699999809E+01 0.  1.
    10030    2    1    2    0    0  0.00000000000E+00  0.00000000000E+00 -0.11288242803E+04  0.22109108038E+04  0.19010213904E+04 0.  0.
        1    1    3    3  502    0 -0.19629129107E+03  0.23829468984E+03 -0.16099308429E+04  0.16392656737E+04  0.50400001928E-02 0.  1.
       -1    1    3    3    0  502  0.19629129107E+03 -0.23829468984E+03  0.48110656259E+03  0.57164513009E+03  0.50400001928E-02 0. -1.
</event>
<event>
 5   0  0.6361762E-05  0.1872463E+04  0.7818609E-02  0.8668686E-01
       -2   -1    0    0    0  501  0.00000000000E+00  0.00000000000E+00  0.87018073517E+03  0.87018073518E+03  0.25500000920E-02 0. -1.
        2   -1    0    0  501    0  0.00000000000E+00  0.00000000000E+00 -0.10072959358E+04  0.10072959358E+04  0.25500000920E-02 0.  1.
    10030    2    1    2    0    0  0.00000000000E+00  0.00000000000E+00 -0.13711520066E+03  0.18774766710E+04  0.18724631030E+04 0.  0.
        1    1    3    3  502    0  0.56479787140E+03  0.61501122919E+03 -0.49312265393E+03  0.96974501773E+03  0.50400001928E-02 0.  1.
       -1    1    3    3    0  502 -0.56479787140E+03 -0.61501122919E+03  0.35600745327E+03  0.90773165329E+03  0.50400001928E-02 0. -1.
</event>
<event>
 5   0  0.6423388E-05  0.1902473E+04  0.7818609E-02  0.8653626E-01
       -2   -1    0    0    0  501  0.00000000000E+00  0.00000000000E+00  0.96263279659E+03  0.96263279660E+03  0.25500000920E-02 0. -1.
        2   -1    0    0  501    0  0.00000000000E+00  0.00000000000E+00 -0.93997536222E+03  0.93997536222E+03  0.25500000920E-02 0.  1.
    10030    2    1    2    0    0  0.00000000000E+00  0.00000000000E+00  0.22657434372E+02  0.19026081588E+04  0.19024732447E+04 0.  0.
        2    1    3    3  502    0 -0.15536937137E+03 -0.93675385879E+03  0.67933774670E+02  0.95197816743E+03  0.25500000920E-02 0. -1.
       -2    1    3    3    0  502  0.15536937137E+03  0.93675385879E+03 -0.45276340298E+02  0.95062999139E+03  0.25500000920E-02 0.  1.
</event>
<event>
 5   0  0.3086139E-05  0.1935540E+04  0.7818609E-02  0.8637365E-01
       -1   -1    0    0    0  501  0.00000000000E+00  0.00000000000E+00  0.11952160639E+04  0.11952160639E+04  0.50400001928E-02 0.  1.
        1   -1    0    0  501    0  0.00000000000E+00  0.00000000000E+00 -0.78360627758E+03  0.78360627760E+03  0.50400001928E-02 0. -1.
    10030    2    1    2    0    0  0.00000000000E+00  0.00000000000E+00  0.41160978635E+03  0.19788223415E+04  0.19355400392E+04 0.  0.
        2    1    3    3  502    0  0.14007995134E+03  0.49599838969E+01 -0.77317363512E+03  0.78577634494E+03  0.25500000920E-02 0. -1.
       -2    1    3    3    0  502 -0.14007995134E+03 -0.49599838969E+01  0.11847834215E+04  0.11930459966E+04  0.25500000920E-02 0.  1.
</event>
<event>
 5   0  0.6395992E-05  0.1899331E+04  0.7818609E-02  0.8655189E-01
       -2   -1    0    0    0  501  0.00000000000E+00  0.00000000000E+00  0.43943654480E+03  0.43943654481E+03  0.25500000920E-02 0.  1.
        2   -1    0    0  501    0  0.00000000000E+00  0.00000000000E+00 -0.20523207840E+04  0.20523207840E+04  0.25500000920E-02 0. -1.
    10030    2    1    2    0    0  0.00000000000E+00  0.00000000000E+00 -0.16128842392E+04  0.24917573288E+04  0.18993312025E+04 0.  0.
        4    1    3    3  502    0  0.76210443367E+03  0.38888739874E+03 -0.13470817201E+04  0.15958281080E+04  0.12699999809E+01 0. -1.
       -4    1    3    3    0  502 -0.76210443367E+03 -0.38888739874E+03 -0.26580251915E+03  0.89592922087E+03  0.12699999809E+01 0.  1.
</event>
<event>
 5   0  0.6098377E-05  0.1890607E+04  0.7818609E-02  0.8659546E-01
       -2   -1    0    0    0  501  0.00000000000E+00  0.00000000000E+00  0.13636299124E+04  0.13636299124E+04  0.25500000920E-02 0.  1.
        2   -1    0    0  501    0  0.00000000000E+00  0.00000000000E+00 -0.65530861855E+03  0.65530861855E+03  0.25500000920E-02 0. -1.
    10030    2    1    2    0    0  0.00000000000E+00  0.00000000000E+00  0.70832129389E+03  0.20189385310E+04  0.18906067112E+04 0.  0.
        5    1    3    3  502    0  0.63670718320E+03 -0.56979145539E+03  0.78598257325E+03  0.11609690070E+04  0.46999998093E+01 0.  1.
       -5    1    3    3    0  502 -0.63670718320E+03  0.56979145539E+03 -0.77661279358E+02  0.85796952398E+03  0.46999998093E+01 0. -1.
</event>
<event>
 5   0  0.6395992E-05  0.1908146E+04  0.7818609E-02  0.8650812E-01
       -2   -1    0    0    0  501  0.00000000000E+00  0.00000000000E+00  0.48769946131E+03  0.48769946132E+03  0.25500000920E-02 0. -1.
        2   -1    0    0  501    0  0.00000000000E+00  0.00000000000E+00 -0.18664269871E+04  0.18664269871E+04  0.25500000920E-02 0.  1.
    10030    2    1    2    0    0  0.00000000000E+00  0.00000000000E+00 -0.13787275257E+04  0.23541264484E+04  0.19081461539E+04 0.  0.
        4    1    3    3  502    0 -0.59136064707E+03 -0.61111557579E+03 -0.15573815677E+03  0.86453782349E+03  0.12699999809E+01 0. -1.
       -4    1    3    3    0  502  0.59136064707E+03  0.61111557579E+03 -0.12229893690E+04  0.14895886249E+04  0.12699999809E+01 0.  1.
</event>
<event>
 5   0  0.6423388E-05  0.1921611E+04  0.7818609E-02  0.8644173E-01
       -2   -1    0    0    0  501  0.00000000000E+00  0.00000000000E+00  0.37361358528E+03  0.37361358529E+03  0.25500000920E-02 0.  1.
        2   -1    0    0  501    0  0.00000000000E+00  0.00000000000E+00 -0.24708612601E+04  0.24708612601E+04  0.25500000920E-02 0. -1.
    10030    2    1    2    0    0  0.00000000000E+00  0.00000000000E+00 -0.20972476748E+04  0.28444748454E+04  0.19216111304E+04 0.  0.
        2    1    3    3  502    0  0.93162462645E+02 -0.57303561875E+03 -0.21818636182E+04  0.22577816354E+04  0.25500000920E-02 0. -1.
       -2    1    3    3    0  502 -0.93162462645E+02  0.57303561875E+03  0.84615943334E+02  0.58669321001E+03  0.25500000920E-02 0.  1.
</event>
<event>
 5   0  0.6098377E-05  0.1913255E+04  0.7818609E-02  0.8648287E-01
       -2   -1    0    0    0  501  0.00000000000E+00  0.00000000000E+00  0.70704157775E+03  0.70704157775E+03  0.25500000920E-02 0.  1.
        2   -1    0    0  501    0  0.00000000000E+00  0.00000000000E+00 -0.12943169009E+04  0.12943169009E+04  0.25500000920E-02 0. -1.
    10030    2    1    2    0    0  0.00000000000E+00  0.00000000000E+00 -0.58727532314E+03  0.20013584786E+04  0.19132546759E+04 0.  0.
        5    1    3    3  502    0 -0.45762604706E+03 -0.29860807942E+03 -0.11149863826E+04  0.12416944501E+04  0.46999998093E+01 0. -1.
       -5    1    3    3    0  502  0.45762604706E+03  0.29860807942E+03  0.52771105944E+03  0.75966402856E+03  0.46999998093E+01 0.  1.
</event>
<event>
 5   0  0.3203527E-05  0.1893933E+04  0.7818609E-02  0.8657882E-01
       -1   -1    0    0    0  501  0.00000000000E+00  0.00000000000E+00  0.98872768217E+03  0.98872768218E+03  0.50400001928E-02 0. -1.
        1   -1    0    0  501    0  0.00000000000E+00  0.00000000000E+00 -0.90696926469E+03  0.90696926470E+03  0.50400001928E-02 0.  1.
    10030    2    1    2    0    0  0.00000000000E+00  0.00000000000E+00  0.81758417477E+02  0.18956969469E+04  0.18939330705E+04 0.  0.
        1    1    3    3  502    0 -0.92855282870E+03 -0.13502971001E+02  0.22639726874E+03  0.95584957458E+03  0.50400001928E-02 0.  1.
       -1    1    3    3    0  502  0.92855282870E+03  0.13502971001E+02 -0.14463885126E+03  0.93984737230E+03  0.50400001928E-02 0. -1.
</event>
<event>
 5   0  0.6452182E-05  0.1900046E+04  0.7818609E-02  0.8654833E-01
       -2   -1    0    0    0  501  0.00000000000E+00  0.00000000000E+00  0.75164340590E+03  0.75164340591E+03  0.25500000920E-02 0.  1.
        2   -1    0    0  501    0  0.00000000000E+00  0.00000000000E+00 -0.12007610813E+04  0.12007610813E+04  0.25500000920E-02 0. -1.
    10030    2    1    2    0    0  0.00000000000E+00  0.00000000000E+00 -0.44911767539E+03  0.19524044872E+04  0.19000464719E+04 0.  0.
        3    1    3    3  502    0 -0.45071948760E+03  0.80670163854E+03  0.20366343307E+01  0.92407778255E+03  0.10100000352E+00 0.  1.
       -3    1    3    3    0  502  0.45071948760E+03 -0.80670163854E+03 -0.45115430972E+03  0.10283267047E+04  0.10100000352E+00 0. -1.
</event>
<event>
 5   0  0.3203527E-05  0.1889095E+04  0.7818609E-02  0.8660304E-01
       -1   -1    0    0    0  501  0.00000000000E+00  0.00000000000E+00  0.18046752421E+04  0.18046752421E+04  0.50400001928E-02 0. -1.
        1   -1    0    0  501    0  0.00000000000E+00  0.00000000000E+00 -0.49436572697E+03  0.49436572700E+03  0.50400001928E-02 0.  1.
    10030    2    1    2    0    0  0.00000000000E+00  0.00000000000E+00  0.13103095151E+04  0.22990409691E+04  0.18890945853E+04 0.  0.
        1    1    3    3  502    0 -0.22987275220E+01  0.50575257607E+03  0.16260017798E+04  0.17028425471E+04  0.50400001928E-02 0. -1.
       -1    1    3    3    0  502  0.22987275220E+01 -0.50575257607E+03 -0.31569226469E+03  0.59619842197E+03  0.50400001928E-02 0.  1.
</event>
<event>
 5   0  0.6423388E-05  0.1898771E+04  0.7818609E-02  0.8655468E-01
        2   -1    0    0  501    0  0.00000000000E+00  0.00000000000E+00  0.75288298791E+03  0.75288298792E+03  0.25500000920E-02 0.  1.
       -2   -1    0    0    0  501  0.00000000000E+00  0.00000000000E+00 -0.11971752423E+04  0.11971752423E+04  0.25500000920E-02 0. -1.
    10030    2    1    2    0    0  0.00000000000E+00  0.00000000000E+00 -0.44429225440E+03  0.19500582302E+04  0.18987710483E+04 0.  0.
        2    1    3    3  502    0  0.25819360650E+03 -0.72040854290E+03  0.35488445827E+03  0.84356113344E+03  0.25500000920E-02 0.  1.
       -2    1    3    3    0  502 -0.25819360650E+03  0.72040854290E+03 -0.79917671267E+03  0.11064970968E+04  0.25500000920E-02 0. -1.
</event>
<event>
 5   0  0.6098377E-05  0.1889454E+04  0.7818609E-02  0.8660124E-01
       -2   -1    0    0    0  501  0.00000000000E+00  0.00000000000E+00  0.96283672607E+03  0.96283672608E+03  0.25500000920E-02 0. -1.
        2   -1    0    0  501    0  0.00000000000E+00  0.00000000000E+00 -0.92695816700E+03  0.92695816701E+03  0.25500000920E-02 0.  1.
    10030    2    1    2    0    0  0.00000000000E+00  0.00000000000E+00  0.35878559070E+02  0.18897948931E+04  0.18894542775E+04 0.  0.
        5    1    3    3  502    0  0.68345640397E+03  0.60322023251E+02  0.66746829512E+03  0.95722903091E+03  0.46999998093E+01 0. -1.
       -5    1    3    3    0  502 -0.68345640397E+03 -0.60322023251E+02 -0.63158973605E+03  0.93256586218E+03  0.46999998093E+01 0.  1.
</event>
<event>
 5   0  0.3083469E-05  0.1891741E+04  0.7818609E-02  0.8658978E-01
       -1   -1    0    0    0  501  0.00000000000E+00  0.00000000000E+00  0.13267908273E+04  0.13267908273E+04  0.50400001928E-02 0. -1.
        1   -1    0    0  501    0  0.00000000000E+00  0.00000000000E+00 -0.67431227628E+03  0.67431227630E+03  0.50400001928E-02 0.  1.
    10030    2    1    2    0    0  0.00000000000E+00  0.00000000000E+00  0.65247855100E+03  0.20011031036E+04  0.18917413596E+04 0.  0.
        3    1    3    3  502    0 -0.55691255950E+02 -0.71183931010E+03 -0.32999068578E+03  0.78658158019E+03  0.10100000352E+00 0.  1.
       -3    1    3    3    0  502  0.55691255950E+02  0.71183931010E+03  0.98246923678E+03  0.12145215234E+04  0.10100000352E+00 0. -1.
</event>
<event>
 5   0  0.3203527E-05  0.1904750E+04  0.7818609E-02  0.8652496E-01
        1   -1    0    0  501    0  0.00000000000E+00  0.00000000000E+00  0.12076270854E+04  0.12076270855E+04  0.50400001928E-02 0. -1.
       -1   -1    0    0    0  501  0.00000000000E+00  0.00000000000E+00 -0.75107454723E+03  0.75107454725E+03  0.50400001928E-02 0.  1.
    10030    2    1    2    0    0  0.00000000000E+00  0.00000000000E+00  0.45655253822E+03  0.19587016327E+04  0.19047498171E+04 0.  0.
        1    1    3    3  502    0  0.17841170609E+03  0.38877991384E+03 -0.64672936075E+03  0.77539630148E+03  0.50400001928E-02 0.  1.
       -1    1    3    3    0  502 -0.17841170609E+03 -0.38877991384E+03  0.11032818990E+04  0.11833053312E+04  0.50400001928E-02 0. -1.
</event>
<event>
 5   0  0.3147063E-05  0.1896748E+04  0.7818609E-02  0.8656477E-01
       -1   -1    0    0    0  501  0.00000000000E+00  0.00000000000E+00  0.11041552887E+04  0.11041552888E+04  0.50400001928E-02 0. -1.
        1   -1    0    0  501    0  0.00000000000E+00  0.00000000000E+00 -0.81457155833E+03  0.81457155835E+03  0.50400001928E-02 0.  1.
    10030    2    1    2    0    0  0.00000000000E+00  0.00000000000E+00  0.28958373042E+03  0.19187268471E+04  0.18967482640E+04 0.  0.
        5    1    3    3  502    0  0.75419986459E+03  0.21643389676E+03  0.68362754304E+03  0.10406871648E+04  0.46999998093E+01 0. -1.
       -5    1    3    3    0  502 -0.75419986459E+03 -0.21643389676E+03 -0.39404381262E+03  0.87803968229E+03  0.46999998093E+01 0.  1.
</event>
<event>
 5   0  0.2279625E-05  0.1896197E+04  0.7818609E-02  0.8656752E-01
       -3   -1    0    0    0  501  0.00000000000E+00  0.00000000000E+00  0.85760895294E+03  0.85760895889E+03  0.10100000352E+00 0.  1.
        3   -1    0    0  501    0  0.00000000000E+00  0.00000000000E+00 -0.10481362416E+04  0.10481362465E+04  0.10100000352E+00 0. -1.
    10030    2    1    2    0    0  0.00000000000E+00  0.00000000000E+00 -0.19052728867E+03  0.19057452054E+04  0.18961972840E+04 0.  0.
        1    1    3    3  502    0  0.34810282402E+03 -0.46551260746E+03 -0.84804345079E+03  0.10281319265E+04  0.50400001928E-02 0. -1.
       -1    1    3    3    0  502 -0.34810282402E+03  0.46551260746E+03  0.65751616212E+03  0.87761327888E+03  0.50400001928E-02 0.  1.
</event>
<event>
 5   0  0.3083469E-05  0.1859943E+04  0.7818609E-02  0.8675056E-01
       -1   -1    0    0    0  501  0.00000000000E+00  0.00000000000E+00  0.51680095400E+03  0.51680095403E+03  0.50400001928E-02 0. -1.
        1   -1    0    0  501    0  0.00000000000E+00  0.00000000000E+00 -0.16734619866E+04  0.16734619866E+04  0.50400001928E-02 0.  1.
    10030    2    1    2    0    0  0.00000000000E+00  0.00000000000E+00 -0.11566610326E+04  0.21902629406E+04  0.18599427423E+04 0.  0.
        3    1    3    3  502    0 -0.82866226733E+03 -0.20133740868E+02 -0.81836555922E+02  0.83293682408E+03  0.10100000352E+00 0. -1.
       -3    1    3    3    0  502  0.82866226733E+03  0.20133740868E+02 -0.10748244767E+04  0.13573261166E+04  0.10100000352E+00 0.  1.
</event>
<event>
 5   0  0.6098377E-05  0.1900736E+04  0.7818609E-02  0.8654490E-01
        2   -1    0    0  501    0  0.00000000000E+00  0.00000000000E+00  0.86555123761E+03  0.86555123761E+03  0.25500000920E-02 0.  1.
       -2   -1    0    0    0  501  0.00000000000E+00  0.00000000000E+00 -0.10434956678E+04  0.10434956678E+04  0.25500000920E-02 0. -1.
    10030    2    1    2    0    0  0.00000000000E+00  0.00000000000E+00 -0.17794443019E+03  0.19090469054E+04  0.19007356120E+04 0.  0.
        5    1    3    3  502    0 -0.30486060180E+03  0.64303139549E+03  0.54366100725E+03  0.89555499156E+03  0.46999998093E+01 0.  1.
       -5    1    3    3    0  502  0.30486060180E+03 -0.64303139549E+03 -0.72160543744E+03  0.10134919139E+04  0.46999998093E+01 0. -1.
</event>
<event>
 5   0  0.2279625E-05  0.1903055E+04  0.7818609E-02  0.8653337E-01
        3   -1    0    0  501    0  0.00000000000E+00  0.00000000000E+00  0.19678008628E+04  0.19678008654E+04  0.10100000352E+00 0.  1.
       -3   -1    0    0    0  501  0.00000000000E+00  0.00000000000E+00 -0.46011005748E+03  0.46011006856E+03  0.10100000352E+00 0. -1.
    10030    2    1    2    0    0  0.00000000000E+00  0.00000000000E+00  0.15076908054E+04  0.24279109340E+04  0.19030554219E+04 0.  0.
        1    1    3    3  502    0  0.81272554417E+03 -0.40452610434E+03  0.11174827031E+04  0.14397679573E+04  0.50400001928E-02 0.  1.
       -1    1    3    3    0  502 -0.81272554417E+03  0.40452610434E+03  0.39020810229E+03  0.98814297668E+03  0.50400001928E-02 0. -1.
</event>
<event>
 5   0  0.6098377E-05  0.1903298E+04  0.7818609E-02  0.8653217E-01
        2   -1    0    0  501    0  0.00000000000E+00  0.00000000000E+00  0.20666799167E+04  0.20666799167E+04  0.25500000920E-02 0.  1.
       -2   -1    0    0    0  501  0.00000000000E+00  0.00000000000E+00 -0.43820788080E+03  0.43820788081E+03  0.25500000920E-02 0. -1.
    10030    2    1    2    0    0  0.00000000000E+00  0.00000000000E+00  0.16284720359E+04  0.25048877975E+04  0.19032975875E+04 0.  0.
        5    1    3    3  502    0  0.77601457736E+03  0.43624492951E+03  0.37162458916E+03  0.96469434955E+03  0.46999998093E+01 0. -1.
       -5    1    3    3    0  502 -0.77601457736E+03 -0.43624492951E+03  0.12568474468E+04  0.15401934480E+04  0.46999998093E+01 0.  1.
</event>
<event>
 5   0  0.3203527E-05  0.1952045E+04  0.7818609E-02  0.8629376E-01
        1   -1    0    0  501    0  0.00000000000E+00  0.00000000000E+00  0.40608509576E+03  0.40608509579E+03  0.50400001928E-02 0.  1.
       -1   -1    0    0    0  501  0.00000000000E+00  0.00000000000E+00 -0.23458616059E+04  0.23458616059E+04  0.50400001928E-02 0. -1.
    10030    2    1    2    0    0  0.00000000000E+00  0.00000000000E+00 -0.19397765102E+04  0.27519467017E+04  0.19520445025E+04 0.  0.
        1    1    3    3  502    0 -0.64431673841E+03  0.73305844608E+03 -0.98403458391E+03  0.13859447345E+04  0.50400001928E-02 0.  1.
       -1    1    3    3    0  502  0.64431673841E+03 -0.73305844608E+03 -0.95574192625E+03  0.13660019672E+04  0.50400001928E-02 0. -1.
</event>
<event>
 5   0  0.3147063E-05  0.1898673E+04  0.7818609E-02  0.8655517E-01
       -1   -1    0    0    0  501  0.00000000000E+00  0.00000000000E+00  0.13405256609E+04  0.13405256609E+04  0.50400001928E-02 0.  1.
        1   -1    0    0  501    0  0.00000000000E+00  0.00000000000E+00 -0.67230331181E+03  0.67230331183E+03  0.50400001928E-02 0. -1.
    10030    2    1    2    0    0  0.00000000000E+00  0.00000000000E+00  0.66822234906E+03  0.20128289727E+04  0.18986730539E+04 0.  0.
        5    1    3    3  502    0  0.39007515880E+03  0.22516598223E+03  0.12200345900E+04  0.13005248324E+04  0.46999998093E+01 0.  1.
       -5    1    3    3    0  502 -0.39007515880E+03 -0.22516598223E+03 -0.55181224090E+03  0.71230414029E+03  0.46999998093E+01 0. -1.
</event>
<event>
 5   0  0.6452182E-05  0.1888695E+04  0.7818609E-02  0.8660504E-01
       -2   -1    0    0    0  501  0.00000000000E+00  0.00000000000E+00  0.54918153260E+03  0.54918153261E+03  0.25500000920E-02 0. -1.
        2   -1    0    0  501    0  0.00000000000E+00  0.00000000000E+00 -0.16238576540E+04  0.16238576540E+04  0.25500000920E-02 0.  1.
    10030    2    1    2    0    0  0.00000000000E+00  0.00000000000E+00 -0.10746761214E+04  0.21730391866E+04  0.18886954600E+04 0.  0.
        3    1    3    3  502    0 -0.89844849946E+03 -0.28555153746E+03 -0.47386731564E+03  0.10551301483E+04  0.10100000352E+00 0. -1.
       -3    1    3    3    0  502  0.89844849946E+03  0.28555153746E+03 -0.60080880572E+03  0.11179090383E+04  0.10100000352E+00 0.  1.
</event>
<event>
 5   0  0.6098377E-05  0.1902417E+04  0.7818609E-02  0.8653654E-01
        2   -1    0    0  501    0  0.00000000000E+00  0.00000000000E+00  0.13093756304E+04  0.13093756304E+04  0.25500000920E-02 0.  1.
       -2   -1    0    0    0  501  0.00000000000E+00  0.00000000000E+00 -0.69101449823E+03  0.69101449823E+03  0.25500000920E-02 0. -1.
    10030    2    1    2    0    0  0.00000000000E+00  0.00000000000E+00  0.61836113216E+03  0.20003901286E+04  0.19024169304E+04 0.  0.
        5    1    3    3  502    0  0.14928912382E+02 -0.95045384598E+03  0.27290660555E+03  0.98898204792E+03  0.46999998093E+01 0. -1.
       -5    1    3    3    0  502 -0.14928912382E+02  0.95045384598E+03  0.34545452661E+03  0.10114080807E+04  0.46999998093E+01 0.  1.
</event>
<event>
 5   0  0.2279625E-05  0.1903270E+04  0.7818609E-02  0.8653231E-01
       -3   -1    0    0    0  501  0.00000000000E+00  0.00000000000E+00  0.83301214189E+03  0.83301214801E+03  0.10100000352E+00 0. -1.
        3   -1    0    0  501    0  0.00000000000E+00  0.00000000000E+00 -0.10871497691E+04  0.10871497738E+04  0.10100000352E+00 0.  1.
    10030    2    1    2    0    0  0.00000000000E+00  0.00000000000E+00 -0.25413762723E+03  0.19201619218E+04  0.19032697845E+04 0.  0.
        5    1    3    3  502    0 -0.12621254262E+03  0.70048547530E+03 -0.76432143742E+03  0.10444227385E+04  0.46999998093E+01 0.  1.
       -5    1    3    3    0  502  0.12621254262E+03 -0.70048547530E+03  0.51018381019E+03  0.87573918332E+03  0.46999998093E+01 0. -1.
</event>
<event>
 5   0  0.6395992E-05  0.1904589E+04  0.7818609E-02  0.8652576E-01
        2   -1    0    0  501    0  0.00000000000E+00  0.00000000000E+00  0.17960470425E+04  0.17960470425E+04  0.25500000920E-02 0. -1.
       -2   -1    0    0    0  501  0.00000000000E+00  0.00000000000E+00 -0.50492243915E+03  0.50492243915E+03  0.25500000920E-02 0.  1.
    10030    2    1    2    0    0  0.00000000000E+00  0.00000000000E+00  0.12911246034E+04  0.23009694817E+04  0.19045886207E+04 0.  0.
        4    1    3    3  502    0 -0.94015216601E+03  0.97403875820E+02  0.78587702980E+03  0.12292184221E+04  0.12699999809E+01 0. -1.
       -4    1    3    3    0  502  0.94015216601E+03 -0.97403875820E+02  0.50524757359E+03  0.10717510596E+04  0.12699999809E+01 0.  1.
</event>
<event>
 5   0  0.3083469E-05  0.1900725E+04  0.7818609E-02  0.8654496E-01
        1   -1    0    0  501    0  0.00000000000E+00  0.00000000000E+00  0.92990085546E+03  0.92990085547E+03  0.50400001928E-02 0. -1.
       -1   -1    0    0    0  501  0.00000000000E+00  0.00000000000E+00 -0.97127413946E+03  0.97127413947E+03  0.50400001928E-02 0.  1.
    10030    2    1    2    0    0  0.00000000000E+00  0.00000000000E+00 -0.41373283997E+02  0.19011749949E+04  0.19007247599E+04 0.  0.
        3    1    3    3  502    0 -0.50366265164E+03  0.51699584692E+03  0.59770560638E+03  0.93713007341E+03  0.10100000352E+00 0. -1.
       -3    1    3    3    0  502  0.50366265164E+03 -0.51699584692E+03 -0.63907889038E+03  0.96404492153E+03  0.10100000352E+00 0.  1.
</event>
<event>
 5   0  0.3144958E-05  0.1852404E+04  0.7818609E-02  0.8678917E-01
       -1   -1    0    0    0  501  0.00000000000E+00  0.00000000000E+00  0.10100515944E+04  0.10100515944E+04  0.50400001928E-02 0. -1.
        1   -1    0    0  501    0  0.00000000000E+00  0.00000000000E+00 -0.84931364555E+03  0.84931364556E+03  0.50400001928E-02 0.  1.
    10030    2    1    2    0    0  0.00000000000E+00  0.00000000000E+00  0.16073794880E+03  0.18593652399E+04  0.18524044934E+04 0.  0.
        4    1    3    3  502    0 -0.63579037602E+03  0.32842005005E+03 -0.50985407714E+03  0.87865916282E+03  0.12699999809E+01 0.  1.
       -4    1    3    3    0  502  0.63579037602E+03 -0.32842005005E+03  0.67059202595E+03  0.98070607711E+03  0.12699999809E+01 0. -1.
</event>
<event>
 5   0  0.3144958E-05  0.1900173E+04  0.7818609E-02  0.8654770E-01
       -1   -1    0    0    0  501  0.00000000000E+00  0.00000000000E+00  0.97726091019E+03  0.97726091021E+03  0.50400001928E-02 0. -1.
        1   -1    0    0  501    0  0.00000000000E+00  0.00000000000E+00 -0.92366754581E+03  0.92366754582E+03  0.50400001928E-02 0.  1.
    10030    2    1    2    0    0  0.00000000000E+00  0.00000000000E+00  0.53593364389E+02  0.19009284560E+04  0.19001728201E+04 0.  0.
        4    1    3    3  502    0  0.38397317593E+03  0.26728665279E+03  0.85403846342E+03  0.97378686810E+03  0.12699999809E+01 0. -1.
       -4    1    3    3    0  502 -0.38397317593E+03 -0.26728665279E+03 -0.80044509903E+03  0.92714158792E+03  0.12699999809E+01 0.  1.
</event>
<event>
 5   0  0.3144958E-05  0.1897986E+04  0.7818609E-02  0.8655859E-01
        1   -1    0    0  501    0  0.00000000000E+00  0.00000000000E+00  0.90067369105E+03  0.90067369106E+03  0.50400001928E-02 0. -1.
       -1   -1    0    0    0  501  0.00000000000E+00  0.00000000000E+00 -0.99990504120E+03  0.99990504121E+03  0.50400001928E-02 0.  1.
    10030    2    1    2    0    0  0.00000000000E+00  0.00000000000E+00 -0.99231350153E+02  0.19005787323E+04  0.18979864743E+04 0.  0.
        4    1    3    3  502    0  0.57986149530E+03 -0.42700295831E+03 -0.66853400001E+03  0.98260378699E+03  0.12699999809E+01 0. -1.
       -4    1    3    3    0  502 -0.57986149530E+03  0.42700295831E+03  0.56930264986E+03  0.91797494529E+03  0.12699999809E+01 0.  1.
</event>
<event>
 5   0  0.3203527E-05  0.1893893E+04  0.7818609E-02  0.8657902E-01
        1   -1    0    0  501    0  0.00000000000E+00  0.00000000000E+00  0.77464891152E+03  0.77464891154E+03  0.50400001928E-02 0.  1.
       -1   -1    0    0    0  501  0.00000000000E+00  0.00000000000E+00 -0.11575667621E+04  0.11575667621E+04  0.50400001928E-02 0. -1.
    10030    2    1    2    0    0  0.00000000000E+00  0.00000000000E+00 -0.38291785061E+03  0.19322156737E+04  0.18938931673E+04 0.  0.
        1    1    3    3  502    0 -0.84708696764E+03  0.42297085503E+03 -0.20749827982E+03  0.96928644430E+03  0.50400001928E-02 0.  1.
       -1    1    3    3    0  502  0.84708696764E+03 -0.42297085503E+03 -0.17541957080E+03  0.96292922938E+03  0.50400001928E-02 0. -1.
</event>
<event>
 5   0  0.3147063E-05  0.1888351E+04  0.7818609E-02  0.8660677E-01
       -1   -1    0    0    0  501  0.00000000000E+00  0.00000000000E+00  0.64335584542E+03  0.64335584544E+03  0.50400001928E-02 0. -1.
        1   -1    0    0  501    0  0.00000000000E+00  0.00000000000E+00 -0.13856518382E+04  0.13856518382E+04  0.50400001928E-02 0.  1.
    10030    2    1    2    0    0  0.00000000000E+00  0.00000000000E+00 -0.74229599273E+03  0.20290076836E+04  0.18883508253E+04 0.  0.
        5    1    3    3  502    0 -0.27673601330E+03 -0.49039576343E+03  0.44317838882E+03  0.71658914321E+03  0.46999998093E+01 0. -1.
       -5    1    3    3    0  502  0.27673601330E+03  0.49039576343E+03 -0.11854743816E+04  0.13124185404E+04  0.46999998093E+01 0.  1.
</event>
<event>
 5   0  0.6395992E-05  0.1904942E+04  0.7818609E-02  0.8652400E-01
        2   -1    0    0  501    0  0.00000000000E+00  0.00000000000E+00  0.14766748595E+04  0.14766748596E+04  0.25500000920E-02 0.  1.
       -2   -1    0    0    0  501  0.00000000000E+00  0.00000000000E+00 -0.61435419027E+03  0.61435419027E+03  0.25500000920E-02 0. -1.
    10030    2    1    2    0    0  0.00000000000E+00  0.00000000000E+00  0.86232066928E+03  0.20910290498E+04  0.19049424008E+04 0.  0.
        4    1    3    3  502    0  0.57490741295E+03  0.56014344540E+03  0.99400751344E+03  0.12776273958E+04  0.12699999809E+01 0.  1.
       -4    1    3    3    0  502 -0.57490741295E+03 -0.56014344540E+03 -0.13168684416E+03  0.81340165399E+03  0.12699999809E+01 0. -1.
</event>
<event>
 5   0  0.3147063E-05  0.1881256E+04  0.7818609E-02  0.8664243E-01
       -1   -1    0    0    0  501  0.00000000000E+00  0.00000000000E+00  0.14504368939E+04  0.14504368939E+04  0.50400001928E-02 0.  1.
        1   -1    0    0  501    0  0.00000000000E+00  0.00000000000E+00 -0.61001015387E+03  0.61001015389E+03  0.50400001928E-02 0. -1.
    10030    2    1    2    0    0  0.00000000000E+00  0.00000000000E+00  0.84042674005E+03  0.20604470478E+04  0.18812562110E+04 0.  0.
        5    1    3    3  502    0  0.82944534990E+03 -0.28818833425E+03  0.78956955515E+03  0.11808786038E+04  0.46999998093E+01 0.  1.
       -5    1    3    3    0  502 -0.82944534990E+03  0.28818833425E+03  0.50857184897E+02  0.87956844402E+03  0.46999998093E+01 0. -1.
</event>
<event>
 5   0  0.6395992E-05  0.1897251E+04  0.7818609E-02  0.8656226E-01
        2   -1    0    0  501    0  0.00000000000E+00  0.00000000000E+00  0.18596492126E+04  0.18596492126E+04  0.25500000920E-02 0.  1.
       -2   -1    0    0    0  501  0.00000000000E+00  0.00000000000E+00 -0.48390346562E+03  0.48390346563E+03  0.25500000920E-02 0. -1.
    10030    2    1    2    0    0  0.00000000000E+00  0.00000000000E+00  0.13757457470E+04  0.23435526783E+04  0.18972513791E+04 0.  0.
        4    1    3    3  502    0 -0.60459692260E+03  0.65243776333E+03  0.28066338557E+03  0.93273041267E+03  0.12699999809E+01 0.  1.
       -4    1    3    3    0  502  0.60459692260E+03 -0.65243776333E+03  0.10950823615E+04  0.14108222656E+04  0.12699999809E+01 0. -1.
</event>
<event>
 5   0  0.3203527E-05  0.1895995E+04  0.7818609E-02  0.8656853E-01
       -1   -1    0    0    0  501  0.00000000000E+00  0.00000000000E+00  0.10897132896E+04  0.10897132896E+04  0.50400001928E-02 0. -1.
        1   -1    0    0  501    0  0.00000000000E+00  0.00000000000E+00 -0.82471153136E+03  0.82471153138E+03  0.50400001928E-02 0.  1.
    10030    2    1    2    0    0  0.00000000000E+00  0.00000000000E+00  0.26500175820E+03  0.19144248209E+04  0.18959948479E+04 0.  0.
        1    1    3    3  502    0 -0.64036844973E+03 -0.29014857638E+03 -0.50963781643E+03  0.86832519931E+03  0.50400001928E-02 0.  1.
       -1    1    3    3    0  502  0.64036844973E+03  0.29014857638E+03  0.77463957463E+03  0.10460996216E+04  0.50400001928E-02 0. -1.
</event>
<event>
 5   0  0.6361762E-05  0.1959727E+04  0.7818609E-02  0.8625684E-01
       -2   -1    0    0    0  501  0.00000000000E+00  0.00000000000E+00  0.91900404346E+03  0.91900404346E+03  0.25500000920E-02 0.  1.
        2   -1    0    0  501    0  0.00000000000E+00  0.00000000000E+00 -0.10447535609E+04  0.10447535609E+04  0.25500000920E-02 0. -1.
    10030    2    1    2    0    0  0.00000000000E+00  0.00000000000E+00 -0.12574951749E+03  0.19637576044E+04  0.19597272738E+04 0.  0.
        1    1    3    3  502    0  0.26060717381E+03  0.72317067408E+03 -0.67177633561E+03  0.10208699075E+04  0.50400001928E-02 0. -1.
       -1    1    3    3    0  502 -0.26060717381E+03 -0.72317067408E+03  0.54602681813E+03  0.94288769693E+03  0.50400001928E-02 0.  1.
</event>
<event>
 5   0  0.3083469E-05  0.1870280E+04  0.7818609E-02  0.8669793E-01
        1   -1    0    0  501    0  0.00000000000E+00  0.00000000000E+00  0.90324108582E+03  0.90324108584E+03  0.50400001928E-02 0.  1.
       -1   -1    0    0    0  501  0.00000000000E+00  0.00000000000E+00 -0.96816513359E+03  0.96816513360E+03  0.50400001928E-02 0. -1.
    10030    2    1    2    0    0  0.00000000000E+00  0.00000000000E+00 -0.64924047762E+02  0.18714062194E+04  0.18702796866E+04 0.  0.
        3    1    3    3  502    0 -0.32918007510E+03  0.69838564357E+03  0.49547731844E+03  0.91738749298E+03  0.10100000352E+00 0.  1.
       -3    1    3    3    0  502  0.32918007510E+03 -0.69838564357E+03 -0.56040136620E+03  0.95401872646E+03  0.10100000352E+00 0. -1.
</event>
<event>
 5   0  0.6423388E-05  0.1902946E+04  0.7818609E-02  0.8653391E-01
        2   -1    0    0  501    0  0.00000000000E+00  0.00000000000E+00  0.81924607503E+03  0.81924607503E+03  0.25500000920E-02 0. -1.
       -2   -1    0    0    0  501  0.00000000000E+00  0.00000000000E+00 -0.11050415498E+04  0.11050415498E+04  0.25500000920E-02 0.  1.
    10030    2    1    2    0    0  0.00000000000E+00  0.00000000000E+00 -0.28579547481E+03  0.19242876249E+04  0.19029460869E+04 0.  0.
        2    1    3    3  502    0 -0.94337253315E+03 -0.12230131323E+03 -0.12288679336E+03  0.95917178415E+03  0.25500000920E-02 0.  1.
       -2    1    3    3    0  502  0.94337253315E+03  0.12230131323E+03 -0.16290868145E+03  0.96511584073E+03  0.25500000920E-02 0. -1.
</event>
<event>
 5   0  0.3203527E-05  0.1882013E+04  0.7818609E-02  0.8663862E-01
       -1   -1    0    0    0  501  0.00000000000E+00  0.00000000000E+00  0.16630829597E+04  0.16630829597E+04  0.50400001928E-02 0. -1.
        1   -1    0    0  501    0  0.00000000000E+00  0.00000000000E+00 -0.53244103936E+03  0.53244103938E+03  0.50400001928E-02 0.  1.
    10030    2    1    2    0    0  0.00000000000E+00  0.00000000000E+00  0.11306419204E+04  0.21955239991E+04  0.18820134108E+04 0.  0.
        1    1    3    3  502    0 -0.43876476413E+03 -0.64368536994E+03  0.11811265569E+04  0.14148870334E+04  0.50400001928E-02 0. -1.
       -1    1    3    3    0  502  0.43876476413E+03  0.64368536994E+03 -0.50484636560E+02  0.78063696574E+03  0.50400001928E-02 0.  1.
</event>
<event>
 5   0  0.3083469E-05  0.1883830E+04  0.7818609E-02  0.8662947E-01
        1   -1    0    0  501    0  0.00000000000E+00  0.00000000000E+00  0.18916865440E+04  0.18916865440E+04  0.50400001928E-02 0.  1.
       -1   -1    0    0    0  501  0.00000000000E+00  0.00000000000E+00 -0.46900152797E+03  0.46900152800E+03  0.50400001928E-02 0. -1.
    10030    2    1    2    0    0  0.00000000000E+00  0.00000000000E+00  0.14226850160E+04  0.23606880720E+04  0.18838300132E+04 0.  0.
        3    1    3    3  502    0  0.30306220824E+03  0.22840798465E+03 -0.36896136796E+03  0.52929142328E+03  0.10100000352E+00 0. -1.
       -3    1    3    3    0  502 -0.30306220824E+03 -0.22840798465E+03  0.17916463840E+04  0.18313966487E+04  0.10100000352E+00 0.  1.
</event>
<event>
 5   0  0.3203527E-05  0.1900973E+04  0.7818609E-02  0.8654372E-01
       -1   -1    0    0    0  501  0.00000000000E+00  0.00000000000E+00  0.66889117644E+03  0.66889117646E+03  0.50400001928E-02 0.  1.
        1   -1    0    0  501    0  0.00000000000E+00  0.00000000000E+00 -0.13506306185E+04  0.13506306185E+04  0.50400001928E-02 0. -1.
    10030    2    1    2    0    0  0.00000000000E+00  0.00000000000E+00 -0.68173944201E+03  0.20195217949E+04  0.19009733332E+04 0.  0.
        1    1    3    3  502    0 -0.90987772538E+03  0.18308015105E+03 -0.55866451529E+03  0.10832829074E+04  0.50400001928E-02 0. -1.
       -1    1    3    3    0  502  0.90987772538E+03 -0.18308015105E+03 -0.12307492673E+03  0.93623888750E+03  0.50400001928E-02 0.  1.
</event>
<event>
 5   0  0.6098377E-05  0.1891358E+04  0.7818609E-02  0.8659170E-01
       -2   -1    0    0    0  501  0.00000000000E+00  0.00000000000E+00  0.83923537571E+03  0.83923537571E+03  0.25500000920E-02 0.  1.
        2   -1    0    0  501    0  0.00000000000E+00  0.00000000000E+00 -0.10656231391E+04  0.10656231391E+04  0.25500000920E-02 0. -1.
    10030    2    1    2    0    0  0.00000000000E+00  0.00000000000E+00 -0.22638776339E+03  0.19048585148E+04  0.18913578567E+04 0.  0.
        5    1    3    3  502    0  0.61750416596E+03  0.54019738352E+03  0.36044157722E+03  0.89613884456E+03  0.46999998093E+01 0.  1.
       -5    1    3    3    0  502 -0.61750416596E+03 -0.54019738352E+03 -0.58682934062E+03  0.10087196703E+04  0.46999998093E+01 0. -1.
</event>
<event>
 5   0  0.6452182E-05  0.1898918E+04  0.7818609E-02  0.8655395E-01
       -2   -1    0    0    0  501  0.00000000000E+00  0.00000000000E+00  0.90265062422E+03  0.90265062422E+03  0.25500000920E-02 0. -1.
        2   -1    0    0  501    0  0.00000000000E+00  0.00000000000E+00 -0.99869437362E+03  0.99869437362E+03  0.25500000920E-02 0.  1.
    10030    2    1    2    0    0  0.00000000000E+00  0.00000000000E+00 -0.96043749399E+02  0.19013449978E+04  0.18989176915E+04 0.  0.
        3    1    3    3  502    0 -0.77432913811E+03 -0.34641796348E+03 -0.47504218918E+03  0.97224282525E+03  0.10100000352E+00 0.  1.
       -3    1    3    3    0  502  0.77432913811E+03  0.34641796348E+03  0.37899843978E+03  0.92910217259E+03  0.10100000352E+00 0. -1.
</event>
<event>
 5   0  0.6361762E-05  0.1897818E+04  0.7818609E-02  0.8655943E-01
       -2   -1    0    0    0  501  0.00000000000E+00  0.00000000000E+00  0.44901259915E+03  0.44901259916E+03  0.25500000920E-02 0. -1.
        2   -1    0    0  501    0  0.00000000000E+00  0.00000000000E+00 -0.20053510032E+04  0.20053510032E+04  0.25500000920E-02 0.  1.
    10030    2    1    2    0    0  0.00000000000E+00  0.00000000000E+00 -0.15563384040E+04  0.24543636023E+04  0.18978175530E+04 0.  0.
        1    1    3    3  502    0  0.65589280076E+03  0.68644547203E+02  0.10420705498E+03  0.66765750972E+03  0.50400001928E-02 0. -1.
       -1    1    3    3    0  502 -0.65589280076E+03 -0.68644547203E+02 -0.16605454590E+04  0.17867060926E+04  0.50400001928E-02 0.  1.
</event>
<event>
 5   0  0.3086139E-05  0.1897656E+04  0.7818609E-02  0.8656024E-01
       -1   -1    0    0    0  501  0.00000000000E+00  0.00000000000E+00  0.71929139395E+03  0.71929139397E+03  0.50400001928E-02 0.  1.
        1   -1    0    0  501    0  0.00000000000E+00  0.00000000000E+00 -0.12516129008E+04  0.12516129008E+04  0.50400001928E-02 0. -1.
    10030    2    1    2    0    0  0.00000000000E+00  0.00000000000E+00 -0.53232150683E+03  0.19709042948E+04  0.18976558045E+04 0.  0.
        2    1    3    3  502    0 -0.75346818182E+03  0.34540163822E+03  0.21346285298E+03  0.85591061584E+03  0.25500000920E-02 0.  1.
       -2    1    3    3    0  502  0.75346818182E+03 -0.34540163822E+03 -0.74578435982E+03  0.11149936789E+04  0.25500000920E-02 0. -1.
</event>
<event>
 5   0  0.3203527E-05  0.1910691E+04  0.7818609E-02  0.8649553E-01
        1   -1    0    0  501    0  0.00000000000E+00  0.00000000000E+00  0.73168567554E+03  0.73168567556E+03  0.50400001928E-02 0. -1.
       -1   -1    0    0    0  501  0.00000000000E+00  0.00000000000E+00 -0.12473734058E+04  0.12473734058E+04  0.50400001928E-02 0.  1.
    10030    2    1    2    0    0  0.00000000000E+00  0.00000000000E+00 -0.51568773026E+03  0.19790590814E+04  0.19106912394E+04 0.  0.
        1    1    3    3  502    0  0.46314522525E+03 -0.26031904070E+03 -0.10802413524E+04  0.12038234431E+04  0.50400001928E-02 0.  1.
       -1    1    3    3    0  502 -0.46314522525E+03  0.26031904070E+03  0.56455362213E+03  0.77523563831E+03  0.50400001928E-02 0. -1.
</event>
<event>
 5   0  0.6098377E-05  0.1911290E+04  0.7818609E-02  0.8649257E-01
        2   -1    0    0  501    0  0.00000000000E+00  0.00000000000E+00  0.74139365536E+03  0.74139365537E+03  0.25500000920E-02 0. -1.
       -2   -1    0    0    0  501  0.00000000000E+00  0.00000000000E+00 -0.12318114118E+04  0.12318114118E+04  0.25500000920E-02 0.  1.
    10030    2    1    2    0    0  0.00000000000E+00  0.00000000000E+00 -0.49041775640E+03  0.19732050671E+04  0.19112897900E+04 0.  0.
        5    1    3    3  502    0 -0.87912929227E+03  0.11988666443E+03  0.12124601811E+03  0.89552432225E+03  0.46999998093E+01 0. -1.
       -5    1    3    3    0  502  0.87912929227E+03 -0.11988666443E+03 -0.61166377452E+03  0.10776807449E+04  0.46999998093E+01 0.  1.
</event>
<event>
 5   0  0.3147063E-05  0.1902365E+04  0.7818609E-02  0.8653680E-01
        1   -1    0    0  501    0  0.00000000000E+00  0.00000000000E+00  0.21898961069E+04  0.21898961069E+04  0.50400001928E-02 0.  1.
       -1   -1    0    0    0  501  0.00000000000E+00  0.00000000000E+00 -0.41314666356E+03  0.41314666359E+03  0.50400001928E-02 0. -1.
    10030    2    1    2    0    0  0.00000000000E+00  0.00000000000E+00  0.17767494433E+04  0.26030427705E+04  0.19023651281E+04 0.  0.
        5    1    3    3  502    0 -0.57380862375E+03  0.64439095357E+03  0.14360959041E+04  0.16753774421E+04  0.46999998093E+01 0.  1.
       -5    1    3    3    0  502  0.57380862375E+03 -0.64439095357E+03  0.34065353928E+03  0.92766532842E+03  0.46999998093E+01 0. -1.
</event>
<event>
 5   0  0.3144958E-05  0.1902734E+04  0.7818609E-02  0.8653497E-01
        1   -1    0    0  501    0  0.00000000000E+00  0.00000000000E+00  0.24209364564E+04  0.24209364564E+04  0.50400001928E-02 0.  1.
       -1   -1    0    0    0  501  0.00000000000E+00  0.00000000000E+00 -0.37386328193E+03  0.37386328197E+03  0.50400001928E-02 0. -1.
    10030    2    1    2    0    0  0.00000000000E+00  0.00000000000E+00  0.20470731745E+04  0.27947997384E+04  0.19027340844E+04 0.  0.
        4    1    3    3  502    0 -0.19553747905E+03  0.89060446675E+03  0.14222550144E+04  0.16894443349E+04  0.12699999809E+01 0. -1.
       -4    1    3    3    0  502  0.19553747905E+03 -0.89060446675E+03  0.62481816011E+03  0.11053554035E+04  0.12699999809E+01 0.  1.
</event>
<event>
 5   0  0.6098377E-05  0.1938370E+04  0.7818609E-02  0.8635989E-01
       -2   -1    0    0    0  501  0.00000000000E+00  0.00000000000E+00  0.55270151957E+03  0.55270151957E+03  0.25500000920E-02 0.  1.
        2   -1    0    0  501    0  0.00000000000E+00  0.00000000000E+00 -0.16995062530E+04  0.16995062530E+04  0.25500000920E-02 0. -1.
    10030    2    1    2    0    0  0.00000000000E+00  0.00000000000E+00 -0.11468047335E+04  0.22522077726E+04  0.19383701283E+04 0.  0.
        5    1    3    3  502    0  0.95959769127E+03  0.13509359674E+03 -0.59062016551E+03  0.11348710406E+04  0.46999998093E+01 0.  1.
       -5    1    3    3    0  502 -0.95959769127E+03 -0.13509359674E+03 -0.55618456795E+03  0.11173367320E+04  0.46999998093E+01 0. -1.
</event>
<event>
 5   0  0.2279625E-05  0.1896692E+04  0.7818609E-02  0.8656505E-01
        3   -1    0    0  501    0  0.00000000000E+00  0.00000000000E+00  0.45555454336E+03  0.45555455455E+03  0.10100000352E+00 0.  1.
       -3   -1    0    0    0  501  0.00000000000E+00  0.00000000000E+00 -0.19742095362E+04  0.19742095388E+04  0.10100000352E+00 0. -1.
    10030    2    1    2    0    0  0.00000000000E+00  0.00000000000E+00 -0.15186549928E+04  0.24297640933E+04  0.18966920050E+04 0.  0.
        4    1    3    3  502    0  0.48539241349E+01  0.91927434601E+03 -0.10577597660E+04  0.14014086553E+04  0.12699999809E+01 0. -1.
       -4    1    3    3    0  502 -0.48539241349E+01 -0.91927434601E+03 -0.46089522686E+03  0.10283554380E+04  0.12699999809E+01 0.  1.
</event>
<event>
 5   0  0.6098377E-05  0.1922426E+04  0.7818609E-02  0.8643773E-01
        2   -1    0    0  501    0  0.00000000000E+00  0.00000000000E+00  0.12336543809E+04  0.12336543809E+04  0.25500000920E-02 0. -1.
       -2   -1    0    0    0  501  0.00000000000E+00  0.00000000000E+00 -0.74893770051E+03  0.74893770051E+03  0.25500000920E-02 0.  1.
    10030    2    1    2    0    0  0.00000000000E+00  0.00000000000E+00  0.48471668043E+03  0.19825920815E+04  0.19224258376E+04 0.  0.
        5    1    3    3  502    0 -0.37411746792E+02 -0.66626278338E+03  0.95582097147E+03  0.11657279077E+04  0.46999998093E+01 0. -1.
       -5    1    3    3    0  502  0.37411746792E+02  0.66626278338E+03 -0.47110429103E+03  0.81686417374E+03  0.46999998093E+01 0.  1.
</event>
<event>
 5   0  0.6395992E-05  0.1904223E+04  0.7818609E-02  0.8652757E-01
        2   -1    0    0  501    0  0.00000000000E+00  0.00000000000E+00  0.11405222314E+04  0.11405222314E+04  0.25500000920E-02 0.  1.
       -2   -1    0    0    0  501  0.00000000000E+00  0.00000000000E+00 -0.79482537630E+03  0.79482537631E+03  0.25500000920E-02 0. -1.
    10030    2    1    2    0    0  0.00000000000E+00  0.00000000000E+00  0.34569685514E+03  0.19353476078E+04  0.19042226884E+04 0.  0.
        4    1    3    3  502    0 -0.23134089081E+03 -0.72870991206E+03 -0.40385709631E+03  0.86466115377E+03  0.12699999809E+01 0. -1.
       -4    1    3    3    0  502  0.23134089081E+03  0.72870991206E+03  0.74955395145E+03  0.10706864540E+04  0.12699999809E+01 0.  1.
</event>
<event>
 5   0  0.6361762E-05  0.1920396E+04  0.7818609E-02  0.8644770E-01
       -2   -1    0    0    0  501  0.00000000000E+00  0.00000000000E+00  0.62274712394E+03  0.62274712395E+03  0.25500000920E-02 0.  1.
        2   -1    0    0  501    0  0.00000000000E+00  0.00000000000E+00 -0.14805043778E+04  0.14805043778E+04  0.25500000920E-02 0. -1.
    10030    2    1    2    0    0  0.00000000000E+00  0.00000000000E+00 -0.85775725382E+03  0.21032515017E+04  0.19203956293E+04 0.  0.
        1    1    3    3  502    0  0.29127159553E+03 -0.54271744438E+03 -0.12356301310E+04  0.13806386883E+04  0.50400001928E-02 0. -1.
       -1    1    3    3    0  502 -0.29127159553E+03  0.54271744438E+03  0.37787287721E+03  0.72261281344E+03  0.50400001928E-02 0.  1.
</event>
<event>
 5   0  0.6361762E-05  0.1903533E+04  0.7818609E-02  0.8653100E-01
       -2   -1    0    0    0  501  0.00000000000E+00  0.00000000000E+00  0.70216819006E+03  0.70216819006E+03  0.25500000920E-02 0.  1.
        2   -1    0    0  501    0  0.00000000000E+00  0.00000000000E+00 -0.12900884827E+04  0.12900884827E+04  0.25500000920E-02 0. -1.
    10030    2    1    2    0    0  0.00000000000E+00  0.00000000000E+00 -0.58792029263E+03  0.19922566728E+04  0.19035326054E+04 0.  0.
        1    1    3    3  502    0 -0.35455552185E+03 -0.52274160928E+03 -0.10391074355E+04  0.12160233019E+04  0.50400001928E-02 0. -1.
       -1    1    3    3    0  502  0.35455552185E+03  0.52274160928E+03  0.45118714288E+03  0.77623337088E+03  0.50400001928E-02 0.  1.
</event>
<event>
 5   0  0.3086139E-05  0.1897310E+04  0.7818609E-02  0.8656197E-01
       -1   -1    0    0    0  501  0.00000000000E+00  0.00000000000E+00  0.87000361437E+03  0.87000361438E+03  0.50400001928E-02 0.  1.
        1   -1    0    0  501    0  0.00000000000E+00  0.00000000000E+00 -0.10344167181E+04  0.10344167181E+04  0.50400001928E-02 0. -1.
    10030    2    1    2    0    0  0.00000000000E+00  0.00000000000E+00 -0.16441310372E+03  0.19044203325E+04  0.18973099731E+04 0.  0.
        2    1    3    3  502    0 -0.48214808781E+02 -0.13156777755E+03 -0.10239719211E+04  0.10335149941E+04  0.25500000920E-02 0. -1.
       -2    1    3    3    0  502  0.48214808781E+02  0.13156777755E+03  0.85955881737E+03  0.87090533837E+03  0.25500000920E-02 0.  1.
</event>
<event>
 5   0  0.6361762E-05  0.1889518E+04  0.7818609E-02  0.8660091E-01
       -2   -1    0    0    0  501  0.00000000000E+00  0.00000000000E+00  0.42554232532E+03  0.42554232533E+03  0.25500000920E-02 0.  1.
        2   -1    0    0  501    0  0.00000000000E+00  0.00000000000E+00 -0.20974881438E+04  0.20974881438E+04  0.25500000920E-02 0. -1.
    10030    2    1    2    0    0  0.00000000000E+00  0.00000000000E+00 -0.16719458184E+04  0.25230304691E+04  0.18895184382E+04 0.  0.
        1    1    3    3  502    0 -0.77696232321E+03 -0.11049442653E+02 -0.15535242697E+04  0.17370176161E+04  0.50400001928E-02 0. -1.
       -1    1    3    3    0  502  0.77696232321E+03  0.11049442653E+02 -0.11842154870E+03  0.78601285301E+03  0.50400001928E-02 0.  1.
</event>
<event>
 5   0  0.3147063E-05  0.1920556E+04  0.7818609E-02  0.8644691E-01
       -1   -1    0    0    0  501  0.00000000000E+00  0.00000000000E+00  0.81952184668E+03  0.81952184670E+03  0.50400001928E-02 0. -1.
        1   -1    0    0  501    0  0.00000000000E+00  0.00000000000E+00 -0.11252096598E+04  0.11252096598E+04  0.50400001928E-02 0.  1.
    10030    2    1    2    0    0  0.00000000000E+00  0.00000000000E+00 -0.30568781313E+03  0.19447315065E+04  0.19205560636E+04 0.  0.
        5    1    3    3  502    0 -0.20850659445E+03  0.49187547652E+03  0.65513214991E+03  0.84536188001E+03  0.46999998093E+01 0. -1.
       -5    1    3    3    0  502  0.20850659445E+03 -0.49187547652E+03 -0.96081996303E+03  0.10993696265E+04  0.46999998093E+01 0.  1.
</event>
<event>
 5   0  0.3083469E-05  0.1907358E+04  0.7818609E-02  0.8651203E-01
        1   -1    0    0  501    0  0.00000000000E+00  0.00000000000E+00  0.66951674990E+03  0.66951674992E+03  0.50400001928E-02 0.  1.
       -1   -1    0    0    0  501  0.00000000000E+00  0.00000000000E+00 -0.13584472191E+04  0.13584472191E+04  0.50400001928E-02 0. -1.
    10030    2    1    2    0    0  0.00000000000E+00  0.00000000000E+00 -0.68893046922E+03  0.20279639691E+04  0.19073575093E+04 0.  0.
        3    1    3    3  502    0  0.80616410428E+03  0.35631268279E+03  0.42767190984E+02  0.88243318941E+03  0.10100000352E+00 0.  1.
       -3    1    3    3    0  502 -0.80616410428E+03 -0.35631268279E+03 -0.73169766021E+03  0.11455307796E+04  0.10100000352E+00 0. -1.
</event>
<event>
 5   0  0.6395992E-05  0.1896564E+04  0.7818609E-02  0.8656568E-01
        2   -1    0    0  501    0  0.00000000000E+00  0.00000000000E+00  0.19061150199E+04  0.19061150199E+04  0.25500000920E-02 0. -1.
       -2   -1    0    0    0  501  0.00000000000E+00  0.00000000000E+00 -0.47176530125E+03  0.47176530126E+03  0.25500000920E-02 0.  1.
    10030    2    1    2    0    0  0.00000000000E+00  0.00000000000E+00  0.14343497187E+04  0.23778803212E+04  0.18965641846E+04 0.  0.
        4    1    3    3  502    0 -0.53615524870E+03 -0.23470283331E+03  0.16526428693E+04  0.17532193066E+04  0.12699999809E+01 0. -1.
       -4    1    3    3    0  502  0.53615524870E+03  0.23470283331E+03 -0.21829315060E+03  0.62466101461E+03  0.12699999809E+01 0.  1.
</event>
<event>
 5   0  0.3144958E-05  0.1905208E+04  0.7818609E-02  0.8652268E-01
        1   -1    0    0  501    0  0.00000000000E+00  0.00000000000E+00  0.57841979818E+03  0.57841979820E+03  0.50400001928E-02 0. -1.
       -1   -1    0    0    0  501  0.00000000000E+00  0.00000000000E+00 -0.15688514607E+04  0.15688514607E+04  0.50400001928E-02 0.  1.
    10030    2    1    2    0    0  0.00000000000E+00  0.00000000000E+00 -0.99043166249E+03  0.21472712589E+04  0.19052083826E+04 0.  0.
        4    1    3    3  502    0 -0.57568466676E+03 -0.43768949929E+03  0.20361915484E+03  0.75129708268E+03  0.12699999809E+01 0. -1.
       -4    1    3    3    0  502  0.57568466676E+03  0.43768949929E+03 -0.11940508173E+04  0.13959741762E+04  0.12699999809E+01 0.  1.
</event>
<event>
 5   0  0.6452182E-05  0.1893619E+04  0.7818609E-02  0.8658039E-01
       -2   -1    0    0    0  501  0.00000000000E+00  0.00000000000E+00  0.39877679747E+03  0.39877679748E+03  0.25500000920E-02 0. -1.
        2   -1    0    0  501    0  0.00000000000E+00  0.00000000000E+00 -0.22479952192E+04  0.22479952192E+04  0.25500000920E-02 0.  1.
    10030    2    1    2    0    0  0.00000000000E+00  0.00000000000E+00 -0.18492184218E+04  0.26467720167E+04  0.18936191109E+04 0.  0.
        3    1    3    3  502    0  0.75493175637E+03 -0.67555690869E+02 -0.13151164569E+03  0.76927306680E+03  0.10100000352E+00 0. -1.
       -3    1    3    3    0  502 -0.75493175637E+03  0.67555690869E+02 -0.17177067761E+04  0.18774989499E+04  0.10100000352E+00 0.  1.
</event>
<event>
 5   0  0.6452182E-05  0.1888266E+04  0.7818609E-02  0.8660719E-01
       -2   -1    0    0    0  501  0.00000000000E+00  0.00000000000E+00  0.56145993361E+03  0.56145993362E+03  0.25500000920E-02 0.  1.
        2   -1    0    0  501    0  0.00000000000E+00  0.00000000000E+00 -0.15876240589E+04  0.15876240590E+04  0.25500000920E-02 0. -1.
    10030    2    1    2    0    0  0.00000000000E+00  0.00000000000E+00 -0.10261641253E+04  0.21490839926E+04  0.18882661875E+04 0.  0.
        3    1    3    3  502    0  0.31123155828E+03  0.20326789925E+03 -0.15008310372E+04  0.15461813394E+04  0.10100000352E+00 0. -1.
       -3    1    3    3    0  502 -0.31123155828E+03 -0.20326789925E+03  0.47466691191E+03  0.60290265317E+03  0.10100000352E+00 0.  1.
</event>
<event>
 5   0  0.6452182E-05  0.1896693E+04  0.7818609E-02  0.8656504E-01
       -2   -1    0    0    0  501  0.00000000000E+00  0.00000000000E+00  0.46214605106E+03  0.46214605106E+03  0.25500000920E-02 0. -1.
        2   -1    0    0  501    0  0.00000000000E+00  0.00000000000E+00 -0.19460532852E+04  0.19460532852E+04  0.25500000920E-02 0.  1.
    10030    2    1    2    0    0  0.00000000000E+00  0.00000000000E+00 -0.14839072342E+04  0.24081993363E+04  0.18966927436E+04 0.  0.
        3    1    3    3  502    0  0.56271961328E+03 -0.65997149966E+03 -0.25490946516E+03  0.90398815764E+03  0.10100000352E+00 0. -1.
       -3    1    3    3    0  502 -0.56271961328E+03  0.65997149966E+03 -0.12289977690E+04  0.15042111787E+04  0.10100000352E+00 0.  1.
</event>
<event>
 5   0  0.3086139E-05  0.1889355E+04  0.7818609E-02  0.8660173E-01
        1   -1    0    0  501    0  0.00000000000E+00  0.00000000000E+00  0.15457858106E+04  0.15457858106E+04  0.50400001928E-02 0.  1.
       -1   -1    0    0    0  501  0.00000000000E+00  0.00000000000E+00 -0.57732185515E+03  0.57732185517E+03  0.50400001928E-02 0. -1.
    10030    2    1    2    0    0  0.00000000000E+00  0.00000000000E+00  0.96846395543E+03  0.21231076658E+04  0.18893553735E+04 0.  0.
        2    1    3    3  502    0  0.49149383124E+03  0.60827646594E+03  0.10797503748E+04  0.13332019041E+04  0.25500000920E-02 0.  1.
       -2    1    3    3    0  502 -0.49149383124E+03 -0.60827646594E+03 -0.11128641938E+03  0.78990576167E+03  0.25500000920E-02 0. -1.
</event>
<event>
 5   0  0.6098377E-05  0.1903379E+04  0.7818609E-02  0.8653176E-01
       -2   -1    0    0    0  501  0.00000000000E+00  0.00000000000E+00  0.82497606473E+03  0.82497606474E+03  0.25500000920E-02 0.  1.
        2   -1    0    0  501    0  0.00000000000E+00  0.00000000000E+00 -0.10978654126E+04  0.10978654126E+04  0.25500000920E-02 0. -1.
    10030    2    1    2    0    0  0.00000000000E+00  0.00000000000E+00 -0.27288934790E+03  0.19228414774E+04  0.19033787723E+04 0.  0.
        5    1    3    3  502    0 -0.87222442870E+03  0.18989059028E+03  0.19686341787E+03  0.91411770882E+03  0.46999998093E+01 0.  1.
       -5    1    3    3    0  502  0.87222442870E+03 -0.18989059028E+03 -0.46975276577E+03  0.10087237685E+04  0.46999998093E+01 0. -1.
</event>
<event>
 5   0  0.6098377E-05  0.1897795E+04  0.7818609E-02  0.8655954E-01
        2   -1    0    0  501    0  0.00000000000E+00  0.00000000000E+00  0.15665534001E+04  0.15665534001E+04  0.25500000920E-02 0.  1.
       -2   -1    0    0    0  501  0.00000000000E+00  0.00000000000E+00 -0.57476938324E+03  0.57476938324E+03  0.25500000920E-02 0. -1.
    10030    2    1    2    0    0  0.00000000000E+00  0.00000000000E+00  0.99178401688E+03  0.21413227834E+04  0.18977954912E+04 0.  0.
        5    1    3    3  502    0  0.50166170541E+03 -0.67212138539E+03  0.99665971880E+03  0.13025990590E+04  0.46999998093E+01 0.  1.
       -5    1    3    3    0  502 -0.50166170541E+03  0.67212138539E+03 -0.48757019219E+01  0.83872372438E+03  0.46999998093E+01 0. -1.
</event>
<event>
 5   0  0.6395992E-05  0.1900028E+04  0.7818609E-02  0.8654842E-01
        2   -1    0    0  501    0  0.00000000000E+00  0.00000000000E+00  0.96464790254E+03  0.96464790255E+03  0.25500000920E-02 0. -1.
       -2   -1    0    0    0  501  0.00000000000E+00  0.00000000000E+00 -0.93560212682E+03  0.93560212682E+03  0.25500000920E-02 0.  1.
    10030    2    1    2    0    0  0.00000000000E+00  0.00000000000E+00  0.29045775726E+02  0.19002500294E+04  0.19000280306E+04 0.  0.
        4    1    3    3  502    0 -0.92638747608E+03  0.20843500996E+03  0.44293917688E+02  0.95058007199E+03  0.12699999809E+01 0.  1.
       -4    1    3    3    0  502  0.92638747608E+03 -0.20843500996E+03 -0.15248141962E+02  0.94966995738E+03  0.12699999809E+01 0. -1.
</event>
<event>
 5   0  0.6395992E-05  0.1908033E+04  0.7818609E-02  0.8650868E-01
       -2   -1    0    0    0  501  0.00000000000E+00  0.00000000000E+00  0.89272034260E+03  0.89272034260E+03  0.25500000920E-02 0.  1.
        2   -1    0    0  501    0  0.00000000000E+00  0.00000000000E+00 -0.10195214433E+04  0.10195214433E+04  0.25500000920E-02 0. -1.
    10030    2    1    2    0    0  0.00000000000E+00  0.00000000000E+00 -0.12680110067E+03  0.19122417859E+04  0.19080330522E+04 0.  0.
        4    1    3    3  502    0 -0.68463415710E+03 -0.64752635309E+03  0.85694572223E+02  0.94623436823E+03  0.12699999809E+01 0.  1.
       -4    1    3    3    0  502  0.68463415710E+03  0.64752635309E+03 -0.21249567289E+03  0.96600741763E+03  0.12699999809E+01 0. -1.
</event>
<event>
 5   0  0.3086139E-05  0.1833955E+04  0.7818609E-02  0.8688448E-01
       -1   -1    0    0    0  501  0.00000000000E+00  0.00000000000E+00  0.47554044592E+03  0.47554044595E+03  0.50400001928E-02 0. -1.
        1   -1    0    0  501    0  0.00000000000E+00  0.00000000000E+00 -0.17681942875E+04  0.17681942875E+04  0.50400001928E-02 0.  1.
    10030    2    1    2    0    0  0.00000000000E+00  0.00000000000E+00 -0.12926538416E+04  0.22437347335E+04  0.18339551794E+04 0.  0.
        2    1    3    3  502    0  0.66173011410E+03  0.32834461366E+03 -0.13109951211E+04  0.15047940513E+04  0.25500000920E-02 0.  1.
       -2    1    3    3    0  502 -0.66173011410E+03 -0.32834461366E+03  0.18341279530E+02  0.73894068217E+03  0.25500000920E-02 0. -1.
</event>
<event>
 5   0  0.6452182E-05  0.1884286E+04  0.7818609E-02  0.8662718E-01
        2   -1    0    0  501    0  0.00000000000E+00  0.00000000000E+00  0.22627217807E+04  0.22627217807E+04  0.25500000920E-02 0.  1.
       -2   -1    0    0    0  501  0.00000000000E+00  0.00000000000E+00 -0.39228555774E+03  0.39228555775E+03  0.25500000920E-02 0. -1.
    10030    2    1    2    0    0  0.00000000000E+00  0.00000000000E+00  0.18704362229E+04  0.26550073384E+04  0.18842856214E+04 0.  0.
        3    1    3    3  502    0  0.30301589187E+03  0.11920741515E+03  0.21809150176E+04  0.22050894229E+04  0.10100000352E+00 0.  1.
       -3    1    3    3    0  502 -0.30301589187E+03 -0.11920741515E+03 -0.31047879471E+03  0.44991791553E+03  0.10100000352E+00 0. -1.
</event>
<event>
 5   0  0.3144958E-05  0.1903852E+04  0.7818609E-02  0.8652942E-01
        1   -1    0    0  501    0  0.00000000000E+00  0.00000000000E+00  0.22274133212E+04  0.22274133212E+04  0.50400001928E-02 0.  1.
       -1   -1    0    0    0  501  0.00000000000E+00  0.00000000000E+00 -0.40682286926E+03  0.40682286929E+03  0.50400001928E-02 0. -1.
    10030    2    1    2    0    0  0.00000000000E+00  0.00000000000E+00  0.18205904520E+04  0.26342361905E+04  0.19038515472E+04 0.  0.
        4    1    3    3  502    0  0.42895415360E+03 -0.76805657087E+03  0.14134678610E+04  0.16648740400E+04  0.12699999809E+01 0.  1.
       -4    1    3    3    0  502 -0.42895415360E+03  0.76805657087E+03  0.40712259096E+03  0.96936215055E+03  0.12699999809E+01 0. -1.
</event>
<event>
 5   0  0.6361762E-05  0.1911461E+04  0.7818609E-02  0.8649172E-01
        2   -1    0    0  501    0  0.00000000000E+00  0.00000000000E+00  0.16159565537E+04  0.16159565537E+04  0.25500000920E-02 0.  1.
       -2   -1    0    0    0  501  0.00000000000E+00  0.00000000000E+00 -0.56525082804E+03  0.56525082804E+03  0.25500000920E-02 0. -1.
    10030    2    1    2    0    0  0.00000000000E+00  0.00000000000E+00  0.10507057257E+04  0.21812073817E+04  0.19114609910E+04 0.  0.
        1    1    3    3  502    0 -0.80632443862E+03 -0.62336476141E+02 -0.55807896535E+02  0.81065372256E+03  0.50400001928E-02 0. -1.
       -1    1    3    3    0  502  0.80632443862E+03  0.62336476141E+02  0.11065136222E+04  0.13705536592E+04  0.50400001928E-02 0.  1.
</event>
<event>
 5   0  0.6423388E-05  0.1899106E+04  0.7818609E-02  0.8655302E-01
        2   -1    0    0  501    0  0.00000000000E+00  0.00000000000E+00  0.11991395748E+04  0.11991395748E+04  0.25500000920E-02 0. -1.
       -2   -1    0    0    0  501  0.00000000000E+00  0.00000000000E+00 -0.75191460045E+03  0.75191460046E+03  0.25500000920E-02 0.  1.
    10030    2    1    2    0    0  0.00000000000E+00  0.00000000000E+00  0.44722497432E+03  0.19510541752E+04  0.18991056361E+04 0.  0.
        2    1    3    3  502    0 -0.30083053451E+03  0.78298435871E+03 -0.23363174390E+03  0.87071654874E+03  0.25500000920E-02 0.  1.
       -2    1    3    3    0  502  0.30083053451E+03 -0.78298435871E+03  0.68085671823E+03  0.10803376265E+04  0.25500000920E-02 0. -1.
</event>
<event>
 5   0  0.3144958E-05  0.1901333E+04  0.7818609E-02  0.8654193E-01
       -1   -1    0    0    0  501  0.00000000000E+00  0.00000000000E+00  0.84348530475E+03  0.84348530476E+03  0.50400001928E-02 0.  1.
        1   -1    0    0  501    0  0.00000000000E+00  0.00000000000E+00 -0.10714671529E+04  0.10714671529E+04  0.50400001928E-02 0. -1.
    10030    2    1    2    0    0  0.00000000000E+00  0.00000000000E+00 -0.22798184815E+03  0.19149524577E+04  0.19013330040E+04 0.  0.
        4    1    3    3  502    0 -0.99332952696E+02 -0.65678789099E+03 -0.79895648645E+03  0.10390237963E+04  0.12699999809E+01 0. -1.
       -4    1    3    3    0  502  0.99332952696E+02  0.65678789099E+03  0.57097463830E+03  0.87592866132E+03  0.12699999809E+01 0.  1.
</event>
<event>
 5   0  0.3086139E-05  0.1921898E+04  0.7818609E-02  0.8644033E-01
       -1   -1    0    0    0  501  0.00000000000E+00  0.00000000000E+00  0.69540895275E+03  0.69540895277E+03  0.50400001928E-02 0. -1.
        1   -1    0    0  501    0  0.00000000000E+00  0.00000000000E+00 -0.13278842422E+04  0.13278842422E+04  0.50400001928E-02 0.  1.
    10030    2    1    2    0    0  0.00000000000E+00  0.00000000000E+00 -0.63247528942E+03  0.20232931949E+04  0.19218975938E+04 0.  0.
        2    1    3    3  502    0 -0.16926637441E+03 -0.29204904915E+03  0.63093975620E+03  0.71556182722E+03  0.25500000920E-02 0. -1.
       -2    1    3    3    0  502  0.16926637441E+03  0.29204904915E+03 -0.12634150456E+04  0.13077313677E+04  0.25500000920E-02 0.  1.
</event>
<event>
 5   0  0.6395992E-05  0.1899587E+04  0.7818609E-02  0.8655062E-01
       -2   -1    0    0    0  501  0.00000000000E+00  0.00000000000E+00  0.14080499729E+04  0.14080499729E+04  0.25500000920E-02 0.  1.
        2   -1    0    0  501    0  0.00000000000E+00  0.00000000000E+00 -0.64067869949E+03  0.64067869950E+03  0.25500000920E-02 0. -1.
    10030    2    1    2    0    0  0.00000000000E+00  0.00000000000E+00  0.76737127340E+03  0.20487286724E+04  0.18995869293E+04 0.  0.
        4    1    3    3  502    0  0.89630685319E+02  0.16022236876E+03 -0.62135926925E+03  0.64791498022E+03  0.12699999809E+01 0. -1.
       -4    1    3    3    0  502 -0.89630685319E+02 -0.16022236876E+03  0.13887305427E+04  0.14008136922E+04  0.12699999809E+01 0.  1.
</event>
<event>
 5   0  0.6395992E-05  0.1890635E+04  0.7818609E-02  0.8659532E-01
        2   -1    0    0  501    0  0.00000000000E+00  0.00000000000E+00  0.22251662802E+04  0.22251662802E+04  0.25500000920E-02 0. -1.
       -2   -1    0    0    0  501  0.00000000000E+00  0.00000000000E+00 -0.40159914621E+03  0.40159914622E+03  0.25500000920E-02 0.  1.
    10030    2    1    2    0    0  0.00000000000E+00  0.00000000000E+00  0.18235671340E+04  0.26267654264E+04  0.18906346853E+04 0.  0.
        4    1    3    3  502    0  0.17967926725E+03  0.83533408962E+03  0.14736671715E+04  0.17034565523E+04  0.12699999809E+01 0. -1.
       -4    1    3    3    0  502 -0.17967926725E+03 -0.83533408962E+03  0.34989996250E+03  0.92330887412E+03  0.12699999809E+01 0.  1.
</event>
<event>
 5   0  0.3144958E-05  0.1897730E+04  0.7818609E-02  0.8655987E-01
        1   -1    0    0  501    0  0.00000000000E+00  0.00000000000E+00  0.14608076435E+04  0.14608076435E+04  0.50400001928E-02 0. -1.
       -1   -1    0    0    0  501  0.00000000000E+00  0.00000000000E+00 -0.61633352381E+03  0.61633352383E+03  0.50400001928E-02 0.  1.
    10030    2    1    2    0    0  0.00000000000E+00  0.00000000000E+00  0.84447411967E+03  0.20771411673E+04  0.18977299308E+04 0.  0.
        4    1    3    3  502    0  0.69649360769E+03 -0.40355329195E+03  0.97211076166E+03  0.12621250139E+04  0.12699999809E+01 0. -1.
       -4    1    3    3    0  502 -0.69649360769E+03  0.40355329195E+03 -0.12763664198E+03  0.81501615338E+03  0.12699999809E+01 0.  1.
</event>
<event>
 5   0  0.3086139E-05  0.1900908E+04  0.7818609E-02  0.8654405E-01
        1   -1    0    0  501    0  0.00000000000E+00  0.00000000000E+00  0.13792233649E+04  0.13792233649E+04  0.50400001928E-02 0. -1.
       -1   -1    0    0    0  501  0.00000000000E+00  0.00000000000E+00 -0.65497929820E+03  0.65497929822E+03  0.50400001928E-02 0.  1.
    10030    2    1    2    0    0  0.00000000000E+00  0.00000000000E+00  0.72424406674E+03  0.20342026632E+04  0.19009079427E+04 0.  0.
        2    1    3    3  502    0  0.45765513873E+03 -0.56422606298E+03  0.10179271609E+04  0.12505898532E+04  0.25500000920E-02 0. -1.
       -2    1    3    3    0  502 -0.45765513873E+03  0.56422606298E+03 -0.29368309412E+03  0.78361280996E+03  0.25500000920E-02 0.  1.
</event>
<event>
 5   0  0.6098377E-05  0.1903606E+04  0.7818609E-02  0.8653064E-01
       -2   -1    0    0    0  501  0.00000000000E+00  0.00000000000E+00  0.16723023094E+04  0.16723023094E+04  0.25500000920E-02 0.  1.
        2   -1    0    0  501    0  0.00000000000E+00  0.00000000000E+00 -0.54172548053E+03  0.54172548053E+03  0.25500000920E-02 0. -1.
    10030    2    1    2    0    0  0.00000000000E+00  0.00000000000E+00  0.11305768289E+04  0.22140277900E+04  0.19036058123E+04 0.  0.
        5    1    3    3  502    0  0.25213496277E+03  0.26831045694E+02 -0.50170738949E+03  0.56216042117E+03  0.46999998093E+01 0. -1.
       -5    1    3    3    0  502 -0.25213496277E+03 -0.26831045694E+02  0.16322842184E+04  0.16518673688E+04  0.46999998093E+01 0.  1.
</event>
<event>
 5   0  0.6098377E-05  0.1897259E+04  0.7818609E-02  0.8656222E-01
       -2   -1    0    0    0  501  0.00000000000E+00  0.00000000000E+00  0.96558988070E+03  0.96558988070E+03  0.25500000920E-02 0.  1.
        2   -1    0    0  501    0  0.00000000000E+00  0.00000000000E+00 -0.93196702022E+03  0.93196702022E+03  0.25500000920E-02 0. -1.
    10030    2    1    2    0    0  0.00000000000E+00  0.00000000000E+00  0.33622860476E+02  0.18975569009E+04  0.18972589954E+04 0.  0.
        5    1    3    3  502    0 -0.36430034588E+03 -0.59300889263E+03  0.66150673702E+03  0.96020182350E+03  0.46999998093E+01 0.  1.
       -5    1    3    3    0  502  0.36430034588E+03  0.59300889263E+03 -0.62788387654E+03  0.93735507742E+03  0.46999998093E+01 0. -1.
</event>
<event>
 5   0  0.3147063E-05  0.1895007E+04  0.7818609E-02  0.8657346E-01
       -1   -1    0    0    0  501  0.00000000000E+00  0.00000000000E+00  0.83829376938E+03  0.83829376939E+03  0.50400001928E-02 0. -1.
        1   -1    0    0  501    0  0.00000000000E+00  0.00000000000E+00 -0.10709407113E+04  0.10709407113E+04  0.50400001928E-02 0.  1.
    10030    2    1    2    0    0  0.00000000000E+00  0.00000000000E+00 -0.23264694194E+03  0.19092344807E+04  0.18950070456E+04 0.  0.
        5    1    3    3  502    0 -0.78123922228E+03  0.37943571866E+03  0.26524763173E+03  0.90812145838E+03  0.46999998093E+01 0. -1.
       -5    1    3    3    0  502  0.78123922228E+03 -0.37943571866E+03 -0.49789457367E+03  0.10011130223E+04  0.46999998093E+01 0.  1.
</event>
<event>
 5   0  0.6423388E-05  0.1916585E+04  0.7818609E-02  0.8646645E-01
        2   -1    0    0  501    0  0.00000000000E+00  0.00000000000E+00  0.59669886046E+03  0.59669886047E+03  0.25500000920E-02 0.  1.
       -2   -1    0    0    0  501  0.00000000000E+00  0.00000000000E+00 -0.15390088527E+04  0.15390088527E+04  0.25500000920E-02 0. -1.
    10030    2    1    2    0    0  0.00000000000E+00  0.00000000000E+00 -0.94230999228E+03  0.21357077132E+04  0.19165853268E+04 0.  0.
        2    1    3    3  502    0  0.42028801266E+03 -0.25182503496E+03  0.44657302114E+03  0.66293689371E+03  0.25500000920E-02 0.  1.
       -2    1    3    3    0  502 -0.42028801266E+03  0.25182503496E+03 -0.13888830134E+04  0.14727708195E+04  0.25500000920E-02 0. -1.
</event>
<event>
 5   0  0.3144958E-05  0.1848954E+04  0.7818609E-02  0.8680691E-01
        1   -1    0    0  501    0  0.00000000000E+00  0.00000000000E+00  0.18365921429E+04  0.18365921429E+04  0.50400001928E-02 0. -1.
       -1   -1    0    0    0  501  0.00000000000E+00  0.00000000000E+00 -0.46535000373E+03  0.46535000375E+03  0.50400001928E-02 0.  1.
    10030    2    1    2    0    0  0.00000000000E+00  0.00000000000E+00  0.13712421392E+04  0.23019421467E+04  0.18489544728E+04 0.  0.
        4    1    3    3  502    0  0.90291818078E+03 -0.19792756214E+03  0.66715534552E+03  0.11399712404E+04  0.12699999809E+01 0.  1.
       -4    1    3    3    0  502 -0.90291818078E+03  0.19792756214E+03  0.70408679365E+03  0.11619709062E+04  0.12699999809E+01 0. -1.
</event>
<event>
 5   0  0.6452182E-05  0.1899710E+04  0.7818609E-02  0.8655001E-01
       -2   -1    0    0    0  501  0.00000000000E+00  0.00000000000E+00  0.71518260175E+03  0.71518260175E+03  0.25500000920E-02 0. -1.
        2   -1    0    0  501    0  0.00000000000E+00  0.00000000000E+00 -0.12615302442E+04  0.12615302442E+04  0.25500000920E-02 0.  1.
    10030    2    1    2    0    0  0.00000000000E+00  0.00000000000E+00 -0.54634764248E+03  0.19767128460E+04  0.18997099592E+04 0.  0.
        3    1    3    3  502    0 -0.51531930123E+03 -0.69352107480E+03 -0.68375516219E+03  0.11018378263E+04  0.10100000352E+00 0.  1.
       -3    1    3    3    0  502  0.51531930123E+03  0.69352107480E+03  0.13740751971E+03  0.87487501970E+03  0.10100000352E+00 0. -1.
</event>
<event>
 5   0  0.2279625E-05  0.1910725E+04  0.7818609E-02  0.8649536E-01
       -4   -1    0    0    0  501  0.00000000000E+00  0.00000000000E+00  0.90466676773E+03  0.90466765916E+03  0.12699999809E+01 0.  1.
        4   -1    0    0  501    0  0.00000000000E+00  0.00000000000E+00 -0.10088976613E+04  0.10088984606E+04  0.12699999809E+01 0. -1.
    10030    2    1    2    0    0  0.00000000000E+00  0.00000000000E+00 -0.10423089357E+03  0.19135661198E+04  0.19107253114E+04 0.  0.
        4    1    3    3  502    0  0.70698661929E+03 -0.34227299124E+02 -0.69471933938E+03  0.99178534032E+03  0.12699999809E+01 0. -1.
       -4    1    3    3    0  502 -0.70698661929E+03  0.34227299124E+02  0.59048844581E+03  0.92178077947E+03  0.12699999809E+01 0.  1.
</event>
<event>
 5   0  0.6423388E-05  0.1901107E+04  0.7818609E-02  0.8654305E-01
        2   -1    0    0  501    0  0.00000000000E+00  0.00000000000E+00  0.12759510951E+04  0.12759510951E+04  0.25500000920E-02 0.  1.
       -2   -1    0    0    0  501  0.00000000000E+00  0.00000000000E+00 -0.70814013085E+03  0.70814013085E+03  0.25500000920E-02 0. -1.
    10030    2    1    2    0    0  0.00000000000E+00  0.00000000000E+00  0.56781096425E+03  0.19840912260E+04  0.19011072305E+04 0.  0.
        2    1    3    3  502    0 -0.18487058251E+03 -0.10570000142E+03  0.12507350508E+04  0.12687347200E+04  0.25500000920E-02 0.  1.
       -2    1    3    3    0  502  0.18487058251E+03  0.10570000142E+03 -0.68292408653E+03  0.71535650591E+03  0.25500000920E-02 0. -1.
</event>
<event>
 5   0  0.3083469E-05  0.1896992E+04  0.7818609E-02  0.8656355E-01
       -1   -1    0    0    0  501  0.00000000000E+00  0.00000000000E+00  0.77903611669E+03  0.77903611670E+03  0.50400001928E-02 0. -1.
        1   -1    0    0  501    0  0.00000000000E+00  0.00000000000E+00 -0.11548177201E+04  0.11548177201E+04  0.50400001928E-02 0.  1.
    10030    2    1    2    0    0  0.00000000000E+00  0.00000000000E+00 -0.37578160341E+03  0.19338538368E+04  0.18969920529E+04 0.  0.
        3    1    3    3  502    0 -0.84574132582E+03  0.32452075229E+03 -0.47451720574E+03  0.10226234388E+04  0.10100000352E+00 0. -1.
       -3    1    3    3    0  502  0.84574132582E+03 -0.32452075229E+03  0.98735602334E+02  0.91123039799E+03  0.10100000352E+00 0.  1.
</event>
<event>
 5   0  0.6423388E-05  0.1900154E+04  0.7818609E-02  0.8654780E-01
        2   -1    0    0  501    0  0.00000000000E+00  0.00000000000E+00  0.17115259923E+04  0.17115259924E+04  0.25500000920E-02 0.  1.
       -2   -1    0    0    0  501  0.00000000000E+00  0.00000000000E+00 -0.52739255521E+03  0.52739255522E+03  0.25500000920E-02 0. -1.
    10030    2    1    2    0    0  0.00000000000E+00  0.00000000000E+00  0.11841334371E+04  0.22389185476E+04  0.19001537479E+04 0.  0.
        2    1    3    3  502    0  0.18277191281E+03 -0.63773027644E+03 -0.20928740485E+03  0.69563402407E+03  0.25500000920E-02 0. -1.
       -2    1    3    3    0  502 -0.18277191281E+03  0.63773027644E+03  0.13934208420E+04  0.15432845235E+04  0.25500000920E-02 0.  1.
</event>
<event>
 5   0  0.3147063E-05  0.1927962E+04  0.7818609E-02  0.8641062E-01
       -1   -1    0    0    0  501  0.00000000000E+00  0.00000000000E+00  0.85531874326E+03  0.85531874327E+03  0.50400001928E-02 0.  1.
        1   -1    0    0  501    0  0.00000000000E+00  0.00000000000E+00 -0.10864484313E+04  0.10864484313E+04  0.50400001928E-02 0. -1.
    10030    2    1    2    0    0  0.00000000000E+00  0.00000000000E+00 -0.23112968807E+03  0.19417671746E+04  0.19279623512E+04 0.  0.
        5    1    3    3  502    0 -0.84025059915E+03 -0.41693040402E+03 -0.33938475098E+03  0.99752500238E+03  0.46999998093E+01 0.  1.
       -5    1    3    3    0  502  0.84025059915E+03  0.41693040402E+03  0.10825506292E+03  0.94424217223E+03  0.46999998093E+01 0. -1.
</event>
<event>
 5   0  0.3144958E-05  0.1901330E+04  0.7818609E-02  0.8654195E-01
       -1   -1    0    0    0  501  0.00000000000E+00  0.00000000000E+00  0.13412281307E+04  0.13412281307E+04  0.50400001928E-02 0.  1.
        1   -1    0    0  501    0  0.00000000000E+00  0.00000000000E+00 -0.67383296045E+03  0.67383296047E+03  0.50400001928E-02 0. -1.
    10030    2    1    2    0    0  0.00000000000E+00  0.00000000000E+00  0.66739517026E+03  0.20150610912E+04  0.19013297683E+04 0.  0.
        4    1    3    3  502    0 -0.67418964170E+03  0.31733732787E+03  0.95937325593E+03  0.12147564817E+04  0.12699999809E+01 0.  1.
       -4    1    3    3    0  502  0.67418964170E+03 -0.31733732787E+03 -0.29197808567E+03  0.80030460953E+03  0.12699999809E+01 0. -1.
</event>
<event>
 5   0  0.6452182E-05  0.1895682E+04  0.7818609E-02  0.8657009E-01
        2   -1    0    0  501    0  0.00000000000E+00  0.00000000000E+00  0.11311829045E+04  0.11311829045E+04  0.25500000920E-02 0. -1.
       -2   -1    0    0    0  501  0.00000000000E+00  0.00000000000E+00 -0.79421535459E+03  0.79421535459E+03  0.25500000920E-02 0.  1.
    10030    2    1    2    0    0  0.00000000000E+00  0.00000000000E+00  0.33696754986E+03  0.19253982591E+04  0.18956822852E+04 0.  0.
        3    1    3    3  502    0  0.30237547773E+02  0.39733999409E+03 -0.70500282370E+03  0.80982860645E+03  0.10100000352E+00 0.  1.
       -3    1    3    3    0  502 -0.30237547773E+02 -0.39733999409E+03  0.10419703736E+04  0.11155696526E+04  0.10100000352E+00 0. -1.
</event>
<event>
 5   0  0.3083469E-05  0.1902002E+04  0.7818609E-02  0.8653860E-01
       -1   -1    0    0    0  501  0.00000000000E+00  0.00000000000E+00  0.10787014026E+04  0.10787014026E+04  0.50400001928E-02 0.  1.
        1   -1    0    0  501    0  0.00000000000E+00  0.00000000000E+00 -0.83841833552E+03  0.83841833554E+03  0.50400001928E-02 0. -1.
    10030    2    1    2    0    0  0.00000000000E+00  0.00000000000E+00  0.24028306707E+03  0.19171197381E+04  0.19020021393E+04 0.  0.
        3    1    3    3  502    0 -0.19074915827E+03 -0.87971114302E+03  0.42937980824E+03  0.99731838771E+03  0.10100000352E+00 0.  1.
       -3    1    3    3    0  502  0.19074915827E+03  0.87971114302E+03 -0.18909674117E+03  0.91980135044E+03  0.10100000352E+00 0. -1.
</event>
<event>
 5   0  0.3086139E-05  0.1898879E+04  0.7818609E-02  0.8655415E-01
       -1   -1    0    0    0  501  0.00000000000E+00  0.00000000000E+00  0.10279557090E+04  0.10279557090E+04  0.50400001928E-02 0. -1.
        1   -1    0    0  501    0  0.00000000000E+00  0.00000000000E+00 -0.87692001356E+03  0.87692001358E+03  0.50400001928E-02 0.  1.
    10030    2    1    2    0    0  0.00000000000E+00  0.00000000000E+00  0.15103569539E+03  0.19048757225E+04  0.18988785472E+04 0.  0.
        2    1    3    3  502    0 -0.25952031925E+03  0.54788607857E+03 -0.65747788430E+03  0.89431936105E+03  0.25500000920E-02 0.  1.
       -2    1    3    3    0  502  0.25952031925E+03 -0.54788607857E+03  0.80851357969E+03  0.10105563615E+04  0.25500000920E-02 0. -1.
</event>
<event>
 5   0  0.3086139E-05  0.1900303E+04  0.7818609E-02  0.8654705E-01
       -1   -1    0    0    0  501  0.00000000000E+00  0.00000000000E+00  0.94777302762E+03  0.94777302764E+03  0.50400001928E-02 0. -1.
        1   -1    0    0  501    0  0.00000000000E+00  0.00000000000E+00 -0.95253636195E+03  0.95253636197E+03  0.50400001928E-02 0.  1.
    10030    2    1    2    0    0  0.00000000000E+00  0.00000000000E+00 -0.47633343293E+01  0.19003093896E+04  0.19003034197E+04 0.  0.
        2    1    3    3  502    0  0.32268996596E+03  0.43093037648E+03 -0.78530076867E+03  0.95211716757E+03  0.25500000920E-02 0.  1.
       -2    1    3    3    0  502 -0.32268996596E+03 -0.43093037648E+03  0.78053743434E+03  0.94819222203E+03  0.25500000920E-02 0. -1.
</event>
<event>
 5   0  0.6395992E-05  0.1902914E+04  0.7818609E-02  0.8653407E-01
       -2   -1    0    0    0  501  0.00000000000E+00  0.00000000000E+00  0.47681557821E+03  0.47681557822E+03  0.25500000920E-02 0.  1.
        2   -1    0    0  501    0  0.00000000000E+00  0.00000000000E+00 -0.18985748568E+04  0.18985748568E+04  0.25500000920E-02 0. -1.
    10030    2    1    2    0    0  0.00000000000E+00  0.00000000000E+00 -0.14217592786E+04  0.23753904350E+04  0.19029136272E+04 0.  0.
        4    1    3    3  502    0 -0.55812195108E+03  0.55334693198E+03 -0.13802891539E+04  0.15883616404E+04  0.12699999809E+01 0. -1.
       -4    1    3    3    0  502  0.55812195108E+03 -0.55334693198E+03 -0.41470124670E+02  0.78702879461E+03  0.12699999809E+01 0.  1.
</event>
<event>
 5   0  0.3203527E-05  0.1883738E+04  0.7818609E-02  0.8662994E-01
       -1   -1    0    0    0  501  0.00000000000E+00  0.00000000000E+00  0.57269042629E+03  0.57269042631E+03  0.50400001928E-02 0.  1.
        1   -1    0    0  501    0  0.00000000000E+00  0.00000000000E+00 -0.15490337285E+04  0.15490337285E+04  0.50400001928E-02 0. -1.
    10030    2    1    2    0    0  0.00000000000E+00  0.00000000000E+00 -0.97634330223E+03  0.21217241548E+04  0.18837375468E+04 0.  0.
        1    1    3    3  502    0 -0.10286725652E+03  0.58042489196E+03 -0.13155829012E+04  0.14416078168E+04  0.50400001928E-02 0. -1.
       -1    1    3    3    0  502  0.10286725652E+03 -0.58042489196E+03  0.33923959896E+03  0.68011633799E+03  0.50400001928E-02 0.  1.
</event>
<event>
 5   0  0.3203527E-05  0.1899619E+04  0.7818609E-02  0.8655046E-01
        1   -1    0    0  501    0  0.00000000000E+00  0.00000000000E+00  0.96155697723E+03  0.96155697725E+03  0.50400001928E-02 0. -1.
       -1   -1    0    0    0  501  0.00000000000E+00  0.00000000000E+00 -0.93820576038E+03  0.93820576040E+03  0.50400001928E-02 0.  1.
    10030    2    1    2    0    0  0.00000000000E+00  0.00000000000E+00  0.23351216852E+02  0.18997627376E+04  0.18996192197E+04 0.  0.
        1    1    3    3  502    0 -0.51224803354E+02  0.66996396267E+03 -0.65968919681E+03  0.94162918825E+03  0.50400001928E-02 0.  1.
       -1    1    3    3    0  502  0.51224803354E+02 -0.66996396267E+03  0.68304041366E+03  0.95813354939E+03  0.50400001928E-02 0. -1.
</event>
<event>
 5   0  0.6098377E-05  0.1901429E+04  0.7818609E-02  0.8654145E-01
        2   -1    0    0  501    0  0.00000000000E+00  0.00000000000E+00  0.87329257186E+03  0.87329257186E+03  0.25500000920E-02 0.  1.
       -2   -1    0    0    0  501  0.00000000000E+00  0.00000000000E+00 -0.10350006277E+04  0.10350006277E+04  0.25500000920E-02 0. -1.
    10030    2    1    2    0    0  0.00000000000E+00  0.00000000000E+00 -0.16170805586E+03  0.19082931996E+04  0.19014293151E+04 0.  0.
        5    1    3    3  502    0  0.53549423831E+03  0.70046309953E+03  0.27600462590E+03  0.92390653022E+03  0.46999998093E+01 0.  1.
       -5    1    3    3    0  502 -0.53549423831E+03 -0.70046309953E+03 -0.43771268177E+03  0.98438666937E+03  0.46999998093E+01 0. -1.
</event>
<event>
 5   0  0.6361762E-05  0.1910609E+04  0.7818609E-02  0.8649594E-01
        2   -1    0    0  501    0  0.00000000000E+00  0.00000000000E+00  0.11239478684E+04  0.11239478684E+04  0.25500000920E-02 0.  1.
       -2   -1    0    0    0  501  0.00000000000E+00  0.00000000000E+00 -0.81196539885E+03  0.81196539885E+03  0.25500000920E-02 0. -1.
    10030    2    1    2    0    0  0.00000000000E+00  0.00000000000E+00  0.31198246950E+03  0.19359132672E+04  0.19106090958E+04 0.  0.
        1    1    3    3  502    0  0.27794357241E+03  0.75305794833E+03  0.68078696890E+03  0.10525301896E+04  0.50400001928E-02 0.  1.
       -1    1    3    3    0  502 -0.27794357241E+03 -0.75305794833E+03 -0.36880449940E+03  0.88338307760E+03  0.50400001928E-02 0. -1.
</event>
<event>
 5   0  0.6361762E-05  0.1894595E+04  0.7818609E-02  0.8657551E-01
        2   -1    0    0  501    0  0.00000000000E+00  0.00000000000E+00  0.81076642806E+03  0.81076642807E+03  0.25500000920E-02 0. -1.
       -2   -1    0    0    0  501  0.00000000000E+00  0.00000000000E+00 -0.11068200216E+04  0.11068200216E+04  0.25500000920E-02 0.  1.
    10030    2    1    2    0    0  0.00000000000E+00  0.00000000000E+00 -0.29605359349E+03  0.19175864496E+04  0.18945949598E+04 0.  0.
        1    1    3    3  502    0  0.37073496733E+03 -0.65712190992E+03  0.43174114131E+03  0.86928363244E+03  0.50400001928E-02 0. -1.
       -1    1    3    3    0  502 -0.37073496733E+03  0.65712190992E+03 -0.72779473480E+03  0.10483028172E+04  0.50400001928E-02 0.  1.
</event>
<event>
 5   0  0.3083469E-05  0.1895278E+04  0.7818609E-02  0.8657211E-01
       -1   -1    0    0    0  501  0.00000000000E+00  0.00000000000E+00  0.18856871687E+04  0.18856871687E+04  0.50400001928E-02 0.  1.
        1   -1    0    0  501    0  0.00000000000E+00  0.00000000000E+00 -0.47622927049E+03  0.47622927052E+03  0.50400001928E-02 0. -1.
    10030    2    1    2    0    0  0.00000000000E+00  0.00000000000E+00  0.14094578982E+04  0.23619164392E+04  0.18952777366E+04 0.  0.
        3    1    3    3  502    0  0.47517341542E+02 -0.90652037654E+03  0.10436945693E+04  0.13832336950E+04  0.10100000352E+00 0.  1.
       -3    1    3    3    0  502 -0.47517341542E+02  0.90652037654E+03  0.36576332891E+03  0.97868274421E+03  0.10100000352E+00 0. -1.
</event>
<event>
 5   0  0.6098377E-05  0.1903806E+04  0.7818609E-02  0.8652964E-01
       -2   -1    0    0    0  501  0.00000000000E+00  0.00000000000E+00  0.59513928875E+03  0.59513928875E+03  0.25500000920E-02 0. -1.
        2   -1    0    0  501    0  0.00000000000E+00  0.00000000000E+00 -0.15225326904E+04  0.15225326904E+04  0.25500000920E-02 0.  1.
    10030    2    1    2    0    0  0.00000000000E+00  0.00000000000E+00 -0.92739340163E+03  0.21176719791E+04  0.19038056859E+04 0.  0.
        5    1    3    3  502    0  0.16843171069E+03 -0.49091907493E+03  0.42389332828E+03  0.67013313830E+03  0.46999998093E+01 0. -1.
       -5    1    3    3    0  502 -0.16843171069E+03  0.49091907493E+03 -0.13512867299E+04  0.14475388408E+04  0.46999998093E+01 0.  1.
</event>
<event>
 5   0  0.6423388E-05  0.1897959E+04  0.7818609E-02  0.8655873E-01
       -2   -1    0    0    0  501  0.00000000000E+00  0.00000000000E+00  0.39240479549E+03  0.39240479550E+03  0.25500000920E-02 0. -1.
        2   -1    0    0  501    0  0.00000000000E+00  0.00000000000E+00 -0.22949828033E+04  0.22949828033E+04  0.25500000920E-02 0.  1.
    10030    2    1    2    0    0  0.00000000000E+00  0.00000000000E+00 -0.19025780078E+04  0.26873875988E+04  0.18979591751E+04 0.  0.
        2    1    3    3  502    0  0.59481961094E+03 -0.33042260376E+03 -0.18879201527E+04  0.20067964445E+04  0.25500000920E-02 0.  1.
       -2    1    3    3    0  502 -0.59481961094E+03  0.33042260376E+03 -0.14657855141E+02  0.68059115434E+03  0.25500000920E-02 0. -1.
</event>
<event>
 5   0  0.3147063E-05  0.1892047E+04  0.7818609E-02  0.8658825E-01
       -1   -1    0    0    0  501  0.00000000000E+00  0.00000000000E+00  0.71249960184E+03  0.71249960186E+03  0.50400001928E-02 0. -1.
        1   -1    0    0  501    0  0.00000000000E+00  0.00000000000E+00 -0.12560857647E+04  0.12560857647E+04  0.50400001928E-02 0.  1.
    10030    2    1    2    0    0  0.00000000000E+00  0.00000000000E+00 -0.54358616289E+03  0.19685853666E+04  0.18920471530E+04 0.  0.
        5    1    3    3  502    0  0.78915304409E+03 -0.49161650760E+03 -0.90118022537E+02  0.93412668602E+03  0.46999998093E+01 0. -1.
       -5    1    3    3    0  502 -0.78915304409E+03  0.49161650760E+03 -0.45346814035E+03  0.10344586806E+04  0.46999998093E+01 0.  1.
</event>
<event>
 5   0  0.6361762E-05  0.1900304E+04  0.7818609E-02  0.8654705E-01
        2   -1    0    0  501    0  0.00000000000E+00  0.00000000000E+00  0.11479043585E+04  0.11479043585E+04  0.25500000920E-02 0.  1.
       -2   -1    0    0    0  501  0.00000000000E+00  0.00000000000E+00 -0.78646680110E+03  0.78646680110E+03  0.25500000920E-02 0. -1.
    10030    2    1    2    0    0  0.00000000000E+00  0.00000000000E+00  0.36143755744E+03  0.19343711596E+04  0.19003038376E+04 0.  0.
        1    1    3    3  502    0  0.17280939776E+03 -0.92670540371E+03  0.30177372878E+03  0.98980471641E+03  0.50400001928E-02 0.  1.
       -1    1    3    3    0  502 -0.17280939776E+03  0.92670540371E+03  0.59663828661E+02  0.94456644324E+03  0.50400001928E-02 0. -1.
</event>
<event>
 5   0  0.6395992E-05  0.1889833E+04  0.7818609E-02  0.8659934E-01
       -2   -1    0    0    0  501  0.00000000000E+00  0.00000000000E+00  0.44323513750E+03  0.44323513750E+03  0.25500000920E-02 0.  1.
        2   -1    0    0  501    0  0.00000000000E+00  0.00000000000E+00 -0.20144317434E+04  0.20144317434E+04  0.25500000920E-02 0. -1.
    10030    2    1    2    0    0  0.00000000000E+00  0.00000000000E+00 -0.15711966059E+04  0.24576668809E+04  0.18898327236E+04 0.  0.
        4    1    3    3  502    0  0.38335922268E+02  0.93335036906E+03 -0.97067076305E+03  0.13471510300E+04  0.12699999809E+01 0. -1.
       -4    1    3    3    0  502 -0.38335922268E+02 -0.93335036906E+03 -0.60052584283E+03  0.11105158509E+04  0.12699999809E+01 0.  1.
</event>
<event>
 5   0  0.6361762E-05  0.1903156E+04  0.7818609E-02  0.8653287E-01
        2   -1    0    0  501    0  0.00000000000E+00  0.00000000000E+00  0.17576781369E+04  0.17576781369E+04  0.25500000920E-02 0.  1.
       -2   -1    0    0    0  501  0.00000000000E+00  0.00000000000E+00 -0.51516887119E+03  0.51516887119E+03  0.25500000920E-02 0. -1.
    10030    2    1    2    0    0  0.00000000000E+00  0.00000000000E+00  0.12425092658E+04  0.22728470081E+04  0.19031563906E+04 0.  0.
        1    1    3    3  502    0  0.53653197422E+03  0.40244275390E+03 -0.18490863938E+03  0.69571397461E+03  0.50400001928E-02 0. -1.
       -1    1    3    3    0  502 -0.53653197422E+03 -0.40244275390E+03  0.14274179051E+04  0.15771330335E+04  0.50400001928E-02 0.  1.
</event>
<event>
 5   0  0.6423388E-05  0.1914244E+04  0.7818609E-02  0.8647799E-01
       -2   -1    0    0    0  501  0.00000000000E+00  0.00000000000E+00  0.98709836760E+03  0.98709836760E+03  0.25500000920E-02 0. -1.
        2   -1    0    0  501    0  0.00000000000E+00  0.00000000000E+00 -0.92805589461E+03  0.92805589462E+03  0.25500000920E-02 0.  1.
    10030    2    1    2    0    0  0.00000000000E+00  0.00000000000E+00  0.59042472984E+02  0.19151542622E+04  0.19142439329E+04 0.  0.
        2    1    3    3  502    0 -0.14993805480E+03  0.52353746540E+03 -0.75794236471E+03  0.93330034082E+03  0.25500000920E-02 0.  1.
       -2    1    3    3    0  502  0.14993805480E+03 -0.52353746540E+03  0.81698483769E+03  0.98185392140E+03  0.25500000920E-02 0. -1.
</event>
<event>
 5   0  0.3086139E-05  0.1892054E+04  0.7818609E-02  0.8658822E-01
        1   -1    0    0  501    0  0.00000000000E+00  0.00000000000E+00  0.17741440353E+04  0.17741440353E+04  0.50400001928E-02 0. -1.
       -1   -1    0    0    0  501  0.00000000000E+00  0.00000000000E+00 -0.50445011085E+03  0.50445011088E+03  0.50400001928E-02 0.  1.
    10030    2    1    2    0    0  0.00000000000E+00  0.00000000000E+00  0.12696939245E+04  0.22785941462E+04  0.18920540746E+04 0.  0.
        2    1    3    3  502    0  0.30937002265E+03  0.77301195397E+03  0.93971847090E+02  0.83790691605E+03  0.25500000920E-02 0.  1.
       -2    1    3    3    0  502 -0.30937002265E+03 -0.77301195397E+03  0.11757220774E+04  0.14406872302E+04  0.25500000920E-02 0. -1.
</event>
<event>
 5   0  0.3086139E-05  0.1898958E+04  0.7818609E-02  0.8655375E-01
        1   -1    0    0  501    0  0.00000000000E+00  0.00000000000E+00  0.91218150477E+03  0.91218150478E+03  0.50400001928E-02 0.  1.
       -1   -1    0    0    0  501  0.00000000000E+00  0.00000000000E+00 -0.98830112040E+03  0.98830112041E+03  0.50400001928E-02 0. -1.
    10030    2    1    2    0    0  0.00000000000E+00  0.00000000000E+00 -0.76119615630E+02  0.19004826252E+04  0.18989576122E+04 0.  0.
        2    1    3    3  502    0  0.46033400314E+03  0.20296969462E+02  0.79278195531E+03  0.91696378886E+03  0.25500000920E-02 0.  1.
       -2    1    3    3    0  502 -0.46033400314E+03 -0.20296969462E+02 -0.86890157094E+03  0.98351883632E+03  0.25500000920E-02 0. -1.
</event>
<event>
 5   0  0.6361762E-05  0.1901622E+04  0.7818609E-02  0.8654049E-01
       -2   -1    0    0    0  501  0.00000000000E+00  0.00000000000E+00  0.44413992261E+03  0.44413992262E+03  0.25500000920E-02 0. -1.
        2   -1    0    0  501    0  0.00000000000E+00  0.00000000000E+00 -0.20354889481E+04  0.20354889481E+04  0.25500000920E-02 0.  1.
    10030    2    1    2    0    0  0.00000000000E+00  0.00000000000E+00 -0.15913490255E+04  0.24796288707E+04  0.19016223641E+04 0.  0.
        1    1    3    3  502    0  0.19430767577E+03 -0.90627433312E+03 -0.51920768839E+03  0.10623865885E+04  0.50400001928E-02 0. -1.
       -1    1    3    3    0  502 -0.19430767577E+03  0.90627433312E+03 -0.10721413371E+04  0.14172422822E+04  0.50400001928E-02 0.  1.
</event>
<event>
 5   0  0.3203527E-05  0.1887407E+04  0.7818609E-02  0.8661150E-01
        1   -1    0    0  501    0  0.00000000000E+00  0.00000000000E+00  0.10567706204E+04  0.10567706204E+04  0.50400001928E-02 0. -1.
       -1   -1    0    0    0  501  0.00000000000E+00  0.00000000000E+00 -0.84273418651E+03  0.84273418652E+03  0.50400001928E-02 0.  1.
    10030    2    1    2    0    0  0.00000000000E+00  0.00000000000E+00  0.21403643388E+03  0.18995048069E+04  0.18874074591E+04 0.  0.
        1    1    3    3  502    0  0.92605570783E+03 -0.16266368462E+03  0.18839487895E+03  0.95892193569E+03  0.50400001928E-02 0.  1.
       -1    1    3    3    0  502 -0.92605570783E+03  0.16266368462E+03  0.25641554928E+02  0.94058287124E+03  0.50400001928E-02 0. -1.
</event>
<event>
 5   0  0.3147063E-05  0.1908960E+04  0.7818609E-02  0.8650409E-01
        1   -1    0    0  501    0  0.00000000000E+00  0.00000000000E+00  0.97036336924E+03  0.97036336926E+03  0.50400001928E-02 0. -1.
       -1   -1    0    0    0  501  0.00000000000E+00  0.00000000000E+00 -0.93885686405E+03  0.93885686406E+03  0.50400001928E-02 0.  1.
    10030    2    1    2    0    0  0.00000000000E+00  0.00000000000E+00  0.31506505191E+02  0.19092202333E+04  0.19089602509E+04 0.  0.
        5    1    3    3  502    0  0.46988244690E+03 -0.56697574068E+03  0.62309143299E+03  0.96463258719E+03  0.46999998093E+01 0. -1.
       -5    1    3    3    0  502 -0.46988244690E+03  0.56697574068E+03 -0.59158492780E+03  0.94458764612E+03  0.46999998093E+01 0.  1.
</event>
<event>
 5   0  0.6452182E-05  0.1905898E+04  0.7818609E-02  0.8651926E-01
       -2   -1    0    0    0  501  0.00000000000E+00  0.00000000000E+00  0.94231917215E+03  0.94231917215E+03  0.25500000920E-02 0. -1.
        2   -1    0    0  501    0  0.00000000000E+00  0.00000000000E+00 -0.96369894306E+03  0.96369894306E+03  0.25500000920E-02 0.  1.
    10030    2    1    2    0    0  0.00000000000E+00  0.00000000000E+00 -0.21379770908E+02  0.19060181152E+04  0.19058982032E+04 0.  0.
        3    1    3    3  502    0  0.81125010687E+02  0.94558964828E+03  0.75286040212E+02  0.95204466720E+03  0.10100000352E+00 0.  1.
       -3    1    3    3    0  502 -0.81125010687E+02 -0.94558964828E+03 -0.96665811121E+02  0.95397344802E+03  0.10100000352E+00 0. -1.
</event>
<event>
 5   0  0.3144958E-05  0.1900244E+04  0.7818609E-02  0.8654735E-01
        1   -1    0    0  501    0  0.00000000000E+00  0.00000000000E+00  0.11135648477E+04  0.11135648477E+04  0.50400001928E-02 0. -1.
       -1   -1    0    0    0  501  0.00000000000E+00  0.00000000000E+00 -0.81066880227E+03  0.81066880229E+03  0.50400001928E-02 0.  1.
    10030    2    1    2    0    0  0.00000000000E+00  0.00000000000E+00  0.30289604542E+03  0.19242336500E+04  0.19002444910E+04 0.  0.
        4    1    3    3  502    0  0.19648080152E+03  0.59537802554E+03 -0.57146283963E+03  0.84832251452E+03  0.12699999809E+01 0.  1.
       -4    1    3    3    0  502 -0.19648080152E+03 -0.59537802554E+03  0.87435888505E+03  0.10759111355E+04  0.12699999809E+01 0. -1.
</event>
<event>
 5   0  0.6423388E-05  0.1844117E+04  0.7818609E-02  0.8683184E-01
        2   -1    0    0  501    0  0.00000000000E+00  0.00000000000E+00  0.13076327238E+04  0.13076327238E+04  0.25500000920E-02 0.  1.
       -2   -1    0    0    0  501  0.00000000000E+00  0.00000000000E+00 -0.65017629802E+03  0.65017629803E+03  0.25500000920E-02 0. -1.
    10030    2    1    2    0    0  0.00000000000E+00  0.00000000000E+00  0.65745642574E+03  0.19578090218E+04  0.18441169198E+04 0.  0.
        2    1    3    3  502    0 -0.36016925414E+03 -0.52596241193E+03 -0.37855262095E+03  0.74139088019E+03  0.25500000920E-02 0. -1.
       -2    1    3    3    0  502  0.36016925414E+03  0.52596241193E+03  0.10360090467E+04  0.12164181416E+04  0.25500000920E-02 0.  1.
</event>
<event>
 5   0  0.3144958E-05  0.1902849E+04  0.7818609E-02  0.8653440E-01
        1   -1    0    0  501    0  0.00000000000E+00  0.00000000000E+00  0.92795701388E+03  0.92795701389E+03  0.50400001928E-02 0.  1.
       -1   -1    0    0    0  501  0.00000000000E+00  0.00000000000E+00 -0.97548512467E+03  0.97548512468E+03  0.50400001928E-02 0. -1.
    10030    2    1    2    0    0  0.00000000000E+00  0.00000000000E+00 -0.47528110790E+02  0.19034421386E+04  0.19028486681E+04 0.  0.
        4    1    3    3  502    0  0.62847257981E+03  0.53049288835E+02 -0.73631664963E+03  0.96951319333E+03  0.12699999809E+01 0. -1.
       -4    1    3    3    0  502 -0.62847257981E+03 -0.53049288835E+02  0.68878853884E+03  0.93392894524E+03  0.12699999809E+01 0.  1.
</event>
<event>
 5   0  0.3203527E-05  0.1903214E+04  0.7818609E-02  0.8653258E-01
        1   -1    0    0  501    0  0.00000000000E+00  0.00000000000E+00  0.12936302321E+04  0.12936302321E+04  0.50400001928E-02 0.  1.
       -1   -1    0    0    0  501  0.00000000000E+00  0.00000000000E+00 -0.70001138005E+03  0.70001138007E+03  0.50400001928E-02 0. -1.
    10030    2    1    2    0    0  0.00000000000E+00  0.00000000000E+00  0.59361885205E+03  0.19936416122E+04  0.19032140017E+04 0.  0.
        1    1    3    3  502    0 -0.13074913835E+03  0.17042079985E+03 -0.67428511130E+03  0.70767153224E+03  0.50400001928E-02 0. -1.
       -1    1    3    3    0  502  0.13074913835E+03 -0.17042079985E+03  0.12679039634E+04  0.12859700799E+04  0.50400001928E-02 0.  1.
</event>
<event>
 5   0  0.6098377E-05  0.1902796E+04  0.7818609E-02  0.8653466E-01
       -2   -1    0    0    0  501  0.00000000000E+00  0.00000000000E+00  0.76566624162E+03  0.76566624162E+03  0.25500000920E-02 0. -1.
        2   -1    0    0  501    0  0.00000000000E+00  0.00000000000E+00 -0.11821841451E+04  0.11821841451E+04  0.25500000920E-02 0.  1.
    10030    2    1    2    0    0  0.00000000000E+00  0.00000000000E+00 -0.41651790345E+03  0.19478503867E+04  0.19027963541E+04 0.  0.
        5    1    3    3  502    0 -0.51830822996E+03 -0.54672320695E+02 -0.10230344071E+04  0.11481524167E+04  0.46999998093E+01 0.  1.
       -5    1    3    3    0  502  0.51830822996E+03  0.54672320695E+02  0.60651650369E+03  0.79969796995E+03  0.46999998093E+01 0. -1.
</event>
<event>
 5   0  0.3083469E-05  0.1823804E+04  0.7818609E-02  0.8693742E-01
       -1   -1    0    0    0  501  0.00000000000E+00  0.00000000000E+00  0.10042758493E+04  0.10042758493E+04  0.50400001928E-02 0. -1.
        1   -1    0    0  501    0  0.00000000000E+00  0.00000000000E+00 -0.82802500351E+03  0.82802500352E+03  0.50400001928E-02 0.  1.
    10030    2    1    2    0    0  0.00000000000E+00  0.00000000000E+00  0.17625084579E+03  0.18323008528E+04  0.18238042808E+04 0.  0.
        3    1    3    3  502    0  0.83451837505E+02  0.84504182668E+03  0.42209792260E+03  0.94827557412E+03  0.10100000352E+00 0. -1.
       -3    1    3    3    0  502 -0.83451837505E+02 -0.84504182668E+03 -0.24584707681E+03  0.88402527871E+03  0.10100000352E+00 0.  1.
</event>
<event>
 5   0  0.3147063E-05  0.1893741E+04  0.7818609E-02  0.8657978E-01
        1   -1    0    0  501    0  0.00000000000E+00  0.00000000000E+00  0.13662699256E+04  0.13662699256E+04  0.50400001928E-02 0.  1.
       -1   -1    0    0    0  501  0.00000000000E+00  0.00000000000E+00 -0.65621266671E+03  0.65621266673E+03  0.50400001928E-02 0. -1.
    10030    2    1    2    0    0  0.00000000000E+00  0.00000000000E+00  0.71005725892E+03  0.20224825924E+04  0.18937408813E+04 0.  0.
        5    1    3    3  502    0 -0.40241407158E+03  0.61719947546E+03 -0.28010176542E+03  0.78825843890E+03  0.46999998093E+01 0. -1.
       -5    1    3    3    0  502  0.40241407158E+03 -0.61719947546E+03  0.99015902434E+03  0.12342241535E+04  0.46999998093E+01 0.  1.
</event>
<event>
 5   0  0.6423388E-05  0.1896618E+04  0.7818609E-02  0.8656542E-01
        2   -1    0    0  501    0  0.00000000000E+00  0.00000000000E+00  0.22694269449E+04  0.22694269449E+04  0.25500000920E-02 0.  1.
       -2   -1    0    0    0  501  0.00000000000E+00  0.00000000000E+00 -0.39626291741E+03  0.39626291742E+03  0.25500000920E-02 0. -1.
    10030    2    1    2    0    0  0.00000000000E+00  0.00000000000E+00  0.18731640275E+04  0.26656898623E+04  0.18966177707E+04 0.  0.
        2    1    3    3  502    0  0.42924415267E+03  0.15866924802E+02 -0.25169654626E+03  0.49784882576E+03  0.25500000920E-02 0. -1.
       -2    1    3    3    0  502 -0.42924415267E+03 -0.15866924802E+02  0.21248605737E+04  0.21678410365E+04  0.25500000920E-02 0.  1.
</event>
<event>
 5   0  0.6395992E-05  0.1911499E+04  0.7818609E-02  0.8649154E-01
       -2   -1    0    0    0  501  0.00000000000E+00  0.00000000000E+00  0.70910467714E+03  0.70910467714E+03  0.25500000920E-02 0.  1.
        2   -1    0    0  501    0  0.00000000000E+00  0.00000000000E+00 -0.12881831034E+04  0.12881831034E+04  0.25500000920E-02 0. -1.
    10030    2    1    2    0    0  0.00000000000E+00  0.00000000000E+00 -0.57907842627E+03  0.19972877806E+04  0.19114985364E+04 0.  0.
        4    1    3    3  502    0 -0.61357963234E+03  0.15334422869E+03  0.45918219513E+03  0.78156530048E+03  0.12699999809E+01 0.  1.
       -4    1    3    3    0  502  0.61357963234E+03 -0.15334422869E+03 -0.10382606214E+04  0.12157224801E+04  0.12699999809E+01 0. -1.
</event>
<event>
 5   0  0.3083469E-05  0.1869360E+04  0.7818609E-02  0.8670260E-01
       -1   -1    0    0    0  501  0.00000000000E+00  0.00000000000E+00  0.82892365499E+03  0.82892365500E+03  0.50400001928E-02 0.  1.
        1   -1    0    0  501    0  0.00000000000E+00  0.00000000000E+00 -0.10539288293E+04  0.10539288293E+04  0.50400001928E-02 0. -1.
    10030    2    1    2    0    0  0.00000000000E+00  0.00000000000E+00 -0.22500517433E+03  0.18828524843E+04  0.18693598234E+04 0.  0.
        3    1    3    3  502    0  0.46746418851E+03  0.72410968690E+03 -0.47673254304E+03  0.98495255419E+03  0.10100000352E+00 0. -1.
       -3    1    3    3    0  502 -0.46746418851E+03 -0.72410968690E+03  0.25172736870E+03  0.89789993015E+03  0.10100000352E+00 0.  1.
</event>
<event>
 5   0  0.6423388E-05  0.1898626E+04  0.7818609E-02  0.8655540E-01
        2   -1    0    0  501    0  0.00000000000E+00  0.00000000000E+00  0.21524159809E+04  0.21524159809E+04  0.25500000920E-02 0. -1.
       -2   -1    0    0    0  501  0.00000000000E+00  0.00000000000E+00 -0.41869026147E+03  0.41869026148E+03  0.25500000920E-02 0.  1.
    10030    2    1    2    0    0  0.00000000000E+00  0.00000000000E+00  0.17337257194E+04  0.25711062424E+04  0.18986264613E+04 0.  0.
        2    1    3    3  502    0  0.46359677106E+03 -0.30926756011E+03  0.19075908200E+04  0.19873276344E+04  0.25500000920E-02 0. -1.
       -2    1    3    3    0  502 -0.46359677106E+03  0.30926756011E+03 -0.17386510062E+03  0.58377860794E+03  0.25500000920E-02 0.  1.
</event>
<event>
 5   0  0.6395992E-05  0.1896039E+04  0.7818609E-02  0.8656830E-01
        2   -1    0    0  501    0  0.00000000000E+00  0.00000000000E+00  0.12856907888E+04  0.12856907888E+04  0.25500000920E-02 0.  1.
       -2   -1    0    0    0  501  0.00000000000E+00  0.00000000000E+00 -0.69903376088E+03  0.69903376089E+03  0.25500000920E-02 0. -1.
    10030    2    1    2    0    0  0.00000000000E+00  0.00000000000E+00  0.58665702788E+03  0.19847245497E+04  0.18960393112E+04 0.  0.
        4    1    3    3  502    0 -0.44883028451E+03  0.60180660381E+03 -0.31264406939E+03  0.81324519040E+03  0.12699999809E+01 0. -1.
       -4    1    3    3    0  502  0.44883028451E+03 -0.60180660381E+03  0.89930109727E+03  0.11714793592E+04  0.12699999809E+01 0.  1.
</event>
<event>
 5   0  0.6452182E-05  0.1904731E+04  0.7818609E-02  0.8652505E-01
        2   -1    0    0  501    0  0.00000000000E+00  0.00000000000E+00  0.79508786452E+03  0.79508786453E+03  0.25500000920E-02 0.  1.
       -2   -1    0    0    0  501  0.00000000000E+00  0.00000000000E+00 -0.11407544818E+04  0.11407544818E+04  0.25500000920E-02 0. -1.
    10030    2    1    2    0    0  0.00000000000E+00  0.00000000000E+00 -0.34566661730E+03  0.19358423464E+04  0.19047309993E+04 0.  0.
        3    1    3    3  502    0  0.23148107167E+03  0.91875506238E+03 -0.27087492776E+03  0.98542761677E+03  0.10100000352E+00 0. -1.
       -3    1    3    3    0  502 -0.23148107167E+03 -0.91875506238E+03 -0.74791689539E+02  0.95041472959E+03  0.10100000352E+00 0.  1.
</event>
<event>
 5   0  0.3147063E-05  0.1910652E+04  0.7818609E-02  0.8649573E-01
       -1   -1    0    0    0  501  0.00000000000E+00  0.00000000000E+00  0.11731717814E+04  0.11731717814E+04  0.50400001928E-02 0. -1.
        1   -1    0    0  501    0  0.00000000000E+00  0.00000000000E+00 -0.77793151995E+03  0.77793151997E+03  0.50400001928E-02 0.  1.
    10030    2    1    2    0    0  0.00000000000E+00  0.00000000000E+00  0.39524026148E+03  0.19511033014E+04  0.19106515194E+04 0.  0.
        5    1    3    3  502    0 -0.14642880062E+03  0.85425447174E+03  0.60791406957E+03  0.10586660012E+04  0.46999998093E+01 0. -1.
       -5    1    3    3    0  502  0.14642880062E+03 -0.85425447174E+03 -0.21267380809E+03  0.89243730020E+03  0.46999998093E+01 0.  1.
</event>
<event>
 5   0  0.6423388E-05  0.1909253E+04  0.7818609E-02  0.8650264E-01
        2   -1    0    0  501    0  0.00000000000E+00  0.00000000000E+00  0.19292494794E+04  0.19292494794E+04  0.25500000920E-02 0.  1.
       -2   -1    0    0    0  501  0.00000000000E+00  0.00000000000E+00 -0.47236618221E+03  0.47236618222E+03  0.25500000920E-02 0. -1.
    10030    2    1    2    0    0  0.00000000000E+00  0.00000000000E+00  0.14568832972E+04  0.24016156616E+04  0.19092534783E+04 0.  0.
        2    1    3    3  502    0 -0.63506751029E+02  0.61402214327E+03 -0.18753135924E+03  0.64515448581E+03  0.25500000920E-02 0. -1.
       -2    1    3    3    0  502  0.63506751029E+02 -0.61402214327E+03  0.16444146564E+04  0.17564611758E+04  0.25500000920E-02 0.  1.
</event>
<event>
 5   0  0.2279625E-05  0.1908955E+04  0.7818609E-02  0.8650412E-01
       -3   -1    0    0    0  501  0.00000000000E+00  0.00000000000E+00  0.19517340188E+04  0.19517340214E+04  0.10100000352E+00 0.  1.
        3   -1    0    0  501    0  0.00000000000E+00  0.00000000000E+00 -0.46677844993E+03  0.46677846086E+03  0.10100000352E+00 0. -1.
    10030    2    1    2    0    0  0.00000000000E+00  0.00000000000E+00  0.14849555689E+04  0.24185124823E+04  0.19089551030E+04 0.  0.
        1    1    3    3  502    0 -0.34966365159E+03 -0.87602811602E+03  0.55741288725E+03  0.10956272433E+04  0.50400001928E-02 0. -1.
       -1    1    3    3    0  502  0.34966365159E+03  0.87602811602E+03  0.92754268162E+03  0.13228852390E+04  0.50400001928E-02 0.  1.
</event>
<event>
 5   0  0.3144958E-05  0.1872415E+04  0.7818609E-02  0.8668710E-01
        1   -1    0    0  501    0  0.00000000000E+00  0.00000000000E+00  0.13867075474E+04  0.13867075474E+04  0.50400001928E-02 0.  1.
       -1   -1    0    0    0  501  0.00000000000E+00  0.00000000000E+00 -0.63206179543E+03  0.63206179545E+03  0.50400001928E-02 0. -1.
    10030    2    1    2    0    0  0.00000000000E+00  0.00000000000E+00  0.75464575195E+03  0.20187693428E+04  0.18724154049E+04 0.  0.
        4    1    3    3  502    0 -0.86536424383E+03  0.53420175230E+02 -0.35210172704E+01  0.86701960767E+03  0.12699999809E+01 0. -1.
       -4    1    3    3    0  502  0.86536424383E+03 -0.53420175230E+02  0.75816676922E+03  0.11517497352E+04  0.12699999809E+01 0.  1.
</event>
<event>
 5   0  0.6423388E-05  0.1900118E+04  0.7818609E-02  0.8654797E-01
       -2   -1    0    0    0  501  0.00000000000E+00  0.00000000000E+00  0.94068334569E+03  0.94068334569E+03  0.25500000920E-02 0.  1.
        2   -1    0    0  501    0  0.00000000000E+00  0.00000000000E+00 -0.95952857998E+03  0.95952857999E+03  0.25500000920E-02 0. -1.
    10030    2    1    2    0    0  0.00000000000E+00  0.00000000000E+00 -0.18845234296E+02  0.19002119257E+04  0.19001184752E+04 0.  0.
        2    1    3    3  502    0 -0.74148404793E+03  0.31890898912E+03 -0.51055704904E+03  0.95507593259E+03  0.25500000920E-02 0. -1.
       -2    1    3    3    0  502  0.74148404793E+03 -0.31890898912E+03  0.49171181475E+03  0.94513599309E+03  0.25500000920E-02 0.  1.
</event>
<event>
 5   0  0.3147063E-05  0.1902999E+04  0.7818609E-02  0.8653365E-01
        1   -1    0    0  501    0  0.00000000000E+00  0.00000000000E+00  0.99778945926E+03  0.99778945927E+03  0.50400001928E-02 0.  1.
       -1   -1    0    0    0  501  0.00000000000E+00  0.00000000000E+00 -0.90735664558E+03  0.90735664560E+03  0.50400001928E-02 0. -1.
    10030    2    1    2    0    0  0.00000000000E+00  0.00000000000E+00  0.90432813673E+02  0.19051461049E+04  0.19029985778E+04 0.  0.
        5    1    3    3  502    0 -0.54476282278E+02 -0.57998407133E+03 -0.70794874847E+03  0.91682207041E+03  0.46999998093E+01 0. -1.
       -5    1    3    3    0  502  0.54476282278E+02  0.57998407133E+03  0.79838156214E+03  0.98832403446E+03  0.46999998093E+01 0.  1.
</event>
<event>
 5   0  0.3147063E-05  0.1879800E+04  0.7818609E-02  0.8664977E-01
        1   -1    0    0  501    0  0.00000000000E+00  0.00000000000E+00  0.12927170612E+04  0.12927170612E+04  0.50400001928E-02 0. -1.
       -1   -1    0    0    0  501  0.00000000000E+00  0.00000000000E+00 -0.68337594555E+03  0.68337594557E+03  0.50400001928E-02 0.  1.
    10030    2    1    2    0    0  0.00000000000E+00  0.00000000000E+00  0.60934111567E+03  0.19760930068E+04  0.18797997171E+04 0.  0.
        5    1    3    3  502    0 -0.59488001392E+03  0.29761027312E+03 -0.39337434143E+03  0.77279982410E+03  0.46999998093E+01 0.  1.
       -5    1    3    3    0  502  0.59488001392E+03 -0.29761027312E+03  0.10027154571E+04  0.12032931827E+04  0.46999998093E+01 0. -1.
</event>
<event>
 5   0  0.3083469E-05  0.1893841E+04  0.7818609E-02  0.8657928E-01
        1   -1    0    0  501    0  0.00000000000E+00  0.00000000000E+00  0.12222361392E+04  0.12222361392E+04  0.50400001928E-02 0.  1.
       -1   -1    0    0    0  501  0.00000000000E+00  0.00000000000E+00 -0.73362126403E+03  0.73362126405E+03  0.50400001928E-02 0. -1.
    10030    2    1    2    0    0  0.00000000000E+00  0.00000000000E+00  0.48861487517E+03  0.19558574033E+04  0.18938409874E+04 0.  0.
        3    1    3    3  502    0  0.88925016246E+03 -0.29163115419E+02  0.57902254723E+03  0.10615476716E+04  0.10100000352E+00 0.  1.
       -3    1    3    3    0  502 -0.88925016246E+03  0.29163115419E+02 -0.90407672058E+02  0.89430973164E+03  0.10100000352E+00 0. -1.
</event>
<event>
 5   0  0.3086139E-05  0.1902090E+04  0.7818609E-02  0.8653817E-01
       -1   -1    0    0    0  501  0.00000000000E+00  0.00000000000E+00  0.11582284317E+04  0.11582284317E+04  0.50400001928E-02 0. -1.
        1   -1    0    0  501    0  0.00000000000E+00  0.00000000000E+00 -0.78092273950E+03  0.78092273951E+03  0.50400001928E-02 0.  1.
    10030    2    1    2    0    0  0.00000000000E+00  0.00000000000E+00  0.37730569216E+03  0.19391511712E+04  0.19020903447E+04 0.  0.
        2    1    3    3  502    0 -0.60922040449E+02  0.35853110176E+03  0.10845416439E+04  0.11438910015E+04  0.25500000920E-02 0. -1.
       -2    1    3    3    0  502  0.60922040449E+02 -0.35853110176E+03 -0.70723595178E+03  0.79526016965E+03  0.25500000920E-02 0.  1.
</event>
<event>
 5   0  0.6098377E-05  0.1894796E+04  0.7818609E-02  0.8657451E-01
        2   -1    0    0  501    0  0.00000000000E+00  0.00000000000E+00  0.17007730786E+04  0.17007730786E+04  0.25500000920E-02 0.  1.
       -2   -1    0    0    0  501  0.00000000000E+00  0.00000000000E+00 -0.52773808888E+03  0.52773808889E+03  0.25500000920E-02 0. -1.
    10030    2    1    2    0    0  0.00000000000E+00  0.00000000000E+00  0.11730349897E+04  0.22285111675E+04  0.18947957506E+04 0.  0.
        5    1    3    3  502    0  0.45721073325E+03 -0.15086002342E+03 -0.37311471763E+03  0.60912813412E+03  0.46999998093E+01 0. -1.
       -5    1    3    3    0  502 -0.45721073325E+03  0.15086002342E+03  0.15461497073E+04  0.16193830334E+04  0.46999998093E+01 0.  1.
</event>
<event>
 5   0  0.3144958E-05  0.1895903E+04  0.7818609E-02  0.8656899E-01
       -1   -1    0    0    0  501  0.00000000000E+00  0.00000000000E+00  0.59805143655E+03  0.59805143657E+03  0.50400001928E-02 0.  1.
        1   -1    0    0  501    0  0.00000000000E+00  0.00000000000E+00 -0.15025659746E+04  0.15025659746E+04  0.50400001928E-02 0. -1.
    10030    2    1    2    0    0  0.00000000000E+00  0.00000000000E+00 -0.90451453801E+03  0.21006174111E+04  0.18959026764E+04 0.  0.
        4    1    3    3  502    0  0.54579283282E+03  0.46480317147E+03 -0.11394519317E+04  0.13462110243E+04  0.12699999809E+01 0. -1.
       -4    1    3    3    0  502 -0.54579283282E+03 -0.46480317147E+03  0.23493739367E+03  0.75440638678E+03  0.12699999809E+01 0.  1.
</event>
<event>
 5   0  0.3147063E-05  0.1903279E+04  0.7818609E-02  0.8653226E-01
       -1   -1    0    0    0  501  0.00000000000E+00  0.00000000000E+00  0.70349658695E+03  0.70349658697E+03  0.50400001928E-02 0. -1.
        1   -1    0    0  501    0  0.00000000000E+00  0.00000000000E+00 -0.12873095554E+04  0.12873095554E+04  0.50400001928E-02 0.  1.
    10030    2    1    2    0    0  0.00000000000E+00  0.00000000000E+00 -0.58381296846E+03  0.19908061424E+04  0.19032791478E+04 0.  0.
        5    1    3    3  502    0  0.78471629212E+02 -0.89745631044E+03 -0.61261750571E+03  0.10894530389E+04  0.46999998093E+01 0.  1.
       -5    1    3    3    0  502 -0.78471629212E+02  0.89745631044E+03  0.28804537248E+02  0.90135310345E+03  0.46999998093E+01 0. -1.
</event>
<event>
 5   0  0.6423388E-05  0.1911293E+04  0.7818609E-02  0.8649256E-01
       -2   -1    0    0    0  501  0.00000000000E+00  0.00000000000E+00  0.16025143875E+04  0.16025143875E+04  0.25500000920E-02 0. -1.
        2   -1    0    0  501    0  0.00000000000E+00  0.00000000000E+00 -0.56989197733E+03  0.56989197734E+03  0.25500000920E-02 0.  1.
    10030    2    1    2    0    0  0.00000000000E+00  0.00000000000E+00  0.10326224101E+04  0.21724063648E+04  0.19112928535E+04 0.  0.
        2    1    3    3  502    0 -0.47498448223E+03  0.26915240674E+03  0.14078174711E+04  0.15099679826E+04  0.25500000920E-02 0. -1.
       -2    1    3    3    0  502  0.47498448223E+03 -0.26915240674E+03 -0.37519506101E+03  0.66243838221E+03  0.25500000920E-02 0.  1.
</event>
<event>
 5   0  0.3086139E-05  0.1807978E+04  0.7818609E-02  0.8702069E-01
       -1   -1    0    0    0  501  0.00000000000E+00  0.00000000000E+00  0.84152613975E+03  0.84152613976E+03  0.50400001928E-02 0. -1.
        1   -1    0    0  501    0  0.00000000000E+00  0.00000000000E+00 -0.97108785964E+03  0.97108785966E+03  0.50400001928E-02 0.  1.
    10030    2    1    2    0    0  0.00000000000E+00  0.00000000000E+00 -0.12956171990E+03  0.18126139994E+04  0.18079776745E+04 0.  0.
        2    1    3    3  502    0  0.68110840189E+03  0.44411554577E+02  0.52945721477E+03  0.86383215012E+03  0.25500000920E-02 0. -1.
       -2    1    3    3    0  502 -0.68110840189E+03 -0.44411554577E+02 -0.65901893467E+03  0.94878184930E+03  0.25500000920E-02 0.  1.
</event>
<event>
 5   0  0.6098377E-05  0.1903719E+04  0.7818609E-02  0.8653007E-01
        2   -1    0    0  501    0  0.00000000000E+00  0.00000000000E+00  0.91167349795E+03  0.91167349796E+03  0.25500000920E-02 0. -1.
       -2   -1    0    0    0  501  0.00000000000E+00  0.00000000000E+00 -0.99381724315E+03  0.99381724316E+03  0.25500000920E-02 0.  1.
    10030    2    1    2    0    0  0.00000000000E+00  0.00000000000E+00 -0.82143745201E+02  0.19054907411E+04  0.19037193516E+04 0.  0.
        5    1    3    3  502    0  0.61754315341E+03  0.69164245061E+03  0.17426995737E+03  0.94346220584E+03  0.46999998093E+01 0. -1.
       -5    1    3    3    0  502 -0.61754315341E+03 -0.69164245061E+03 -0.25641370257E+03  0.96202853527E+03  0.46999998093E+01 0.  1.
</event>
<event>
 5   0  0.3203527E-05  0.1900202E+04  0.7818609E-02  0.8654756E-01
       -1   -1    0    0    0  501  0.00000000000E+00  0.00000000000E+00  0.94130496676E+03  0.94130496677E+03  0.50400001928E-02 0. -1.
        1   -1    0    0  501    0  0.00000000000E+00  0.00000000000E+00 -0.95897965082E+03  0.95897965084E+03  0.50400001928E-02 0.  1.
    10030    2    1    2    0    0  0.00000000000E+00  0.00000000000E+00 -0.17674684065E+02  0.19002846176E+04  0.19002024191E+04 0.  0.
        1    1    3    3  502    0  0.94948201825E+03  0.65617465496E+00  0.25453713773E+02  0.94982336522E+03  0.50400001928E-02 0. -1.
       -1    1    3    3    0  502 -0.94948201825E+03 -0.65617465496E+00 -0.43128397838E+02  0.95046125238E+03  0.50400001928E-02 0.  1.
</event>
<event>
 5   0  0.6452182E-05  0.1915100E+04  0.7818609E-02  0.8647376E-01
        2   -1    0    0  501    0  0.00000000000E+00  0.00000000000E+00  0.15711854448E+04  0.15711854448E+04  0.25500000920E-02 0.  1.
       -2   -1    0    0    0  501  0.00000000000E+00  0.00000000000E+00 -0.58357345720E+03  0.58357345720E+03  0.25500000920E-02 0. -1.
    10030    2    1    2    0    0  0.00000000000E+00  0.00000000000E+00  0.98761198758E+03  0.21547589020E+04  0.19151001247E+04 0.  0.
        3    1    3    3  502    0 -0.37001416261E+03 -0.63008462125E+03 -0.20249671084E+03  0.75823613642E+03  0.10100000352E+00 0. -1.
       -3    1    3    3    0  502  0.37001416261E+03  0.63008462125E+03  0.11901086984E+04  0.13965227656E+04  0.10100000352E+00 0.  1.
</event>
<event>
 5   0  0.6098377E-05  0.1958063E+04  0.7818609E-02  0.8626483E-01
       -2   -1    0    0    0  501  0.00000000000E+00  0.00000000000E+00  0.68374424456E+03  0.68374424457E+03  0.25500000920E-02 0. -1.
        2   -1    0    0  501    0  0.00000000000E+00  0.00000000000E+00 -0.14018431620E+04  0.14018431620E+04  0.25500000920E-02 0.  1.
    10030    2    1    2    0    0  0.00000000000E+00  0.00000000000E+00 -0.71809891740E+03  0.20855874065E+04  0.19580625054E+04 0.  0.
        5    1    3    3  502    0  0.85151681803E+03  0.24039228841E+03 -0.80540137719E+03  0.11964793404E+04  0.46999998093E+01 0.  1.
       -5    1    3    3    0  502 -0.85151681803E+03 -0.24039228841E+03  0.87302459785E+02  0.88910806610E+03  0.46999998093E+01 0. -1.
</event>
<event>
 5   0  0.3203527E-05  0.1895718E+04  0.7818609E-02  0.8656991E-01
       -1   -1    0    0    0  501  0.00000000000E+00  0.00000000000E+00  0.63550660422E+03  0.63550660424E+03  0.50400001928E-02 0.  1.
        1   -1    0    0  501    0  0.00000000000E+00  0.00000000000E+00 -0.14137331770E+04  0.14137331770E+04  0.50400001928E-02 0. -1.
    10030    2    1    2    0    0  0.00000000000E+00  0.00000000000E+00 -0.77822657280E+03  0.20492397813E+04  0.18957180915E+04 0.  0.
        1    1    3    3  502    0 -0.13841674564E+03 -0.59323364488E+03 -0.11741122481E+04  0.13227338826E+04  0.50400001928E-02 0. -1.
       -1    1    3    3    0  502  0.13841674564E+03  0.59323364488E+03  0.39588567532E+03  0.72650589870E+03  0.50400001928E-02 0.  1.
</event>
<event>
 5   0  0.6423388E-05  0.1897595E+04  0.7818609E-02  0.8656054E-01
       -2   -1    0    0    0  501  0.00000000000E+00  0.00000000000E+00  0.12934173455E+04  0.12934173455E+04  0.25500000920E-02 0.  1.
        2   -1    0    0  501    0  0.00000000000E+00  0.00000000000E+00 -0.69599882102E+03  0.69599882102E+03  0.25500000920E-02 0. -1.
    10030    2    1    2    0    0  0.00000000000E+00  0.00000000000E+00  0.59741852444E+03  0.19894161665E+04  0.18975952651E+04 0.  0.
        2    1    3    3  502    0  0.47504854649E+03 -0.81665282778E+03  0.39024971753E+03  0.10221975370E+04  0.25500000920E-02 0.  1.
       -2    1    3    3    0  502 -0.47504854649E+03  0.81665282778E+03  0.20716880692E+03  0.96721862947E+03  0.25500000920E-02 0. -1.
</event>
<event>
 5   0  0.6098377E-05  0.1898652E+04  0.7818609E-02  0.8655528E-01
       -2   -1    0    0    0  501  0.00000000000E+00  0.00000000000E+00  0.80696803416E+03  0.80696803416E+03  0.25500000920E-02 0.  1.
        2   -1    0    0  501    0  0.00000000000E+00  0.00000000000E+00 -0.11167968871E+04  0.11167968871E+04  0.25500000920E-02 0. -1.
    10030    2    1    2    0    0  0.00000000000E+00  0.00000000000E+00 -0.30982885297E+03  0.19237649213E+04  0.18986515094E+04 0.  0.
        5    1    3    3  502    0 -0.76785816318E+03  0.36819914540E+02  0.40944065813E+03  0.87099116379E+03  0.46999998093E+01 0.  1.
       -5    1    3    3    0  502  0.76785816318E+03 -0.36819914540E+02 -0.71926951111E+03  0.10527737575E+04  0.46999998093E+01 0. -1.
</event>
<event>
 5   0  0.3086139E-05  0.1910450E+04  0.7818609E-02  0.8649672E-01
       -1   -1    0    0    0  501  0.00000000000E+00  0.00000000000E+00  0.11370287776E+04  0.11370287776E+04  0.50400001928E-02 0. -1.
        1   -1    0    0  501    0  0.00000000000E+00  0.00000000000E+00 -0.80249048938E+03  0.80249048940E+03  0.50400001928E-02 0.  1.
    10030    2    1    2    0    0  0.00000000000E+00  0.00000000000E+00  0.33453828822E+03  0.19395192670E+04  0.19104499786E+04 0.  0.
        2    1    3    3  502    0  0.13304909654E+03  0.71623472082E+02  0.11248189635E+04  0.11349227659E+04  0.25500000920E-02 0. -1.
       -2    1    3    3    0  502 -0.13304909654E+03 -0.71623472082E+02 -0.79028067531E+03  0.80459650112E+03  0.25500000920E-02 0.  1.
</event>
<event>
 5   0  0.6098377E-05  0.1905063E+04  0.7818609E-02  0.8652340E-01
        2   -1    0    0  501    0  0.00000000000E+00  0.00000000000E+00  0.11598641693E+04  0.11598641693E+04  0.25500000920E-02 0.  1.
       -2   -1    0    0    0  501  0.00000000000E+00  0.00000000000E+00 -0.78226073093E+03  0.78226073094E+03  0.25500000920E-02 0. -1.
    10030    2    1    2    0    0  0.00000000000E+00  0.00000000000E+00  0.37760343840E+03  0.19421249003E+04  0.19050629311E+04 0.  0.
        5    1    3    3  502    0 -0.36987480648E+03 -0.56611339039E+03 -0.49507091504E+03  0.83809846925E+03  0.46999998093E+01 0. -1.
       -5    1    3    3    0  502  0.36987480648E+03  0.56611339039E+03  0.87267435345E+03  0.11040264310E+04  0.46999998093E+01 0.  1.
</event>
<event>
 5   0  0.3144958E-05  0.1919497E+04  0.7818609E-02  0.8645212E-01
        1   -1    0    0  501    0  0.00000000000E+00  0.00000000000E+00  0.93029832010E+03  0.93029832011E+03  0.50400001928E-02 0.  1.
       -1   -1    0    0    0  501  0.00000000000E+00  0.00000000000E+00 -0.99013097909E+03  0.99013097910E+03  0.50400001928E-02 0. -1.
    10030    2    1    2    0    0  0.00000000000E+00  0.00000000000E+00 -0.59832658991E+02  0.19204292992E+04  0.19194970034E+04 0.  0.
        4    1    3    3  502    0 -0.28957617128E+03 -0.91382112538E+03  0.16926977963E+02  0.95875520528E+03  0.12699999809E+01 0.  1.
       -4    1    3    3    0  502  0.28957617128E+03  0.91382112538E+03 -0.76759636955E+02  0.96167409393E+03  0.12699999809E+01 0. -1.
</event>
<event>
 5   0  0.3147063E-05  0.1895516E+04  0.7818609E-02  0.8657092E-01
       -1   -1    0    0    0  501  0.00000000000E+00  0.00000000000E+00  0.33456411853E+03  0.33456411857E+03  0.50400001928E-02 0. -1.
        1   -1    0    0  501    0  0.00000000000E+00  0.00000000000E+00 -0.26848227499E+04  0.26848227499E+04  0.50400001928E-02 0.  1.
    10030    2    1    2    0    0  0.00000000000E+00  0.00000000000E+00 -0.23502586314E+04  0.30193868685E+04  0.18955161374E+04 0.  0.
        5    1    3    3  502    0  0.32823937830E+03 -0.85680600235E+03 -0.79694932913E+03  0.12153221541E+04  0.46999998093E+01 0. -1.
       -5    1    3    3    0  502 -0.32823937830E+03  0.85680600235E+03 -0.15533093023E+04  0.18040647144E+04  0.46999998093E+01 0.  1.
</event>
<event>
 5   0  0.3147063E-05  0.1900414E+04  0.7818609E-02  0.8654650E-01
       -1   -1    0    0    0  501  0.00000000000E+00  0.00000000000E+00  0.10546592023E+04  0.10546592023E+04  0.50400001928E-02 0.  1.
        1   -1    0    0  501    0  0.00000000000E+00  0.00000000000E+00 -0.85609936707E+03  0.85609936708E+03  0.50400001928E-02 0. -1.
    10030    2    1    2    0    0  0.00000000000E+00  0.00000000000E+00  0.19855983525E+03  0.19107585694E+04  0.19004137188E+04 0.  0.
        5    1    3    3  502    0 -0.78145920842E+03 -0.48066269440E+03  0.34792319245E+03  0.98121748765E+03  0.46999998093E+01 0.  1.
       -5    1    3    3    0  502  0.78145920842E+03  0.48066269440E+03 -0.14936335720E+03  0.92954108177E+03  0.46999998093E+01 0. -1.
</event>
<event>
 5   0  0.2279625E-05  0.1897059E+04  0.7818609E-02  0.8656322E-01
        3   -1    0    0  501    0  0.00000000000E+00  0.00000000000E+00  0.53596275575E+03  0.53596276526E+03  0.10100000352E+00 0.  1.
       -3   -1    0    0    0  501  0.00000000000E+00  0.00000000000E+00 -0.16786766009E+04  0.16786766039E+04  0.10100000352E+00 0. -1.
    10030    2    1    2    0    0  0.00000000000E+00  0.00000000000E+00 -0.11427138452E+04  0.22146393692E+04  0.18970589352E+04 0.  0.
        3    1    3    3  502    0  0.49821000219E+03  0.37170819076E+03  0.26505391404E+03  0.67574682605E+03  0.10100000352E+00 0.  1.
       -3    1    3    3    0  502 -0.49821000219E+03 -0.37170819076E+03 -0.14077677592E+04  0.15388925432E+04  0.10100000352E+00 0. -1.
</event>
<event>
 5   0  0.6452182E-05  0.1900783E+04  0.7818609E-02  0.8654467E-01
       -2   -1    0    0    0  501  0.00000000000E+00  0.00000000000E+00  0.70954997314E+03  0.70954997315E+03  0.25500000920E-02 0. -1.
        2   -1    0    0  501    0  0.00000000000E+00  0.00000000000E+00 -0.12729812810E+04  0.12729812810E+04  0.25500000920E-02 0.  1.
    10030    2    1    2    0    0  0.00000000000E+00  0.00000000000E+00 -0.56343130785E+03  0.19825312541E+04  0.19007828216E+04 0.  0.
        3    1    3    3  502    0  0.60433345112E+03  0.29608578610E+03 -0.98166488130E+03  0.11901897589E+04  0.10100000352E+00 0.  1.
       -3    1    3    3    0  502 -0.60433345112E+03 -0.29608578610E+03  0.41823357345E+03  0.79234149521E+03  0.10100000352E+00 0. -1.
</event>
<event>
 5   0  0.3147063E-05  0.1897346E+04  0.7818609E-02  0.8656178E-01
        1   -1    0    0  501    0  0.00000000000E+00  0.00000000000E+00  0.20677739104E+04  0.20677739104E+04  0.50400001928E-02 0.  1.
       -1   -1    0    0    0  501  0.00000000000E+00  0.00000000000E+00 -0.43524145385E+03  0.43524145388E+03  0.50400001928E-02 0. -1.
    10030    2    1    2    0    0  0.00000000000E+00  0.00000000000E+00  0.16325324565E+04  0.25030153643E+04  0.18973464871E+04 0.  0.
        5    1    3    3  502    0 -0.19685277708E+03 -0.92673207252E+03  0.75196891469E+03  0.12095712830E+04  0.46999998093E+01 0. -1.
       -5    1    3    3    0  502  0.19685277708E+03  0.92673207252E+03  0.88056354185E+03  0.12934440812E+04  0.46999998093E+01 0.  1.
</event>
<event>
 5   0  0.3147063E-05  0.1894148E+04  0.7818609E-02  0.8657775E-01
       -1   -1    0    0    0  501  0.00000000000E+00  0.00000000000E+00  0.43679620500E+03  0.43679620503E+03  0.50400001928E-02 0.  1.
        1   -1    0    0  501    0  0.00000000000E+00  0.00000000000E+00 -0.20534720297E+04  0.20534720297E+04  0.50400001928E-02 0. -1.
    10030    2    1    2    0    0  0.00000000000E+00  0.00000000000E+00 -0.16166758247E+04  0.24902682347E+04  0.18941476074E+04 0.  0.
        5    1    3    3  502    0 -0.32355391103E+03  0.61734047220E+03 -0.16513271999E+04  0.17924006257E+04  0.46999998093E+01 0. -1.
       -5    1    3    3    0  502  0.32355391103E+03 -0.61734047220E+03  0.34651375161E+02  0.69786760904E+03  0.46999998093E+01 0.  1.
</event>
<event>
 5   0  0.6452182E-05  0.1877421E+04  0.7818609E-02  0.8666178E-01
       -2   -1    0    0    0  501  0.00000000000E+00  0.00000000000E+00  0.13557268358E+04  0.13557268358E+04  0.25500000920E-02 0. -1.
        2   -1    0    0  501    0  0.00000000000E+00  0.00000000000E+00 -0.64996679326E+03  0.64996679326E+03  0.25500000920E-02 0.  1.
    10030    2    1    2    0    0  0.00000000000E+00  0.00000000000E+00  0.70576004251E+03  0.20056936290E+04  0.18774210226E+04 0.  0.
        3    1    3    3  502    0  0.24043893230E+03 -0.69863147152E+03 -0.26571601277E+03  0.78517630046E+03  0.10100000352E+00 0.  1.
       -3    1    3    3    0  502 -0.24043893230E+03  0.69863147152E+03  0.97147605528E+03  0.12205173286E+04  0.10100000352E+00 0. -1.
</event>
<event>
 5   0  0.6361762E-05  0.1812583E+04  0.7818609E-02  0.8699636E-01
       -2   -1    0    0    0  501  0.00000000000E+00  0.00000000000E+00  0.88685949800E+03  0.88685949800E+03  0.25500000920E-02 0.  1.
        2   -1    0    0  501    0  0.00000000000E+00  0.00000000000E+00 -0.92614947991E+03  0.92614947991E+03  0.25500000920E-02 0. -1.
    10030    2    1    2    0    0  0.00000000000E+00  0.00000000000E+00 -0.39289981909E+02  0.18130089779E+04  0.18125831985E+04 0.  0.
        1    1    3    3  502    0  0.13346087980E+03 -0.67123901199E+03 -0.61391488011E+03  0.91938299837E+03  0.50400001928E-02 0. -1.
       -1    1    3    3    0  502 -0.13346087980E+03  0.67123901199E+03  0.57462489820E+03  0.89362597954E+03  0.50400001928E-02 0.  1.
</event>
<event>
 5   0  0.6395992E-05  0.1897775E+04  0.7818609E-02  0.8655965E-01
       -2   -1    0    0    0  501  0.00000000000E+00  0.00000000000E+00  0.49194607146E+03  0.49194607147E+03  0.25500000920E-02 0.  1.
        2   -1    0    0  501    0  0.00000000000E+00  0.00000000000E+00 -0.18302567396E+04  0.18302567396E+04  0.25500000920E-02 0. -1.
    10030    2    1    2    0    0  0.00000000000E+00  0.00000000000E+00 -0.13383106681E+04  0.23222028111E+04  0.18977751319E+04 0.  0.
        4    1    3    3  502    0 -0.94560718438E+03 -0.78605965128E+02 -0.66200407225E+03  0.11569800558E+04  0.12699999809E+01 0.  1.
       -4    1    3    3    0  502  0.94560718438E+03  0.78605965128E+02 -0.67630659589E+03  0.11652227553E+04  0.12699999809E+01 0. -1.
</event>
<event>
 5   0  0.3086139E-05  0.1908175E+04  0.7818609E-02  0.8650798E-01
        1   -1    0    0  501    0  0.00000000000E+00  0.00000000000E+00  0.63276714214E+03  0.63276714216E+03  0.50400001928E-02 0.  1.
       -1   -1    0    0    0  501  0.00000000000E+00  0.00000000000E+00 -0.14385743677E+04  0.14385743677E+04  0.50400001928E-02 0. -1.
    10030    2    1    2    0    0  0.00000000000E+00  0.00000000000E+00 -0.80580722555E+03  0.20713415098E+04  0.19081746161E+04 0.  0.
        2    1    3    3  502    0 -0.40326924166E+03 -0.37143956451E+03 -0.12504975295E+04  0.13654074493E+04  0.25500000920E-02 0. -1.
       -2    1    3    3    0  502  0.40326924166E+03  0.37143956451E+03  0.44469030397E+03  0.70593406052E+03  0.25500000920E-02 0.  1.
</event>
<event>
 5   0  0.6098377E-05  0.1895214E+04  0.7818609E-02  0.8657242E-01
       -2   -1    0    0    0  501  0.00000000000E+00  0.00000000000E+00  0.89405966766E+03  0.89405966766E+03  0.25500000920E-02 0.  1.
        2   -1    0    0  501    0  0.00000000000E+00  0.00000000000E+00 -0.10043618919E+04  0.10043618919E+04  0.25500000920E-02 0. -1.
    10030    2    1    2    0    0  0.00000000000E+00  0.00000000000E+00 -0.11030222428E+03  0.18984215596E+04  0.18952144568E+04 0.  0.
        5    1    3    3  502    0 -0.91898154349E+03  0.71113398933E+01  0.17623701527E+03  0.93576665039E+03  0.46999998093E+01 0. -1.
       -5    1    3    3    0  502  0.91898154349E+03 -0.71113398933E+01 -0.28653923956E+03  0.96265490922E+03  0.46999998093E+01 0.  1.
</event>
<event>
 5   0  0.3144958E-05  0.1894996E+04  0.7818609E-02  0.8657351E-01
       -1   -1    0    0    0  501  0.00000000000E+00  0.00000000000E+00  0.48555664327E+03  0.48555664330E+03  0.50400001928E-02 0. -1.
        1   -1    0    0  501    0  0.00000000000E+00  0.00000000000E+00 -0.18489141801E+04  0.18489141801E+04  0.50400001928E-02 0.  1.
    10030    2    1    2    0    0  0.00000000000E+00  0.00000000000E+00 -0.13633575368E+04  0.23344708234E+04  0.18949961087E+04 0.  0.
        4    1    3    3  502    0 -0.44677719080E+02 -0.93960102375E+03 -0.82162307145E+03  0.12489644778E+04  0.12699999809E+01 0.  1.
       -4    1    3    3    0  502  0.44677719080E+02  0.93960102375E+03 -0.54173446535E+03  0.10855063456E+04  0.12699999809E+01 0. -1.
</event>
<event>
 5   0  0.6361762E-05  0.1895029E+04  0.7818609E-02  0.8657335E-01
        2   -1    0    0  501    0  0.00000000000E+00  0.00000000000E+00  0.65309960172E+03  0.65309960173E+03  0.25500000920E-02 0.  1.
       -2   -1    0    0    0  501  0.00000000000E+00  0.00000000000E+00 -0.13746501601E+04  0.13746501601E+04  0.25500000920E-02 0. -1.
    10030    2    1    2    0    0  0.00000000000E+00  0.00000000000E+00 -0.72155055838E+03  0.20277497618E+04  0.18950287302E+04 0.  0.
        1    1    3    3  502    0  0.12525927450E+03  0.21711011216E+03  0.61698087835E+03  0.66595201849E+03  0.50400001928E-02 0.  1.
       -1    1    3    3    0  502 -0.12525927450E+03 -0.21711011216E+03 -0.13385314367E+04  0.13617977433E+04  0.50400001928E-02 0. -1.
</event>
<event>
 5   0  0.6098377E-05  0.1904117E+04  0.7818609E-02  0.8652810E-01
        2   -1    0    0  501    0  0.00000000000E+00  0.00000000000E+00  0.10799673223E+04  0.10799673223E+04  0.25500000920E-02 0.  1.
       -2   -1    0    0    0  501  0.00000000000E+00  0.00000000000E+00 -0.83929881447E+03  0.83929881448E+03  0.25500000920E-02 0. -1.
    10030    2    1    2    0    0  0.00000000000E+00  0.00000000000E+00  0.24066850785E+03  0.19192661368E+04  0.19041169011E+04 0.  0.
        5    1    3    3  502    0 -0.27490281014E+03 -0.10544604848E+03 -0.79224332966E+03  0.84519938923E+03  0.46999998093E+01 0. -1.
       -5    1    3    3    0  502  0.27490281014E+03  0.10544604848E+03  0.10329118375E+04  0.10740667476E+04  0.46999998093E+01 0.  1.
</event>
<event>
 5   0  0.6423388E-05  0.1902215E+04  0.7818609E-02  0.8653754E-01
       -2   -1    0    0    0  501  0.00000000000E+00  0.00000000000E+00  0.97301795221E+03  0.97301795221E+03  0.25500000920E-02 0. -1.
        2   -1    0    0  501    0  0.00000000000E+00  0.00000000000E+00 -0.92969076463E+03  0.92969076464E+03  0.25500000920E-02 0.  1.
    10030    2    1    2    0    0  0.00000000000E+00  0.00000000000E+00  0.43327187578E+02  0.19027087168E+04  0.19022153443E+04 0.  0.
        2    1    3    3  502    0  0.24338767036E+03  0.31510507941E+02  0.94080090530E+03  0.97228432755E+03  0.25500000920E-02 0. -1.
       -2    1    3    3    0  502 -0.24338767036E+03 -0.31510507941E+02 -0.89747371772E+03  0.93042438930E+03  0.25500000920E-02 0.  1.
</event>
<event>
 5   0  0.3203527E-05  0.1901233E+04  0.7818609E-02  0.8654243E-01
       -1   -1    0    0    0  501  0.00000000000E+00  0.00000000000E+00  0.59409814971E+03  0.59409814973E+03  0.50400001928E-02 0.  1.
        1   -1    0    0  501    0  0.00000000000E+00  0.00000000000E+00 -0.15210823337E+04  0.15210823337E+04  0.50400001928E-02 0. -1.
    10030    2    1    2    0    0  0.00000000000E+00  0.00000000000E+00 -0.92698418399E+03  0.21151804834E+04  0.19012334944E+04 0.  0.
        1    1    3    3  502    0 -0.94001561678E+03  0.45445028422E+02 -0.61266079200E+03  0.11229638714E+04  0.50400001928E-02 0. -1.
       -1    1    3    3    0  502  0.94001561678E+03 -0.45445028422E+02 -0.31432339198E+03  0.99221661203E+03  0.50400001928E-02 0.  1.
</event>
<event>
 5   0  0.3144958E-05  0.1895419E+04  0.7818609E-02  0.8657140E-01
        1   -1    0    0  501    0  0.00000000000E+00  0.00000000000E+00  0.15290286437E+04  0.15290286437E+04  0.50400001928E-02 0. -1.
       -1   -1    0    0    0  501  0.00000000000E+00  0.00000000000E+00 -0.58740108389E+03  0.58740108392E+03  0.50400001928E-02 0.  1.
    10030    2    1    2    0    0  0.00000000000E+00  0.00000000000E+00  0.94162755982E+03  0.21164297276E+04  0.18954187745E+04 0.  0.
        4    1    3    3  502    0 -0.54884203759E+03 -0.24800100137E+03 -0.34623074256E+03  0.69470095645E+03  0.12699999809E+01 0.  1.
       -4    1    3    3    0  502  0.54884203759E+03  0.24800100137E+03  0.12878583024E+04  0.14217287712E+04  0.12699999809E+01 0. -1.
</event>
<event>
 5   0  0.6423388E-05  0.1901147E+04  0.7818609E-02  0.8654286E-01
        2   -1    0    0  501    0  0.00000000000E+00  0.00000000000E+00  0.11947446840E+04  0.11947446840E+04  0.25500000920E-02 0. -1.
       -2   -1    0    0    0  501  0.00000000000E+00  0.00000000000E+00 -0.75630403099E+03  0.75630403099E+03  0.25500000920E-02 0.  1.
    10030    2    1    2    0    0  0.00000000000E+00  0.00000000000E+00  0.43844065302E+03  0.19510487150E+04  0.19011472542E+04 0.  0.
        2    1    3    3  502    0  0.86165996968E+02 -0.15536906378E+03 -0.73911411688E+03  0.76016695718E+03  0.25500000920E-02 0.  1.
       -2    1    3    3    0  502 -0.86165996968E+02  0.15536906378E+03  0.11775547699E+04  0.11908817578E+04  0.25500000920E-02 0. -1.
</event>
<event>
 5   0  0.6098377E-05  0.1899627E+04  0.7818609E-02  0.8655042E-01
       -2   -1    0    0    0  501  0.00000000000E+00  0.00000000000E+00  0.46051884738E+03  0.46051884739E+03  0.25500000920E-02 0. -1.
        2   -1    0    0  501    0  0.00000000000E+00  0.00000000000E+00 -0.19589773846E+04  0.19589773846E+04  0.25500000920E-02 0.  1.
    10030    2    1    2    0    0  0.00000000000E+00  0.00000000000E+00 -0.14984585372E+04  0.24194962319E+04  0.18996273394E+04 0.  0.
        5    1    3    3  502    0  0.45960879765E+03  0.52437768227E+03  0.72175304267E+02  0.70103035960E+03  0.46999998093E+01 0. -1.
       -5    1    3    3    0  502 -0.45960879765E+03 -0.52437768227E+03 -0.15706338414E+04  0.17184658723E+04  0.46999998093E+01 0.  1.
</event>
<event>
 5   0  0.3144958E-05  0.1897119E+04  0.7818609E-02  0.8656292E-01
        1   -1    0    0  501    0  0.00000000000E+00  0.00000000000E+00  0.93982181385E+03  0.93982181386E+03  0.50400001928E-02 0.  1.
       -1   -1    0    0    0  501  0.00000000000E+00  0.00000000000E+00 -0.95737802571E+03  0.95737802572E+03  0.50400001928E-02 0. -1.
    10030    2    1    2    0    0  0.00000000000E+00  0.00000000000E+00 -0.17556211862E+02  0.18971998396E+04  0.18971186075E+04 0.  0.
        4    1    3    3  502    0 -0.94070448901E+03 -0.30557635247E+02  0.10914401174E+03  0.94750869807E+03  0.12699999809E+01 0.  1.
       -4    1    3    3    0  502  0.94070448901E+03  0.30557635247E+02 -0.12670022360E+03  0.94969114152E+03  0.12699999809E+01 0. -1.
</event>
<event>
 5   0  0.3086139E-05  0.1914677E+04  0.7818609E-02  0.8647585E-01
       -1   -1    0    0    0  501  0.00000000000E+00  0.00000000000E+00  0.83567085338E+03  0.83567085340E+03  0.50400001928E-02 0.  1.
        1   -1    0    0  501    0  0.00000000000E+00  0.00000000000E+00 -0.10967196934E+04  0.10967196934E+04  0.50400001928E-02 0. -1.
    10030    2    1    2    0    0  0.00000000000E+00  0.00000000000E+00 -0.26104884000E+03  0.19323905468E+04  0.19146766642E+04 0.  0.
        2    1    3    3  502    0  0.45475968123E+03 -0.11182162234E+03 -0.97322610704E+03  0.10800368042E+04  0.25500000920E-02 0. -1.
       -2    1    3    3    0  502 -0.45475968123E+03  0.11182162234E+03  0.71217726704E+03  0.85235374264E+03  0.25500000920E-02 0.  1.
</event>
<event>
 5   0  0.6395992E-05  0.1893064E+04  0.7818609E-02  0.8658316E-01
       -2   -1    0    0    0  501  0.00000000000E+00  0.00000000000E+00  0.75509701961E+03  0.75509701961E+03  0.25500000920E-02 0. -1.
        2   -1    0    0  501    0  0.00000000000E+00  0.00000000000E+00 -0.11865007986E+04  0.11865007986E+04  0.25500000920E-02 0.  1.
    10030    2    1    2    0    0  0.00000000000E+00  0.00000000000E+00 -0.43140377899E+03  0.19415978182E+04  0.18930644118E+04 0.  0.
        4    1    3    3  502    0 -0.35523051708E+03 -0.69880635934E+02 -0.11126801151E+04  0.11700985749E+04  0.12699999809E+01 0.  1.
       -4    1    3    3    0  502  0.35523051708E+03  0.69880635934E+02  0.68127633606E+03  0.77149924337E+03  0.12699999809E+01 0. -1.
</event>
<event>
 5   0  0.2279625E-05  0.1898676E+04  0.7818609E-02  0.8655516E-01
       -3   -1    0    0    0  501  0.00000000000E+00  0.00000000000E+00  0.65372601955E+03  0.65372602736E+03  0.10100000352E+00 0. -1.
        3   -1    0    0  501    0  0.00000000000E+00  0.00000000000E+00 -0.13786244252E+04  0.13786244289E+04  0.10100000352E+00 0.  1.
    10030    2    1    2    0    0  0.00000000000E+00  0.00000000000E+00 -0.72489840567E+03  0.20323504563E+04  0.18986760331E+04 0.  0.
        4    1    3    3  502    0  0.67501575057E+03  0.39044895575E+03  0.21709762982E+03  0.80946256512E+03  0.12699999809E+01 0. -1.
       -4    1    3    3    0  502 -0.67501575057E+03 -0.39044895575E+03 -0.94199603550E+03  0.12228878912E+04  0.12699999809E+01 0.  1.
</event>
<event>
 5   0  0.6395992E-05  0.1889375E+04  0.7818609E-02  0.8660163E-01
       -2   -1    0    0    0  501  0.00000000000E+00  0.00000000000E+00  0.11285484712E+04  0.11285484712E+04  0.25500000920E-02 0.  1.
        2   -1    0    0  501    0  0.00000000000E+00  0.00000000000E+00 -0.79078110271E+03  0.79078110272E+03  0.25500000920E-02 0. -1.
    10030    2    1    2    0    0  0.00000000000E+00  0.00000000000E+00  0.33776736852E+03  0.19193295740E+04  0.18893753513E+04 0.  0.
        4    1    3    3  502    0  0.27104866768E+03 -0.42896224413E+03 -0.64059149668E+03  0.81721176304E+03  0.12699999809E+01 0. -1.
       -4    1    3    3    0  502 -0.27104866768E+03  0.42896224413E+03  0.97835886519E+03  0.11021178109E+04  0.12699999809E+01 0.  1.
</event>
<event>
 5   0  0.6395992E-05  0.1899695E+04  0.7818609E-02  0.8655008E-01
       -2   -1    0    0    0  501  0.00000000000E+00  0.00000000000E+00  0.72613006004E+03  0.72613006005E+03  0.25500000920E-02 0. -1.
        2   -1    0    0  501    0  0.00000000000E+00  0.00000000000E+00 -0.12424914943E+04  0.12424914943E+04  0.25500000920E-02 0.  1.
    10030    2    1    2    0    0  0.00000000000E+00  0.00000000000E+00 -0.51636143423E+03  0.19686215543E+04  0.18996951580E+04 0.  0.
        4    1    3    3  502    0 -0.22028001779E+01 -0.33921045819E+03  0.66121901497E+03  0.74315596340E+03  0.12699999809E+01 0. -1.
       -4    1    3    3    0  502  0.22028001779E+01  0.33921045819E+03 -0.11775804492E+04  0.12254655909E+04  0.12699999809E+01 0.  1.
</event>
<event>
 5   0  0.6098377E-05  0.1919322E+04  0.7818609E-02  0.8645298E-01
       -2   -1    0    0    0  501  0.00000000000E+00  0.00000000000E+00  0.63223866486E+03  0.63223866486E+03  0.25500000920E-02 0. -1.
        2   -1    0    0  501    0  0.00000000000E+00  0.00000000000E+00 -0.14566485282E+04  0.14566485282E+04  0.25500000920E-02 0.  1.
    10030    2    1    2    0    0  0.00000000000E+00  0.00000000000E+00 -0.82440986334E+03  0.20888871931E+04  0.19193222977E+04 0.  0.
        5    1    3    3  502    0 -0.17065144530E+03  0.93261136786E+03 -0.25062472544E+03  0.98067360638E+03  0.46999998093E+01 0. -1.
       -5    1    3    3    0  502  0.17065144530E+03 -0.93261136786E+03 -0.57378513790E+03  0.11082135867E+04  0.46999998093E+01 0.  1.
</event>
<event>
 5   0  0.3086139E-05  0.1904759E+04  0.7818609E-02  0.8652491E-01
       -1   -1    0    0    0  501  0.00000000000E+00  0.00000000000E+00  0.84483414297E+03  0.84483414298E+03  0.50400001928E-02 0.  1.
        1   -1    0    0  501    0  0.00000000000E+00  0.00000000000E+00 -0.10736150564E+04  0.10736150565E+04  0.50400001928E-02 0. -1.
    10030    2    1    2    0    0  0.00000000000E+00  0.00000000000E+00 -0.22878091348E+03  0.19184491994E+04  0.19047589413E+04 0.  0.
        2    1    3    3  502    0 -0.36887451741E+03 -0.76445571752E+03 -0.54942744784E+03  0.10111040867E+04  0.25500000920E-02 0. -1.
       -2    1    3    3    0  502  0.36887451741E+03  0.76445571752E+03  0.32064653436E+03  0.90734511276E+03  0.25500000920E-02 0.  1.
</event>
<event>
 5   0  0.3203527E-05  0.1910587E+04  0.7818609E-02  0.8649604E-01
       -1   -1    0    0    0  501  0.00000000000E+00  0.00000000000E+00  0.65719945403E+03  0.65719945405E+03  0.50400001928E-02 0. -1.
        1   -1    0    0  501    0  0.00000000000E+00  0.00000000000E+00 -0.13885984359E+04  0.13885984359E+04  0.50400001928E-02 0.  1.
    10030    2    1    2    0    0  0.00000000000E+00  0.00000000000E+00 -0.73139898183E+03  0.20457978899E+04  0.19105874845E+04 0.  0.
        1    1    3    3  502    0 -0.78810403428E+03 -0.27009652895E+03  0.13485041708E+03  0.84394593358E+03  0.50400001928E-02 0. -1.
       -1    1    3    3    0  502  0.78810403428E+03  0.27009652895E+03 -0.86624939891E+03  0.12018519563E+04  0.50400001928E-02 0.  1.
</event>
<event>
 5   0  0.3147063E-05  0.1892701E+04  0.7818609E-02  0.8658498E-01
       -1   -1    0    0    0  501  0.00000000000E+00  0.00000000000E+00  0.83892264905E+03  0.83892264907E+03  0.50400001928E-02 0. -1.
        1   -1    0    0  501    0  0.00000000000E+00  0.00000000000E+00 -0.10675345740E+04  0.10675345740E+04  0.50400001928E-02 0.  1.
    10030    2    1    2    0    0  0.00000000000E+00  0.00000000000E+00 -0.22861192491E+03  0.19064572230E+04  0.18927006449E+04 0.  0.
        5    1    3    3  502    0  0.57749402218E+03  0.65293895206E+03 -0.48539678587E+03  0.99772779379E+03  0.46999998093E+01 0.  1.
       -5    1    3    3    0  502 -0.57749402218E+03 -0.65293895206E+03  0.25678486096E+03  0.90872942925E+03  0.46999998093E+01 0. -1.
</event>
<event>
 5   0  0.6361762E-05  0.1900897E+04  0.7818609E-02  0.8654410E-01
        2   -1    0    0  501    0  0.00000000000E+00  0.00000000000E+00  0.88513657838E+03  0.88513657839E+03  0.25500000920E-02 0. -1.
       -2   -1    0    0    0  501  0.00000000000E+00  0.00000000000E+00 -0.10205800704E+04  0.10205800704E+04  0.25500000920E-02 0.  1.
    10030    2    1    2    0    0  0.00000000000E+00  0.00000000000E+00 -0.13544349198E+03  0.19057166487E+04  0.19008974212E+04 0.  0.
        1    1    3    3  502    0 -0.68382569765E+03 -0.24263282474E+03  0.54772750754E+03  0.90911698639E+03  0.50400001928E-02 0. -1.
       -1    1    3    3    0  502  0.68382569765E+03  0.24263282474E+03 -0.68317099951E+03  0.99659966236E+03  0.50400001928E-02 0.  1.
</event>
<event>
 5   0  0.6098377E-05  0.1880002E+04  0.7818609E-02  0.8664875E-01
       -2   -1    0    0    0  501  0.00000000000E+00  0.00000000000E+00  0.81334107438E+03  0.81334107439E+03  0.25500000920E-02 0.  1.
        2   -1    0    0  501    0  0.00000000000E+00  0.00000000000E+00 -0.10863853995E+04  0.10863853995E+04  0.25500000920E-02 0. -1.
    10030    2    1    2    0    0  0.00000000000E+00  0.00000000000E+00 -0.27304432511E+03  0.18997264739E+04  0.18800019873E+04 0.  0.
        5    1    3    3  502    0 -0.50298507818E+03 -0.13955410066E+03  0.65341513324E+03  0.83632694697E+03  0.46999998093E+01 0.  1.
       -5    1    3    3    0  502  0.50298507818E+03  0.13955410066E+03 -0.92645945835E+03  0.10633995269E+04  0.46999998093E+01 0. -1.
</event>
<event>
 5   0  0.6395992E-05  0.1897173E+04  0.7818609E-02  0.8656265E-01
       -2   -1    0    0    0  501  0.00000000000E+00  0.00000000000E+00  0.68488746524E+03  0.68488746525E+03  0.25500000920E-02 0.  1.
        2   -1    0    0  501    0  0.00000000000E+00  0.00000000000E+00 -0.13138162395E+04  0.13138162395E+04  0.25500000920E-02 0. -1.
    10030    2    1    2    0    0  0.00000000000E+00  0.00000000000E+00 -0.62892877426E+03  0.19987037047E+04  0.18971729221E+04 0.  0.
        4    1    3    3  502    0  0.58616766915E+03 -0.28789665723E+03  0.41035035907E+03  0.77127560035E+03  0.12699999809E+01 0.  1.
       -4    1    3    3    0  502 -0.58616766915E+03  0.28789665723E+03 -0.10392791333E+04  0.12274281044E+04  0.12699999809E+01 0. -1.
</event>
<event>
 5   0  0.3147063E-05  0.1904078E+04  0.7818609E-02  0.8652829E-01
       -1   -1    0    0    0  501  0.00000000000E+00  0.00000000000E+00  0.69203389048E+03  0.69203389050E+03  0.50400001928E-02 0. -1.
        1   -1    0    0  501    0  0.00000000000E+00  0.00000000000E+00 -0.13097313706E+04  0.13097313706E+04  0.50400001928E-02 0.  1.
    10030    2    1    2    0    0  0.00000000000E+00  0.00000000000E+00 -0.61769748016E+03  0.20017652611E+04  0.19040782504E+04 0.  0.
        5    1    3    3  502    0 -0.54009613924E+02 -0.85833729833E+03  0.12038270578E+03  0.86843194434E+03  0.46999998093E+01 0. -1.
       -5    1    3    3    0  502  0.54009613924E+02  0.85833729833E+03 -0.73808018594E+03  0.11333333168E+04  0.46999998093E+01 0.  1.
</event>
<event>
 5   0  0.3203527E-05  0.1899863E+04  0.7818609E-02  0.8654924E-01
       -1   -1    0    0    0  501  0.00000000000E+00  0.00000000000E+00  0.46906909810E+03  0.46906909813E+03  0.50400001928E-02 0.  1.
        1   -1    0    0  501    0  0.00000000000E+00  0.00000000000E+00 -0.19237468378E+04  0.19237468378E+04  0.50400001928E-02 0. -1.
    10030    2    1    2    0    0  0.00000000000E+00  0.00000000000E+00 -0.14546777397E+04  0.23928159359E+04  0.18998633574E+04 0.  0.
        1    1    3    3  502    0  0.28602448871E+03  0.20117272800E+03 -0.18397343179E+04  0.18726726450E+04  0.50400001928E-02 0. -1.
       -1    1    3    3    0  502 -0.28602448871E+03 -0.20117272800E+03  0.38505657826E+03  0.52014329094E+03  0.50400001928E-02 0.  1.
</event>
<event>
 5   0  0.3086139E-05  0.1914186E+04  0.7818609E-02  0.8647827E-01
       -1   -1    0    0    0  501  0.00000000000E+00  0.00000000000E+00  0.16963883479E+04  0.16963883479E+04  0.50400001928E-02 0. -1.
        1   -1    0    0  501    0  0.00000000000E+00  0.00000000000E+00 -0.53998685900E+03  0.53998685903E+03  0.50400001928E-02 0.  1.
    10030    2    1    2    0    0  0.00000000000E+00  0.00000000000E+00  0.11564014889E+04  0.22363752069E+04  0.19141864232E+04 0.  0.
        2    1    3    3  502    0 -0.62309234896E+03  0.72610025065E+03  0.55050976706E+03  0.11038689474E+04  0.25500000920E-02 0. -1.
       -2    1    3    3    0  502  0.62309234896E+03 -0.72610025065E+03  0.60589172181E+03  0.11325062595E+04  0.25500000920E-02 0.  1.
</event>
<event>
 5   0  0.3086139E-05  0.1905061E+04  0.7818609E-02  0.8652341E-01
        1   -1    0    0  501    0  0.00000000000E+00  0.00000000000E+00  0.94652591860E+03  0.94652591861E+03  0.50400001928E-02 0.  1.
       -1   -1    0    0    0  501  0.00000000000E+00  0.00000000000E+00 -0.95857341440E+03  0.95857341441E+03  0.50400001928E-02 0. -1.
    10030    2    1    2    0    0  0.00000000000E+00  0.00000000000E+00 -0.12047495800E+02  0.19050993330E+04  0.19050612396E+04 0.  0.
        2    1    3    3  502    0 -0.65968094493E+03 -0.67653534201E+00 -0.69315841925E+03  0.95689497908E+03  0.25500000920E-02 0. -1.
       -2    1    3    3    0  502  0.65968094493E+03  0.67653534201E+00  0.68111092345E+03  0.94820435395E+03  0.25500000920E-02 0.  1.
</event>
<event>
 5   0  0.3147063E-05  0.1899033E+04  0.7818609E-02  0.8655338E-01
       -1   -1    0    0    0  501  0.00000000000E+00  0.00000000000E+00  0.74354375750E+03  0.74354375752E+03  0.50400001928E-02 0. -1.
        1   -1    0    0  501    0  0.00000000000E+00  0.00000000000E+00 -0.12125473326E+04  0.12125473326E+04  0.50400001928E-02 0.  1.
    10030    2    1    2    0    0  0.00000000000E+00  0.00000000000E+00 -0.46900357512E+03  0.19560910902E+04  0.18990334382E+04 0.  0.
        5    1    3    3  502    0 -0.31018476197E+03  0.10948997917E+03  0.68296608509E+03  0.75806820635E+03  0.46999998093E+01 0. -1.
       -5    1    3    3    0  502  0.31018476197E+03 -0.10948997917E+03 -0.11519696602E+04  0.11980228838E+04  0.46999998093E+01 0.  1.
</event>
<event>
 5   0  0.6361762E-05  0.1891156E+04  0.7818609E-02  0.8659271E-01
       -2   -1    0    0    0  501  0.00000000000E+00  0.00000000000E+00  0.46079239690E+03  0.46079239691E+03  0.25500000920E-02 0. -1.
        2   -1    0    0  501    0  0.00000000000E+00  0.00000000000E+00 -0.19403926391E+04  0.19403926391E+04  0.25500000920E-02 0.  1.
    10030    2    1    2    0    0  0.00000000000E+00  0.00000000000E+00 -0.14796002422E+04  0.24011850360E+04  0.18911564453E+04 0.  0.
        1    1    3    3  502    0  0.81290630889E+02  0.51346870377E+03 -0.17426633465E+04  0.18185526706E+04  0.50400001928E-02 0.  1.
       -1    1    3    3    0  502 -0.81290630889E+02 -0.51346870377E+03  0.26306310428E+03  0.58263236546E+03  0.50400001928E-02 0. -1.
</event>
<event>
 5   0  0.3086139E-05  0.1893906E+04  0.7818609E-02  0.8657896E-01
        1   -1    0    0  501    0  0.00000000000E+00  0.00000000000E+00  0.65614769896E+03  0.65614769898E+03  0.50400001928E-02 0. -1.
       -1   -1    0    0    0  501  0.00000000000E+00  0.00000000000E+00 -0.13666432147E+04  0.13666432147E+04  0.50400001928E-02 0.  1.
    10030    2    1    2    0    0  0.00000000000E+00  0.00000000000E+00 -0.71049551576E+03  0.20227909137E+04  0.18939058062E+04 0.  0.
        2    1    3    3  502    0  0.14607201616E+03  0.52814033400E+03  0.46961147880E+03  0.72166764326E+03  0.25500000920E-02 0. -1.
       -2    1    3    3    0  502 -0.14607201616E+03 -0.52814033400E+03 -0.11801069946E+04  0.13011232704E+04  0.25500000920E-02 0.  1.
</event>
<event>
 5   0  0.3203527E-05  0.1903352E+04  0.7818609E-02  0.8653190E-01
       -1   -1    0    0    0  501  0.00000000000E+00  0.00000000000E+00  0.59241239069E+03  0.59241239072E+03  0.50400001928E-02 0.  1.
        1   -1    0    0  501    0  0.00000000000E+00  0.00000000000E+00 -0.15288123737E+04  0.15288123737E+04  0.50400001928E-02 0. -1.
    10030    2    1    2    0    0  0.00000000000E+00  0.00000000000E+00 -0.93639998298E+03  0.21212247644E+04  0.19033521936E+04 0.  0.
        1    1    3    3  502    0  0.37156420888E+03  0.19566171286E+03  0.48357374583E+03  0.64045845679E+03  0.50400001928E-02 0.  1.
       -1    1    3    3    0  502 -0.37156420888E+03 -0.19566171286E+03 -0.14199737288E+04  0.14807663076E+04  0.50400001928E-02 0. -1.
</event>
<event>
 5   0  0.6395992E-05  0.1886136E+04  0.7818609E-02  0.8661788E-01
       -2   -1    0    0    0  501  0.00000000000E+00  0.00000000000E+00  0.13890291622E+04  0.13890291622E+04  0.25500000920E-02 0.  1.
        2   -1    0    0  501    0  0.00000000000E+00  0.00000000000E+00 -0.64028729049E+03  0.64028729050E+03  0.25500000920E-02 0. -1.
    10030    2    1    2    0    0  0.00000000000E+00  0.00000000000E+00  0.74874187171E+03  0.20293164527E+04  0.18861364942E+04 0.  0.
        4    1    3    3  502    0 -0.53892448172E+02 -0.76981268620E+03 -0.20886865598E+03  0.79946463096E+03  0.12699999809E+01 0. -1.
       -4    1    3    3    0  502  0.53892448172E+02  0.76981268620E+03  0.95761052769E+03  0.12298518217E+04  0.12699999809E+01 0.  1.
</event>
<event>
 5   0  0.3147063E-05  0.1919763E+04  0.7818609E-02  0.8645081E-01
       -1   -1    0    0    0  501  0.00000000000E+00  0.00000000000E+00  0.18410320181E+04  0.18410320181E+04  0.50400001928E-02 0.  1.
        1   -1    0    0  501    0  0.00000000000E+00  0.00000000000E+00 -0.50046510678E+03  0.50046510680E+03  0.50400001928E-02 0. -1.
    10030    2    1    2    0    0  0.00000000000E+00  0.00000000000E+00  0.13405669114E+04  0.23414971250E+04  0.19197627828E+04 0.  0.
        5    1    3    3  502    0  0.95035218721E+02 -0.63618916281E+03 -0.19867518041E+03  0.67324754807E+03  0.46999998093E+01 0. -1.
       -5    1    3    3    0  502 -0.95035218721E+02  0.63618916281E+03  0.15392420918E+04  0.16682495769E+04  0.46999998093E+01 0.  1.
</event>
<event>
 5   0  0.3147063E-05  0.1898844E+04  0.7818609E-02  0.8655432E-01
        1   -1    0    0  501    0  0.00000000000E+00  0.00000000000E+00  0.83389532996E+03  0.83389532997E+03  0.50400001928E-02 0.  1.
       -1   -1    0    0    0  501  0.00000000000E+00  0.00000000000E+00 -0.10809538778E+04  0.10809538779E+04  0.50400001928E-02 0. -1.
    10030    2    1    2    0    0  0.00000000000E+00  0.00000000000E+00 -0.24705854788E+03  0.19148492078E+04  0.18988442702E+04 0.  0.
        5    1    3    3  502    0 -0.40070205574E+03  0.64930957672E+03  0.44622427293E+03  0.88391360191E+03  0.46999998093E+01 0.  1.
       -5    1    3    3    0  502  0.40070205574E+03 -0.64930957672E+03 -0.69328282081E+03  0.10309356059E+04  0.46999998093E+01 0. -1.
</event>
<event>
 5   0  0.3086139E-05  0.1897010E+04  0.7818609E-02  0.8656346E-01
       -1   -1    0    0    0  501  0.00000000000E+00  0.00000000000E+00  0.54146831875E+03  0.54146831877E+03  0.50400001928E-02 0. -1.
        1   -1    0    0  501    0  0.00000000000E+00  0.00000000000E+00 -0.16615219570E+04  0.16615219570E+04  0.50400001928E-02 0.  1.
    10030    2    1    2    0    0  0.00000000000E+00  0.00000000000E+00 -0.11200536383E+04  0.22029902758E+04  0.18970097529E+04 0.  0.
        2    1    3    3  502    0  0.93341728969E+03  0.26293909513E+02 -0.36674060232E+03  0.10032237416E+04  0.25500000920E-02 0. -1.
       -2    1    3    3    0  502 -0.93341728969E+03 -0.26293909513E+02 -0.75331303594E+03  0.11997665342E+04  0.25500000920E-02 0.  1.
</event>
<event>
 5   0  0.6361762E-05  0.1901451E+04  0.7818609E-02  0.8654134E-01
       -2   -1    0    0    0  501  0.00000000000E+00  0.00000000000E+00  0.28189120896E+03  0.28189120897E+03  0.25500000920E-02 0. -1.
        2   -1    0    0  501    0  0.00000000000E+00  0.00000000000E+00 -0.32064829836E+04  0.32064829836E+04  0.25500000920E-02 0.  1.
    10030    2    1    2    0    0  0.00000000000E+00  0.00000000000E+00 -0.29245917747E+04  0.34883741926E+04  0.19014514086E+04 0.  0.
        1    1    3    3  502    0 -0.81650866617E+02 -0.70614104653E+03 -0.26205240651E+04  0.27152252977E+04  0.50400001928E-02 0.  1.
       -1    1    3    3    0  502  0.81650866617E+02  0.70614104653E+03 -0.30406770957E+03  0.77314889487E+03  0.50400001928E-02 0. -1.
</event>
<event>
 5   0  0.3144958E-05  0.1912069E+04  0.7818609E-02  0.8648872E-01
       -1   -1    0    0    0  501  0.00000000000E+00  0.00000000000E+00  0.62652562136E+03  0.62652562139E+03  0.50400001928E-02 0.  1.
        1   -1    0    0  501    0  0.00000000000E+00  0.00000000000E+00 -0.14588422118E+04  0.14588422118E+04  0.50400001928E-02 0. -1.
    10030    2    1    2    0    0  0.00000000000E+00  0.00000000000E+00 -0.83231659042E+03  0.20853678332E+04  0.19120690607E+04 0.  0.
        4    1    3    3  502    0  0.76297037901E+03 -0.47118251085E+03 -0.54660117112E+02  0.89840196966E+03  0.12699999809E+01 0. -1.
       -4    1    3    3    0  502 -0.76297037901E+03  0.47118251085E+03 -0.77765647331E+03  0.11869658635E+04  0.12699999809E+01 0.  1.
</event>
<event>
 5   0  0.6361762E-05  0.1896224E+04  0.7818609E-02  0.8656738E-01
        2   -1    0    0  501    0  0.00000000000E+00  0.00000000000E+00  0.17392504419E+04  0.17392504419E+04  0.25500000920E-02 0. -1.
       -2   -1    0    0    0  501  0.00000000000E+00  0.00000000000E+00 -0.51684138910E+03  0.51684138911E+03  0.25500000920E-02 0.  1.
    10030    2    1    2    0    0  0.00000000000E+00  0.00000000000E+00  0.12224090528E+04  0.22560918310E+04  0.18962242635E+04 0.  0.
        1    1    3    3  502    0 -0.49535396060E+03 -0.71957978256E+03  0.17284484599E+03  0.89053127433E+03  0.50400001928E-02 0.  1.
       -1    1    3    3    0  502  0.49535396060E+03  0.71957978256E+03  0.10495642068E+04  0.13655605567E+04  0.50400001928E-02 0. -1.
</event>
<event>
 5   0  0.6452182E-05  0.1899012E+04  0.7818609E-02  0.8655349E-01
       -2   -1    0    0    0  501  0.00000000000E+00  0.00000000000E+00  0.82823938415E+03  0.82823938415E+03  0.25500000920E-02 0.  1.
        2   -1    0    0  501    0  0.00000000000E+00  0.00000000000E+00 -0.10885272908E+04  0.10885272908E+04  0.25500000920E-02 0. -1.
    10030    2    1    2    0    0  0.00000000000E+00  0.00000000000E+00 -0.26028790667E+03  0.19167666750E+04  0.18990115039E+04 0.  0.
        3    1    3    3  502    0  0.38226385412E+03 -0.26779707679E+02 -0.10070117301E+04  0.10774578608E+04  0.10100000352E+00 0. -1.
       -3    1    3    3    0  502 -0.38226385412E+03  0.26779707679E+02  0.74672382345E+03  0.83930881421E+03  0.10100000352E+00 0.  1.
</event>
<event>
 5   0  0.6452182E-05  0.1907143E+04  0.7818609E-02  0.8651309E-01
        2   -1    0    0  501    0  0.00000000000E+00  0.00000000000E+00  0.82979720916E+03  0.82979720916E+03  0.25500000920E-02 0. -1.
       -2   -1    0    0    0  501  0.00000000000E+00  0.00000000000E+00 -0.10958078721E+04  0.10958078721E+04  0.25500000920E-02 0.  1.
    10030    2    1    2    0    0  0.00000000000E+00  0.00000000000E+00 -0.26601066296E+03  0.19256050813E+04  0.19071426943E+04 0.  0.
        3    1    3    3  502    0  0.14313838244E+03 -0.81283039236E+03 -0.61524435026E+03  0.10294209363E+04  0.10100000352E+00 0.  1.
       -3    1    3    3    0  502 -0.14313838244E+03  0.81283039236E+03  0.34923368730E+03  0.89618414504E+03  0.10100000352E+00 0. -1.
</event>
<event>
 5   0  0.3203527E-05  0.1899423E+04  0.7818609E-02  0.8655144E-01
        1   -1    0    0  501    0  0.00000000000E+00  0.00000000000E+00  0.75313909103E+03  0.75313909104E+03  0.50400001928E-02 0.  1.
       -1   -1    0    0    0  501  0.00000000000E+00  0.00000000000E+00 -0.11975902803E+04  0.11975902803E+04  0.50400001928E-02 0. -1.
    10030    2    1    2    0    0  0.00000000000E+00  0.00000000000E+00 -0.44445118923E+03  0.19507293713E+04  0.18994231283E+04 0.  0.
        1    1    3    3  502    0  0.31783913608E+03  0.18838867713E+03  0.67630090650E+03  0.77064578520E+03  0.50400001928E-02 0.  1.
       -1    1    3    3    0  502 -0.31783913608E+03 -0.18838867713E+03 -0.11207520957E+04  0.11800835861E+04  0.50400001928E-02 0. -1.
</event>
<event>
 5   0  0.3147063E-05  0.1900151E+04  0.7818609E-02  0.8654781E-01
       -1   -1    0    0    0  501  0.00000000000E+00  0.00000000000E+00  0.11563399432E+04  0.11563399432E+04  0.50400001928E-02 0.  1.
        1   -1    0    0  501    0  0.00000000000E+00  0.00000000000E+00 -0.78060399575E+03  0.78060399577E+03  0.50400001928E-02 0. -1.
    10030    2    1    2    0    0  0.00000000000E+00  0.00000000000E+00  0.37573594743E+03  0.19369439390E+04  0.19001511310E+04 0.  0.
        5    1    3    3  502    0 -0.16803326643E+03 -0.36941275415E+03  0.10635243265E+04  0.11383352075E+04  0.46999998093E+01 0.  1.
       -5    1    3    3    0  502  0.16803326643E+03  0.36941275415E+03 -0.68778837908E+03  0.79860873146E+03  0.46999998093E+01 0. -1.
</event>
<event>
 5   0  0.6452182E-05  0.1895049E+04  0.7818609E-02  0.8657325E-01
        2   -1    0    0  501    0  0.00000000000E+00  0.00000000000E+00  0.45892424970E+03  0.45892424971E+03  0.25500000920E-02 0.  1.
       -2   -1    0    0    0  501  0.00000000000E+00  0.00000000000E+00 -0.19563192041E+04  0.19563192041E+04  0.25500000920E-02 0. -1.
    10030    2    1    2    0    0  0.00000000000E+00  0.00000000000E+00 -0.14973949544E+04  0.24152434538E+04  0.18950486251E+04 0.  0.
        3    1    3    3  502    0 -0.16612028891E+02  0.94072050749E+03 -0.89159684432E+03  0.12962160220E+04  0.10100000352E+00 0. -1.
       -3    1    3    3    0  502  0.16612028891E+02 -0.94072050749E+03 -0.60579811004E+03  0.11190274318E+04  0.10100000352E+00 0.  1.
</event>
<event>
 5   0  0.3147063E-05  0.1900658E+04  0.7818609E-02  0.8654529E-01
        1   -1    0    0  501    0  0.00000000000E+00  0.00000000000E+00  0.97004395747E+03  0.97004395748E+03  0.50400001928E-02 0.  1.
       -1   -1    0    0    0  501  0.00000000000E+00  0.00000000000E+00 -0.93101441809E+03  0.93101441811E+03  0.50400001928E-02 0. -1.
    10030    2    1    2    0    0  0.00000000000E+00  0.00000000000E+00  0.39029539375E+02  0.19010583756E+04  0.19006576868E+04 0.  0.
        5    1    3    3  502    0  0.78497251087E+03  0.51313146130E+03  0.17322566707E+03  0.95368493808E+03  0.46999998093E+01 0.  1.
       -5    1    3    3    0  502 -0.78497251087E+03 -0.51313146130E+03 -0.13419612770E+03  0.94737343750E+03  0.46999998093E+01 0. -1.
</event>
<event>
 5   0  0.6423388E-05  0.1899107E+04  0.7818609E-02  0.8655301E-01
        2   -1    0    0  501    0  0.00000000000E+00  0.00000000000E+00  0.19549814595E+04  0.19549814595E+04  0.25500000920E-02 0. -1.
       -2   -1    0    0    0  501  0.00000000000E+00  0.00000000000E+00 -0.46120751679E+03  0.46120751680E+03  0.25500000920E-02 0.  1.
    10030    2    1    2    0    0  0.00000000000E+00  0.00000000000E+00  0.14937739427E+04  0.24161889763E+04  0.18991073106E+04 0.  0.
        2    1    3    3  502    0  0.68974581361E+02  0.74515740780E+03  0.14905267761E+04  0.16678390586E+04  0.25500000920E-02 0. -1.
       -2    1    3    3    0  502 -0.68974581361E+02 -0.74515740780E+03  0.32471666849E+01  0.74834991773E+03  0.25500000920E-02 0.  1.
</event>
<event>
 5   0  0.3083469E-05  0.1903739E+04  0.7818609E-02  0.8652997E-01
       -1   -1    0    0    0  501  0.00000000000E+00  0.00000000000E+00  0.56328196341E+03  0.56328196344E+03  0.50400001928E-02 0.  1.
        1   -1    0    0  501    0  0.00000000000E+00  0.00000000000E+00 -0.16085295534E+04  0.16085295534E+04  0.50400001928E-02 0. -1.
    10030    2    1    2    0    0  0.00000000000E+00  0.00000000000E+00 -0.10452475900E+04  0.21718115169E+04  0.19037391472E+04 0.  0.
        3    1    3    3  502    0  0.12523651802E+03  0.86309251868E+03 -0.95769545539E+03  0.12952966752E+04  0.10100000352E+00 0. -1.
       -3    1    3    3    0  502 -0.12523651802E+03 -0.86309251868E+03 -0.87552134643E+02  0.87651484171E+03  0.10100000352E+00 0.  1.
</event>
<event>
 5   0  0.3203527E-05  0.1863006E+04  0.7818609E-02  0.8673493E-01
        1   -1    0    0  501    0  0.00000000000E+00  0.00000000000E+00  0.48832513353E+03  0.48832513355E+03  0.50400001928E-02 0. -1.
       -1   -1    0    0    0  501  0.00000000000E+00  0.00000000000E+00 -0.17768855451E+04  0.17768855452E+04  0.50400001928E-02 0.  1.
    10030    2    1    2    0    0  0.00000000000E+00  0.00000000000E+00 -0.12885604116E+04  0.22652106787E+04  0.18630060345E+04 0.  0.
        1    1    3    3  502    0 -0.79450608451E+03 -0.39750294528E+03 -0.30372380707E+03  0.93888053598E+03  0.50400001928E-02 0. -1.
       -1    1    3    3    0  502  0.79450608451E+03  0.39750294528E+03 -0.98483660455E+03  0.13263301427E+04  0.50400001928E-02 0.  1.
</event>
<event>
 5   0  0.3144958E-05  0.1900385E+04  0.7818609E-02  0.8654665E-01
        1   -1    0    0  501    0  0.00000000000E+00  0.00000000000E+00  0.10759785179E+04  0.10759785179E+04  0.50400001928E-02 0. -1.
       -1   -1    0    0    0  501  0.00000000000E+00  0.00000000000E+00 -0.83911148758E+03  0.83911148759E+03  0.50400001928E-02 0.  1.
    10030    2    1    2    0    0  0.00000000000E+00  0.00000000000E+00  0.23686703031E+03  0.19150900055E+04  0.19003851555E+04 0.  0.
        4    1    3    3  502    0  0.28061681780E+03 -0.37599688216E+03  0.95111092504E+03  0.10605343269E+04  0.12699999809E+01 0. -1.
       -4    1    3    3    0  502 -0.28061681780E+03  0.37599688216E+03 -0.71424389472E+03  0.85455567863E+03  0.12699999809E+01 0.  1.
</event>
<event>
 5   0  0.6395992E-05  0.1902229E+04  0.7818609E-02  0.8653748E-01
        2   -1    0    0  501    0  0.00000000000E+00  0.00000000000E+00  0.13819938316E+04  0.13819938316E+04  0.25500000920E-02 0. -1.
       -2   -1    0    0    0  501  0.00000000000E+00  0.00000000000E+00 -0.65457508157E+03  0.65457508157E+03  0.25500000920E-02 0.  1.
    10030    2    1    2    0    0  0.00000000000E+00  0.00000000000E+00  0.72741875007E+03  0.20365689132E+04  0.19022289295E+04 0.  0.
        4    1    3    3  502    0 -0.12645228074E+03  0.37028566105E+03  0.12918318474E+04  0.13497899040E+04  0.12699999809E+01 0. -1.
       -4    1    3    3    0  502  0.12645228074E+03 -0.37028566105E+03 -0.56441309736E+03  0.68677900918E+03  0.12699999809E+01 0.  1.
</event>
<event>
 5   0  0.3083469E-05  0.1902732E+04  0.7818609E-02  0.8653498E-01
        1   -1    0    0  501    0  0.00000000000E+00  0.00000000000E+00  0.11597468283E+04  0.11597468283E+04  0.50400001928E-02 0.  1.
       -1   -1    0    0    0  501  0.00000000000E+00  0.00000000000E+00 -0.78042638741E+03  0.78042638742E+03  0.50400001928E-02 0. -1.
    10030    2    1    2    0    0  0.00000000000E+00  0.00000000000E+00  0.37932044090E+03  0.19401732157E+04  0.19027317494E+04 0.  0.
        3    1    3    3  502    0  0.76498850868E+03 -0.34148659736E+03 -0.27007368056E+03  0.88020470217E+03  0.10100000352E+00 0. -1.
       -3    1    3    3    0  502 -0.76498850868E+03  0.34148659736E+03  0.64939412146E+03  0.10599685136E+04  0.10100000352E+00 0.  1.
</event>
<event>
 5   0  0.3147063E-05  0.1912638E+04  0.7818609E-02  0.8648591E-01
        1   -1    0    0  501    0  0.00000000000E+00  0.00000000000E+00  0.13176207386E+04  0.13176207386E+04  0.50400001928E-02 0.  1.
       -1   -1    0    0    0  501  0.00000000000E+00  0.00000000000E+00 -0.69408886337E+03  0.69408886339E+03  0.50400001928E-02 0. -1.
    10030    2    1    2    0    0  0.00000000000E+00  0.00000000000E+00  0.62353187518E+03  0.20117096019E+04  0.19126378442E+04 0.  0.
        5    1    3    3  502    0  0.14465620525E+03 -0.89119068347E+03 -0.19805156636E+02  0.90308393089E+03  0.46999998093E+01 0. -1.
       -5    1    3    3    0  502 -0.14465620525E+03  0.89119068347E+03  0.64333703182E+03  0.11086256711E+04  0.46999998093E+01 0.  1.
</event>
<event>
 5   0  0.3144958E-05  0.1894855E+04  0.7818609E-02  0.8657422E-01
        1   -1    0    0  501    0  0.00000000000E+00  0.00000000000E+00  0.92916559370E+03  0.92916559372E+03  0.50400001928E-02 0. -1.
       -1   -1    0    0    0  501  0.00000000000E+00  0.00000000000E+00 -0.96604784559E+03  0.96604784561E+03  0.50400001928E-02 0.  1.
    10030    2    1    2    0    0  0.00000000000E+00  0.00000000000E+00 -0.36882251891E+02  0.18952134393E+04  0.18948545274E+04 0.  0.
        4    1    3    3  502    0 -0.16052103301E+03  0.26074418534E+03 -0.91519462006E+03  0.96505820432E+03  0.12699999809E+01 0.  1.
       -4    1    3    3    0  502  0.16052103301E+03 -0.26074418534E+03  0.87831236817E+03  0.93015523501E+03  0.12699999809E+01 0. -1.
</event>
<event>
 5   0  0.6423388E-05  0.1897983E+04  0.7818609E-02  0.8655861E-01
       -2   -1    0    0    0  501  0.00000000000E+00  0.00000000000E+00  0.67154022123E+03  0.67154022123E+03  0.25500000920E-02 0. -1.
        2   -1    0    0  501    0  0.00000000000E+00  0.00000000000E+00 -0.13410742063E+04  0.13410742063E+04  0.25500000920E-02 0.  1.
    10030    2    1    2    0    0  0.00000000000E+00  0.00000000000E+00 -0.66953398508E+03  0.20126144275E+04  0.18979834237E+04 0.  0.
        2    1    3    3  502    0 -0.86913157124E+03  0.37918758974E+03 -0.29491594222E+03  0.99305001350E+03  0.25500000920E-02 0.  1.
       -2    1    3    3    0  502  0.86913157124E+03 -0.37918758974E+03 -0.37461804286E+03  0.10195644140E+04  0.25500000920E-02 0. -1.
</event>
<event>
 5   0  0.6395992E-05  0.1900922E+04  0.7818609E-02  0.8654398E-01
        2   -1    0    0  501    0  0.00000000000E+00  0.00000000000E+00  0.12608411241E+04  0.12608411241E+04  0.25500000920E-02 0. -1.
       -2   -1    0    0    0  501  0.00000000000E+00  0.00000000000E+00 -0.71648690758E+03  0.71648690758E+03  0.25500000920E-02 0.  1.
    10030    2    1    2    0    0  0.00000000000E+00  0.00000000000E+00  0.54435421653E+03  0.19773280317E+04  0.19009220478E+04 0.  0.
        4    1    3    3  502    0 -0.61136589081E+03 -0.23637954697E+03  0.98812319384E+03  0.11857624559E+04  0.12699999809E+01 0. -1.
       -4    1    3    3    0  502  0.61136589081E+03  0.23637954697E+03 -0.44376897731E+03  0.79156557581E+03  0.12699999809E+01 0.  1.
</event>
<event>
 5   0  0.6395992E-05  0.1901790E+04  0.7818609E-02  0.8653966E-01
        2   -1    0    0  501    0  0.00000000000E+00  0.00000000000E+00  0.15048329934E+04  0.15048329934E+04  0.25500000920E-02 0. -1.
       -2   -1    0    0    0  501  0.00000000000E+00  0.00000000000E+00 -0.60086502691E+03  0.60086502692E+03  0.25500000920E-02 0.  1.
    10030    2    1    2    0    0  0.00000000000E+00  0.00000000000E+00  0.90396796649E+03  0.21056980203E+04  0.19017902272E+04 0.  0.
        4    1    3    3  502    0  0.34412614587E+03  0.50884126885E+03 -0.35169040453E+03  0.70783472273E+03  0.12699999809E+01 0.  1.
       -4    1    3    3    0  502 -0.34412614587E+03 -0.50884126885E+03  0.12556583710E+04  0.13978632976E+04  0.12699999809E+01 0. -1.
</event>
<event>
 5   0  0.3144958E-05  0.1901488E+04  0.7818609E-02  0.8654116E-01
        1   -1    0    0  501    0  0.00000000000E+00  0.00000000000E+00  0.11560406141E+04  0.11560406141E+04  0.50400001928E-02 0.  1.
       -1   -1    0    0    0  501  0.00000000000E+00  0.00000000000E+00 -0.78190532807E+03  0.78190532809E+03  0.50400001928E-02 0. -1.
    10030    2    1    2    0    0  0.00000000000E+00  0.00000000000E+00  0.37413528601E+03  0.19379459422E+04  0.19014881705E+04 0.  0.
        4    1    3    3  502    0 -0.68872400916E+03 -0.65541737036E+03  0.18695334316E+03  0.96895090463E+03  0.12699999809E+01 0.  1.
       -4    1    3    3    0  502  0.68872400916E+03  0.65541737036E+03  0.18718194285E+03  0.96899503755E+03  0.12699999809E+01 0. -1.
</event>
<event>
 5   0  0.6423388E-05  0.1899128E+04  0.7818609E-02  0.8655290E-01
        2   -1    0    0  501    0  0.00000000000E+00  0.00000000000E+00  0.14320095707E+04  0.14320095707E+04  0.25500000920E-02 0.  1.
       -2   -1    0    0    0  501  0.00000000000E+00  0.00000000000E+00 -0.62965510446E+03  0.62965510446E+03  0.25500000920E-02 0. -1.
    10030    2    1    2    0    0  0.00000000000E+00  0.00000000000E+00  0.80235446620E+03  0.20616646751E+04  0.18991283641E+04 0.  0.
        2    1    3    3  502    0  0.40124012068E+03  0.73836397877E+03  0.88116913415E+03  0.12176346096E+04  0.25500000920E-02 0.  1.
       -2    1    3    3    0  502 -0.40124012068E+03 -0.73836397877E+03 -0.78814667942E+02  0.84403006550E+03  0.25500000920E-02 0. -1.
</event>
<event>
 5   0  0.6395992E-05  0.1975028E+04  0.7818609E-02  0.8618386E-01
        2   -1    0    0  501    0  0.00000000000E+00  0.00000000000E+00  0.28160192053E+04  0.28160192053E+04  0.25500000920E-02 0.  1.
       -2   -1    0    0    0  501  0.00000000000E+00  0.00000000000E+00 -0.34629876866E+03  0.34629876867E+03  0.25500000920E-02 0. -1.
    10030    2    1    2    0    0  0.00000000000E+00  0.00000000000E+00  0.24697204367E+04  0.31623179740E+04  0.19750280842E+04 0.  0.
        4    1    3    3  502    0  0.18378173700E+03 -0.61096030852E+02  0.27853116954E+04  0.27920371247E+04  0.12699999809E+01 0.  1.
       -4    1    3    3    0  502 -0.18378173700E+03  0.61096030852E+02 -0.31559125879E+03  0.37028084931E+03  0.12699999809E+01 0. -1.
</event>
<event>
 5   0  0.6098377E-05  0.1901265E+04  0.7818609E-02  0.8654227E-01
        2   -1    0    0  501    0  0.00000000000E+00  0.00000000000E+00  0.53354705432E+03  0.53354705432E+03  0.25500000920E-02 0. -1.
       -2   -1    0    0    0  501  0.00000000000E+00  0.00000000000E+00 -0.16937622346E+04  0.16937622346E+04  0.25500000920E-02 0.  1.
    10030    2    1    2    0    0  0.00000000000E+00  0.00000000000E+00 -0.11602151803E+04  0.22273092890E+04  0.19012646854E+04 0.  0.
        5    1    3    3  502    0  0.43815371022E+03  0.77293788176E+03 -0.97611242144E+03  0.13199352985E+04  0.46999998093E+01 0.  1.
       -5    1    3    3    0  502 -0.43815371022E+03 -0.77293788176E+03 -0.18410275890E+03  0.90737399051E+03  0.46999998093E+01 0. -1.
</event>
<event>
 5   0  0.2279625E-05  0.1883041E+04  0.7818609E-02  0.8663344E-01
        4   -1    0    0  501    0  0.00000000000E+00  0.00000000000E+00  0.10231325612E+04  0.10231333494E+04  0.12699999809E+01 0. -1.
       -4   -1    0    0    0  501  0.00000000000E+00  0.00000000000E+00 -0.86641692282E+03  0.86641785361E+03  0.12699999809E+01 0.  1.
    10030    2    1    2    0    0  0.00000000000E+00  0.00000000000E+00  0.15671563838E+03  0.18895512030E+04  0.18830411460E+04 0.  0.
        5    1    3    3  502    0  0.58576763892E+03 -0.68280764286E+03 -0.20025094030E+03  0.92166834222E+03  0.46999998093E+01 0.  1.
       -5    1    3    3    0  502 -0.58576763892E+03  0.68280764286E+03  0.35696657868E+03  0.96788286081E+03  0.46999998093E+01 0. -1.
</event>
<event>
 5   0  0.6098377E-05  0.1889193E+04  0.7818609E-02  0.8660254E-01
       -2   -1    0    0    0  501  0.00000000000E+00  0.00000000000E+00  0.60140654805E+03  0.60140654806E+03  0.25500000920E-02 0.  1.
        2   -1    0    0  501    0  0.00000000000E+00  0.00000000000E+00 -0.14836262202E+04  0.14836262202E+04  0.25500000920E-02 0. -1.
    10030    2    1    2    0    0  0.00000000000E+00  0.00000000000E+00 -0.88221967213E+03  0.20850327682E+04  0.18891929745E+04 0.  0.
        5    1    3    3  502    0 -0.82409173324E+03  0.42135235102E+03 -0.23294290741E+03  0.95443673264E+03  0.46999998093E+01 0.  1.
       -5    1    3    3    0  502  0.82409173324E+03 -0.42135235102E+03 -0.64927676472E+03  0.11305960356E+04  0.46999998093E+01 0. -1.
</event>
<event>
 5   0  0.2279625E-05  0.1900585E+04  0.7818609E-02  0.8654565E-01
        3   -1    0    0  501    0  0.00000000000E+00  0.00000000000E+00  0.89939084685E+03  0.89939085252E+03  0.10100000352E+00 0. -1.
       -3   -1    0    0    0  501  0.00000000000E+00  0.00000000000E+00 -0.10040746039E+04  0.10040746090E+04  0.10100000352E+00 0.  1.
    10030    2    1    2    0    0  0.00000000000E+00  0.00000000000E+00 -0.10468375709E+03  0.19034654615E+04  0.19005846664E+04 0.  0.
        2    1    3    3  502    0  0.46000272687E+03  0.24713896630E+03  0.74282336316E+03  0.90800150124E+03  0.25500000920E-02 0. -1.
       -2    1    3    3    0  502 -0.46000272687E+03 -0.24713896630E+03 -0.84750712025E+03  0.99546396031E+03  0.25500000920E-02 0.  1.
</event>
<event>
 5   0  0.3086139E-05  0.1898103E+04  0.7818609E-02  0.8655801E-01
        1   -1    0    0  501    0  0.00000000000E+00  0.00000000000E+00  0.62730783536E+03  0.62730783538E+03  0.50400001928E-02 0.  1.
       -1   -1    0    0    0  501  0.00000000000E+00  0.00000000000E+00 -0.14358157330E+04  0.14358157330E+04  0.50400001928E-02 0. -1.
    10030    2    1    2    0    0  0.00000000000E+00  0.00000000000E+00 -0.80850789763E+03  0.20631235684E+04  0.18981026942E+04 0.  0.
        2    1    3    3  502    0  0.40168782066E+03  0.84792198884E+03 -0.55939974376E+03  0.10923611480E+04  0.25500000920E-02 0. -1.
       -2    1    3    3    0  502 -0.40168782066E+03 -0.84792198884E+03 -0.24910815387E+03  0.97076242035E+03  0.25500000920E-02 0.  1.
</event>
<event>
 5   0  0.6361762E-05  0.1900272E+04  0.7818609E-02  0.8654721E-01
       -2   -1    0    0    0  501  0.00000000000E+00  0.00000000000E+00  0.70812150873E+03  0.70812150874E+03  0.25500000920E-02 0. -1.
        2   -1    0    0  501    0  0.00000000000E+00  0.00000000000E+00 -0.12748641976E+04  0.12748641976E+04  0.25500000920E-02 0.  1.
    10030    2    1    2    0    0  0.00000000000E+00  0.00000000000E+00 -0.56674268884E+03  0.19829857063E+04  0.19002723584E+04 0.  0.
        1    1    3    3  502    0 -0.33498915559E+03  0.68186310850E+03 -0.87882561671E+03  0.11616752979E+04  0.50400001928E-02 0.  1.
       -1    1    3    3    0  502  0.33498915559E+03 -0.68186310850E+03  0.31208292787E+03  0.82131040843E+03  0.50400001928E-02 0. -1.
</event>
<event>
 5   0  0.3144958E-05  0.1910795E+04  0.7818609E-02  0.8649502E-01
       -1   -1    0    0    0  501  0.00000000000E+00  0.00000000000E+00  0.16074758058E+04  0.16074758058E+04  0.50400001928E-02 0.  1.
        1   -1    0    0  501    0  0.00000000000E+00  0.00000000000E+00 -0.56783688150E+03  0.56783688152E+03  0.50400001928E-02 0. -1.
    10030    2    1    2    0    0  0.00000000000E+00  0.00000000000E+00  0.10396389243E+04  0.21753126874E+04  0.19107946501E+04 0.  0.
        4    1    3    3  502    0 -0.55406482704E+02 -0.64657109036E+03 -0.27843140729E+03  0.70615133978E+03  0.12699999809E+01 0. -1.
       -4    1    3    3    0  502  0.55406482704E+02  0.64657109036E+03  0.13180703316E+04  0.14691613476E+04  0.12699999809E+01 0.  1.
</event>
<event>
 5   0  0.6452182E-05  0.1903943E+04  0.7818609E-02  0.8652896E-01
        2   -1    0    0  501    0  0.00000000000E+00  0.00000000000E+00  0.17172023980E+04  0.17172023980E+04  0.25500000920E-02 0.  1.
       -2   -1    0    0    0  501  0.00000000000E+00  0.00000000000E+00 -0.52774769938E+03  0.52774769939E+03  0.25500000920E-02 0. -1.
    10030    2    1    2    0    0  0.00000000000E+00  0.00000000000E+00  0.11894546986E+04  0.22449500974E+04  0.19039428719E+04 0.  0.
        3    1    3    3  502    0 -0.62382646905E+03  0.19628552510E+03  0.14104113511E+04  0.15546535500E+04  0.10100000352E+00 0.  1.
       -3    1    3    3    0  502  0.62382646905E+03 -0.19628552510E+03 -0.22095665253E+03  0.69029654739E+03  0.10100000352E+00 0. -1.
</event>
<event>
 5   0  0.3147063E-05  0.1897963E+04  0.7818609E-02  0.8655871E-01
        1   -1    0    0  501    0  0.00000000000E+00  0.00000000000E+00  0.95218146694E+03  0.95218146696E+03  0.50400001928E-02 0. -1.
       -1   -1    0    0    0  501  0.00000000000E+00  0.00000000000E+00 -0.94579265504E+03  0.94579265505E+03  0.50400001928E-02 0.  1.
    10030    2    1    2    0    0  0.00000000000E+00  0.00000000000E+00  0.63888119034E+01  0.18979741220E+04  0.18979633692E+04 0.  0.
        5    1    3    3  502    0  0.11721665951E+02 -0.79536325754E+03 -0.51430638949E+03  0.94724509034E+03  0.46999998093E+01 0.  1.
       -5    1    3    3    0  502 -0.11721665951E+02  0.79536325754E+03  0.52069520140E+03  0.95072903167E+03  0.46999998093E+01 0. -1.
</event>
<event>
 5   0  0.3083469E-05  0.1900791E+04  0.7818609E-02  0.8654463E-01
       -1   -1    0    0    0  501  0.00000000000E+00  0.00000000000E+00  0.67674894122E+03  0.67674894124E+03  0.50400001928E-02 0. -1.
        1   -1    0    0  501    0  0.00000000000E+00  0.00000000000E+00 -0.13346929162E+04  0.13346929163E+04  0.50400001928E-02 0.  1.
    10030    2    1    2    0    0  0.00000000000E+00  0.00000000000E+00 -0.65794397503E+03  0.20114418575E+04  0.19007914330E+04 0.  0.
        3    1    3    3  502    0 -0.53425999542E+03 -0.34002232678E+03 -0.10788881339E+04  0.12510190011E+04  0.10100000352E+00 0.  1.
       -3    1    3    3    0  502  0.53425999542E+03  0.34002232678E+03  0.42094415890E+03  0.76042285639E+03  0.10100000352E+00 0. -1.
</event>
<event>
 5   0  0.2279625E-05  0.2006112E+04  0.7818609E-02  0.8603768E-01
        3   -1    0    0  501    0  0.00000000000E+00  0.00000000000E+00  0.11142386129E+04  0.11142386175E+04  0.10100000352E+00 0.  1.
       -3   -1    0    0    0  501  0.00000000000E+00  0.00000000000E+00 -0.90296772392E+03  0.90296772957E+03  0.10100000352E+00 0. -1.
    10030    2    1    2    0    0  0.00000000000E+00  0.00000000000E+00  0.21127088898E+03  0.20172063470E+04  0.20061121748E+04 0.  0.
        3    1    3    3  502    0 -0.42040810739E+02 -0.98858097964E+03 -0.59778767471E+02  0.99127861589E+03  0.10100000352E+00 0. -1.
       -3    1    3    3    0  502  0.42040810739E+02  0.98858097964E+03  0.27104965645E+03  0.10259277311E+04  0.10100000352E+00 0.  1.
</event>
<event>
 5   0  0.6423388E-05  0.1897575E+04  0.7818609E-02  0.8656064E-01
        2   -1    0    0  501    0  0.00000000000E+00  0.00000000000E+00  0.12025588743E+04  0.12025588743E+04  0.25500000920E-02 0.  1.
       -2   -1    0    0    0  501  0.00000000000E+00  0.00000000000E+00 -0.74856880697E+03  0.74856880697E+03  0.25500000920E-02 0. -1.
    10030    2    1    2    0    0  0.00000000000E+00  0.00000000000E+00  0.45399006736E+03  0.19511276813E+04  0.18975753602E+04 0.  0.
        2    1    3    3  502    0 -0.64834874072E+02  0.36912291384E+03 -0.66923593683E+03  0.76702804745E+03  0.25500000920E-02 0. -1.
       -2    1    3    3    0  502  0.64834874072E+02 -0.36912291384E+03  0.11232260042E+04  0.11840996339E+04  0.25500000920E-02 0.  1.
</event>
<event>
 5   0  0.6098377E-05  0.1896197E+04  0.7818609E-02  0.8656752E-01
       -2   -1    0    0    0  501  0.00000000000E+00  0.00000000000E+00  0.65857453629E+03  0.65857453630E+03  0.25500000920E-02 0.  1.
        2   -1    0    0  501    0  0.00000000000E+00  0.00000000000E+00 -0.13649031910E+04  0.13649031910E+04  0.25500000920E-02 0. -1.
    10030    2    1    2    0    0  0.00000000000E+00  0.00000000000E+00 -0.70632865474E+03  0.20234777273E+04  0.18961967051E+04 0.  0.
        5    1    3    3  502    0 -0.72330328127E+03 -0.29627361605E+03 -0.92576650703E+03  0.12116152062E+04  0.46999998093E+01 0. -1.
       -5    1    3    3    0  502  0.72330328127E+03  0.29627361605E+03  0.21943785229E+03  0.81186252117E+03  0.46999998093E+01 0.  1.
</event>
<event>
 5   0  0.3144958E-05  0.1908452E+04  0.7818609E-02  0.8650661E-01
       -1   -1    0    0    0  501  0.00000000000E+00  0.00000000000E+00  0.86954549825E+03  0.86954549827E+03  0.50400001928E-02 0. -1.
        1   -1    0    0  501    0  0.00000000000E+00  0.00000000000E+00 -0.10471525797E+04  0.10471525798E+04  0.50400001928E-02 0.  1.
    10030    2    1    2    0    0  0.00000000000E+00  0.00000000000E+00 -0.17760708149E+03  0.19166980780E+04  0.19084515312E+04 0.  0.
        4    1    3    3  502    0 -0.61511008092E+03  0.71380491192E+03  0.62403774818E+02  0.94433770863E+03  0.12699999809E+01 0.  1.
       -4    1    3    3    0  502  0.61511008092E+03 -0.71380491192E+03 -0.24001085631E+03  0.97236036940E+03  0.12699999809E+01 0. -1.
</event>
<event>
 5   0  0.6395992E-05  0.1925007E+04  0.7818609E-02  0.8642508E-01
       -2   -1    0    0    0  501  0.00000000000E+00  0.00000000000E+00  0.37065732153E+03  0.37065732154E+03  0.25500000920E-02 0. -1.
        2   -1    0    0  501    0  0.00000000000E+00  0.00000000000E+00 -0.24993782937E+04  0.24993782937E+04  0.25500000920E-02 0.  1.
    10030    2    1    2    0    0  0.00000000000E+00  0.00000000000E+00 -0.21287209722E+04  0.28700356152E+04  0.19250068715E+04 0.  0.
        4    1    3    3  502    0  0.18485790270E+03 -0.37594333858E+03  0.22759520531E+03  0.47676726858E+03  0.12699999809E+01 0. -1.
       -4    1    3    3    0  502 -0.18485790270E+03  0.37594333858E+03 -0.23563161775E+04  0.23932683466E+04  0.12699999809E+01 0.  1.
</event>
<event>
 5   0  0.3147063E-05  0.1893972E+04  0.7818609E-02  0.8657863E-01
        1   -1    0    0  501    0  0.00000000000E+00  0.00000000000E+00  0.17430915968E+04  0.17430915968E+04  0.50400001928E-02 0.  1.
       -1   -1    0    0    0  501  0.00000000000E+00  0.00000000000E+00 -0.51447791528E+03  0.51447791531E+03  0.50400001928E-02 0. -1.
    10030    2    1    2    0    0  0.00000000000E+00  0.00000000000E+00  0.12286136815E+04  0.22575695121E+04  0.18939716269E+04 0.  0.
        5    1    3    3  502    0  0.18969135724E+03  0.92607024223E+03  0.68143042234E+03  0.11653147279E+04  0.46999998093E+01 0.  1.
       -5    1    3    3    0  502 -0.18969135724E+03 -0.92607024223E+03  0.54718325920E+03  0.10922547842E+04  0.46999998093E+01 0. -1.
</event>
<event>
 5   0  0.6423388E-05  0.1903743E+04  0.7818609E-02  0.8652995E-01
        2   -1    0    0  501    0  0.00000000000E+00  0.00000000000E+00  0.11540401782E+04  0.11540401782E+04  0.25500000920E-02 0.  1.
       -2   -1    0    0    0  501  0.00000000000E+00  0.00000000000E+00 -0.78511972686E+03  0.78511972687E+03  0.25500000920E-02 0. -1.
    10030    2    1    2    0    0  0.00000000000E+00  0.00000000000E+00  0.36892045137E+03  0.19391599051E+04  0.19037433751E+04 0.  0.
        2    1    3    3  502    0  0.58286882951E+03  0.38963177561E+03 -0.47134232189E+03  0.84481511432E+03  0.25500000920E-02 0. -1.
       -2    1    3    3    0  502 -0.58286882951E+03 -0.38963177561E+03  0.84026277326E+03  0.10943447908E+04  0.25500000920E-02 0.  1.
</event>
<event>
 5   0  0.6452182E-05  0.1911683E+04  0.7818609E-02  0.8649063E-01
       -2   -1    0    0    0  501  0.00000000000E+00  0.00000000000E+00  0.40887559851E+03  0.40887559852E+03  0.25500000920E-02 0. -1.
        2   -1    0    0  501    0  0.00000000000E+00  0.00000000000E+00 -0.22345008428E+04  0.22345008428E+04  0.25500000920E-02 0.  1.
    10030    2    1    2    0    0  0.00000000000E+00  0.00000000000E+00 -0.18256252443E+04  0.26433764414E+04  0.19116828916E+04 0.  0.
        3    1    3    3  502    0 -0.59994400582E+03  0.74288487810E+03 -0.97183682201E+03  0.13624527775E+04  0.10100000352E+00 0.  1.
       -3    1    3    3    0  502  0.59994400582E+03 -0.74288487810E+03 -0.85378842231E+03  0.12809236638E+04  0.10100000352E+00 0. -1.
</event>
<event>
 5   0  0.3086139E-05  0.1896138E+04  0.7818609E-02  0.8656781E-01
        1   -1    0    0  501    0  0.00000000000E+00  0.00000000000E+00  0.10971649223E+04  0.10971649224E+04  0.50400001928E-02 0.  1.
       -1   -1    0    0    0  501  0.00000000000E+00  0.00000000000E+00 -0.81923370056E+03  0.81923370058E+03  0.50400001928E-02 0. -1.
    10030    2    1    2    0    0  0.00000000000E+00  0.00000000000E+00  0.27793122178E+03  0.19163986229E+04  0.18961376316E+04 0.  0.
        2    1    3    3  502    0 -0.91143368039E+03 -0.23265440155E+03  0.25853039937E+03  0.97553953878E+03  0.25500000920E-02 0.  1.
       -2    1    3    3    0  502  0.91143368039E+03  0.23265440155E+03  0.19400822415E+02  0.94085908415E+03  0.25500000920E-02 0. -1.
</event>
<event>
 5   0  0.3147063E-05  0.1903841E+04  0.7818609E-02  0.8652947E-01
       -1   -1    0    0    0  501  0.00000000000E+00  0.00000000000E+00  0.86636453282E+03  0.86636453283E+03  0.50400001928E-02 0. -1.
        1   -1    0    0  501    0  0.00000000000E+00  0.00000000000E+00 -0.10459248718E+04  0.10459248718E+04  0.50400001928E-02 0.  1.
    10030    2    1    2    0    0  0.00000000000E+00  0.00000000000E+00 -0.17956033898E+03  0.19122894046E+04  0.19038405531E+04 0.  0.
        5    1    3    3  502    0 -0.78099229233E+03  0.52658938564E+02 -0.63385566693E+03  0.10072323570E+04  0.46999998093E+01 0.  1.
       -5    1    3    3    0  502  0.78099229233E+03 -0.52658938564E+02  0.45429532795E+03  0.90505704764E+03  0.46999998093E+01 0. -1.
</event>
<event>
 5   0  0.6452182E-05  0.1900656E+04  0.7818609E-02  0.8654530E-01
       -2   -1    0    0    0  501  0.00000000000E+00  0.00000000000E+00  0.12225388310E+04  0.12225388310E+04  0.25500000920E-02 0.  1.
        2   -1    0    0  501    0  0.00000000000E+00  0.00000000000E+00 -0.73872803097E+03  0.73872803097E+03  0.25500000920E-02 0. -1.
    10030    2    1    2    0    0  0.00000000000E+00  0.00000000000E+00  0.48381080002E+03  0.19612668620E+04  0.19006564165E+04 0.  0.
        3    1    3    3  502    0  0.92728873862E+03  0.13004291397E+03  0.74408040682E+02  0.93931471348E+03  0.10100000352E+00 0. -1.
       -3    1    3    3    0  502 -0.92728873862E+03 -0.13004291397E+03  0.40940275934E+03  0.10219521485E+04  0.10100000352E+00 0.  1.
</event>
<event>
 5   0  0.6452182E-05  0.1896801E+04  0.7818609E-02  0.8656450E-01
       -2   -1    0    0    0  501  0.00000000000E+00  0.00000000000E+00  0.40942016973E+03  0.40942016973E+03  0.25500000920E-02 0. -1.
        2   -1    0    0  501    0  0.00000000000E+00  0.00000000000E+00 -0.21969204504E+04  0.21969204504E+04  0.25500000920E-02 0.  1.
    10030    2    1    2    0    0  0.00000000000E+00  0.00000000000E+00 -0.17875002807E+04  0.26063406201E+04  0.18968010372E+04 0.  0.
        3    1    3    3  502    0  0.89636496336E+02  0.62755880044E+03  0.75529408165E+02  0.63841166279E+03  0.10100000352E+00 0. -1.
       -3    1    3    3    0  502 -0.89636496336E+02 -0.62755880044E+03 -0.18630296888E+04  0.19679289573E+04  0.10100000352E+00 0.  1.
</event>
<event>
 5   0  0.6423388E-05  0.1897736E+04  0.7818609E-02  0.8655984E-01
        2   -1    0    0  501    0  0.00000000000E+00  0.00000000000E+00  0.61488080590E+03  0.61488080591E+03  0.25500000920E-02 0.  1.
       -2   -1    0    0    0  501  0.00000000000E+00  0.00000000000E+00 -0.14642680074E+04  0.14642680074E+04  0.25500000920E-02 0. -1.
    10030    2    1    2    0    0  0.00000000000E+00  0.00000000000E+00 -0.84938720150E+03  0.20791488133E+04  0.18977358008E+04 0.  0.
        2    1    3    3  502    0  0.80848738673E+03 -0.48274352838E+03 -0.29665838246E+03  0.98726863852E+03  0.25500000920E-02 0.  1.
       -2    1    3    3    0  502 -0.80848738673E+03  0.48274352838E+03 -0.55272881904E+03  0.10918801748E+04  0.25500000920E-02 0. -1.
</event>
<event>
 5   0  0.3203527E-05  0.1871715E+04  0.7818609E-02  0.8669065E-01
       -1   -1    0    0    0  501  0.00000000000E+00  0.00000000000E+00  0.15831131533E+04  0.15831131534E+04  0.50400001928E-02 0. -1.
        1   -1    0    0  501    0  0.00000000000E+00  0.00000000000E+00 -0.55323215481E+03  0.55323215483E+03  0.50400001928E-02 0.  1.
    10030    2    1    2    0    0  0.00000000000E+00  0.00000000000E+00  0.10298809985E+04  0.21363453082E+04  0.18717148300E+04 0.  0.
        1    1    3    3  502    0  0.85334557298E+03  0.23073536901E+03  0.86561040634E+03  0.12372222327E+04  0.50400001928E-02 0. -1.
       -1    1    3    3    0  502 -0.85334557298E+03 -0.23073536901E+03  0.16427059220E+03  0.89912307551E+03  0.50400001928E-02 0.  1.
</event>
<event>
 5   0  0.6395992E-05  0.1880155E+04  0.7818609E-02  0.8664798E-01
       -2   -1    0    0    0  501  0.00000000000E+00  0.00000000000E+00  0.37074926056E+03  0.37074926056E+03  0.25500000920E-02 0.  1.
        2   -1    0    0  501    0  0.00000000000E+00  0.00000000000E+00 -0.23836747897E+04  0.23836747897E+04  0.25500000920E-02 0. -1.
    10030    2    1    2    0    0  0.00000000000E+00  0.00000000000E+00 -0.20129255291E+04  0.27544240503E+04  0.18801549571E+04 0.  0.
        4    1    3    3  502    0  0.19398322847E+03  0.51479620016E+03 -0.21232292785E+04  0.21933419256E+04  0.12699999809E+01 0. -1.
       -4    1    3    3    0  502 -0.19398322847E+03 -0.51479620016E+03  0.11030374933E+03  0.56108212468E+03  0.12699999809E+01 0.  1.
</event>
<event>
 5   0  0.6452182E-05  0.1894027E+04  0.7818609E-02  0.8657835E-01
        2   -1    0    0  501    0  0.00000000000E+00  0.00000000000E+00  0.17548462897E+04  0.17548462897E+04  0.25500000920E-02 0. -1.
       -2   -1    0    0    0  501  0.00000000000E+00  0.00000000000E+00 -0.51106185472E+03  0.51106185472E+03  0.25500000920E-02 0.  1.
    10030    2    1    2    0    0  0.00000000000E+00  0.00000000000E+00  0.12437844350E+04  0.22659081444E+04  0.18940274545E+04 0.  0.
        3    1    3    3  502    0  0.65316989272E+03  0.68380727068E+03  0.68303109209E+03  0.11665139413E+04  0.10100000352E+00 0. -1.
       -3    1    3    3    0  502 -0.65316989272E+03 -0.68380727068E+03  0.56075334288E+03  0.10993942032E+04  0.10100000352E+00 0.  1.
</event>
<event>
 5   0  0.3086139E-05  0.1905471E+04  0.7818609E-02  0.8652138E-01
        1   -1    0    0  501    0  0.00000000000E+00  0.00000000000E+00  0.13448336368E+04  0.13448336369E+04  0.50400001928E-02 0. -1.
       -1   -1    0    0    0  501  0.00000000000E+00  0.00000000000E+00 -0.67495695366E+03  0.67495695368E+03  0.50400001928E-02 0.  1.
    10030    2    1    2    0    0  0.00000000000E+00  0.00000000000E+00  0.66987668318E+03  0.20197905905E+04  0.19054708759E+04 0.  0.
        2    1    3    3  502    0 -0.61088254478E+03 -0.47071081485E+03 -0.25805185861E+03  0.81322623941E+03  0.25500000920E-02 0. -1.
       -2    1    3    3    0  502  0.61088254478E+03  0.47071081485E+03  0.92792854179E+03  0.12065643511E+04  0.25500000920E-02 0.  1.
</event>
<event>
 5   0  0.3203527E-05  0.1900747E+04  0.7818609E-02  0.8654485E-01
        1   -1    0    0  501    0  0.00000000000E+00  0.00000000000E+00  0.21471883876E+04  0.21471883876E+04  0.50400001928E-02 0. -1.
       -1   -1    0    0    0  501  0.00000000000E+00  0.00000000000E+00 -0.42064762776E+03  0.42064762779E+03  0.50400001928E-02 0.  1.
    10030    2    1    2    0    0  0.00000000000E+00  0.00000000000E+00  0.17265407598E+04  0.25678360154E+04  0.19007469075E+04 0.  0.
        1    1    3    3  502    0 -0.81593794069E+03 -0.24721658266E+02  0.20580328793E+03  0.84185561517E+03  0.50400001928E-02 0.  1.
       -1    1    3    3    0  502  0.81593794069E+03  0.24721658266E+02  0.15207374719E+04  0.17259804002E+04  0.50400001928E-02 0. -1.
</event>
<event>
 5   0  0.6361762E-05  0.1896094E+04  0.7818609E-02  0.8656803E-01
        2   -1    0    0  501    0  0.00000000000E+00  0.00000000000E+00  0.10585837961E+04  0.10585837961E+04  0.25500000920E-02 0. -1.
       -2   -1    0    0    0  501  0.00000000000E+00  0.00000000000E+00 -0.84905199197E+03  0.84905199197E+03  0.25500000920E-02 0.  1.
    10030    2    1    2    0    0  0.00000000000E+00  0.00000000000E+00  0.20953180416E+03  0.19076357881E+04  0.18960935428E+04 0.  0.
        1    1    3    3  502    0 -0.73771803934E+03 -0.57651197286E+03  0.25466522532E+03  0.97028260699E+03  0.50400001928E-02 0. -1.
       -1    1    3    3    0  502  0.73771803934E+03  0.57651197286E+03 -0.45133421163E+02  0.93735318111E+03  0.50400001928E-02 0.  1.
</event>
<event>
 5   0  0.3147063E-05  0.1880642E+04  0.7818609E-02  0.8664552E-01
        1   -1    0    0  501    0  0.00000000000E+00  0.00000000000E+00  0.13834994753E+04  0.13834994753E+04  0.50400001928E-02 0. -1.
       -1   -1    0    0    0  501  0.00000000000E+00  0.00000000000E+00 -0.63910662089E+03  0.63910662091E+03  0.50400001928E-02 0.  1.
    10030    2    1    2    0    0  0.00000000000E+00  0.00000000000E+00  0.74439285443E+03  0.20226060962E+04  0.18806420975E+04 0.  0.
        5    1    3    3  502    0  0.10177645356E+03 -0.33583309501E+03  0.13104250808E+04  0.13566054314E+04  0.46999998093E+01 0. -1.
       -5    1    3    3    0  502 -0.10177645356E+03  0.33583309501E+03 -0.56603222638E+03  0.66600066479E+03  0.46999998093E+01 0.  1.
</event>
<event>
 5   0  0.3203527E-05  0.1900043E+04  0.7818609E-02  0.8654835E-01
        1   -1    0    0  501    0  0.00000000000E+00  0.00000000000E+00  0.11289611434E+04  0.11289611434E+04  0.50400001928E-02 0.  1.
       -1   -1    0    0    0  501  0.00000000000E+00  0.00000000000E+00 -0.79944377543E+03  0.79944377545E+03  0.50400001928E-02 0. -1.
    10030    2    1    2    0    0  0.00000000000E+00  0.00000000000E+00  0.32951736795E+03  0.19284049188E+04  0.19000431140E+04 0.  0.
        1    1    3    3  502    0 -0.14491390558E+02 -0.93630289749E+03  0.21553454528E+01  0.93641751467E+03  0.50400001928E-02 0. -1.
       -1    1    3    3    0  502  0.14491390558E+02  0.93630289749E+03  0.32736202249E+03  0.99198740417E+03  0.50400001928E-02 0.  1.
</event>
<event>
 5   0  0.6452182E-05  0.1977929E+04  0.7818609E-02  0.8617010E-01
       -2   -1    0    0    0  501  0.00000000000E+00  0.00000000000E+00  0.81394299753E+03  0.81394299754E+03  0.25500000920E-02 0. -1.
        2   -1    0    0  501    0  0.00000000000E+00  0.00000000000E+00 -0.12016204897E+04  0.12016204897E+04  0.25500000920E-02 0.  1.
    10030    2    1    2    0    0  0.00000000000E+00  0.00000000000E+00 -0.38767749215E+03  0.20155634872E+04  0.19779287988E+04 0.  0.
        3    1    3    3  502    0  0.41307310017E+03  0.46104034834E+03  0.59211013715E+03  0.85661077136E+03  0.10100000352E+00 0. -1.
       -3    1    3    3    0  502 -0.41307310017E+03 -0.46104034834E+03 -0.97978762930E+03  0.11589527159E+04  0.10100000352E+00 0.  1.
</event>
<event>
 5   0  0.3203527E-05  0.1897166E+04  0.7818609E-02  0.8656268E-01
        1   -1    0    0  501    0  0.00000000000E+00  0.00000000000E+00  0.96626173041E+03  0.96626173042E+03  0.50400001928E-02 0.  1.
       -1   -1    0    0    0  501  0.00000000000E+00  0.00000000000E+00 -0.93122757559E+03  0.93122757561E+03  0.50400001928E-02 0. -1.
    10030    2    1    2    0    0  0.00000000000E+00  0.00000000000E+00  0.35034154816E+02  0.18974893060E+04  0.18971658532E+04 0.  0.
        1    1    3    3  502    0 -0.59232852327E+03 -0.68396281342E+02 -0.72036099151E+03  0.93512089534E+03  0.50400001928E-02 0. -1.
       -1    1    3    3    0  502  0.59232852327E+03  0.68396281342E+02  0.75539514633E+03  0.96236841069E+03  0.50400001928E-02 0.  1.
</event>
<event>
 5   0  0.3203527E-05  0.1966831E+04  0.7818609E-02  0.8622287E-01
        1   -1    0    0  501    0  0.00000000000E+00  0.00000000000E+00  0.12198559980E+04  0.12198559980E+04  0.50400001928E-02 0.  1.
       -1   -1    0    0    0  501  0.00000000000E+00  0.00000000000E+00 -0.79280351936E+03  0.79280351937E+03  0.50400001928E-02 0. -1.
    10030    2    1    2    0    0  0.00000000000E+00  0.00000000000E+00  0.42705247867E+03  0.20126595174E+04  0.19668310841E+04 0.  0.
        1    1    3    3  502    0 -0.32476279904E+03 -0.27297423190E+02  0.11629871852E+04  0.12077893930E+04  0.50400001928E-02 0.  1.
       -1    1    3    3    0  502  0.32476279904E+03  0.27297423190E+02 -0.73593470649E+03  0.80487012442E+03  0.50400001928E-02 0. -1.
</event>
<event>
 5   0  0.3086139E-05  0.1918584E+04  0.7818609E-02  0.8645661E-01
       -1   -1    0    0    0  501  0.00000000000E+00  0.00000000000E+00  0.41768562032E+03  0.41768562035E+03  0.50400001928E-02 0. -1.
        1   -1    0    0  501    0  0.00000000000E+00  0.00000000000E+00 -0.22031917027E+04  0.22031917027E+04  0.50400001928E-02 0.  1.
    10030    2    1    2    0    0  0.00000000000E+00  0.00000000000E+00 -0.17855060824E+04  0.26208773230E+04  0.19185843667E+04 0.  0.
        2    1    3    3  502    0  0.65735241023E+03  0.50859459509E+03 -0.23838801282E+03  0.86464414533E+03  0.25500000920E-02 0. -1.
       -2    1    3    3    0  502 -0.65735241023E+03 -0.50859459509E+03 -0.15471180695E+04  0.17562331777E+04  0.25500000920E-02 0.  1.
</event>
<event>
 5   0  0.6361762E-05  0.1897294E+04  0.7818609E-02  0.8656204E-01
        2   -1    0    0  501    0  0.00000000000E+00  0.00000000000E+00  0.22898741956E+04  0.22898741956E+04  0.25500000920E-02 0.  1.
       -2   -1    0    0    0  501  0.00000000000E+00  0.00000000000E+00 -0.39300467651E+03  0.39300467652E+03  0.25500000920E-02 0. -1.
    10030    2    1    2    0    0  0.00000000000E+00  0.00000000000E+00  0.18968695191E+04  0.26828788721E+04  0.18972941443E+04 0.  0.
        1    1    3    3  502    0  0.45144436651E+02 -0.72763140964E+03  0.18067625850E+04  0.19483009334E+04  0.50400001928E-02 0.  1.
       -1    1    3    3    0  502 -0.45144436651E+02  0.72763140964E+03  0.90106934080E+02  0.73457793872E+03  0.50400001928E-02 0. -1.
</event>
<event>
 5   0  0.2279625E-05  0.1902094E+04  0.7818609E-02  0.8653815E-01
        3   -1    0    0  501    0  0.00000000000E+00  0.00000000000E+00  0.21682983919E+04  0.21682983942E+04  0.10100000352E+00 0. -1.
       -3   -1    0    0    0  501  0.00000000000E+00  0.00000000000E+00 -0.41714273268E+03  0.41714274490E+03  0.10100000352E+00 0.  1.
    10030    2    1    2    0    0  0.00000000000E+00  0.00000000000E+00  0.17511556592E+04  0.25854411391E+04  0.19020935154E+04 0.  0.
        3    1    3    3  502    0  0.32064219889E+03 -0.78879216622E+03  0.14514384523E+04  0.16827590713E+04  0.10100000352E+00 0.  1.
       -3    1    3    3    0  502 -0.32064219889E+03  0.78879216622E+03  0.29971720691E+03  0.90268206779E+03  0.10100000352E+00 0. -1.
</event>
<event>
 5   0  0.6452182E-05  0.1898717E+04  0.7818609E-02  0.8655495E-01
        2   -1    0    0  501    0  0.00000000000E+00  0.00000000000E+00  0.15626929332E+04  0.15626929333E+04  0.25500000920E-02 0. -1.
       -2   -1    0    0    0  501  0.00000000000E+00  0.00000000000E+00 -0.57674877994E+03  0.57674877995E+03  0.25500000920E-02 0.  1.
    10030    2    1    2    0    0  0.00000000000E+00  0.00000000000E+00  0.98594415331E+03  0.21394417132E+04  0.18987166642E+04 0.  0.
        3    1    3    3  502    0  0.80322857968E+03 -0.45917577273E+03  0.25324864701E+03  0.95924628166E+03  0.10100000352E+00 0.  1.
       -3    1    3    3    0  502 -0.80322857968E+03  0.45917577273E+03  0.73269550630E+03  0.11801954315E+04  0.10100000352E+00 0. -1.
</event>
<event>
 5   0  0.6423388E-05  0.1901286E+04  0.7818609E-02  0.8654217E-01
        2   -1    0    0  501    0  0.00000000000E+00  0.00000000000E+00  0.10805917822E+04  0.10805917822E+04  0.25500000920E-02 0.  1.
       -2   -1    0    0    0  501  0.00000000000E+00  0.00000000000E+00 -0.83632112121E+03  0.83632112122E+03  0.25500000920E-02 0. -1.
    10030    2    1    2    0    0  0.00000000000E+00  0.00000000000E+00  0.24427066098E+03  0.19169129034E+04  0.19012855975E+04 0.  0.
        2    1    3    3  502    0 -0.71073783120E+03  0.92107265302E+02  0.75184052224E+03  0.10386992750E+04  0.25500000920E-02 0.  1.
       -2    1    3    3    0  502  0.71073783120E+03 -0.92107265302E+02 -0.50756986126E+03  0.87821362839E+03  0.25500000920E-02 0. -1.
</event>
<event>
 5   0  0.6361762E-05  0.1897345E+04  0.7818609E-02  0.8656179E-01
       -2   -1    0    0    0  501  0.00000000000E+00  0.00000000000E+00  0.98945136535E+03  0.98945136535E+03  0.25500000920E-02 0.  1.
        2   -1    0    0  501    0  0.00000000000E+00  0.00000000000E+00 -0.90957454078E+03  0.90957454078E+03  0.25500000920E-02 0. -1.
    10030    2    1    2    0    0  0.00000000000E+00  0.00000000000E+00  0.79876824567E+02  0.18990259061E+04  0.18973452730E+04 0.  0.
        1    1    3    3  502    0 -0.44383276493E+03 -0.73402505067E+03 -0.36563586144E+03  0.93245368863E+03  0.50400001928E-02 0. -1.
       -1    1    3    3    0  502  0.44383276493E+03  0.73402505067E+03  0.44551268601E+03  0.96657221751E+03  0.50400001928E-02 0.  1.
</event>
<event>
 5   0  0.6452182E-05  0.1901275E+04  0.7818609E-02  0.8654222E-01
        2   -1    0    0  501    0  0.00000000000E+00  0.00000000000E+00  0.11230229126E+04  0.11230229126E+04  0.25500000920E-02 0.  1.
       -2   -1    0    0    0  501  0.00000000000E+00  0.00000000000E+00 -0.80471355966E+03  0.80471355967E+03  0.25500000920E-02 0. -1.
    10030    2    1    2    0    0  0.00000000000E+00  0.00000000000E+00  0.31830935292E+03  0.19277364723E+04  0.19012751148E+04 0.  0.
        3    1    3    3  502    0 -0.20794702198E+03 -0.60292356291E+03  0.87391484892E+03  0.10818899944E+04  0.10100000352E+00 0.  1.
       -3    1    3    3    0  502  0.20794702198E+03  0.60292356291E+03 -0.55560549600E+03  0.84584647783E+03  0.10100000352E+00 0. -1.
</event>
<event>
 5   0  0.3203527E-05  0.1900243E+04  0.7818609E-02  0.8654736E-01
       -1   -1    0    0    0  501  0.00000000000E+00  0.00000000000E+00  0.64662087454E+03  0.64662087456E+03  0.50400001928E-02 0.  1.
        1   -1    0    0  501    0  0.00000000000E+00  0.00000000000E+00 -0.13960738994E+04  0.13960738994E+04  0.50400001928E-02 0. -1.
    10030    2    1    2    0    0  0.00000000000E+00  0.00000000000E+00 -0.74945302488E+03  0.20426947740E+04  0.19002426432E+04 0.  0.
        1    1    3    3  502    0 -0.93954606653E+03 -0.14418449606E+02 -0.22355787432E+03  0.96588447861E+03  0.50400001928E-02 0.  1.
       -1    1    3    3    0  502  0.93954606653E+03  0.14418449606E+02 -0.52589515056E+03  0.10768102954E+04  0.50400001928E-02 0. -1.
</event>
<event>
 5   0  0.2279625E-05  0.1903960E+04  0.7818609E-02  0.8652888E-01
        3   -1    0    0  501    0  0.00000000000E+00  0.00000000000E+00  0.11957251802E+04  0.11957251844E+04  0.10100000352E+00 0.  1.
       -3   -1    0    0    0  501  0.00000000000E+00  0.00000000000E+00 -0.75792153325E+03  0.75792153998E+03  0.10100000352E+00 0. -1.
    10030    2    1    2    0    0  0.00000000000E+00  0.00000000000E+00  0.43780364690E+03  0.19536467244E+04  0.19039599498E+04 0.  0.
        1    1    3    3  502    0 -0.49681077711E+03  0.14666608454E+03 -0.60064938330E+03  0.79316553776E+03  0.50400001928E-02 0. -1.
       -1    1    3    3    0  502  0.49681077711E+03 -0.14666608454E+03  0.10384530302E+04  0.11604811866E+04  0.50400001928E-02 0.  1.
</event>
<event>
 5   0  0.6395992E-05  0.1906065E+04  0.7818609E-02  0.8651843E-01
       -2   -1    0    0    0  501  0.00000000000E+00  0.00000000000E+00  0.73344838931E+03  0.73344838931E+03  0.25500000920E-02 0.  1.
        2   -1    0    0  501    0  0.00000000000E+00  0.00000000000E+00 -0.12383567178E+04  0.12383567178E+04  0.25500000920E-02 0. -1.
    10030    2    1    2    0    0  0.00000000000E+00  0.00000000000E+00 -0.50490832845E+03  0.19718051071E+04  0.19060647838E+04 0.  0.
        4    1    3    3  502    0 -0.23846281352E+03  0.91204082854E+03 -0.39723156174E+03  0.10229748349E+04  0.12699999809E+01 0. -1.
       -4    1    3    3    0  502  0.23846281352E+03 -0.91204082854E+03 -0.10767676671E+03  0.94883027214E+03  0.12699999809E+01 0.  1.
</event>
<event>
 5   0  0.6423388E-05  0.1897736E+04  0.7818609E-02  0.8655984E-01
       -2   -1    0    0    0  501  0.00000000000E+00  0.00000000000E+00  0.96883927287E+03  0.96883927287E+03  0.25500000920E-02 0. -1.
        2   -1    0    0  501    0  0.00000000000E+00  0.00000000000E+00 -0.92930827390E+03  0.92930827390E+03  0.25500000920E-02 0.  1.
    10030    2    1    2    0    0  0.00000000000E+00  0.00000000000E+00  0.39530998973E+02  0.18981475468E+04  0.18977358640E+04 0.  0.
        2    1    3    3  502    0  0.54069196139E+03 -0.36794817979E+03  0.70738586525E+03  0.96339421967E+03  0.25500000920E-02 0. -1.
       -2    1    3    3    0  502 -0.54069196139E+03  0.36794817979E+03 -0.66785486628E+03  0.93475332711E+03  0.25500000920E-02 0.  1.
</event>
<event>
 5   0  0.3086139E-05  0.1902051E+04  0.7818609E-02  0.8653836E-01
       -1   -1    0    0    0  501  0.00000000000E+00  0.00000000000E+00  0.94987303176E+03  0.94987303177E+03  0.50400001928E-02 0. -1.
        1   -1    0    0  501    0  0.00000000000E+00  0.00000000000E+00 -0.95217980908E+03  0.95217980909E+03  0.50400001928E-02 0.  1.
    10030    2    1    2    0    0  0.00000000000E+00  0.00000000000E+00 -0.23067773214E+01  0.19020528409E+04  0.19020514421E+04 0.  0.
        2    1    3    3  502    0  0.75997636565E+03 -0.35375471800E+03  0.44800553859E+03  0.95048168813E+03  0.25500000920E-02 0.  1.
       -2    1    3    3    0  502 -0.75997636565E+03  0.35375471800E+03 -0.45031231592E+03  0.95157115274E+03  0.25500000920E-02 0. -1.
</event>
<event>
 5   0  0.3086139E-05  0.1893782E+04  0.7818609E-02  0.8657958E-01
       -1   -1    0    0    0  501  0.00000000000E+00  0.00000000000E+00  0.43135666090E+03  0.43135666093E+03  0.50400001928E-02 0.  1.
        1   -1    0    0  501    0  0.00000000000E+00  0.00000000000E+00 -0.20785637322E+04  0.20785637322E+04  0.50400001928E-02 0. -1.
    10030    2    1    2    0    0  0.00000000000E+00  0.00000000000E+00 -0.16472070713E+04  0.25099203931E+04  0.18937817309E+04 0.  0.
        2    1    3    3  502    0  0.37365082865E+03 -0.30053646740E+03 -0.19057446997E+04  0.19651462975E+04  0.25500000920E-02 0. -1.
       -2    1    3    3    0  502 -0.37365082865E+03  0.30053646740E+03  0.25853762842E+03  0.54477409566E+03  0.25500000920E-02 0.  1.
</event>
<event>
 5   0  0.6361762E-05  0.1860458E+04  0.7818609E-02  0.8674793E-01
        2   -1    0    0  501    0  0.00000000000E+00  0.00000000000E+00  0.10221334398E+04  0.10221334398E+04  0.25500000920E-02 0. -1.
       -2   -1    0    0    0  501  0.00000000000E+00  0.00000000000E+00 -0.84658831828E+03  0.84658831829E+03  0.25500000920E-02 0.  1.
    10030    2    1    2    0    0  0.00000000000E+00  0.00000000000E+00  0.17554512152E+03  0.18687217581E+04  0.18604582552E+04 0.  0.
        1    1    3    3  502    0  0.48895616952E+03  0.47186793810E+03  0.72588062718E+03  0.99430386284E+03  0.50400001928E-02 0. -1.
       -1    1    3    3    0  502 -0.48895616952E+03 -0.47186793810E+03 -0.55033550567E+03  0.87441789525E+03  0.50400001928E-02 0.  1.
</event>
<event>
 5   0  0.3203527E-05  0.1865082E+04  0.7818609E-02  0.8672435E-01
        1   -1    0    0  501    0  0.00000000000E+00  0.00000000000E+00  0.14387612773E+04  0.14387612773E+04  0.50400001928E-02 0. -1.
       -1   -1    0    0    0  501  0.00000000000E+00  0.00000000000E+00 -0.60443154581E+03  0.60443154583E+03  0.50400001928E-02 0.  1.
    10030    2    1    2    0    0  0.00000000000E+00  0.00000000000E+00  0.83432973150E+03  0.20431928231E+04  0.18650819852E+04 0.  0.
        1    1    3    3  502    0  0.13797028642E+02 -0.19349229000E+03  0.14164142603E+04  0.14296359611E+04  0.50400001928E-02 0. -1.
       -1    1    3    3    0  502 -0.13797028642E+02  0.19349229000E+03 -0.58208452882E+03  0.61355686208E+03  0.50400001928E-02 0.  1.
</event>
<event>
 5   0  0.3147063E-05  0.1908795E+04  0.7818609E-02  0.8650491E-01
        1   -1    0    0  501    0  0.00000000000E+00  0.00000000000E+00  0.54528226139E+03  0.54528226142E+03  0.50400001928E-02 0.  1.
       -1   -1    0    0    0  501  0.00000000000E+00  0.00000000000E+00 -0.16704645607E+04  0.16704645607E+04  0.50400001928E-02 0. -1.
    10030    2    1    2    0    0  0.00000000000E+00  0.00000000000E+00 -0.11251822993E+04  0.22157468221E+04  0.19087951103E+04 0.  0.
        5    1    3    3  502    0 -0.12631414074E+02 -0.94677232369E+03 -0.42370472424E+03  0.10373452506E+04  0.46999998093E+01 0. -1.
       -5    1    3    3    0  502  0.12631414074E+02  0.94677232369E+03 -0.70147757506E+03  0.11784015716E+04  0.46999998093E+01 0.  1.
</event>
<event>
 5   0  0.3203527E-05  0.1901374E+04  0.7818609E-02  0.8654173E-01
        1   -1    0    0  501    0  0.00000000000E+00  0.00000000000E+00  0.14600216715E+04  0.14600216715E+04  0.50400001928E-02 0.  1.
       -1   -1    0    0    0  501  0.00000000000E+00  0.00000000000E+00 -0.61903561634E+03  0.61903561636E+03  0.50400001928E-02 0. -1.
    10030    2    1    2    0    0  0.00000000000E+00  0.00000000000E+00  0.84098605516E+03  0.20790572879E+04  0.19013736249E+04 0.  0.
        1    1    3    3  502    0 -0.62153850942E+03 -0.36437452797E+02  0.12060801665E+04  0.13573014311E+04  0.50400001928E-02 0.  1.
       -1    1    3    3    0  502  0.62153850942E+03  0.36437452797E+02 -0.36509411137E+03  0.72175585681E+03  0.50400001928E-02 0. -1.
</event>
<event>
 5   0  0.3083469E-05  0.1898080E+04  0.7818609E-02  0.8655813E-01
        1   -1    0    0  501    0  0.00000000000E+00  0.00000000000E+00  0.94308037090E+03  0.94308037092E+03  0.50400001928E-02 0. -1.
       -1   -1    0    0    0  501  0.00000000000E+00  0.00000000000E+00 -0.95503716251E+03  0.95503716253E+03  0.50400001928E-02 0.  1.
    10030    2    1    2    0    0  0.00000000000E+00  0.00000000000E+00 -0.11956791607E+02  0.18981175334E+04  0.18980798734E+04 0.  0.
        3    1    3    3  502    0  0.41901897564E+03 -0.40536813106E+03 -0.75484341751E+03  0.95377608419E+03  0.10100000352E+00 0.  1.
       -3    1    3    3    0  502 -0.41901897564E+03  0.40536813106E+03  0.74288662590E+03  0.94434144925E+03  0.10100000352E+00 0. -1.
</event>
<event>
 5   0  0.6452182E-05  0.1903583E+04  0.7818609E-02  0.8653075E-01
       -2   -1    0    0    0  501  0.00000000000E+00  0.00000000000E+00  0.77604033943E+03  0.77604033943E+03  0.25500000920E-02 0. -1.
        2   -1    0    0  501    0  0.00000000000E+00  0.00000000000E+00 -0.11673457772E+04  0.11673457772E+04  0.25500000920E-02 0.  1.
    10030    2    1    2    0    0  0.00000000000E+00  0.00000000000E+00 -0.39130543772E+03  0.19433861166E+04  0.19035833716E+04 0.  0.
        3    1    3    3  502    0  0.70922116486E+03  0.42294527721E+03 -0.67886761792E+03  0.10689895327E+04  0.10100000352E+00 0.  1.
       -3    1    3    3    0  502 -0.70922116486E+03 -0.42294527721E+03  0.28756218020E+03  0.87439658387E+03  0.10100000352E+00 0. -1.
</event>
<event>
 5   0  0.6361762E-05  0.1939801E+04  0.7818609E-02  0.8635295E-01
       -2   -1    0    0    0  501  0.00000000000E+00  0.00000000000E+00  0.37878753934E+03  0.37878753935E+03  0.25500000920E-02 0.  1.
        2   -1    0    0  501    0  0.00000000000E+00  0.00000000000E+00 -0.24834689503E+04  0.24834689503E+04  0.25500000920E-02 0. -1.
    10030    2    1    2    0    0  0.00000000000E+00  0.00000000000E+00 -0.21046814110E+04  0.28622564897E+04  0.19398011163E+04 0.  0.
        1    1    3    3  502    0  0.41256267480E+02 -0.82056661997E+03 -0.18128894333E+04  0.19903767872E+04  0.50400001928E-02 0. -1.
       -1    1    3    3    0  502 -0.41256267480E+02  0.82056661997E+03 -0.29179197767E+03  0.87187970252E+03  0.50400001928E-02 0.  1.
</event>
<event>
 5   0  0.2279625E-05  0.1904490E+04  0.7818609E-02  0.8652625E-01
       -3   -1    0    0    0  501  0.00000000000E+00  0.00000000000E+00  0.11456053602E+04  0.11456053646E+04  0.10100000352E+00 0. -1.
        3   -1    0    0  501    0  0.00000000000E+00  0.00000000000E+00 -0.79152047280E+03  0.79152047925E+03  0.10100000352E+00 0.  1.
    10030    2    1    2    0    0  0.00000000000E+00  0.00000000000E+00  0.35408488736E+03  0.19371258439E+04  0.19044895451E+04 0.  0.
        5    1    3    3  502    0 -0.39851590086E+03  0.75027601165E+03 -0.26046697506E+03  0.88859110505E+03  0.46999998093E+01 0.  1.
       -5    1    3    3    0  502  0.39851590086E+03 -0.75027601165E+03  0.61455186242E+03  0.10485347388E+04  0.46999998093E+01 0. -1.
</event>
<event>
 5   0  0.6395992E-05  0.1906332E+04  0.7818609E-02  0.8651711E-01
        2   -1    0    0  501    0  0.00000000000E+00  0.00000000000E+00  0.75869199424E+03  0.75869199425E+03  0.25500000920E-02 0.  1.
       -2   -1    0    0    0  501  0.00000000000E+00  0.00000000000E+00 -0.11974888021E+04  0.11974888021E+04  0.25500000920E-02 0. -1.
    10030    2    1    2    0    0  0.00000000000E+00  0.00000000000E+00 -0.43879680789E+03  0.19561807964E+04  0.19063317312E+04 0.  0.
        4    1    3    3  502    0 -0.48723927269E+03  0.20407393487E+03  0.59474301984E+03  0.79546788263E+03  0.12699999809E+01 0.  1.
       -4    1    3    3    0  502  0.48723927269E+03 -0.20407393487E+03 -0.10335398277E+04  0.11607129138E+04  0.12699999809E+01 0. -1.
</event>
<event>
 5   0  0.3086139E-05  0.1899557E+04  0.7818609E-02  0.8655077E-01
        1   -1    0    0  501    0  0.00000000000E+00  0.00000000000E+00  0.66504805621E+03  0.66504805623E+03  0.50400001928E-02 0. -1.
       -1   -1    0    0    0  501  0.00000000000E+00  0.00000000000E+00 -0.13564117130E+04  0.13564117130E+04  0.50400001928E-02 0.  1.
    10030    2    1    2    0    0  0.00000000000E+00  0.00000000000E+00 -0.69136365681E+03  0.20214597693E+04  0.18995567622E+04 0.  0.
        2    1    3    3  502    0  0.34634407168E+03  0.44787600378E+03 -0.11572024813E+04  0.12882797497E+04  0.25500000920E-02 0. -1.
       -2    1    3    3    0  502 -0.34634407168E+03 -0.44787600378E+03  0.46583882446E+03  0.73318001959E+03  0.25500000920E-02 0.  1.
</event>
<event>
 5   0  0.6098377E-05  0.1897601E+04  0.7818609E-02  0.8656052E-01
        2   -1    0    0  501    0  0.00000000000E+00  0.00000000000E+00  0.73478510317E+03  0.73478510317E+03  0.25500000920E-02 0.  1.
       -2   -1    0    0    0  501  0.00000000000E+00  0.00000000000E+00 -0.12251503207E+04  0.12251503207E+04  0.25500000920E-02 0. -1.
    10030    2    1    2    0    0  0.00000000000E+00  0.00000000000E+00 -0.49036521756E+03  0.19599354239E+04  0.18976008061E+04 0.  0.
        5    1    3    3  502    0  0.46532413155E+03 -0.18874732520E+03 -0.10766409576E+04  0.11879940832E+04  0.46999998093E+01 0. -1.
       -5    1    3    3    0  502 -0.46532413155E+03  0.18874732520E+03  0.58627574001E+03  0.77194134071E+03  0.46999998093E+01 0.  1.
</event>
<event>
 5   0  0.6098377E-05  0.1896378E+04  0.7818609E-02  0.8656661E-01
       -2   -1    0    0    0  501  0.00000000000E+00  0.00000000000E+00  0.10107677306E+04  0.10107677306E+04  0.25500000920E-02 0. -1.
        2   -1    0    0  501    0  0.00000000000E+00  0.00000000000E+00 -0.88948454139E+03  0.88948454140E+03  0.25500000920E-02 0.  1.
    10030    2    1    2    0    0  0.00000000000E+00  0.00000000000E+00  0.12128318925E+03  0.19002522720E+04  0.18963778857E+04 0.  0.
        5    1    3    3  502    0 -0.45149637825E+03 -0.42424100774E+03 -0.65860670585E+03  0.90422026919E+03  0.46999998093E+01 0.  1.
       -5    1    3    3    0  502  0.45149637825E+03  0.42424100774E+03  0.77988989510E+03  0.99603200285E+03  0.46999998093E+01 0. -1.
</event>
<event>
 5   0  0.6452182E-05  0.1893479E+04  0.7818609E-02  0.8658109E-01
       -2   -1    0    0    0  501  0.00000000000E+00  0.00000000000E+00  0.14272865431E+04  0.14272865431E+04  0.25500000920E-02 0. -1.
        2   -1    0    0  501    0  0.00000000000E+00  0.00000000000E+00 -0.62798584242E+03  0.62798584242E+03  0.25500000920E-02 0.  1.
    10030    2    1    2    0    0  0.00000000000E+00  0.00000000000E+00  0.79930070065E+03  0.20552723855E+04  0.18934790647E+04 0.  0.
        3    1    3    3  502    0  0.10826546304E+03 -0.93326156654E+03  0.52631409020E+03  0.10768960460E+04  0.10100000352E+00 0. -1.
       -3    1    3    3    0  502 -0.10826546304E+03  0.93326156654E+03  0.27298661046E+03  0.97837633954E+03  0.10100000352E+00 0.  1.
</event>
<event>
 5   0  0.6098377E-05  0.1954247E+04  0.7818609E-02  0.8628316E-01
        2   -1    0    0  501    0  0.00000000000E+00  0.00000000000E+00  0.17065165054E+04  0.17065165054E+04  0.25500000920E-02 0.  1.
       -2   -1    0    0    0  501  0.00000000000E+00  0.00000000000E+00 -0.55948477463E+03  0.55948477464E+03  0.25500000920E-02 0. -1.
    10030    2    1    2    0    0  0.00000000000E+00  0.00000000000E+00  0.11470317308E+04  0.22660012801E+04  0.19542466604E+04 0.  0.
        5    1    3    3  502    0  0.88392863072E+03  0.27667253897E+03  0.93440707711E+03  0.13156808860E+04  0.46999998093E+01 0.  1.
       -5    1    3    3    0  502 -0.88392863072E+03 -0.27667253897E+03  0.21262465368E+03  0.95032039407E+03  0.46999998093E+01 0. -1.
</event>
<event>
 5   0  0.6423388E-05  0.1900214E+04  0.7818609E-02  0.8654750E-01
       -2   -1    0    0    0  501  0.00000000000E+00  0.00000000000E+00  0.58358185074E+03  0.58358185075E+03  0.25500000920E-02 0.  1.
        2   -1    0    0  501    0  0.00000000000E+00  0.00000000000E+00 -0.15468326592E+04  0.15468326592E+04  0.25500000920E-02 0. -1.
    10030    2    1    2    0    0  0.00000000000E+00  0.00000000000E+00 -0.96325080847E+03  0.21304145100E+04  0.19002141627E+04 0.  0.
        2    1    3    3  502    0 -0.76413357530E+03  0.43738569868E+03 -0.88194947730E+03  0.12462107570E+04  0.25500000920E-02 0. -1.
       -2    1    3    3    0  502  0.76413357530E+03 -0.43738569868E+03 -0.81301331172E+02  0.88420375297E+03  0.25500000920E-02 0.  1.
</event>
<event>
 5   0  0.6098377E-05  0.1894740E+04  0.7818609E-02  0.8657479E-01
       -2   -1    0    0    0  501  0.00000000000E+00  0.00000000000E+00  0.35791409123E+03  0.35791409124E+03  0.25500000920E-02 0. -1.
        2   -1    0    0  501    0  0.00000000000E+00  0.00000000000E+00 -0.25076137290E+04  0.25076137290E+04  0.25500000920E-02 0.  1.
    10030    2    1    2    0    0  0.00000000000E+00  0.00000000000E+00 -0.21496996378E+04  0.28655278203E+04  0.18947403928E+04 0.  0.
        5    1    3    3  502    0 -0.85292446878E+03 -0.13764650661E+03 -0.16626528156E+04  0.18737297525E+04  0.46999998093E+01 0.  1.
       -5    1    3    3    0  502  0.85292446878E+03  0.13764650661E+03 -0.48704682225E+03  0.99179806780E+03  0.46999998093E+01 0. -1.
</event>
<event>
 5   0  0.6423388E-05  0.1892225E+04  0.7818609E-02  0.8658736E-01
        2   -1    0    0  501    0  0.00000000000E+00  0.00000000000E+00  0.78545585972E+03  0.78545585972E+03  0.25500000920E-02 0. -1.
       -2   -1    0    0    0  501  0.00000000000E+00  0.00000000000E+00 -0.11396297135E+04  0.11396297135E+04  0.25500000920E-02 0.  1.
    10030    2    1    2    0    0  0.00000000000E+00  0.00000000000E+00 -0.35417385375E+03  0.19250855732E+04  0.18922249722E+04 0.  0.
        2    1    3    3  502    0  0.90427698299E+03 -0.27802236367E+03 -0.16615132043E+03  0.96053087298E+03  0.25500000920E-02 0. -1.
       -2    1    3    3    0  502 -0.90427698299E+03  0.27802236367E+03 -0.18802253331E+03  0.96455470021E+03  0.25500000920E-02 0.  1.
</event>
<event>
 5   0  0.6395992E-05  0.1897203E+04  0.7818609E-02  0.8656250E-01
        2   -1    0    0  501    0  0.00000000000E+00  0.00000000000E+00  0.11691405402E+04  0.11691405402E+04  0.25500000920E-02 0.  1.
       -2   -1    0    0    0  501  0.00000000000E+00  0.00000000000E+00 -0.76966370263E+03  0.76966370263E+03  0.25500000920E-02 0. -1.
    10030    2    1    2    0    0  0.00000000000E+00  0.00000000000E+00  0.39947683754E+03  0.19388042428E+04  0.18972032438E+04 0.  0.
        4    1    3    3  502    0 -0.29691738739E+03 -0.43647732492E+02 -0.71987052745E+03  0.77992323256E+03  0.12699999809E+01 0. -1.
       -4    1    3    3    0  502  0.29691738739E+03  0.43647732492E+02  0.11193473650E+04  0.11588810102E+04  0.12699999809E+01 0.  1.
</event>
<event>
 5   0  0.6361762E-05  0.1897936E+04  0.7818609E-02  0.8655884E-01
       -2   -1    0    0    0  501  0.00000000000E+00  0.00000000000E+00  0.48991118899E+03  0.48991118900E+03  0.25500000920E-02 0. -1.
        2   -1    0    0  501    0  0.00000000000E+00  0.00000000000E+00 -0.18381707396E+04  0.18381707396E+04  0.25500000920E-02 0.  1.
    10030    2    1    2    0    0  0.00000000000E+00  0.00000000000E+00 -0.13482595506E+04  0.23280819286E+04  0.18979361555E+04 0.  0.
        1    1    3    3  502    0 -0.43885116650E+03 -0.12077059347E+03  0.34727402887E+03  0.57251649212E+03  0.50400001928E-02 0. -1.
       -1    1    3    3    0  502  0.43885116650E+03  0.12077059347E+03 -0.16955335794E+04  0.17555654364E+04  0.50400001928E-02 0.  1.
</event>
<event>
 5   0  0.3203527E-05  0.1911186E+04  0.7818609E-02  0.8649308E-01
       -1   -1    0    0    0  501  0.00000000000E+00  0.00000000000E+00  0.12058553063E+04  0.12058553063E+04  0.50400001928E-02 0. -1.
        1   -1    0    0  501    0  0.00000000000E+00  0.00000000000E+00 -0.75726974810E+03  0.75726974811E+03  0.50400001928E-02 0.  1.
    10030    2    1    2    0    0  0.00000000000E+00  0.00000000000E+00  0.44858555816E+03  0.19631250544E+04  0.19111857513E+04 0.  0.
        1    1    3    3  502    0 -0.12038108322E+03  0.42933113751E+03  0.10924488952E+04  0.11799412780E+04  0.50400001928E-02 0. -1.
       -1    1    3    3    0  502  0.12038108322E+03 -0.42933113751E+03 -0.64386333703E+03  0.78318377641E+03  0.50400001928E-02 0.  1.
</event>
<event>
 5   0  0.3147063E-05  0.1903496E+04  0.7818609E-02  0.8653118E-01
        1   -1    0    0  501    0  0.00000000000E+00  0.00000000000E+00  0.12974826817E+04  0.12974826817E+04  0.50400001928E-02 0.  1.
       -1   -1    0    0    0  501  0.00000000000E+00  0.00000000000E+00 -0.69813963455E+03  0.69813963457E+03  0.50400001928E-02 0. -1.
    10030    2    1    2    0    0  0.00000000000E+00  0.00000000000E+00  0.59934304712E+03  0.19956223163E+04  0.19034958211E+04 0.  0.
        5    1    3    3  502    0  0.67888352802E+03  0.26001786280E+03  0.94365615380E+03  0.11912183512E+04  0.46999998093E+01 0.  1.
       -5    1    3    3    0  502 -0.67888352802E+03 -0.26001786280E+03 -0.34431310668E+03  0.80440396507E+03  0.46999998093E+01 0. -1.
</event>
<event>
 5   0  0.3086139E-05  0.1889416E+04  0.7818609E-02  0.8660143E-01
       -1   -1    0    0    0  501  0.00000000000E+00  0.00000000000E+00  0.12144331824E+04  0.12144331824E+04  0.50400001928E-02 0. -1.
        1   -1    0    0  501    0  0.00000000000E+00  0.00000000000E+00 -0.73488851471E+03  0.73488851473E+03  0.50400001928E-02 0.  1.
    10030    2    1    2    0    0  0.00000000000E+00  0.00000000000E+00  0.47954466766E+03  0.19493216971E+04  0.18894157802E+04 0.  0.
        2    1    3    3  502    0 -0.76508740688E+02 -0.68626005563E+03 -0.42539132729E+03  0.81102665350E+03  0.25500000920E-02 0.  1.
       -2    1    3    3    0  502  0.76508740688E+02  0.68626005563E+03  0.90493599494E+03  0.11382950436E+04  0.25500000920E-02 0. -1.
</event>
<event>
 5   0  0.3147063E-05  0.1901108E+04  0.7818609E-02  0.8654305E-01
        1   -1    0    0  501    0  0.00000000000E+00  0.00000000000E+00  0.53696260826E+03  0.53696260829E+03  0.50400001928E-02 0. -1.
       -1   -1    0    0    0  501  0.00000000000E+00  0.00000000000E+00 -0.16827109624E+04  0.16827109624E+04  0.50400001928E-02 0.  1.
    10030    2    1    2    0    0  0.00000000000E+00  0.00000000000E+00 -0.11457483542E+04  0.22196735707E+04  0.19011079584E+04 0.  0.
        5    1    3    3  502    0  0.64065375148E+03  0.24374754881E+03 -0.13417697653E+04  0.15067243576E+04  0.46999998093E+01 0.  1.
       -5    1    3    3    0  502 -0.64065375148E+03 -0.24374754881E+03  0.19602141112E+03  0.71294921309E+03  0.46999998093E+01 0. -1.
</event>
<event>
 5   0  0.6361762E-05  0.1902344E+04  0.7818609E-02  0.8653690E-01
        2   -1    0    0  501    0  0.00000000000E+00  0.00000000000E+00  0.20064902638E+04  0.20064902638E+04  0.25500000920E-02 0.  1.
       -2   -1    0    0    0  501  0.00000000000E+00  0.00000000000E+00 -0.45090097670E+03  0.45090097671E+03  0.25500000920E-02 0. -1.
    10030    2    1    2    0    0  0.00000000000E+00  0.00000000000E+00  0.15555892871E+04  0.24573912405E+04  0.19023442588E+04 0.  0.
        1    1    3    3  502    0 -0.32552567104E+03 -0.72187771561E+03  0.14584655331E+04  0.16595770877E+04  0.50400001928E-02 0.  1.
       -1    1    3    3    0  502  0.32552567104E+03  0.72187771561E+03  0.97123754011E+02  0.79781415281E+03  0.50400001928E-02 0. -1.
</event>
<event>
 5   0  0.6395992E-05  0.1901849E+04  0.7818609E-02  0.8653937E-01
        2   -1    0    0  501    0  0.00000000000E+00  0.00000000000E+00  0.17177868542E+04  0.17177868542E+04  0.25500000920E-02 0.  1.
       -2   -1    0    0    0  501  0.00000000000E+00  0.00000000000E+00 -0.52640843833E+03  0.52640843834E+03  0.25500000920E-02 0. -1.
    10030    2    1    2    0    0  0.00000000000E+00  0.00000000000E+00  0.11913784159E+04  0.22441952925E+04  0.19018490953E+04 0.  0.
        4    1    3    3  502    0  0.12933941064E+03  0.39102056108E+03  0.16070799130E+04  0.16590157389E+04  0.12699999809E+01 0.  1.
       -4    1    3    3    0  502 -0.12933941064E+03 -0.39102056108E+03 -0.41570149714E+03  0.58517955361E+03  0.12699999809E+01 0. -1.
</event>
<event>
 5   0  0.3144958E-05  0.1882770E+04  0.7818609E-02  0.8663480E-01
       -1   -1    0    0    0  501  0.00000000000E+00  0.00000000000E+00  0.59237236604E+03  0.59237236606E+03  0.50400001928E-02 0.  1.
        1   -1    0    0  501    0  0.00000000000E+00  0.00000000000E+00 -0.14960287963E+04  0.14960287963E+04  0.50400001928E-02 0. -1.
    10030    2    1    2    0    0  0.00000000000E+00  0.00000000000E+00 -0.90365643022E+03  0.20884011623E+04  0.18827704244E+04 0.  0.
        4    1    3    3  502    0 -0.53754963321E+03 -0.35345301056E+03 -0.12141403374E+04  0.13740549519E+04  0.12699999809E+01 0. -1.
       -4    1    3    3    0  502  0.53754963321E+03  0.35345301056E+03  0.31048390723E+03  0.71434621045E+03  0.12699999809E+01 0.  1.
</event>
<event>
 5   0  0.3086139E-05  0.1931280E+04  0.7818609E-02  0.8639441E-01
       -1   -1    0    0    0  501  0.00000000000E+00  0.00000000000E+00  0.67771449282E+03  0.67771449284E+03  0.50400001928E-02 0. -1.
        1   -1    0    0  501    0  0.00000000000E+00  0.00000000000E+00 -0.13758903635E+04  0.13758903635E+04  0.50400001928E-02 0.  1.
    10030    2    1    2    0    0  0.00000000000E+00  0.00000000000E+00 -0.69817587063E+03  0.20536048563E+04  0.19312802385E+04 0.  0.
        2    1    3    3  502    0 -0.39548457338E+03 -0.36695561805E+03 -0.12006863291E+04  0.13163252388E+04  0.25500000920E-02 0.  1.
       -2    1    3    3    0  502  0.39548457338E+03  0.36695561805E+03  0.50251045851E+03  0.73727961746E+03  0.25500000920E-02 0. -1.
</event>
<event>
 5   0  0.3086139E-05  0.1900036E+04  0.7818609E-02  0.8654838E-01
       -1   -1    0    0    0  501  0.00000000000E+00  0.00000000000E+00  0.83478385017E+03  0.83478385019E+03  0.50400001928E-02 0. -1.
        1   -1    0    0  501    0  0.00000000000E+00  0.00000000000E+00 -0.10811592499E+04  0.10811592499E+04  0.50400001928E-02 0.  1.
    10030    2    1    2    0    0  0.00000000000E+00  0.00000000000E+00 -0.24637539970E+03  0.19159431001E+04  0.19000360852E+04 0.  0.
        2    1    3    3  502    0  0.63027785410E+03  0.18929139573E+03 -0.81409019297E+03  0.10468162437E+04  0.25500000920E-02 0.  1.
       -2    1    3    3    0  502 -0.63027785410E+03 -0.18929139573E+03  0.56771479327E+03  0.86912685632E+03  0.25500000920E-02 0. -1.
</event>
<event>
 5   0  0.6423388E-05  0.1870281E+04  0.7818609E-02  0.8669793E-01
       -2   -1    0    0    0  501  0.00000000000E+00  0.00000000000E+00  0.38949889919E+03  0.38949889919E+03  0.25500000920E-02 0. -1.
        2   -1    0    0  501    0  0.00000000000E+00  0.00000000000E+00 -0.22451600652E+04  0.22451600652E+04  0.25500000920E-02 0.  1.
    10030    2    1    2    0    0  0.00000000000E+00  0.00000000000E+00 -0.18556611660E+04  0.26346589644E+04  0.18702805927E+04 0.  0.
        2    1    3    3  502    0 -0.36908189573E+03  0.23925265044E+03 -0.20903464240E+04  0.21361206541E+04  0.25500000920E-02 0.  1.
       -2    1    3    3    0  502  0.36908189573E+03 -0.23925265044E+03  0.23468525800E+03  0.49853831029E+03  0.25500000920E-02 0. -1.
</event>
<event>
 5   0  0.3203527E-05  0.1910194E+04  0.7818609E-02  0.8649799E-01
       -1   -1    0    0    0  501  0.00000000000E+00  0.00000000000E+00  0.62226300348E+03  0.62226300350E+03  0.50400001928E-02 0. -1.
        1   -1    0    0  501    0  0.00000000000E+00  0.00000000000E+00 -0.14659569057E+04  0.14659569057E+04  0.50400001928E-02 0.  1.
    10030    2    1    2    0    0  0.00000000000E+00  0.00000000000E+00 -0.84369390224E+03  0.20882199092E+04  0.19101944897E+04 0.  0.
        1    1    3    3  502    0  0.73805152552E+03 -0.19247759378E+03  0.20656866313E+03  0.79021407924E+03  0.50400001928E-02 0. -1.
       -1    1    3    3    0  502 -0.73805152552E+03  0.19247759378E+03 -0.10502625654E+04  0.12980058300E+04  0.50400001928E-02 0.  1.
</event>
<event>
 5   0  0.3086139E-05  0.1910586E+04  0.7818609E-02  0.8649605E-01
       -1   -1    0    0    0  501  0.00000000000E+00  0.00000000000E+00  0.14398724096E+04  0.14398724096E+04  0.50400001928E-02 0. -1.
        1   -1    0    0  501    0  0.00000000000E+00  0.00000000000E+00 -0.63379539167E+03  0.63379539169E+03  0.50400001928E-02 0.  1.
    10030    2    1    2    0    0  0.00000000000E+00  0.00000000000E+00  0.80607701788E+03  0.20736678013E+04  0.19105857717E+04 0.  0.
        2    1    3    3  502    0 -0.49844431389E+03 -0.38708013908E+03 -0.37532729647E+03  0.73426721812E+03  0.25500000920E-02 0.  1.
       -2    1    3    3    0  502  0.49844431389E+03  0.38708013908E+03  0.11814043144E+04  0.13394005831E+04  0.25500000920E-02 0. -1.
</event>
<event>
 5   0  0.3083469E-05  0.1895278E+04  0.7818609E-02  0.8657211E-01
        1   -1    0    0  501    0  0.00000000000E+00  0.00000000000E+00  0.79037415228E+03  0.79037415230E+03  0.50400001928E-02 0.  1.
       -1   -1    0    0    0  501  0.00000000000E+00  0.00000000000E+00 -0.11361952430E+04  0.11361952430E+04  0.50400001928E-02 0. -1.
    10030    2    1    2    0    0  0.00000000000E+00  0.00000000000E+00 -0.34582109068E+03  0.19265693953E+04  0.18952776599E+04 0.  0.
        3    1    3    3  502    0 -0.40937062077E+02 -0.84451491424E+03  0.26210133336E+03  0.88519963996E+03  0.10100000352E+00 0.  1.
       -3    1    3    3    0  502  0.40937062077E+02  0.84451491424E+03 -0.60792242404E+03  0.10413697553E+04  0.10100000352E+00 0. -1.
</event>
<event>
 5   0  0.3144958E-05  0.1922105E+04  0.7818609E-02  0.8643931E-01
        1   -1    0    0  501    0  0.00000000000E+00  0.00000000000E+00  0.44238926768E+03  0.44238926771E+03  0.50400001928E-02 0. -1.
       -1   -1    0    0    0  501  0.00000000000E+00  0.00000000000E+00 -0.20878044904E+04  0.20878044904E+04  0.50400001928E-02 0.  1.
    10030    2    1    2    0    0  0.00000000000E+00  0.00000000000E+00 -0.16454152227E+04  0.25301937581E+04  0.19221054077E+04 0.  0.
        4    1    3    3  502    0 -0.11684361361E+03 -0.79055850900E+03 -0.15254367496E+04  0.17220900314E+04  0.12699999809E+01 0.  1.
       -4    1    3    3    0  502  0.11684361361E+03  0.79055850900E+03 -0.11997847305E+03  0.80810372668E+03  0.12699999809E+01 0. -1.
</event>
<event>
 5   0  0.6395992E-05  0.1888438E+04  0.7818609E-02  0.8660633E-01
       -2   -1    0    0    0  501  0.00000000000E+00  0.00000000000E+00  0.15290910962E+04  0.15290910962E+04  0.25500000920E-02 0. -1.
        2   -1    0    0  501    0  0.00000000000E+00  0.00000000000E+00 -0.58305836454E+03  0.58305836455E+03  0.25500000920E-02 0.  1.
    10030    2    1    2    0    0  0.00000000000E+00  0.00000000000E+00  0.94603273162E+03  0.21121494607E+04  0.18884378240E+04 0.  0.
        4    1    3    3  502    0  0.78553723428E+03 -0.72046390389E+02 -0.10738805043E+03  0.79611132078E+03  0.12699999809E+01 0. -1.
       -4    1    3    3    0  502 -0.78553723428E+03  0.72046390389E+02  0.10534207820E+04  0.13160381399E+04  0.12699999809E+01 0.  1.
</event>
<event>
 5   0  0.6423388E-05  0.1902188E+04  0.7818609E-02  0.8653768E-01
       -2   -1    0    0    0  501  0.00000000000E+00  0.00000000000E+00  0.44119788383E+03  0.44119788384E+03  0.25500000920E-02 0. -1.
        2   -1    0    0  501    0  0.00000000000E+00  0.00000000000E+00 -0.20502813862E+04  0.20502813862E+04  0.25500000920E-02 0.  1.
    10030    2    1    2    0    0  0.00000000000E+00  0.00000000000E+00 -0.16090835024E+04  0.24914792701E+04  0.19021880127E+04 0.  0.
        2    1    3    3  502    0  0.43428804216E+03 -0.75021415479E+02 -0.19084644213E+04  0.19586910843E+04  0.25500000920E-02 0.  1.
       -2    1    3    3    0  502 -0.43428804216E+03  0.75021415479E+02  0.29938091887E+03  0.53278818580E+03  0.25500000920E-02 0. -1.
</event>
<event>
 5   0  0.6098377E-05  0.1900566E+04  0.7818609E-02  0.8654575E-01
       -2   -1    0    0    0  501  0.00000000000E+00  0.00000000000E+00  0.97951539953E+03  0.97951539954E+03  0.25500000920E-02 0. -1.
        2   -1    0    0  501    0  0.00000000000E+00  0.00000000000E+00 -0.92192336441E+03  0.92192336441E+03  0.25500000920E-02 0.  1.
    10030    2    1    2    0    0  0.00000000000E+00  0.00000000000E+00  0.57592035123E+02  0.19014387639E+04  0.19005663710E+04 0.  0.
        5    1    3    3  502    0  0.59976536941E+03 -0.66810783998E+03 -0.28268185240E+03  0.94128513420E+03  0.46999998093E+01 0. -1.
       -5    1    3    3    0  502 -0.59976536941E+03  0.66810783998E+03  0.34027388753E+03  0.96015362975E+03  0.46999998093E+01 0.  1.
</event>
<event>
 5   0  0.6452182E-05  0.1897609E+04  0.7818609E-02  0.8656048E-01
        2   -1    0    0  501    0  0.00000000000E+00  0.00000000000E+00  0.88619689313E+03  0.88619689313E+03  0.25500000920E-02 0. -1.
       -2   -1    0    0    0  501  0.00000000000E+00  0.00000000000E+00 -0.10158350534E+04  0.10158350534E+04  0.25500000920E-02 0.  1.
    10030    2    1    2    0    0  0.00000000000E+00  0.00000000000E+00 -0.12963816031E+03  0.19020319466E+04  0.18976088831E+04 0.  0.
        3    1    3    3  502    0  0.10318680662E+03  0.64396581274E+03  0.62591007115E+03  0.90393744939E+03  0.10100000352E+00 0. -1.
       -3    1    3    3    0  502 -0.10318680662E+03 -0.64396581274E+03 -0.75554823145E+03  0.99809449718E+03  0.10100000352E+00 0.  1.
</event>
<event>
 5   0  0.6361762E-05  0.1903187E+04  0.7818609E-02  0.8653271E-01
       -2   -1    0    0    0  501  0.00000000000E+00  0.00000000000E+00  0.86513600768E+03  0.86513600769E+03  0.25500000920E-02 0. -1.
        2   -1    0    0  501    0  0.00000000000E+00  0.00000000000E+00 -0.10466915143E+04  0.10466915143E+04  0.25500000920E-02 0.  1.
    10030    2    1    2    0    0  0.00000000000E+00  0.00000000000E+00 -0.18155550664E+03  0.19118275220E+04  0.19031873455E+04 0.  0.
        1    1    3    3  502    0  0.46925236888E+02  0.66933170332E+03  0.58706234070E+03  0.89154309981E+03  0.50400001928E-02 0. -1.
       -1    1    3    3    0  502 -0.46925236888E+02 -0.66933170332E+03 -0.76861784734E+03  0.10202844222E+04  0.50400001928E-02 0.  1.
</event>
<event>
 5   0  0.3083469E-05  0.1897670E+04  0.7818609E-02  0.8656017E-01
       -1   -1    0    0    0  501  0.00000000000E+00  0.00000000000E+00  0.10165404708E+04  0.10165404708E+04  0.50400001928E-02 0.  1.
        1   -1    0    0  501    0  0.00000000000E+00  0.00000000000E+00 -0.88563880072E+03  0.88563880074E+03  0.50400001928E-02 0. -1.
    10030    2    1    2    0    0  0.00000000000E+00  0.00000000000E+00  0.13090167005E+03  0.19021792715E+04  0.18976698168E+04 0.  0.
        3    1    3    3  502    0  0.29891686988E+02  0.22452322130E+03  0.98904337287E+03  0.10146482117E+04  0.10100000352E+00 0.  1.
       -3    1    3    3    0  502 -0.29891686988E+02 -0.22452322130E+03 -0.85814170282E+03  0.88753105984E+03  0.10100000352E+00 0. -1.
</event>
<event>
 5   0  0.3083469E-05  0.1895581E+04  0.7818609E-02  0.8657059E-01
       -1   -1    0    0    0  501  0.00000000000E+00  0.00000000000E+00  0.16342301218E+04  0.16342301218E+04  0.50400001928E-02 0. -1.
        1   -1    0    0  501    0  0.00000000000E+00  0.00000000000E+00 -0.54968199374E+03  0.54968199376E+03  0.50400001928E-02 0.  1.
    10030    2    1    2    0    0  0.00000000000E+00  0.00000000000E+00  0.10845481281E+04  0.21839121156E+04  0.18955810419E+04 0.  0.
        3    1    3    3  502    0 -0.86978292628E+03  0.36505503672E+03  0.64861386589E+03  0.11447652493E+04  0.10100000352E+00 0.  1.
       -3    1    3    3    0  502  0.86978292628E+03 -0.36505503672E+03  0.43593426221E+03  0.10391468664E+04  0.10100000352E+00 0. -1.
</event>
<event>
 5   0  0.6098377E-05  0.1890606E+04  0.7818609E-02  0.8659546E-01
        2   -1    0    0  501    0  0.00000000000E+00  0.00000000000E+00  0.10685735318E+04  0.10685735318E+04  0.25500000920E-02 0.  1.
       -2   -1    0    0    0  501  0.00000000000E+00  0.00000000000E+00 -0.83625321023E+03  0.83625321023E+03  0.25500000920E-02 0. -1.
    10030    2    1    2    0    0  0.00000000000E+00  0.00000000000E+00  0.23232032155E+03  0.19048267420E+04  0.18906063010E+04 0.  0.
        5    1    3    3  502    0  0.48377581101E+03 -0.24956335784E+03  0.89479582916E+03  0.10473789051E+04  0.46999998093E+01 0.  1.
       -5    1    3    3    0  502 -0.48377581101E+03  0.24956335784E+03 -0.66247550761E+03  0.85744783694E+03  0.46999998093E+01 0. -1.
</event>
<event>
 5   0  0.3144958E-05  0.1873304E+04  0.7818609E-02  0.8668260E-01
        1   -1    0    0  501    0  0.00000000000E+00  0.00000000000E+00  0.16287677547E+04  0.16287677547E+04  0.50400001928E-02 0. -1.
       -1   -1    0    0    0  501  0.00000000000E+00  0.00000000000E+00 -0.53863863323E+03  0.53863863325E+03  0.50400001928E-02 0.  1.
    10030    2    1    2    0    0  0.00000000000E+00  0.00000000000E+00  0.10901291215E+04  0.21674063880E+04  0.18733042863E+04 0.  0.
        4    1    3    3  502    0 -0.88710958325E+03 -0.28633456461E+03  0.43924694931E+03  0.10304806602E+04  0.12699999809E+01 0.  1.
       -4    1    3    3    0  502  0.88710958325E+03  0.28633456461E+03  0.65088217216E+03  0.11369257278E+04  0.12699999809E+01 0. -1.
</event>
<event>
 5   0  0.6361762E-05  0.1894968E+04  0.7818609E-02  0.8657365E-01
       -2   -1    0    0    0  501  0.00000000000E+00  0.00000000000E+00  0.62657152879E+03  0.62657152879E+03  0.25500000920E-02 0.  1.
        2   -1    0    0  501    0  0.00000000000E+00  0.00000000000E+00 -0.14327588191E+04  0.14327588191E+04  0.25500000920E-02 0. -1.
    10030    2    1    2    0    0  0.00000000000E+00  0.00000000000E+00 -0.80618729030E+03  0.20593303479E+04  0.18949679508E+04 0.  0.
        1    1    3    3  502    0 -0.86647567524E+03 -0.51466914476E+02  0.97187395576E+01  0.86805725214E+03  0.50400001928E-02 0.  1.
       -1    1    3    3    0  502  0.86647567524E+03  0.51466914476E+02 -0.81590602985E+03  0.11912730957E+04  0.50400001928E-02 0. -1.
</event>
<event>
 5   0  0.6452182E-05  0.1883833E+04  0.7818609E-02  0.8662946E-01
        2   -1    0    0  501    0  0.00000000000E+00  0.00000000000E+00  0.20130254906E+04  0.20130254906E+04  0.25500000920E-02 0. -1.
       -2   -1    0    0    0  501  0.00000000000E+00  0.00000000000E+00 -0.44073314420E+03  0.44073314421E+03  0.25500000920E-02 0.  1.
    10030    2    1    2    0    0  0.00000000000E+00  0.00000000000E+00  0.15722923464E+04  0.24537586348E+04  0.18838333831E+04 0.  0.
        3    1    3    3  502    0  0.33303352822E+03 -0.28558305757E+03  0.18718213013E+04  0.19225462303E+04  0.10100000352E+00 0. -1.
       -3    1    3    3    0  502 -0.33303352822E+03  0.28558305757E+03 -0.29952895486E+03  0.53121240449E+03  0.10100000352E+00 0.  1.
</event>
<event>
 5   0  0.3083469E-05  0.1903339E+04  0.7818609E-02  0.8653196E-01
       -1   -1    0    0    0  501  0.00000000000E+00  0.00000000000E+00  0.77075263794E+03  0.77075263796E+03  0.50400001928E-02 0.  1.
        1   -1    0    0  501    0  0.00000000000E+00  0.00000000000E+00 -0.11750530768E+04  0.11750530769E+04  0.50400001928E-02 0. -1.
    10030    2    1    2    0    0  0.00000000000E+00  0.00000000000E+00 -0.40430043890E+03  0.19458057148E+04  0.19033394429E+04 0.  0.
        3    1    3    3  502    0 -0.85350792736E+03 -0.38045010930E+03 -0.17971849764E+02  0.93463418796E+03  0.10100000352E+00 0.  1.
       -3    1    3    3    0  502  0.85350792736E+03  0.38045010930E+03 -0.38632858914E+03  0.10111715269E+04  0.10100000352E+00 0. -1.
</event>
<event>
 5   0  0.6452182E-05  0.1905220E+04  0.7818609E-02  0.8652262E-01
        2   -1    0    0  501    0  0.00000000000E+00  0.00000000000E+00  0.83303199583E+03  0.83303199584E+03  0.25500000920E-02 0.  1.
       -2   -1    0    0    0  501  0.00000000000E+00  0.00000000000E+00 -0.10893527574E+04  0.10893527574E+04  0.25500000920E-02 0. -1.
    10030    2    1    2    0    0  0.00000000000E+00  0.00000000000E+00 -0.25632076157E+03  0.19223847532E+04  0.19052198841E+04 0.  0.
        3    1    3    3  502    0 -0.79206081950E+03 -0.40467054834E+02 -0.66061509212E+03  0.10321871121E+04  0.10100000352E+00 0. -1.
       -3    1    3    3    0  502  0.79206081950E+03  0.40467054834E+02  0.40429433055E+03  0.89019764111E+03  0.10100000352E+00 0.  1.
</event>
<event>
 5   0  0.6361762E-05  0.1909802E+04  0.7818609E-02  0.8649993E-01
       -2   -1    0    0    0  501  0.00000000000E+00  0.00000000000E+00  0.50254847503E+03  0.50254847503E+03  0.25500000920E-02 0. -1.
        2   -1    0    0  501    0  0.00000000000E+00  0.00000000000E+00 -0.18144241349E+04  0.18144241349E+04  0.25500000920E-02 0.  1.
    10030    2    1    2    0    0  0.00000000000E+00  0.00000000000E+00 -0.13118756598E+04  0.23169726099E+04  0.19098021699E+04 0.  0.
        1    1    3    3  502    0 -0.68926853387E+03  0.21258078179E+02  0.14541111958E+03  0.70476053479E+03  0.50400001928E-02 0. -1.
       -1    1    3    3    0  502  0.68926853387E+03 -0.21258078179E+02 -0.14572867794E+04  0.16122120751E+04  0.50400001928E-02 0.  1.
</event>
<event>
 5   0  0.3086139E-05  0.1899565E+04  0.7818609E-02  0.8655073E-01
        1   -1    0    0  501    0  0.00000000000E+00  0.00000000000E+00  0.15629208320E+04  0.15629208320E+04  0.50400001928E-02 0.  1.
       -1   -1    0    0    0  501  0.00000000000E+00  0.00000000000E+00 -0.57717992550E+03  0.57717992553E+03  0.50400001928E-02 0. -1.
    10030    2    1    2    0    0  0.00000000000E+00  0.00000000000E+00  0.98574090648E+03  0.21401007575E+04  0.18995647179E+04 0.  0.
        2    1    3    3  502    0  0.25260695099E+02 -0.94152766694E+03  0.63073423487E+03  0.11335511128E+04  0.25500000920E-02 0.  1.
       -2    1    3    3    0  502 -0.25260695099E+02  0.94152766694E+03  0.35500667160E+03  0.10065496447E+04  0.25500000920E-02 0. -1.
</event>
<event>
 5   0  0.6395992E-05  0.1894408E+04  0.7818609E-02  0.8657645E-01
        2   -1    0    0  501    0  0.00000000000E+00  0.00000000000E+00  0.12469506405E+04  0.12469506405E+04  0.25500000920E-02 0. -1.
       -2   -1    0    0    0  501  0.00000000000E+00  0.00000000000E+00 -0.71951175933E+03  0.71951175933E+03  0.25500000920E-02 0.  1.
    10030    2    1    2    0    0  0.00000000000E+00  0.00000000000E+00  0.52743888117E+03  0.19664623998E+04  0.18944082444E+04 0.  0.
        4    1    3    3  502    0  0.56372152315E+03  0.38977687122E+03  0.94241195010E+03  0.11652681501E+04  0.12699999809E+01 0. -1.
       -4    1    3    3    0  502 -0.56372152315E+03 -0.38977687122E+03 -0.41497306893E+03  0.80119424975E+03  0.12699999809E+01 0.  1.
</event>
<event>
 5   0  0.6423388E-05  0.1905689E+04  0.7818609E-02  0.8652030E-01
        2   -1    0    0  501    0  0.00000000000E+00  0.00000000000E+00  0.19267266688E+04  0.19267266688E+04  0.25500000920E-02 0. -1.
       -2   -1    0    0    0  501  0.00000000000E+00  0.00000000000E+00 -0.47122021467E+03  0.47122021468E+03  0.25500000920E-02 0.  1.
    10030    2    1    2    0    0  0.00000000000E+00  0.00000000000E+00  0.14555064542E+04  0.23979468835E+04  0.19056889090E+04 0.  0.
        2    1    3    3  502    0  0.47918278038E+03  0.64350397909E+03  0.80978300514E+02  0.80639382021E+03  0.25500000920E-02 0.  1.
       -2    1    3    3    0  502 -0.47918278038E+03 -0.64350397909E+03  0.13745281537E+04  0.15915530633E+04  0.25500000920E-02 0. -1.
</event>
<event>
 5   0  0.3083469E-05  0.1905032E+04  0.7818609E-02  0.8652356E-01
        1   -1    0    0  501    0  0.00000000000E+00  0.00000000000E+00  0.13522338739E+04  0.13522338739E+04  0.50400001928E-02 0. -1.
       -1   -1    0    0    0  501  0.00000000000E+00  0.00000000000E+00 -0.67095414599E+03  0.67095414601E+03  0.50400001928E-02 0.  1.
    10030    2    1    2    0    0  0.00000000000E+00  0.00000000000E+00  0.68127972788E+03  0.20231880199E+04  0.19050322035E+04 0.  0.
        3    1    3    3  502    0  0.96587840337E+02 -0.16202870368E+03 -0.65091909480E+03  0.67770066393E+03  0.10100000352E+00 0.  1.
       -3    1    3    3    0  502 -0.96587840337E+02  0.16202870368E+03  0.13321988227E+04  0.13454873560E+04  0.10100000352E+00 0. -1.
</event>
<event>
 5   0  0.3144958E-05  0.1899488E+04  0.7818609E-02  0.8655111E-01
       -1   -1    0    0    0  501  0.00000000000E+00  0.00000000000E+00  0.56752455004E+03  0.56752455006E+03  0.50400001928E-02 0. -1.
        1   -1    0    0  501    0  0.00000000000E+00  0.00000000000E+00 -0.15893819166E+04  0.15893819166E+04  0.50400001928E-02 0.  1.
    10030    2    1    2    0    0  0.00000000000E+00  0.00000000000E+00 -0.10218573665E+04  0.21569064667E+04  0.18994875699E+04 0.  0.
        4    1    3    3  502    0 -0.54040597134E+03 -0.77925214499E+03 -0.57035800465E+03  0.11066085061E+04  0.12699999809E+01 0.  1.
       -4    1    3    3    0  502  0.54040597134E+03  0.77925214499E+03 -0.45149936189E+03  0.10502979606E+04  0.12699999809E+01 0. -1.
</event>
<event>
 5   0  0.3147063E-05  0.1895709E+04  0.7818609E-02  0.8656995E-01
        1   -1    0    0  501    0  0.00000000000E+00  0.00000000000E+00  0.98211234776E+03  0.98211234777E+03  0.50400001928E-02 0.  1.
       -1   -1    0    0    0  501  0.00000000000E+00  0.00000000000E+00 -0.91479119757E+03  0.91479119758E+03  0.50400001928E-02 0. -1.
    10030    2    1    2    0    0  0.00000000000E+00  0.00000000000E+00  0.67321150192E+02  0.18969035454E+04  0.18957085544E+04 0.  0.
        5    1    3    3  502    0  0.54363367746E+03 -0.11602717411E+03  0.80187218511E+03  0.97571562028E+03  0.46999998093E+01 0.  1.
       -5    1    3    3    0  502 -0.54363367746E+03  0.11602717411E+03 -0.73455103492E+03  0.92118792508E+03  0.46999998093E+01 0. -1.
</event>
<event>
 5   0  0.3144958E-05  0.1883513E+04  0.7818609E-02  0.8663107E-01
       -1   -1    0    0    0  501  0.00000000000E+00  0.00000000000E+00  0.68885351769E+03  0.68885351771E+03  0.50400001928E-02 0.  1.
        1   -1    0    0  501    0  0.00000000000E+00  0.00000000000E+00 -0.12875093833E+04  0.12875093833E+04  0.50400001928E-02 0. -1.
    10030    2    1    2    0    0  0.00000000000E+00  0.00000000000E+00 -0.59865586559E+03  0.19763629010E+04  0.18835130663E+04 0.  0.
        4    1    3    3  502    0 -0.98014128971E+02 -0.26359717196E+03  0.64376309553E+03  0.70251176119E+03  0.12699999809E+01 0.  1.
       -4    1    3    3    0  502  0.98014128971E+02  0.26359717196E+03 -0.12424189611E+04  0.12738511398E+04  0.12699999809E+01 0. -1.
</event>
<event>
 5   0  0.3203527E-05  0.1902057E+04  0.7818609E-02  0.8653833E-01
        1   -1    0    0  501    0  0.00000000000E+00  0.00000000000E+00  0.10032431285E+04  0.10032431285E+04  0.50400001928E-02 0. -1.
       -1   -1    0    0    0  501  0.00000000000E+00  0.00000000000E+00 -0.90153123537E+03  0.90153123539E+03  0.50400001928E-02 0.  1.
    10030    2    1    2    0    0  0.00000000000E+00  0.00000000000E+00  0.10171189316E+03  0.19047743639E+04  0.19020567994E+04 0.  0.
        1    1    3    3  502    0 -0.57351937077E+03  0.20806101757E+03 -0.67973499740E+03  0.91337479843E+03  0.50400001928E-02 0.  1.
       -1    1    3    3    0  502  0.57351937077E+03 -0.20806101757E+03  0.78144689056E+03  0.99139956550E+03  0.50400001928E-02 0. -1.
</event>
<event>
 5   0  0.6098377E-05  0.1906938E+04  0.7818609E-02  0.8651411E-01
       -2   -1    0    0    0  501  0.00000000000E+00  0.00000000000E+00  0.62464981206E+03  0.62464981206E+03  0.25500000920E-02 0.  1.
        2   -1    0    0  501    0  0.00000000000E+00  0.00000000000E+00 -0.14553801573E+04  0.14553801573E+04  0.25500000920E-02 0. -1.
    10030    2    1    2    0    0  0.00000000000E+00  0.00000000000E+00 -0.83073034522E+03  0.20800299693E+04  0.19069377984E+04 0.  0.
        5    1    3    3  502    0  0.36598675814E+03  0.67505572419E+03 -0.10318520668E+04  0.12862298844E+04  0.46999998093E+01 0. -1.
       -5    1    3    3    0  502 -0.36598675814E+03 -0.67505572419E+03  0.20112172158E+03  0.79380008490E+03  0.46999998093E+01 0.  1.
</event>
<event>
 5   0  0.3144958E-05  0.1898434E+04  0.7818609E-02  0.8655636E-01
       -1   -1    0    0    0  501  0.00000000000E+00  0.00000000000E+00  0.78093734730E+03  0.78093734731E+03  0.50400001928E-02 0. -1.
        1   -1    0    0  501    0  0.00000000000E+00  0.00000000000E+00 -0.11537584321E+04  0.11537584321E+04  0.50400001928E-02 0.  1.
    10030    2    1    2    0    0  0.00000000000E+00  0.00000000000E+00 -0.37282108484E+03  0.19346957795E+04  0.18984341436E+04 0.  0.
        4    1    3    3  502    0 -0.35498899919E+03  0.87748563031E+03 -0.11425406240E+03  0.95344314179E+03  0.12699999809E+01 0. -1.
       -4    1    3    3    0  502  0.35498899919E+03 -0.87748563031E+03 -0.25856702244E+03  0.98125263768E+03  0.12699999809E+01 0.  1.
</event>
<event>
 5   0  0.2279625E-05  0.1900349E+04  0.7818609E-02  0.8654683E-01
        4   -1    0    0  501    0  0.00000000000E+00  0.00000000000E+00  0.50425120684E+03  0.50425280614E+03  0.12699999809E+01 0. -1.
       -4   -1    0    0    0  501  0.00000000000E+00  0.00000000000E+00 -0.17904351107E+04  0.17904355611E+04  0.12699999809E+01 0.  1.
    10030    2    1    2    0    0  0.00000000000E+00  0.00000000000E+00 -0.12861839038E+04  0.22946883672E+04  0.19003488280E+04 0.  0.
        4    1    3    3  502    0 -0.43772154362E+02 -0.23310295428E+03  0.46793238423E+03  0.52460968148E+03  0.12699999809E+01 0. -1.
       -4    1    3    3    0  502  0.43772154362E+02  0.23310295428E+03 -0.17541162881E+04  0.17700786857E+04  0.12699999809E+01 0.  1.
</event>
<event>
 5   0  0.6452182E-05  0.1895446E+04  0.7818609E-02  0.8657126E-01
        2   -1    0    0  501    0  0.00000000000E+00  0.00000000000E+00  0.13965158048E+04  0.13965158048E+04  0.25500000920E-02 0.  1.
       -2   -1    0    0    0  501  0.00000000000E+00  0.00000000000E+00 -0.64315706282E+03  0.64315706283E+03  0.25500000920E-02 0. -1.
    10030    2    1    2    0    0  0.00000000000E+00  0.00000000000E+00  0.75335874194E+03  0.20396728676E+04  0.18954461250E+04 0.  0.
        3    1    3    3  502    0 -0.93873249272E+03  0.12676680561E+03  0.40879086034E+03  0.10316969001E+04  0.10100000352E+00 0. -1.
       -3    1    3    3    0  502  0.93873249272E+03 -0.12676680561E+03  0.34456788160E+03  0.10079759675E+04  0.10100000352E+00 0.  1.
</event>
<event>
 5   0  0.6452182E-05  0.1872009E+04  0.7818609E-02  0.8668916E-01
       -2   -1    0    0    0  501  0.00000000000E+00  0.00000000000E+00  0.46526822754E+03  0.46526822755E+03  0.25500000920E-02 0.  1.
        2   -1    0    0  501    0  0.00000000000E+00  0.00000000000E+00 -0.18830084321E+04  0.18830084321E+04  0.25500000920E-02 0. -1.
    10030    2    1    2    0    0  0.00000000000E+00  0.00000000000E+00 -0.14177402045E+04  0.23482766596E+04  0.18720085423E+04 0.  0.
        3    1    3    3  502    0  0.37853012298E+03  0.75002906752E+03 -0.12264975530E+04  0.14866488873E+04  0.10100000352E+00 0.  1.
       -3    1    3    3    0  502 -0.37853012298E+03 -0.75002906752E+03 -0.19124265147E+03  0.86162777235E+03  0.10100000352E+00 0. -1.
</event>
<event>
 5   0  0.3147063E-05  0.1884230E+04  0.7818609E-02  0.8662746E-01
        1   -1    0    0  501    0  0.00000000000E+00  0.00000000000E+00  0.18989679621E+04  0.18989679621E+04  0.50400001928E-02 0. -1.
       -1   -1    0    0    0  501  0.00000000000E+00  0.00000000000E+00 -0.46740156498E+03  0.46740156501E+03  0.50400001928E-02 0.  1.
    10030    2    1    2    0    0  0.00000000000E+00  0.00000000000E+00  0.14315663971E+04  0.23663695271E+04  0.18842299195E+04 0.  0.
        5    1    3    3  502    0  0.38338678974E+02 -0.41350491590E+03 -0.34623697707E+03  0.54070167752E+03  0.46999998093E+01 0.  1.
       -5    1    3    3    0  502 -0.38338678974E+02  0.41350491590E+03  0.17778033741E+04  0.18256678496E+04  0.46999998093E+01 0. -1.
</event>
<event>
 5   0  0.6098377E-05  0.1899113E+04  0.7818609E-02  0.8655298E-01
       -2   -1    0    0    0  501  0.00000000000E+00  0.00000000000E+00  0.65756051554E+03  0.65756051555E+03  0.25500000920E-02 0. -1.
        2   -1    0    0  501    0  0.00000000000E+00  0.00000000000E+00 -0.13712165442E+04  0.13712165442E+04  0.25500000920E-02 0.  1.
    10030    2    1    2    0    0  0.00000000000E+00  0.00000000000E+00 -0.71365602867E+03  0.20287770598E+04  0.18991133276E+04 0.  0.
        5    1    3    3  502    0  0.79486126642E+03  0.44094892788E+03 -0.65015755694E+03  0.11175720687E+04  0.46999998093E+01 0.  1.
       -5    1    3    3    0  502 -0.79486126642E+03 -0.44094892788E+03 -0.63498471735E+02  0.91120499108E+03  0.46999998093E+01 0. -1.
</event>
<event>
 5   0  0.6452182E-05  0.1943994E+04  0.7818609E-02  0.8633262E-01
       -2   -1    0    0    0  501  0.00000000000E+00  0.00000000000E+00  0.37982543441E+03  0.37982543442E+03  0.25500000920E-02 0. -1.
        2   -1    0    0  501    0  0.00000000000E+00  0.00000000000E+00 -0.24874013031E+04  0.24874013031E+04  0.25500000920E-02 0.  1.
    10030    2    1    2    0    0  0.00000000000E+00  0.00000000000E+00 -0.21075758687E+04  0.28672267375E+04  0.19439941158E+04 0.  0.
        3    1    3    3  502    0  0.78097973660E+03  0.16513872682E+03 -0.18717719412E+04  0.20348784628E+04  0.10100000352E+00 0.  1.
       -3    1    3    3    0  502 -0.78097973660E+03 -0.16513872682E+03 -0.23580392747E+03  0.83234827475E+03  0.10100000352E+00 0. -1.
</event>
<event>
 5   0  0.3083469E-05  0.1884947E+04  0.7818609E-02  0.8662386E-01
       -1   -1    0    0    0  501  0.00000000000E+00  0.00000000000E+00  0.11325822564E+04  0.11325822564E+04  0.50400001928E-02 0.  1.
        1   -1    0    0  501    0  0.00000000000E+00  0.00000000000E+00 -0.78427516255E+03  0.78427516256E+03  0.50400001928E-02 0. -1.
    10030    2    1    2    0    0  0.00000000000E+00  0.00000000000E+00  0.34830709382E+03  0.19168574189E+04  0.18849468250E+04 0.  0.
        3    1    3    3  502    0  0.54258255784E+03  0.42613593092E+03  0.82710480368E+03  0.10770747561E+04  0.10100000352E+00 0.  1.
       -3    1    3    3    0  502 -0.54258255784E+03 -0.42613593092E+03 -0.47879770986E+03  0.83978266287E+03  0.10100000352E+00 0. -1.
</event>
<event>
 5   0  0.3083469E-05  0.1912243E+04  0.7818609E-02  0.8648786E-01
        1   -1    0    0  501    0  0.00000000000E+00  0.00000000000E+00  0.92036227816E+03  0.92036227817E+03  0.50400001928E-02 0. -1.
       -1   -1    0    0    0  501  0.00000000000E+00  0.00000000000E+00 -0.99327044811E+03  0.99327044812E+03  0.50400001928E-02 0.  1.
    10030    2    1    2    0    0  0.00000000000E+00  0.00000000000E+00 -0.72908169954E+02  0.19136327263E+04  0.19122433448E+04 0.  0.
        3    1    3    3  502    0  0.17863558047E+03 -0.33439893252E+03 -0.91483628252E+03  0.99028215711E+03  0.10100000352E+00 0.  1.
       -3    1    3    3    0  502 -0.17863558047E+03  0.33439893252E+03  0.84192811256E+03  0.92335056918E+03  0.10100000352E+00 0. -1.
</event>
<event>
 5   0  0.3144958E-05  0.1904990E+04  0.7818609E-02  0.8652377E-01
        1   -1    0    0  501    0  0.00000000000E+00  0.00000000000E+00  0.89368298628E+03  0.89368298629E+03  0.50400001928E-02 0. -1.
       -1   -1    0    0    0  501  0.00000000000E+00  0.00000000000E+00 -0.10151769038E+04  0.10151769038E+04  0.50400001928E-02 0.  1.
    10030    2    1    2    0    0  0.00000000000E+00  0.00000000000E+00 -0.12149391747E+03  0.19088598901E+04  0.19049895821E+04 0.  0.
        4    1    3    3  502    0  0.70669646072E+03 -0.33281414737E+03  0.48539207968E+03  0.91966962993E+03  0.12699999809E+01 0. -1.
       -4    1    3    3    0  502 -0.70669646072E+03  0.33281414737E+03 -0.60688599716E+03  0.98919026013E+03  0.12699999809E+01 0.  1.
</event>
<event>
 5   0  0.6361762E-05  0.1902189E+04  0.7818609E-02  0.8653768E-01
       -2   -1    0    0    0  501  0.00000000000E+00  0.00000000000E+00  0.66684636743E+03  0.66684636743E+03  0.25500000920E-02 0.  1.
        2   -1    0    0  501    0  0.00000000000E+00  0.00000000000E+00 -0.13565050104E+04  0.13565050104E+04  0.25500000920E-02 0. -1.
    10030    2    1    2    0    0  0.00000000000E+00  0.00000000000E+00 -0.68965864299E+03  0.20233513779E+04  0.19021886748E+04 0.  0.
        1    1    3    3  502    0  0.53603660106E+03 -0.35959477904E+03 -0.10878476087E+04  0.12649332246E+04  0.50400001928E-02 0. -1.
       -1    1    3    3    0  502 -0.53603660106E+03  0.35959477904E+03  0.39818896573E+03  0.75841815329E+03  0.50400001928E-02 0.  1.
</event>
<event>
 5   0  0.2279625E-05  0.1897839E+04  0.7818609E-02  0.8655933E-01
       -4   -1    0    0    0  501  0.00000000000E+00  0.00000000000E+00  0.80146245163E+03  0.80146345785E+03  0.12699999809E+01 0.  1.
        4   -1    0    0  501    0  0.00000000000E+00  0.00000000000E+00 -0.11235040387E+04  0.11235047565E+04  0.12699999809E+01 0. -1.
    10030    2    1    2    0    0  0.00000000000E+00  0.00000000000E+00 -0.32204158707E+03  0.19249682143E+04  0.18978387293E+04 0.  0.
        2    1    3    3  502    0 -0.71852064479E+03  0.61360201519E+03 -0.24984321310E+03  0.97734383979E+03  0.25500000920E-02 0. -1.
       -2    1    3    3    0  502  0.71852064479E+03 -0.61360201519E+03 -0.72198373965E+02  0.94762437455E+03  0.25500000920E-02 0.  1.
</event>
<event>
 5   0  0.6423388E-05  0.1907166E+04  0.7818609E-02  0.8651298E-01
       -2   -1    0    0    0  501  0.00000000000E+00  0.00000000000E+00  0.73713191083E+03  0.73713191084E+03  0.25500000920E-02 0.  1.
        2   -1    0    0  501    0  0.00000000000E+00  0.00000000000E+00 -0.12335928412E+04  0.12335928412E+04  0.25500000920E-02 0. -1.
    10030    2    1    2    0    0  0.00000000000E+00  0.00000000000E+00 -0.49646093038E+03  0.19707247521E+04  0.19071661157E+04 0.  0.
        2    1    3    3  502    0 -0.46367043023E+03 -0.72257027600E+03  0.18059689878E+03  0.87733306759E+03  0.25500000920E-02 0.  1.
       -2    1    3    3    0  502  0.46367043023E+03  0.72257027600E+03 -0.67705782917E+03  0.10933916845E+04  0.25500000920E-02 0. -1.
</event>
<event>
 5   0  0.6452182E-05  0.1929099E+04  0.7818609E-02  0.8640506E-01
        2   -1    0    0  501    0  0.00000000000E+00  0.00000000000E+00  0.97589673779E+03  0.97589673779E+03  0.25500000920E-02 0. -1.
       -2   -1    0    0    0  501  0.00000000000E+00  0.00000000000E+00 -0.95333403544E+03  0.95333403544E+03  0.25500000920E-02 0.  1.
    10030    2    1    2    0    0  0.00000000000E+00  0.00000000000E+00  0.22562702347E+02  0.19292307732E+04  0.19290988313E+04 0.  0.
        3    1    3    3  502    0 -0.87858268912E+01  0.16574420457E+03  0.96150802586E+03  0.97572845921E+03  0.10100000352E+00 0. -1.
       -3    1    3    3    0  502  0.87858268912E+01 -0.16574420457E+03 -0.93894532352E+03  0.95350231403E+03  0.10100000352E+00 0.  1.
</event>
<event>
 5   0  0.3086139E-05  0.1907698E+04  0.7818609E-02  0.8651034E-01
       -1   -1    0    0    0  501  0.00000000000E+00  0.00000000000E+00  0.78047855933E+03  0.78047855935E+03  0.50400001928E-02 0.  1.
        1   -1    0    0  501    0  0.00000000000E+00  0.00000000000E+00 -0.11657311109E+04  0.11657311109E+04  0.50400001928E-02 0. -1.
    10030    2    1    2    0    0  0.00000000000E+00  0.00000000000E+00 -0.38525255159E+03  0.19462096703E+04  0.19076982341E+04 0.  0.
        2    1    3    3  502    0  0.18650496777E+03  0.64607694845E+03 -0.88276521694E+03  0.11097179617E+04  0.25500000920E-02 0. -1.
       -2    1    3    3    0  502 -0.18650496777E+03 -0.64607694845E+03  0.49751266535E+03  0.83649170857E+03  0.25500000920E-02 0.  1.
</event>
<event>
 5   0  0.3203527E-05  0.1877931E+04  0.7818609E-02  0.8665920E-01
        1   -1    0    0  501    0  0.00000000000E+00  0.00000000000E+00  0.10030587840E+04  0.10030587840E+04  0.50400001928E-02 0. -1.
       -1   -1    0    0    0  501  0.00000000000E+00  0.00000000000E+00 -0.87896782443E+03  0.87896782445E+03  0.50400001928E-02 0.  1.
    10030    2    1    2    0    0  0.00000000000E+00  0.00000000000E+00  0.12409095959E+03  0.18820266085E+04  0.18779311992E+04 0.  0.
        1    1    3    3  502    0 -0.81561147988E+03 -0.90319254617E+02 -0.39532325269E+03  0.91085680983E+03  0.50400001928E-02 0.  1.
       -1    1    3    3    0  502  0.81561147988E+03  0.90319254617E+02  0.51941421227E+03  0.97116979865E+03  0.50400001928E-02 0. -1.
</event>
<event>
 5   0  0.6452182E-05  0.1910918E+04  0.7818609E-02  0.8649441E-01
       -2   -1    0    0    0  501  0.00000000000E+00  0.00000000000E+00  0.63397562337E+03  0.63397562337E+03  0.25500000920E-02 0. -1.
        2   -1    0    0  501    0  0.00000000000E+00  0.00000000000E+00 -0.14399637862E+04  0.14399637862E+04  0.25500000920E-02 0.  1.
    10030    2    1    2    0    0  0.00000000000E+00  0.00000000000E+00 -0.80598816284E+03  0.20739394096E+04  0.19109180401E+04 0.  0.
        3    1    3    3  502    0  0.30581302053E+03  0.48277140893E+03 -0.12340273868E+04  0.13599314094E+04  0.10100000352E+00 0.  1.
       -3    1    3    3    0  502 -0.30581302053E+03 -0.48277140893E+03  0.42803922397E+03  0.71400800014E+03  0.10100000352E+00 0. -1.
</event>
<event>
 5   0  0.6098377E-05  0.1899472E+04  0.7818609E-02  0.8655119E-01
       -2   -1    0    0    0  501  0.00000000000E+00  0.00000000000E+00  0.93803741801E+03  0.93803741801E+03  0.25500000920E-02 0.  1.
        2   -1    0    0  501    0  0.00000000000E+00  0.00000000000E+00 -0.96158094485E+03  0.96158094485E+03  0.25500000920E-02 0. -1.
    10030    2    1    2    0    0  0.00000000000E+00  0.00000000000E+00 -0.23543526845E+02  0.18996183629E+04  0.18994724602E+04 0.  0.
        5    1    3    3  502    0 -0.22378497443E+03  0.25442061746E+03 -0.89906437814E+03  0.96080612582E+03  0.46999998093E+01 0. -1.
       -5    1    3    3    0  502  0.22378497443E+03 -0.25442061746E+03  0.87552085130E+03  0.93881223704E+03  0.46999998093E+01 0.  1.
</event>
<event>
 5   0  0.3083469E-05  0.1900316E+04  0.7818609E-02  0.8654699E-01
        1   -1    0    0  501    0  0.00000000000E+00  0.00000000000E+00  0.13177285970E+04  0.13177285970E+04  0.50400001928E-02 0.  1.
       -1   -1    0    0    0  501  0.00000000000E+00  0.00000000000E+00 -0.68511828551E+03  0.68511828553E+03  0.50400001928E-02 0. -1.
    10030    2    1    2    0    0  0.00000000000E+00  0.00000000000E+00  0.63261031146E+03  0.20028468825E+04  0.19003157181E+04 0.  0.
        3    1    3    3  502    0  0.61216212838E+03 -0.42569145060E+03  0.93701587698E+03  0.11974783699E+04  0.10100000352E+00 0.  1.
       -3    1    3    3    0  502 -0.61216212838E+03  0.42569145060E+03 -0.30440556553E+03  0.80536851258E+03  0.10100000352E+00 0. -1.
</event>
<event>
 5   0  0.3086139E-05  0.1915275E+04  0.7818609E-02  0.8647290E-01
       -1   -1    0    0    0  501  0.00000000000E+00  0.00000000000E+00  0.90206804417E+03  0.90206804418E+03  0.50400001928E-02 0.  1.
        1   -1    0    0  501    0  0.00000000000E+00  0.00000000000E+00 -0.10166304917E+04  0.10166304917E+04  0.50400001928E-02 0. -1.
    10030    2    1    2    0    0  0.00000000000E+00  0.00000000000E+00 -0.11456244748E+03  0.19186985358E+04  0.19152753110E+04 0.  0.
        2    1    3    3  502    0  0.99137875271E+02  0.23396802171E+03  0.86767858343E+03  0.90412138436E+03  0.25500000920E-02 0.  1.
       -2    1    3    3    0  502 -0.99137875271E+02 -0.23396802171E+03 -0.98224103092E+03  0.10145771515E+04  0.25500000920E-02 0. -1.
</event>
<event>
 5   0  0.3086139E-05  0.1901619E+04  0.7818609E-02  0.8654051E-01
       -1   -1    0    0    0  501  0.00000000000E+00  0.00000000000E+00  0.37523146080E+03  0.37523146084E+03  0.50400001928E-02 0.  1.
        1   -1    0    0  501    0  0.00000000000E+00  0.00000000000E+00 -0.24092837567E+04  0.24092837567E+04  0.50400001928E-02 0. -1.
    10030    2    1    2    0    0  0.00000000000E+00  0.00000000000E+00 -0.20340522959E+04  0.27845152175E+04  0.19016193768E+04 0.  0.
        2    1    3    3  502    0  0.38636950412E+03 -0.67082158842E+03 -0.20867105056E+03  0.80176468153E+03  0.25500000920E-02 0.  1.
       -2    1    3    3    0  502 -0.38636950412E+03  0.67082158842E+03 -0.18253812453E+04  0.19827505360E+04  0.25500000920E-02 0. -1.
</event>
<event>
 5   0  0.6395992E-05  0.1899828E+04  0.7818609E-02  0.8654942E-01
        2   -1    0    0  501    0  0.00000000000E+00  0.00000000000E+00  0.78429757453E+03  0.78429757454E+03  0.25500000920E-02 0.  1.
       -2   -1    0    0    0  501  0.00000000000E+00  0.00000000000E+00 -0.11505026010E+04  0.11505026010E+04  0.25500000920E-02 0. -1.
    10030    2    1    2    0    0  0.00000000000E+00  0.00000000000E+00 -0.36620502646E+03  0.19348001755E+04  0.18998277811E+04 0.  0.
        4    1    3    3  502    0  0.13131244277E+03 -0.93350872150E+03 -0.64104246955E+02  0.94487695396E+03  0.12699999809E+01 0.  1.
       -4    1    3    3    0  502 -0.13131244277E+03  0.93350872150E+03 -0.30210077951E+03  0.98992322158E+03  0.12699999809E+01 0. -1.
</event>
<event>
 5   0  0.3147063E-05  0.1895561E+04  0.7818609E-02  0.8657069E-01
       -1   -1    0    0    0  501  0.00000000000E+00  0.00000000000E+00  0.69816845086E+03  0.69816845088E+03  0.50400001928E-02 0.  1.
        1   -1    0    0  501    0  0.00000000000E+00  0.00000000000E+00 -0.12866343574E+04  0.12866343574E+04  0.50400001928E-02 0. -1.
    10030    2    1    2    0    0  0.00000000000E+00  0.00000000000E+00 -0.58846590651E+03  0.19848028083E+04  0.18955606201E+04 0.  0.
        5    1    3    3  502    0  0.23299585512E+03  0.83253295869E+03 -0.70093573862E+03  0.11129830167E+04  0.46999998093E+01 0. -1.
       -5    1    3    3    0  502 -0.23299585512E+03 -0.83253295869E+03  0.11246983211E+03  0.87181979155E+03  0.46999998093E+01 0.  1.
</event>
<event>
 5   0  0.6098377E-05  0.1901830E+04  0.7818609E-02  0.8653946E-01
        2   -1    0    0  501    0  0.00000000000E+00  0.00000000000E+00  0.15437286280E+04  0.15437286280E+04  0.25500000920E-02 0. -1.
       -2   -1    0    0    0  501  0.00000000000E+00  0.00000000000E+00 -0.58575020027E+03  0.58575020028E+03  0.25500000920E-02 0.  1.
    10030    2    1    2    0    0  0.00000000000E+00  0.00000000000E+00  0.95797842772E+03  0.21294788283E+04  0.19018300166E+04 0.  0.
        5    1    3    3  502    0 -0.90050976338E+03 -0.80807203654E+02  0.80881567043E+03  0.12131168603E+04  0.46999998093E+01 0. -1.
       -5    1    3    3    0  502  0.90050976338E+03  0.80807203654E+02  0.14916275729E+03  0.91636196793E+03  0.46999998093E+01 0.  1.
</event>
<event>
 5   0  0.3086139E-05  0.1895204E+04  0.7818609E-02  0.8657247E-01
       -1   -1    0    0    0  501  0.00000000000E+00  0.00000000000E+00  0.10394499199E+04  0.10394499199E+04  0.50400001928E-02 0. -1.
        1   -1    0    0  501    0  0.00000000000E+00  0.00000000000E+00 -0.86387002408E+03  0.86387002410E+03  0.50400001928E-02 0.  1.
    10030    2    1    2    0    0  0.00000000000E+00  0.00000000000E+00  0.17557989579E+03  0.19033199440E+04  0.18952040812E+04 0.  0.
        2    1    3    3  502    0  0.86867883822E+03 -0.32463455311E+03 -0.10787535869E+03  0.93360998820E+03  0.25500000920E-02 0.  1.
       -2    1    3    3    0  502 -0.86867883822E+03  0.32463455311E+03  0.28345525448E+03  0.96970995578E+03  0.25500000920E-02 0. -1.
</event>
<event>
 5   0  0.6361762E-05  0.1901538E+04  0.7818609E-02  0.8654091E-01
       -2   -1    0    0    0  501  0.00000000000E+00  0.00000000000E+00  0.60955188463E+03  0.60955188463E+03  0.25500000920E-02 0.  1.
        2   -1    0    0  501    0  0.00000000000E+00  0.00000000000E+00 -0.14829944645E+04  0.14829944645E+04  0.25500000920E-02 0. -1.
    10030    2    1    2    0    0  0.00000000000E+00  0.00000000000E+00 -0.87344257984E+03  0.20925463491E+04  0.19015383990E+04 0.  0.
        1    1    3    3  502    0 -0.17277536484E+03 -0.37175988284E+03 -0.13807407819E+04  0.14403131063E+04  0.50400001928E-02 0. -1.
       -1    1    3    3    0  502  0.17277536484E+03  0.37175988284E+03  0.50729820209E+03  0.65223324283E+03  0.50400001928E-02 0.  1.
</event>
<event>
 5   0  0.3147063E-05  0.1912904E+04  0.7818609E-02  0.8648460E-01
       -1   -1    0    0    0  501  0.00000000000E+00  0.00000000000E+00  0.71497902355E+03  0.71497902357E+03  0.50400001928E-02 0. -1.
        1   -1    0    0  501    0  0.00000000000E+00  0.00000000000E+00 -0.12794790628E+04  0.12794790628E+04  0.50400001928E-02 0.  1.
    10030    2    1    2    0    0  0.00000000000E+00  0.00000000000E+00 -0.56450003927E+03  0.19944580864E+04  0.19129042747E+04 0.  0.
        5    1    3    3  502    0  0.15789841441E+03  0.60354035215E+03 -0.10381310756E+04  0.12111693053E+04  0.46999998093E+01 0.  1.
       -5    1    3    3    0  502 -0.15789841441E+03 -0.60354035215E+03  0.47363103637E+03  0.78328878108E+03  0.46999998093E+01 0. -1.
</event>
<event>
 5   0  0.3086139E-05  0.1893064E+04  0.7818609E-02  0.8658316E-01
        1   -1    0    0  501    0  0.00000000000E+00  0.00000000000E+00  0.14692215208E+04  0.14692215208E+04  0.50400001928E-02 0. -1.
       -1   -1    0    0    0  501  0.00000000000E+00  0.00000000000E+00 -0.60979447986E+03  0.60979447988E+03  0.50400001928E-02 0.  1.
    10030    2    1    2    0    0  0.00000000000E+00  0.00000000000E+00  0.85942704089E+03  0.20790160006E+04  0.18930643656E+04 0.  0.
        2    1    3    3  502    0  0.16347114337E+03  0.26159839482E+03 -0.55304187492E+03  0.63325496470E+03  0.25500000920E-02 0.  1.
       -2    1    3    3    0  502 -0.16347114337E+03 -0.26159839482E+03  0.14124689158E+04  0.14457610359E+04  0.25500000920E-02 0. -1.
</event>
<event>
 5   0  0.6423388E-05  0.1900576E+04  0.7818609E-02  0.8654570E-01
       -2   -1    0    0    0  501  0.00000000000E+00  0.00000000000E+00  0.52452950573E+03  0.52452950574E+03  0.25500000920E-02 0.  1.
        2   -1    0    0  501    0  0.00000000000E+00  0.00000000000E+00 -0.17216322074E+04  0.17216322074E+04  0.25500000920E-02 0. -1.
    10030    2    1    2    0    0  0.00000000000E+00  0.00000000000E+00 -0.11971027017E+04  0.22461617132E+04  0.19005755874E+04 0.  0.
        2    1    3    3  502    0  0.84632845594E+03 -0.21034923232E+03 -0.15237522447E+03  0.88528914141E+03  0.25500000920E-02 0.  1.
       -2    1    3    3    0  502 -0.84632845594E+03  0.21034923232E+03 -0.10447274772E+04  0.13608725718E+04  0.25500000920E-02 0. -1.
</event>
<event>
 5   0  0.6423388E-05  0.1908274E+04  0.7818609E-02  0.8650749E-01
        2   -1    0    0  501    0  0.00000000000E+00  0.00000000000E+00  0.15968271071E+04  0.15968271071E+04  0.25500000920E-02 0. -1.
       -2   -1    0    0    0  501  0.00000000000E+00  0.00000000000E+00 -0.57011637279E+03  0.57011637280E+03  0.25500000920E-02 0.  1.
    10030    2    1    2    0    0  0.00000000000E+00  0.00000000000E+00  0.10267107343E+04  0.21669434799E+04  0.19082738569E+04 0.  0.
        2    1    3    3  502    0  0.19424913763E+03  0.90056276709E+03  0.79526335582E+03  0.12170414250E+04  0.25500000920E-02 0. -1.
       -2    1    3    3    0  502 -0.19424913763E+03 -0.90056276709E+03  0.23144737847E+03  0.94990205492E+03  0.25500000920E-02 0.  1.
</event>
<event>
 5   0  0.6395992E-05  0.1889534E+04  0.7818609E-02  0.8660084E-01
       -2   -1    0    0    0  501  0.00000000000E+00  0.00000000000E+00  0.35684109169E+03  0.35684109170E+03  0.25500000920E-02 0.  1.
        2   -1    0    0  501    0  0.00000000000E+00  0.00000000000E+00 -0.25013509685E+04  0.25013509685E+04  0.25500000920E-02 0. -1.
    10030    2    1    2    0    0  0.00000000000E+00  0.00000000000E+00 -0.21445098768E+04  0.28581920602E+04  0.18895341334E+04 0.  0.
        4    1    3    3  502    0  0.59441149769E+02  0.53699236978E+03 -0.22446164648E+04  0.23087223182E+04  0.12699999809E+01 0. -1.
       -4    1    3    3    0  502 -0.59441149769E+02 -0.53699236978E+03  0.10010658804E+03  0.54946974199E+03  0.12699999809E+01 0.  1.
</event>
<event>
 5   0  0.6423388E-05  0.1898227E+04  0.7818609E-02  0.8655739E-01
        2   -1    0    0  501    0  0.00000000000E+00  0.00000000000E+00  0.94058118560E+03  0.94058118561E+03  0.25500000920E-02 0. -1.
       -2   -1    0    0    0  501  0.00000000000E+00  0.00000000000E+00 -0.95772319775E+03  0.95772319775E+03  0.25500000920E-02 0.  1.
    10030    2    1    2    0    0  0.00000000000E+00  0.00000000000E+00 -0.17142012147E+02  0.18983043834E+04  0.18982269841E+04 0.  0.
        2    1    3    3  502    0 -0.33940408590E+03  0.16379253959E+03 -0.87969394306E+03  0.95701858028E+03  0.25500000920E-02 0.  1.
       -2    1    3    3    0  502  0.33940408590E+03 -0.16379253959E+03  0.86255193091E+03  0.94128580308E+03  0.25500000920E-02 0. -1.
</event>
<event>
 5   0  0.6423388E-05  0.1913047E+04  0.7818609E-02  0.8648389E-01
        2   -1    0    0  501    0  0.00000000000E+00  0.00000000000E+00  0.13320241970E+04  0.13320241970E+04  0.25500000920E-02 0. -1.
       -2   -1    0    0    0  501  0.00000000000E+00  0.00000000000E+00 -0.68687735903E+03  0.68687735903E+03  0.25500000920E-02 0.  1.
    10030    2    1    2    0    0  0.00000000000E+00  0.00000000000E+00  0.64514683799E+03  0.20189015561E+04  0.19130470591E+04 0.  0.
        2    1    3    3  502    0 -0.74293655415E+03 -0.46220828913E+03  0.73041015290E+03  0.11397763893E+04  0.25500000920E-02 0. -1.
       -2    1    3    3    0  502  0.74293655415E+03  0.46220828913E+03 -0.85263314916E+02  0.87912516680E+03  0.25500000920E-02 0.  1.
</event>
<event>
 5   0  0.6452182E-05  0.1906831E+04  0.7818609E-02  0.8651464E-01
        2   -1    0    0  501    0  0.00000000000E+00  0.00000000000E+00  0.94341812583E+03  0.94341812584E+03  0.25500000920E-02 0. -1.
       -2   -1    0    0    0  501  0.00000000000E+00  0.00000000000E+00 -0.96351897427E+03  0.96351897427E+03  0.25500000920E-02 0.  1.
    10030    2    1    2    0    0  0.00000000000E+00  0.00000000000E+00 -0.20100848436E+02  0.19069371001E+04  0.19068311566E+04 0.  0.
        3    1    3    3  502    0 -0.80895821062E+01 -0.94039020888E+03  0.14680875552E+03  0.95181511188E+03  0.10100000352E+00 0. -1.
       -3    1    3    3    0  502  0.80895821062E+01  0.94039020888E+03 -0.16690960395E+03  0.95512198823E+03  0.10100000352E+00 0.  1.
</event>
<event>
 5   0  0.3144958E-05  0.1894822E+04  0.7818609E-02  0.8657438E-01
        1   -1    0    0  501    0  0.00000000000E+00  0.00000000000E+00  0.19232447060E+04  0.19232447060E+04  0.50400001928E-02 0.  1.
       -1   -1    0    0    0  501  0.00000000000E+00  0.00000000000E+00 -0.46670462527E+03  0.46670462529E+03  0.50400001928E-02 0. -1.
    10030    2    1    2    0    0  0.00000000000E+00  0.00000000000E+00  0.14565400808E+04  0.23899493313E+04  0.18948215746E+04 0.  0.
        4    1    3    3  502    0 -0.76733904411E+03  0.24233715601E+03  0.13589848145E+04  0.15793599478E+04  0.12699999809E+01 0.  1.
       -4    1    3    3    0  502  0.76733904411E+03 -0.24233715601E+03  0.97555266257E+02  0.81058938352E+03  0.12699999809E+01 0. -1.
</event>
<event>
 5   0  0.3203527E-05  0.1900121E+04  0.7818609E-02  0.8654796E-01
       -1   -1    0    0    0  501  0.00000000000E+00  0.00000000000E+00  0.84650764026E+03  0.84650764028E+03  0.50400001928E-02 0.  1.
        1   -1    0    0  501    0  0.00000000000E+00  0.00000000000E+00 -0.10662811562E+04  0.10662811562E+04  0.50400001928E-02 0. -1.
    10030    2    1    2    0    0  0.00000000000E+00  0.00000000000E+00 -0.21977351591E+03  0.19127887965E+04  0.19001212018E+04 0.  0.
        1    1    3    3  502    0 -0.49972829606E+03  0.22163177771E+03  0.67231734359E+03  0.86652156654E+03  0.50400001928E-02 0.  1.
       -1    1    3    3    0  502  0.49972829606E+03 -0.22163177771E+03 -0.89209085950E+03  0.10462672299E+04  0.50400001928E-02 0. -1.
</event>
<event>
 5   0  0.3083469E-05  0.1896882E+04  0.7818609E-02  0.8656410E-01
        1   -1    0    0  501    0  0.00000000000E+00  0.00000000000E+00  0.19780674667E+04  0.19780674667E+04  0.50400001928E-02 0. -1.
       -1   -1    0    0    0  501  0.00000000000E+00  0.00000000000E+00 -0.45475713756E+03  0.45475713759E+03  0.50400001928E-02 0.  1.
    10030    2    1    2    0    0  0.00000000000E+00  0.00000000000E+00  0.15233103291E+04  0.24328246043E+04  0.18968819669E+04 0.  0.
        3    1    3    3  502    0  0.59965365922E+01 -0.75744129706E+03  0.14936994837E+04  0.16747810110E+04  0.10100000352E+00 0. -1.
       -3    1    3    3    0  502 -0.59965365922E+01  0.75744129706E+03  0.29610845399E+02  0.75804359328E+03  0.10100000352E+00 0.  1.
</event>
<event>
 5   0  0.3086139E-05  0.1883530E+04  0.7818609E-02  0.8663098E-01
        1   -1    0    0  501    0  0.00000000000E+00  0.00000000000E+00  0.74632792360E+03  0.74632792362E+03  0.50400001928E-02 0. -1.
       -1   -1    0    0    0  501  0.00000000000E+00  0.00000000000E+00 -0.11883798864E+04  0.11883798865E+04  0.50400001928E-02 0.  1.
    10030    2    1    2    0    0  0.00000000000E+00  0.00000000000E+00 -0.44205196284E+03  0.19347078101E+04  0.18835297642E+04 0.  0.
        2    1    3    3  502    0  0.50144677059E+03  0.68707717022E+03 -0.63623348286E+03  0.10622226444E+04  0.25500000920E-02 0.  1.
       -2    1    3    3    0  502 -0.50144677059E+03 -0.68707717022E+03  0.19418152002E+03  0.87248516566E+03  0.25500000920E-02 0. -1.
</event>
<event>
 5   0  0.3083469E-05  0.1905729E+04  0.7818609E-02  0.8652010E-01
       -1   -1    0    0    0  501  0.00000000000E+00  0.00000000000E+00  0.96325558983E+03  0.96325558984E+03  0.50400001928E-02 0.  1.
        1   -1    0    0  501    0  0.00000000000E+00  0.00000000000E+00 -0.94258596332E+03  0.94258596333E+03  0.50400001928E-02 0. -1.
    10030    2    1    2    0    0  0.00000000000E+00  0.00000000000E+00  0.20669626507E+02  0.19058415532E+04  0.19057294646E+04 0.  0.
        3    1    3    3  502    0  0.63724418867E+03 -0.67909640656E+03 -0.19141723800E+03  0.95073269356E+03  0.10100000352E+00 0. -1.
       -3    1    3    3    0  502 -0.63724418867E+03  0.67909640656E+03  0.21208686451E+03  0.95510885961E+03  0.10100000352E+00 0.  1.
</event>
<event>
 5   0  0.6395992E-05  0.1893684E+04  0.7818609E-02  0.8658007E-01
        2   -1    0    0  501    0  0.00000000000E+00  0.00000000000E+00  0.13322701503E+04  0.13322701503E+04  0.25500000920E-02 0.  1.
       -2   -1    0    0    0  501  0.00000000000E+00  0.00000000000E+00 -0.67291907491E+03  0.67291907492E+03  0.25500000920E-02 0. -1.
    10030    2    1    2    0    0  0.00000000000E+00  0.00000000000E+00  0.65935107535E+03  0.20051892252E+04  0.18936842367E+04 0.  0.
        4    1    3    3  502    0 -0.46910175115E+03  0.80381428680E+03  0.51409909180E+03  0.10632372029E+04  0.12699999809E+01 0. -1.
       -4    1    3    3    0  502  0.46910175115E+03 -0.80381428680E+03  0.14525198355E+03  0.94195202225E+03  0.12699999809E+01 0.  1.
</event>
<event>
 5   0  0.6395992E-05  0.1895833E+04  0.7818609E-02  0.8656934E-01
       -2   -1    0    0    0  501  0.00000000000E+00  0.00000000000E+00  0.46726666885E+03  0.46726666886E+03  0.25500000920E-02 0. -1.
        2   -1    0    0  501    0  0.00000000000E+00  0.00000000000E+00 -0.19229819770E+04  0.19229819770E+04  0.25500000920E-02 0.  1.
    10030    2    1    2    0    0  0.00000000000E+00  0.00000000000E+00 -0.14557153081E+04  0.23902486459E+04  0.18958326748E+04 0.  0.
        4    1    3    3  502    0  0.46619580735E+03 -0.44070116985E+03  0.15197906093E+03  0.65928392954E+03  0.12699999809E+01 0. -1.
       -4    1    3    3    0  502 -0.46619580735E+03  0.44070116985E+03 -0.16076943691E+04  0.17309647163E+04  0.12699999809E+01 0.  1.
</event>
<event>
 5   0  0.6423388E-05  0.1902622E+04  0.7818609E-02  0.8653552E-01
       -2   -1    0    0    0  501  0.00000000000E+00  0.00000000000E+00  0.45984230631E+03  0.45984230631E+03  0.25500000920E-02 0. -1.
        2   -1    0    0  501    0  0.00000000000E+00  0.00000000000E+00 -0.19680500850E+04  0.19680500850E+04  0.25500000920E-02 0.  1.
    10030    2    1    2    0    0  0.00000000000E+00  0.00000000000E+00 -0.15082077787E+04  0.24278923913E+04  0.19026220749E+04 0.  0.
        2    1    3    3  502    0  0.56074988521E+03 -0.38734096440E+03  0.92849168359E+02  0.68781859857E+03  0.25500000920E-02 0. -1.
       -2    1    3    3    0  502 -0.56074988521E+03  0.38734096440E+03 -0.16010569470E+04  0.17400737927E+04  0.25500000920E-02 0.  1.
</event>
<event>
 5   0  0.2279625E-05  0.1902674E+04  0.7818609E-02  0.8653527E-01
       -3   -1    0    0    0  501  0.00000000000E+00  0.00000000000E+00  0.22091124991E+04  0.22091125014E+04  0.10100000352E+00 0.  1.
        3   -1    0    0  501    0  0.00000000000E+00  0.00000000000E+00 -0.40968567054E+03  0.40968568299E+03  0.10100000352E+00 0. -1.
    10030    2    1    2    0    0  0.00000000000E+00  0.00000000000E+00  0.17994268286E+04  0.26187981844E+04  0.19026736502E+04 0.  0.
        1    1    3    3  502    0  0.73408137229E+03  0.13242951299E+03  0.87033910634E+02  0.75099130400E+03  0.50400001928E-02 0. -1.
       -1    1    3    3    0  502 -0.73408137229E+03 -0.13242951299E+03  0.17123929179E+04  0.18678068804E+04  0.50400001928E-02 0.  1.
</event>
<event>
 5   0  0.3144958E-05  0.1908833E+04  0.7818609E-02  0.8650472E-01
       -1   -1    0    0    0  501  0.00000000000E+00  0.00000000000E+00  0.42105864868E+03  0.42105864871E+03  0.50400001928E-02 0.  1.
        1   -1    0    0  501    0  0.00000000000E+00  0.00000000000E+00 -0.21633824188E+04  0.21633824188E+04  0.50400001928E-02 0. -1.
    10030    2    1    2    0    0  0.00000000000E+00  0.00000000000E+00 -0.17423237701E+04  0.25844410675E+04  0.19088330235E+04 0.  0.
        4    1    3    3  502    0  0.24374942639E+02  0.61847921555E+03 -0.18547942391E+04  0.19553449721E+04  0.12699999809E+01 0. -1.
       -4    1    3    3    0  502 -0.24374942639E+02 -0.61847921555E+03  0.11247046897E+03  0.62909609535E+03  0.12699999809E+01 0.  1.
</event>
<event>
 5   0  0.3083469E-05  0.1887117E+04  0.7818609E-02  0.8661296E-01
        1   -1    0    0  501    0  0.00000000000E+00  0.00000000000E+00  0.10930037106E+04  0.10930037106E+04  0.50400001928E-02 0. -1.
       -1   -1    0    0    0  501  0.00000000000E+00  0.00000000000E+00 -0.81454659183E+03  0.81454659184E+03  0.50400001928E-02 0.  1.
    10030    2    1    2    0    0  0.00000000000E+00  0.00000000000E+00  0.27845711872E+03  0.19075503024E+04  0.18871167927E+04 0.  0.
        3    1    3    3  502    0 -0.58342541443E+02 -0.14486342189E+03 -0.80139184072E+03  0.81646687362E+03  0.10100000352E+00 0.  1.
       -3    1    3    3    0  502  0.58342541443E+02  0.14486342189E+03  0.10798489594E+04  0.10910834288E+04  0.10100000352E+00 0. -1.
</event>
<event>
 5   0  0.3144958E-05  0.1891490E+04  0.7818609E-02  0.8659104E-01
       -1   -1    0    0    0  501  0.00000000000E+00  0.00000000000E+00  0.94004427432E+03  0.94004427434E+03  0.50400001928E-02 0.  1.
        1   -1    0    0  501    0  0.00000000000E+00  0.00000000000E+00 -0.95148022169E+03  0.95148022170E+03  0.50400001928E-02 0. -1.
    10030    2    1    2    0    0  0.00000000000E+00  0.00000000000E+00 -0.11435947366E+02  0.18915244960E+04  0.18914899255E+04 0.  0.
        4    1    3    3  502    0 -0.46067926958E+03  0.68092076892E+03  0.46178756395E+03  0.94293576138E+03  0.12699999809E+01 0.  1.
       -4    1    3    3    0  502  0.46067926958E+03 -0.68092076892E+03 -0.47322351132E+03  0.94858873466E+03  0.12699999809E+01 0. -1.
</event>
<event>
 5   0  0.3144958E-05  0.1893424E+04  0.7818609E-02  0.8658136E-01
        1   -1    0    0  501    0  0.00000000000E+00  0.00000000000E+00  0.98568846813E+03  0.98568846814E+03  0.50400001928E-02 0. -1.
       -1   -1    0    0    0  501  0.00000000000E+00  0.00000000000E+00 -0.90927721986E+03  0.90927721987E+03  0.50400001928E-02 0.  1.
    10030    2    1    2    0    0  0.00000000000E+00  0.00000000000E+00  0.76411248275E+02  0.18949656880E+04  0.18934244849E+04 0.  0.
        4    1    3    3  502    0  0.21976209306E+02 -0.87723734998E+03  0.39378925985E+03  0.96182114556E+03  0.12699999809E+01 0. -1.
       -4    1    3    3    0  502 -0.21976209306E+02  0.87723734998E+03 -0.31737801158E+03  0.93314454245E+03  0.12699999809E+01 0.  1.
</event>
<event>
 5   0  0.6361762E-05  0.1897305E+04  0.7818609E-02  0.8656199E-01
        2   -1    0    0  501    0  0.00000000000E+00  0.00000000000E+00  0.78974688161E+03  0.78974688162E+03  0.25500000920E-02 0. -1.
       -2   -1    0    0    0  501  0.00000000000E+00  0.00000000000E+00 -0.11395313966E+04  0.11395313966E+04  0.25500000920E-02 0.  1.
    10030    2    1    2    0    0  0.00000000000E+00  0.00000000000E+00 -0.34978451495E+03  0.19292782782E+04  0.18973047904E+04 0.  0.
        1    1    3    3  502    0 -0.78920281249E+03 -0.18355639605E+03  0.32678521989E+03  0.87368335782E+03  0.50400001928E-02 0. -1.
       -1    1    3    3    0  502  0.78920281249E+03  0.18355639605E+03 -0.67656973484E+03  0.10555949204E+04  0.50400001928E-02 0.  1.
</event>
<event>
 5   0  0.6423388E-05  0.1892021E+04  0.7818609E-02  0.8658838E-01
        2   -1    0    0  501    0  0.00000000000E+00  0.00000000000E+00  0.20965795585E+04  0.20965795585E+04  0.25500000920E-02 0.  1.
       -2   -1    0    0    0  501  0.00000000000E+00  0.00000000000E+00 -0.42685529134E+03  0.42685529135E+03  0.25500000920E-02 0. -1.
    10030    2    1    2    0    0  0.00000000000E+00  0.00000000000E+00  0.16697242671E+04  0.25234348498E+04  0.18920212243E+04 0.  0.
        2    1    3    3  502    0 -0.27284376788E+03  0.83979014688E+03  0.12876313440E+04  0.15613089670E+04  0.25500000920E-02 0.  1.
       -2    1    3    3    0  502  0.27284376788E+03 -0.83979014688E+03  0.38209292316E+03  0.96212588282E+03  0.25500000920E-02 0. -1.
</event>
<event>
 5   0  0.6452182E-05  0.1888299E+04  0.7818609E-02  0.8660703E-01
       -2   -1    0    0    0  501  0.00000000000E+00  0.00000000000E+00  0.10907321512E+04  0.10907321512E+04  0.25500000920E-02 0.  1.
        2   -1    0    0  501    0  0.00000000000E+00  0.00000000000E+00 -0.81726609695E+03  0.81726609695E+03  0.25500000920E-02 0. -1.
    10030    2    1    2    0    0  0.00000000000E+00  0.00000000000E+00  0.27346605427E+03  0.19079982482E+04  0.18882991374E+04 0.  0.
        3    1    3    3  502    0 -0.21727964015E+03  0.40801439971E+02  0.10642102765E+04  0.10869308729E+04  0.10100000352E+00 0.  1.
       -3    1    3    3    0  502  0.21727964015E+03 -0.40801439971E+02 -0.79074422227E+03  0.82106737530E+03  0.10100000352E+00 0. -1.
</event>
<event>
 5   0  0.6098377E-05  0.1908796E+04  0.7818609E-02  0.8650490E-01
       -2   -1    0    0    0  501  0.00000000000E+00  0.00000000000E+00  0.93487139017E+03  0.93487139017E+03  0.25500000920E-02 0. -1.
        2   -1    0    0  501    0  0.00000000000E+00  0.00000000000E+00 -0.97433285090E+03  0.97433285090E+03  0.25500000920E-02 0.  1.
    10030    2    1    2    0    0  0.00000000000E+00  0.00000000000E+00 -0.39461460730E+02  0.19092042411E+04  0.19087963818E+04 0.  0.
        5    1    3    3  502    0 -0.57686645158E+03 -0.75862557185E+03  0.30937329986E+02  0.95355485926E+03  0.46999998093E+01 0.  1.
       -5    1    3    3    0  502  0.57686645158E+03  0.75862557185E+03 -0.70398790716E+02  0.95564938181E+03  0.46999998093E+01 0. -1.
</event>
<event>
 5   0  0.3147063E-05  0.1896206E+04  0.7818609E-02  0.8656747E-01
       -1   -1    0    0    0  501  0.00000000000E+00  0.00000000000E+00  0.80043001245E+03  0.80043001247E+03  0.50400001928E-02 0.  1.
        1   -1    0    0  501    0  0.00000000000E+00  0.00000000000E+00 -0.11230205659E+04  0.11230205659E+04  0.50400001928E-02 0. -1.
    10030    2    1    2    0    0  0.00000000000E+00  0.00000000000E+00 -0.32259055347E+03  0.19234505784E+04  0.18962060706E+04 0.  0.
        5    1    3    3  502    0  0.71980704178E+03 -0.34168156783E+03 -0.68249563369E+03  0.10491381469E+04  0.46999998093E+01 0. -1.
       -5    1    3    3    0  502 -0.71980704178E+03  0.34168156783E+03  0.35990508022E+03  0.87431243154E+03  0.46999998093E+01 0.  1.
</event>
<event>
 5   0  0.3086139E-05  0.1895207E+04  0.7818609E-02  0.8657246E-01
        1   -1    0    0  501    0  0.00000000000E+00  0.00000000000E+00  0.13124280936E+04  0.13124280936E+04  0.50400001928E-02 0.  1.
       -1   -1    0    0    0  501  0.00000000000E+00  0.00000000000E+00 -0.68419150207E+03  0.68419150209E+03  0.50400001928E-02 0. -1.
    10030    2    1    2    0    0  0.00000000000E+00  0.00000000000E+00  0.62823659150E+03  0.19966195957E+04  0.18952067420E+04 0.  0.
        2    1    3    3  502    0  0.27729181868E+03 -0.76623301848E+03 -0.19544570250E+03  0.83797542563E+03  0.25500000920E-02 0. -1.
       -2    1    3    3    0  502 -0.27729181868E+03  0.76623301848E+03  0.82368229400E+03  0.11586441700E+04  0.25500000920E-02 0.  1.
</event>
<event>
 5   0  0.3147063E-05  0.1885352E+04  0.7818609E-02  0.8662182E-01
        1   -1    0    0  501    0  0.00000000000E+00  0.00000000000E+00  0.85224458339E+03  0.85224458340E+03  0.50400001928E-02 0.  1.
       -1   -1    0    0    0  501  0.00000000000E+00  0.00000000000E+00 -0.10427031324E+04  0.10427031324E+04  0.50400001928E-02 0. -1.
    10030    2    1    2    0    0  0.00000000000E+00  0.00000000000E+00 -0.19045854903E+03  0.18949477158E+04  0.18853520591E+04 0.  0.
        5    1    3    3  502    0 -0.66792237267E+03 -0.63460410665E+03 -0.29567684462E+03  0.96762056331E+03  0.46999998093E+01 0. -1.
       -5    1    3    3    0  502  0.66792237267E+03  0.63460410665E+03  0.10521829558E+03  0.92732715253E+03  0.46999998093E+01 0.  1.
</event>
<event>
 5   0  0.6423388E-05  0.1897596E+04  0.7818609E-02  0.8656054E-01
       -2   -1    0    0    0  501  0.00000000000E+00  0.00000000000E+00  0.74365491606E+03  0.74365491607E+03  0.25500000920E-02 0. -1.
        2   -1    0    0  501    0  0.00000000000E+00  0.00000000000E+00 -0.12105314180E+04  0.12105314180E+04  0.25500000920E-02 0.  1.
    10030    2    1    2    0    0  0.00000000000E+00  0.00000000000E+00 -0.46687650190E+03  0.19541863340E+04  0.18975959950E+04 0.  0.
        2    1    3    3  502    0 -0.57283424448E+03  0.38967680367E+03  0.43414592101E+03  0.81760000227E+03  0.25500000920E-02 0. -1.
       -2    1    3    3    0  502  0.57283424448E+03 -0.38967680367E+03 -0.90102242292E+03  0.11365863318E+04  0.25500000920E-02 0.  1.
</event>
<event>
 5   0  0.6361762E-05  0.1903272E+04  0.7818609E-02  0.8653230E-01
        2   -1    0    0  501    0  0.00000000000E+00  0.00000000000E+00  0.80963020873E+03  0.80963020874E+03  0.25500000920E-02 0.  1.
       -2   -1    0    0    0  501  0.00000000000E+00  0.00000000000E+00 -0.11185487425E+04  0.11185487425E+04  0.25500000920E-02 0. -1.
    10030    2    1    2    0    0  0.00000000000E+00  0.00000000000E+00 -0.30891853372E+03  0.19281789512E+04  0.19032717639E+04 0.  0.
        1    1    3    3  502    0 -0.55393448058E+03  0.58514040366E+03 -0.66742344557E+03  0.10462727926E+04  0.50400001928E-02 0. -1.
       -1    1    3    3    0  502  0.55393448058E+03 -0.58514040366E+03  0.35850491185E+03  0.88190615862E+03  0.50400001928E-02 0.  1.
</event>
<event>
 5   0  0.6361762E-05  0.1897050E+04  0.7818609E-02  0.8656326E-01
        2   -1    0    0  501    0  0.00000000000E+00  0.00000000000E+00  0.14493414317E+04  0.14493414317E+04  0.25500000920E-02 0. -1.
       -2   -1    0    0    0  501  0.00000000000E+00  0.00000000000E+00 -0.62076476295E+03  0.62076476296E+03  0.25500000920E-02 0.  1.
    10030    2    1    2    0    0  0.00000000000E+00  0.00000000000E+00  0.82857666877E+03  0.20701061947E+04  0.18970504372E+04 0.  0.
        1    1    3    3  502    0 -0.35770658260E+03  0.29992986033E+03  0.13153167301E+04  0.13956969660E+04  0.50400001928E-02 0.  1.
       -1    1    3    3    0  502  0.35770658260E+03 -0.29992986033E+03 -0.48674006136E+03  0.67440922867E+03  0.50400001928E-02 0. -1.
</event>
<event>
 5   0  0.6452182E-05  0.1904763E+04  0.7818609E-02  0.8652489E-01
       -2   -1    0    0    0  501  0.00000000000E+00  0.00000000000E+00  0.62226511961E+03  0.62226511962E+03  0.25500000920E-02 0.  1.
        2   -1    0    0  501    0  0.00000000000E+00  0.00000000000E+00 -0.14576264823E+04  0.14576264823E+04  0.25500000920E-02 0. -1.
    10030    2    1    2    0    0  0.00000000000E+00  0.00000000000E+00 -0.83536136264E+03  0.20798916019E+04  0.19047625756E+04 0.  0.
        3    1    3    3  502    0  0.87998714341E+03 -0.29077926544E+03 -0.65716279485E+03  0.11361306716E+04  0.10100000352E+00 0. -1.
       -3    1    3    3    0  502 -0.87998714341E+03  0.29077926544E+03 -0.17819856779E+03  0.94376093029E+03  0.10100000352E+00 0.  1.
</event>
<event>
 5   0  0.3144958E-05  0.1907700E+04  0.7818609E-02  0.8651033E-01
        1   -1    0    0  501    0  0.00000000000E+00  0.00000000000E+00  0.17626923862E+04  0.17626923862E+04  0.50400001928E-02 0.  1.
       -1   -1    0    0    0  501  0.00000000000E+00  0.00000000000E+00 -0.51615936321E+03  0.51615936324E+03  0.50400001928E-02 0. -1.
    10030    2    1    2    0    0  0.00000000000E+00  0.00000000000E+00  0.12465330230E+04  0.22788517495E+04  0.19077003744E+04 0.  0.
        4    1    3    3  502    0 -0.97761634203E+02 -0.73356347645E+03  0.13421419806E+04  0.15326511084E+04  0.12699999809E+01 0.  1.
       -4    1    3    3    0  502  0.97761634203E+02  0.73356347645E+03 -0.95608957564E+02  0.74620064109E+03  0.12699999809E+01 0. -1.
</event>
<event>
 5   0  0.6452182E-05  0.1898831E+04  0.7818609E-02  0.8655439E-01
       -2   -1    0    0    0  501  0.00000000000E+00  0.00000000000E+00  0.96387911466E+03  0.96387911466E+03  0.25500000920E-02 0.  1.
        2   -1    0    0  501    0  0.00000000000E+00  0.00000000000E+00 -0.93516843034E+03  0.93516843034E+03  0.25500000920E-02 0. -1.
    10030    2    1    2    0    0  0.00000000000E+00  0.00000000000E+00  0.28710684325E+02  0.18990475450E+04  0.18988305019E+04 0.  0.
        3    1    3    3  502    0 -0.31686113984E+03  0.23604604168E+03 -0.84903389608E+03  0.93647065230E+03  0.10100000352E+00 0. -1.
       -3    1    3    3    0  502  0.31686113984E+03 -0.23604604168E+03  0.87774458040E+03  0.96257689270E+03  0.10100000352E+00 0.  1.
</event>
<event>
 5   0  0.3086139E-05  0.1896211E+04  0.7818609E-02  0.8656744E-01
        1   -1    0    0  501    0  0.00000000000E+00  0.00000000000E+00  0.11907984790E+04  0.11907984790E+04  0.50400001928E-02 0. -1.
       -1   -1    0    0    0  501  0.00000000000E+00  0.00000000000E+00 -0.75487541246E+03  0.75487541248E+03  0.50400001928E-02 0.  1.
    10030    2    1    2    0    0  0.00000000000E+00  0.00000000000E+00  0.43592306651E+03  0.19456738915E+04  0.18962114787E+04 0.  0.
        2    1    3    3  502    0  0.69810275560E+03  0.21695887500E+03  0.83743632108E+03  0.11116286262E+04  0.25500000920E-02 0. -1.
       -2    1    3    3    0  502 -0.69810275560E+03 -0.21695887500E+03 -0.40151325457E+03  0.83404526521E+03  0.25500000920E-02 0.  1.
</event>
<event>
 5   0  0.6098377E-05  0.1877804E+04  0.7818609E-02  0.8665984E-01
        2   -1    0    0  501    0  0.00000000000E+00  0.00000000000E+00  0.59289534898E+03  0.59289534899E+03  0.25500000920E-02 0.  1.
       -2   -1    0    0    0  501  0.00000000000E+00  0.00000000000E+00 -0.14868346983E+04  0.14868346983E+04  0.25500000920E-02 0. -1.
    10030    2    1    2    0    0  0.00000000000E+00  0.00000000000E+00 -0.89393934927E+03  0.20797300472E+04  0.18778044385E+04 0.  0.
        5    1    3    3  502    0 -0.74734636908E+03  0.34376124533E+03  0.54263142200E+02  0.82441795697E+03  0.46999998093E+01 0.  1.
       -5    1    3    3    0  502  0.74734636908E+03 -0.34376124533E+03 -0.94820249147E+03  0.12553120903E+04  0.46999998093E+01 0. -1.
</event>
<event>
 5   0  0.6452182E-05  0.1902468E+04  0.7818609E-02  0.8653629E-01
        2   -1    0    0  501    0  0.00000000000E+00  0.00000000000E+00  0.80489513746E+03  0.80489513747E+03  0.25500000920E-02 0.  1.
       -2   -1    0    0    0  501  0.00000000000E+00  0.00000000000E+00 -0.11241793000E+04  0.11241793000E+04  0.25500000920E-02 0. -1.
    10030    2    1    2    0    0  0.00000000000E+00  0.00000000000E+00 -0.31928416256E+03  0.19290744375E+04  0.19024683464E+04 0.  0.
        3    1    3    3  502    0 -0.34741733782E+03  0.39915995363E+03 -0.96115153416E+03  0.10971963165E+04  0.10100000352E+00 0. -1.
       -3    1    3    3    0  502  0.34741733782E+03 -0.39915995363E+03  0.64186737160E+03  0.83187812096E+03  0.10100000352E+00 0.  1.
</event>
<event>
 5   0  0.3086139E-05  0.1898701E+04  0.7818609E-02  0.8655503E-01
       -1   -1    0    0    0  501  0.00000000000E+00  0.00000000000E+00  0.15123976219E+04  0.15123976220E+04  0.50400001928E-02 0. -1.
        1   -1    0    0  501    0  0.00000000000E+00  0.00000000000E+00 -0.59591922193E+03  0.59591922195E+03  0.50400001928E-02 0.  1.
    10030    2    1    2    0    0  0.00000000000E+00  0.00000000000E+00  0.91647840001E+03  0.21083168439E+04  0.18987014659E+04 0.  0.
        2    1    3    3  502    0  0.46489458940E+03 -0.70875611663E+03 -0.16519306685E+02  0.84778246007E+03  0.25500000920E-02 0.  1.
       -2    1    3    3    0  502 -0.46489458940E+03  0.70875611663E+03  0.93299770670E+03  0.12605343838E+04  0.25500000920E-02 0. -1.
</event>
<event>
 5   0  0.3086139E-05  0.1898368E+04  0.7818609E-02  0.8655669E-01
       -1   -1    0    0    0  501  0.00000000000E+00  0.00000000000E+00  0.48571686140E+03  0.48571686143E+03  0.50400001928E-02 0.  1.
        1   -1    0    0  501    0  0.00000000000E+00  0.00000000000E+00 -0.18548886400E+04  0.18548886400E+04  0.50400001928E-02 0. -1.
    10030    2    1    2    0    0  0.00000000000E+00  0.00000000000E+00 -0.13691717786E+04  0.23406055015E+04  0.18983684453E+04 0.  0.
        2    1    3    3  502    0  0.82707047962E+03  0.46572368475E+03 -0.68142805055E+03  0.11684555263E+04  0.25500000920E-02 0.  1.
       -2    1    3    3    0  502 -0.82707047962E+03 -0.46572368475E+03 -0.68774372808E+03  0.11721499752E+04  0.25500000920E-02 0. -1.
</event>
<event>
 5   0  0.2279625E-05  0.1902803E+04  0.7818609E-02  0.8653463E-01
        3   -1    0    0  501    0  0.00000000000E+00  0.00000000000E+00  0.11467142303E+04  0.11467142348E+04  0.10100000352E+00 0. -1.
       -3   -1    0    0    0  501  0.00000000000E+00  0.00000000000E+00 -0.78935489479E+03  0.78935490126E+03  0.10100000352E+00 0.  1.
    10030    2    1    2    0    0  0.00000000000E+00  0.00000000000E+00  0.35735933554E+03  0.19360691360E+04  0.19028026710E+04 0.  0.
        2    1    3    3  502    0  0.70806293584E+02 -0.33522345157E+03 -0.72440514615E+03  0.80134331561E+03  0.25500000920E-02 0.  1.
       -2    1    3    3    0  502 -0.70806293584E+02  0.33522345157E+03  0.10817644817E+04  0.11347258204E+04  0.25500000920E-02 0. -1.
</event>
<event>
 5   0  0.6423388E-05  0.1886287E+04  0.7818609E-02  0.8661713E-01
       -2   -1    0    0    0  501  0.00000000000E+00  0.00000000000E+00  0.68018882710E+03  0.68018882711E+03  0.25500000920E-02 0.  1.
        2   -1    0    0  501    0  0.00000000000E+00  0.00000000000E+00 -0.13077536253E+04  0.13077536253E+04  0.25500000920E-02 0. -1.
    10030    2    1    2    0    0  0.00000000000E+00  0.00000000000E+00 -0.62756479815E+03  0.19879424524E+04  0.18862867274E+04 0.  0.
        2    1    3    3  502    0 -0.70292071021E+03  0.62201262343E+03 -0.21649169476E+03  0.96325795219E+03  0.25500000920E-02 0. -1.
       -2    1    3    3    0  502  0.70292071021E+03 -0.62201262343E+03 -0.41107310339E+03  0.10246845002E+04  0.25500000920E-02 0.  1.
</event>
<event>
 5   0  0.6423388E-05  0.1903090E+04  0.7818609E-02  0.8653320E-01
        2   -1    0    0  501    0  0.00000000000E+00  0.00000000000E+00  0.87093994117E+03  0.87093994118E+03  0.25500000920E-02 0. -1.
       -2   -1    0    0    0  501  0.00000000000E+00  0.00000000000E+00 -0.10396101654E+04  0.10396101654E+04  0.25500000920E-02 0.  1.
    10030    2    1    2    0    0  0.00000000000E+00  0.00000000000E+00 -0.16867022424E+03  0.19105501066E+04  0.19030901359E+04 0.  0.
        2    1    3    3  502    0  0.58972830994E+03 -0.54649804275E+03  0.42657869137E+03  0.91016974802E+03  0.25500000920E-02 0. -1.
       -2    1    3    3    0  502 -0.58972830994E+03  0.54649804275E+03 -0.59524891561E+03  0.10003803586E+04  0.25500000920E-02 0.  1.
</event>
<event>
 5   0  0.3083469E-05  0.1921130E+04  0.7818609E-02  0.8644409E-01
        1   -1    0    0  501    0  0.00000000000E+00  0.00000000000E+00  0.12714486373E+04  0.12714486373E+04  0.50400001928E-02 0.  1.
       -1   -1    0    0    0  501  0.00000000000E+00  0.00000000000E+00 -0.72569627900E+03  0.72569627902E+03  0.50400001928E-02 0. -1.
    10030    2    1    2    0    0  0.00000000000E+00  0.00000000000E+00  0.54575235831E+03  0.19971449163E+04  0.19211304433E+04 0.  0.
        3    1    3    3  502    0  0.45018184320E+03 -0.18064299231E+03 -0.58901872872E+03  0.76304564450E+03  0.10100000352E+00 0. -1.
       -3    1    3    3    0  502 -0.45018184320E+03  0.18064299231E+03  0.11347710870E+04  0.12340992718E+04  0.10100000352E+00 0.  1.
</event>
<event>
 5   0  0.6395992E-05  0.1912492E+04  0.7818609E-02  0.8648663E-01
        2   -1    0    0  501    0  0.00000000000E+00  0.00000000000E+00  0.11302555052E+04  0.11302555052E+04  0.25500000920E-02 0. -1.
       -2   -1    0    0    0  501  0.00000000000E+00  0.00000000000E+00 -0.80902631638E+03  0.80902631638E+03  0.25500000920E-02 0.  1.
    10030    2    1    2    0    0  0.00000000000E+00  0.00000000000E+00  0.32122918879E+03  0.19392818216E+04  0.19124920370E+04 0.  0.
        4    1    3    3  502    0  0.81993930433E+03 -0.39469485467E+03  0.45853336829E+03  0.10189891824E+04  0.12699999809E+01 0. -1.
       -4    1    3    3    0  502 -0.81993930433E+03  0.39469485467E+03 -0.13730417949E+03  0.92029263916E+03  0.12699999809E+01 0.  1.
</event>
<event>
 5   0  0.3203527E-05  0.1894566E+04  0.7818609E-02  0.8657566E-01
        1   -1    0    0  501    0  0.00000000000E+00  0.00000000000E+00  0.12437007489E+04  0.12437007489E+04  0.50400001928E-02 0.  1.
       -1   -1    0    0    0  501  0.00000000000E+00  0.00000000000E+00 -0.72151230199E+03  0.72151230201E+03  0.50400001928E-02 0. -1.
    10030    2    1    2    0    0  0.00000000000E+00  0.00000000000E+00  0.52218844691E+03  0.19652130509E+04  0.18945663254E+04 0.  0.
        1    1    3    3  502    0  0.27638502393E+03  0.90328982845E+03  0.18756955815E+03  0.96306984939E+03  0.50400001928E-02 0. -1.
       -1    1    3    3    0  502 -0.27638502393E+03 -0.90328982845E+03  0.33461888876E+03  0.10021432015E+04  0.50400001928E-02 0.  1.
</event>
<event>
 5   0  0.6423388E-05  0.1897065E+04  0.7818609E-02  0.8656319E-01
       -2   -1    0    0    0  501  0.00000000000E+00  0.00000000000E+00  0.15232621110E+04  0.15232621110E+04  0.25500000920E-02 0.  1.
        2   -1    0    0  501    0  0.00000000000E+00  0.00000000000E+00 -0.59064956589E+03  0.59064956589E+03  0.25500000920E-02 0. -1.
    10030    2    1    2    0    0  0.00000000000E+00  0.00000000000E+00  0.93261254508E+03  0.21139116769E+04  0.18970652119E+04 0.  0.
        2    1    3    3  502    0 -0.14847131091E+03 -0.25330844461E+03  0.14713495106E+04  0.15003593838E+04  0.25500000920E-02 0.  1.
       -2    1    3    3    0  502  0.14847131091E+03  0.25330844461E+03 -0.53873696552E+03  0.61355229304E+03  0.25500000920E-02 0. -1.
</event>
<event>
 5   0  0.3147063E-05  0.1898905E+04  0.7818609E-02  0.8655402E-01
        1   -1    0    0  501    0  0.00000000000E+00  0.00000000000E+00  0.14831305987E+04  0.14831305987E+04  0.50400001928E-02 0. -1.
       -1   -1    0    0    0  501  0.00000000000E+00  0.00000000000E+00 -0.60780878315E+03  0.60780878317E+03  0.50400001928E-02 0.  1.
    10030    2    1    2    0    0  0.00000000000E+00  0.00000000000E+00  0.87532181551E+03  0.20909393818E+04  0.18989047416E+04 0.  0.
        5    1    3    3  502    0 -0.18421980044E+03 -0.79343607428E+03  0.97480427994E+03  0.12703319303E+04  0.46999998093E+01 0. -1.
       -5    1    3    3    0  502  0.18421980044E+03  0.79343607428E+03 -0.99482464436E+02  0.82060745157E+03  0.46999998093E+01 0.  1.
</event>
<event>
 5   0  0.6361762E-05  0.1900946E+04  0.7818609E-02  0.8654386E-01
       -2   -1    0    0    0  501  0.00000000000E+00  0.00000000000E+00  0.12974862167E+04  0.12974862167E+04  0.25500000920E-02 0.  1.
        2   -1    0    0  501    0  0.00000000000E+00  0.00000000000E+00 -0.69626864085E+03  0.69626864086E+03  0.25500000920E-02 0. -1.
    10030    2    1    2    0    0  0.00000000000E+00  0.00000000000E+00  0.60121757583E+03  0.19937548575E+04  0.19009460430E+04 0.  0.
        1    1    3    3  502    0 -0.88713000334E+03 -0.33982551806E+03  0.33238549508E+03  0.10064597075E+04  0.50400001928E-02 0.  1.
       -1    1    3    3    0  502  0.88713000334E+03  0.33982551806E+03  0.26883208075E+03  0.98729515000E+03  0.50400001928E-02 0. -1.
</event>
<event>
 5   0  0.2279625E-05  0.1896521E+04  0.7818609E-02  0.8656590E-01
       -4   -1    0    0    0  501  0.00000000000E+00  0.00000000000E+00  0.65229784298E+03  0.65229907930E+03  0.12699999809E+01 0. -1.
        4   -1    0    0  501    0  0.00000000000E+00  0.00000000000E+00 -0.13785061001E+04  0.13785066851E+04  0.12699999809E+01 0.  1.
    10030    2    1    2    0    0  0.00000000000E+00  0.00000000000E+00 -0.72620825708E+03  0.20308057644E+04  0.18965214525E+04 0.  0.
        2    1    3    3  502    0 -0.81564479204E+03  0.38666161734E+03 -0.51989914468E+02  0.90414964708E+03  0.25500000920E-02 0. -1.
       -2    1    3    3    0  502  0.81564479204E+03 -0.38666161734E+03 -0.67421834261E+03  0.11266561173E+04  0.25500000920E-02 0.  1.
</event>
<event>
 5   0  0.3203527E-05  0.1895064E+04  0.7818609E-02  0.8657317E-01
        1   -1    0    0  501    0  0.00000000000E+00  0.00000000000E+00  0.13408713867E+04  0.13408713867E+04  0.50400001928E-02 0.  1.
       -1   -1    0    0    0  501  0.00000000000E+00  0.00000000000E+00 -0.66957695686E+03  0.66957695687E+03  0.50400001928E-02 0. -1.
    10030    2    1    2    0    0  0.00000000000E+00  0.00000000000E+00  0.67129442982E+03  0.20104483436E+04  0.18950636746E+04 0.  0.
        1    1    3    3  502    0 -0.39030983659E+03  0.85946216202E+03  0.42312766140E+03  0.10344341421E+04  0.50400001928E-02 0. -1.
       -1    1    3    3    0  502  0.39030983659E+03 -0.85946216202E+03  0.24816676842E+03  0.97601420146E+03  0.50400001928E-02 0.  1.
</event>
<event>
 5   0  0.3144958E-05  0.1895400E+04  0.7818609E-02  0.8657150E-01
       -1   -1    0    0    0  501  0.00000000000E+00  0.00000000000E+00  0.10014923119E+04  0.10014923119E+04  0.50400001928E-02 0.  1.
        1   -1    0    0  501    0  0.00000000000E+00  0.00000000000E+00 -0.89679666758E+03  0.89679666759E+03  0.50400001928E-02 0. -1.
    10030    2    1    2    0    0  0.00000000000E+00  0.00000000000E+00  0.10469564428E+03  0.18982889795E+04  0.18953996601E+04 0.  0.
        4    1    3    3  502    0 -0.87639301187E+03  0.13013629906E+02  0.41331267385E+03  0.96905265341E+03  0.12699999809E+01 0.  1.
       -4    1    3    3    0  502  0.87639301187E+03 -0.13013629906E+02 -0.30861702958E+03  0.92923632605E+03  0.12699999809E+01 0. -1.
</event>
<event>
 5   0  0.3144958E-05  0.1903588E+04  0.7818609E-02  0.8653072E-01
        1   -1    0    0  501    0  0.00000000000E+00  0.00000000000E+00  0.16684770912E+04  0.16684770912E+04  0.50400001928E-02 0. -1.
       -1   -1    0    0    0  501  0.00000000000E+00  0.00000000000E+00 -0.54295748224E+03  0.54295748226E+03  0.50400001928E-02 0.  1.
    10030    2    1    2    0    0  0.00000000000E+00  0.00000000000E+00  0.11255196089E+04  0.22114345734E+04  0.19035883175E+04 0.  0.
        4    1    3    3  502    0  0.21041725140E+03  0.30464260405E+01  0.16411114700E+04  0.16545492347E+04  0.12699999809E+01 0. -1.
       -4    1    3    3    0  502 -0.21041725140E+03 -0.30464260405E+01 -0.51559186104E+03  0.55688533870E+03  0.12699999809E+01 0.  1.
</event>
<event>
 5   0  0.6423388E-05  0.1903846E+04  0.7818609E-02  0.8652944E-01
        2   -1    0    0  501    0  0.00000000000E+00  0.00000000000E+00  0.13769795208E+04  0.13769795208E+04  0.25500000920E-02 0.  1.
       -2   -1    0    0    0  501  0.00000000000E+00  0.00000000000E+00 -0.65807610460E+03  0.65807610461E+03  0.25500000920E-02 0. -1.
    10030    2    1    2    0    0  0.00000000000E+00  0.00000000000E+00  0.71890341621E+03  0.20350556254E+04  0.19038459173E+04 0.  0.
        2    1    3    3  502    0  0.38252491260E+03 -0.67952686762E+03 -0.22413775709E+03  0.81136909402E+03  0.25500000920E-02 0. -1.
       -2    1    3    3    0  502 -0.38252491260E+03  0.67952686762E+03  0.94304117330E+03  0.12236865314E+04  0.25500000920E-02 0.  1.
</event>
<event>
 5   0  0.6423388E-05  0.1901707E+04  0.7818609E-02  0.8654007E-01
       -2   -1    0    0    0  501  0.00000000000E+00  0.00000000000E+00  0.55951016127E+03  0.55951016128E+03  0.25500000920E-02 0.  1.
        2   -1    0    0  501    0  0.00000000000E+00  0.00000000000E+00 -0.16159178258E+04  0.16159178258E+04  0.25500000920E-02 0. -1.
    10030    2    1    2    0    0  0.00000000000E+00  0.00000000000E+00 -0.10564076645E+04  0.21754279871E+04  0.19017070682E+04 0.  0.
        2    1    3    3  502    0 -0.16679736713E+03 -0.12962666226E+03  0.53232756047E+03  0.57271028006E+03  0.25500000920E-02 0.  1.
       -2    1    3    3    0  502  0.16679736713E+03  0.12962666226E+03 -0.15887352250E+04  0.16027177070E+04  0.25500000920E-02 0. -1.
</event>
<event>
 5   0  0.6395992E-05  0.1912941E+04  0.7818609E-02  0.8648441E-01
        2   -1    0    0  501    0  0.00000000000E+00  0.00000000000E+00  0.20822402093E+04  0.20822402093E+04  0.25500000920E-02 0.  1.
       -2   -1    0    0    0  501  0.00000000000E+00  0.00000000000E+00 -0.43935172519E+03  0.43935172520E+03  0.25500000920E-02 0. -1.
    10030    2    1    2    0    0  0.00000000000E+00  0.00000000000E+00  0.16428884841E+04  0.25215919345E+04  0.19129410114E+04 0.  0.
        4    1    3    3  502    0 -0.18789007191E+03 -0.10321329314E+03 -0.40727530468E+03  0.46025042064E+03  0.12699999809E+01 0. -1.
       -4    1    3    3    0  502  0.18789007191E+03  0.10321329314E+03  0.20501637888E+04  0.20613415139E+04  0.12699999809E+01 0.  1.
</event>
<event>
 5   0  0.6098377E-05  0.1899241E+04  0.7818609E-02  0.8655234E-01
        2   -1    0    0  501    0  0.00000000000E+00  0.00000000000E+00  0.15275575769E+04  0.15275575769E+04  0.25500000920E-02 0.  1.
       -2   -1    0    0    0  501  0.00000000000E+00  0.00000000000E+00 -0.59034042327E+03  0.59034042328E+03  0.25500000920E-02 0. -1.
    10030    2    1    2    0    0  0.00000000000E+00  0.00000000000E+00  0.93721715362E+03  0.21178980002E+04  0.18992408868E+04 0.  0.
        5    1    3    3  502    0 -0.40313986000E+03 -0.15008017949E+03 -0.47544588949E+03  0.64118381984E+03  0.46999998093E+01 0. -1.
       -5    1    3    3    0  502  0.40313986000E+03  0.15008017949E+03  0.14126630431E+04  0.14767141803E+04  0.46999998093E+01 0.  1.
</event>
<event>
 5   0  0.6423388E-05  0.1903225E+04  0.7818609E-02  0.8653253E-01
        2   -1    0    0  501    0  0.00000000000E+00  0.00000000000E+00  0.95815066576E+03  0.95815066576E+03  0.25500000920E-02 0.  1.
       -2   -1    0    0    0  501  0.00000000000E+00  0.00000000000E+00 -0.94511858939E+03  0.94511858939E+03  0.25500000920E-02 0. -1.
    10030    2    1    2    0    0  0.00000000000E+00  0.00000000000E+00  0.13032076371E+02  0.19032692552E+04  0.19032246380E+04 0.  0.
        2    1    3    3  502    0 -0.48643091376E+03  0.40470991352E+03 -0.70424731404E+03  0.94676788460E+03  0.25500000920E-02 0. -1.
       -2    1    3    3    0  502  0.48643091376E+03 -0.40470991352E+03  0.71727939041E+03  0.95650137056E+03  0.25500000920E-02 0.  1.
</event>
<event>
 5   0  0.6361762E-05  0.1960248E+04  0.7818609E-02  0.8625435E-01
        2   -1    0    0  501    0  0.00000000000E+00  0.00000000000E+00  0.83131348911E+03  0.83131348911E+03  0.25500000920E-02 0. -1.
       -2   -1    0    0    0  501  0.00000000000E+00  0.00000000000E+00 -0.11555724876E+04  0.11555724876E+04  0.25500000920E-02 0.  1.
    10030    2    1    2    0    0  0.00000000000E+00  0.00000000000E+00 -0.32425899847E+03  0.19868859767E+04  0.19602479400E+04 0.  0.
        1    1    3    3  502    0  0.87762596496E+03 -0.18454449411E+03 -0.56292549063E+03  0.10588527342E+04  0.50400001928E-02 0.  1.
       -1    1    3    3    0  502 -0.87762596496E+03  0.18454449411E+03  0.23866649216E+03  0.92803324250E+03  0.50400001928E-02 0. -1.
</event>
<event>
 5   0  0.6395992E-05  0.1899726E+04  0.7818609E-02  0.8654993E-01
       -2   -1    0    0    0  501  0.00000000000E+00  0.00000000000E+00  0.25428973299E+04  0.25428973299E+04  0.25500000920E-02 0. -1.
        2   -1    0    0  501    0  0.00000000000E+00  0.00000000000E+00 -0.35480783768E+03  0.35480783769E+03  0.25500000920E-02 0.  1.
    10030    2    1    2    0    0  0.00000000000E+00  0.00000000000E+00  0.21880894922E+04  0.28977051676E+04  0.18997261940E+04 0.  0.
        4    1    3    3  502    0 -0.82197579078E+03 -0.40037405489E+03  0.14867824601E+04  0.17454132121E+04  0.12699999809E+01 0. -1.
       -4    1    3    3    0  502  0.82197579078E+03  0.40037405489E+03  0.70130703214E+03  0.11522919555E+04  0.12699999809E+01 0.  1.
</event>
<event>
 5   0  0.6395992E-05  0.1903590E+04  0.7818609E-02  0.8653071E-01
        2   -1    0    0  501    0  0.00000000000E+00  0.00000000000E+00  0.15548448658E+04  0.15548448658E+04  0.25500000920E-02 0.  1.
       -2   -1    0    0    0  501  0.00000000000E+00  0.00000000000E+00 -0.58263951352E+03  0.58263951352E+03  0.25500000920E-02 0. -1.
    10030    2    1    2    0    0  0.00000000000E+00  0.00000000000E+00  0.97220535226E+03  0.21374843793E+04  0.19035903511E+04 0.  0.
        4    1    3    3  502    0 -0.74203552613E+03  0.50585097201E+03  0.84013720239E+03  0.12297699214E+04  0.12699999809E+01 0. -1.
       -4    1    3    3    0  502  0.74203552613E+03 -0.50585097201E+03  0.13206814987E+03  0.90771445787E+03  0.12699999809E+01 0.  1.
</event>
<event>
 5   0  0.6098377E-05  0.1906908E+04  0.7818609E-02  0.8651425E-01
       -2   -1    0    0    0  501  0.00000000000E+00  0.00000000000E+00  0.58556424568E+03  0.58556424569E+03  0.25500000920E-02 0.  1.
        2   -1    0    0  501    0  0.00000000000E+00  0.00000000000E+00 -0.15524760713E+04  0.15524760713E+04  0.25500000920E-02 0. -1.
    10030    2    1    2    0    0  0.00000000000E+00  0.00000000000E+00 -0.96691182565E+03  0.21380403170E+04  0.19069079471E+04 0.  0.
        5    1    3    3  502    0 -0.91256077428E+03  0.53960858303E+02 -0.78716349043E+03  0.12063695088E+04  0.46999998093E+01 0. -1.
       -5    1    3    3    0  502  0.91256077428E+03 -0.53960858303E+02 -0.17974833522E+03  0.93167080828E+03  0.46999998093E+01 0.  1.
</event>
<event>
 5   0  0.3144958E-05  0.1901765E+04  0.7818609E-02  0.8653978E-01
       -1   -1    0    0    0  501  0.00000000000E+00  0.00000000000E+00  0.56335263370E+03  0.56335263372E+03  0.50400001928E-02 0.  1.
        1   -1    0    0  501    0  0.00000000000E+00  0.00000000000E+00 -0.16049939087E+04  0.16049939087E+04  0.50400001928E-02 0. -1.
    10030    2    1    2    0    0  0.00000000000E+00  0.00000000000E+00 -0.10416412750E+04  0.21683465424E+04  0.19017650176E+04 0.  0.
        4    1    3    3  502    0 -0.88423064710E+03 -0.14755934435E+03 -0.15929618060E+03  0.91050232478E+03  0.12699999809E+01 0.  1.
       -4    1    3    3    0  502  0.88423064710E+03  0.14755934435E+03 -0.88234509440E+03  0.12578442177E+04  0.12699999809E+01 0. -1.
</event>
<event>
 5   0  0.6098377E-05  0.1891509E+04  0.7818609E-02  0.8659095E-01
       -2   -1    0    0    0  501  0.00000000000E+00  0.00000000000E+00  0.57327640199E+03  0.57327640200E+03  0.25500000920E-02 0. -1.
        2   -1    0    0  501    0  0.00000000000E+00  0.00000000000E+00 -0.15602444994E+04  0.15602444994E+04  0.25500000920E-02 0.  1.
    10030    2    1    2    0    0  0.00000000000E+00  0.00000000000E+00 -0.98696809743E+03  0.21335209014E+04  0.18915087659E+04 0.  0.
        5    1    3    3  502    0 -0.26603907806E+03 -0.58630714681E+03  0.28789594998E+03  0.70529357679E+03  0.46999998093E+01 0. -1.
       -5    1    3    3    0  502  0.26603907806E+03  0.58630714681E+03 -0.12748640474E+04  0.14282273246E+04  0.46999998093E+01 0.  1.
</event>
<event>
 5   0  0.6452182E-05  0.1927332E+04  0.7818609E-02  0.8641370E-01
        2   -1    0    0  501    0  0.00000000000E+00  0.00000000000E+00  0.97292557789E+03  0.97292557790E+03  0.25500000920E-02 0.  1.
       -2   -1    0    0    0  501  0.00000000000E+00  0.00000000000E+00 -0.95449476495E+03  0.95449476495E+03  0.25500000920E-02 0. -1.
    10030    2    1    2    0    0  0.00000000000E+00  0.00000000000E+00  0.18430812942E+02  0.19274203428E+04  0.19273322192E+04 0.  0.
        3    1    3    3  502    0 -0.39355296446E+03  0.49746899976E+02  0.88748882871E+03  0.97210859537E+03  0.10100000352E+00 0.  1.
       -3    1    3    3    0  502  0.39355296446E+03 -0.49746899976E+02 -0.86905801577E+03  0.95531174748E+03  0.10100000352E+00 0. -1.
</event>
<event>
 5   0  0.2279625E-05  0.1908245E+04  0.7818609E-02  0.8650763E-01
       -4   -1    0    0    0  501  0.00000000000E+00  0.00000000000E+00  0.84609058773E+03  0.84609154088E+03  0.12699999809E+01 0.  1.
        4   -1    0    0  501    0  0.00000000000E+00  0.00000000000E+00 -0.10759462853E+04  0.10759470348E+04  0.12699999809E+01 0. -1.
    10030    2    1    2    0    0  0.00000000000E+00  0.00000000000E+00 -0.22985569759E+03  0.19220385757E+04  0.19082449122E+04 0.  0.
        1    1    3    3  502    0  0.44441376839E+03 -0.84391479086E+03 -0.14068395127E+03  0.96409944815E+03  0.50400001928E-02 0. -1.
       -1    1    3    3    0  502 -0.44441376839E+03  0.84391479086E+03 -0.89171746327E+02  0.95793912757E+03  0.50400001928E-02 0.  1.
</event>
<event>
 5   0  0.3203527E-05  0.1925694E+04  0.7818609E-02  0.8642171E-01
       -1   -1    0    0    0  501  0.00000000000E+00  0.00000000000E+00  0.14289921786E+04  0.14289921786E+04  0.50400001928E-02 0. -1.
        1   -1    0    0  501    0  0.00000000000E+00  0.00000000000E+00 -0.64876119021E+03  0.64876119023E+03  0.50400001928E-02 0.  1.
    10030    2    1    2    0    0  0.00000000000E+00  0.00000000000E+00  0.78023098838E+03  0.20777533688E+04  0.19256943336E+04 0.  0.
        1    1    3    3  502    0  0.78787458998E+03  0.23667173636E+03 -0.14970565433E+03  0.83616485413E+03  0.50400001928E-02 0.  1.
       -1    1    3    3    0  502 -0.78787458998E+03 -0.23667173636E+03  0.92993664270E+03  0.12415885147E+04  0.50400001928E-02 0. -1.
</event>
<event>
 5   0  0.3147063E-05  0.1893095E+04  0.7818609E-02  0.8658301E-01
        1   -1    0    0  501    0  0.00000000000E+00  0.00000000000E+00  0.57604087915E+03  0.57604087917E+03  0.50400001928E-02 0. -1.
       -1   -1    0    0    0  501  0.00000000000E+00  0.00000000000E+00 -0.15553620778E+04  0.15553620778E+04  0.50400001928E-02 0.  1.
    10030    2    1    2    0    0  0.00000000000E+00  0.00000000000E+00 -0.97932119866E+03  0.21314029570E+04  0.18930949672E+04 0.  0.
        5    1    3    3  502    0  0.38337978389E+03 -0.59607458572E+03  0.21673108159E+03  0.74113387600E+03  0.46999998093E+01 0. -1.
       -5    1    3    3    0  502 -0.38337978389E+03  0.59607458572E+03 -0.11960522802E+04  0.13902690810E+04  0.46999998093E+01 0.  1.
</event>
<event>
 5   0  0.3147063E-05  0.1902777E+04  0.7818609E-02  0.8653476E-01
       -1   -1    0    0    0  501  0.00000000000E+00  0.00000000000E+00  0.11378606966E+04  0.11378606967E+04  0.50400001928E-02 0. -1.
        1   -1    0    0  501    0  0.00000000000E+00  0.00000000000E+00 -0.79547497515E+03  0.79547497516E+03  0.50400001928E-02 0.  1.
    10030    2    1    2    0    0  0.00000000000E+00  0.00000000000E+00  0.34238572150E+03  0.19333356718E+04  0.19027766126E+04 0.  0.
        5    1    3    3  502    0 -0.51041070448E+03  0.65141821200E+03  0.64804114357E+03  0.10511156872E+04  0.46999998093E+01 0. -1.
       -5    1    3    3    0  502  0.51041070448E+03 -0.65141821200E+03 -0.30565542207E+03  0.88221998459E+03  0.46999998093E+01 0.  1.
</event>
<event>
 5   0  0.6361762E-05  0.1896344E+04  0.7818609E-02  0.8656678E-01
       -2   -1    0    0    0  501  0.00000000000E+00  0.00000000000E+00  0.84668305051E+03  0.84668305051E+03  0.25500000920E-02 0.  1.
        2   -1    0    0  501    0  0.00000000000E+00  0.00000000000E+00 -0.10618260402E+04  0.10618260402E+04  0.25500000920E-02 0. -1.
    10030    2    1    2    0    0  0.00000000000E+00  0.00000000000E+00 -0.21514298964E+03  0.19085090907E+04  0.18963439675E+04 0.  0.
        1    1    3    3  502    0  0.15170455024E+03 -0.93590418009E+03 -0.97547383773E+02  0.95312454431E+03  0.50400001928E-02 0. -1.
       -1    1    3    3    0  502 -0.15170455024E+03  0.93590418009E+03 -0.11759560587E+03  0.95538454635E+03  0.50400001928E-02 0.  1.
</event>
<event>
 5   0  0.6361762E-05  0.1899892E+04  0.7818609E-02  0.8654910E-01
       -2   -1    0    0    0  501  0.00000000000E+00  0.00000000000E+00  0.39615795169E+03  0.39615795170E+03  0.25500000920E-02 0.  1.
        2   -1    0    0  501    0  0.00000000000E+00  0.00000000000E+00 -0.22778734812E+04  0.22778734812E+04  0.25500000920E-02 0. -1.
    10030    2    1    2    0    0  0.00000000000E+00  0.00000000000E+00 -0.18817155295E+04  0.26740314329E+04  0.18998923049E+04 0.  0.
        1    1    3    3  502    0  0.53622761409E+03  0.29473393320E+03 -0.19635623111E+04  0.20566927566E+04  0.50400001928E-02 0. -1.
       -1    1    3    3    0  502 -0.53622761409E+03 -0.29473393320E+03  0.81846781644E+02  0.61733867624E+03  0.50400001928E-02 0.  1.
</event>
<event>
 5   0  0.3144958E-05  0.1793957E+04  0.7818609E-02  0.8709520E-01
        1   -1    0    0  501    0  0.00000000000E+00  0.00000000000E+00  0.12689495097E+04  0.12689495097E+04  0.50400001928E-02 0. -1.
       -1   -1    0    0    0  501  0.00000000000E+00  0.00000000000E+00 -0.63404443712E+03  0.63404443714E+03  0.50400001928E-02 0.  1.
    10030    2    1    2    0    0  0.00000000000E+00  0.00000000000E+00  0.63490507259E+03  0.19029939469E+04  0.17939569422E+04 0.  0.
        4    1    3    3  502    0 -0.70481059940E+03 -0.41251919310E+02  0.90435169325E+03  0.11473069772E+04  0.12699999809E+01 0. -1.
       -4    1    3    3    0  502  0.70481059940E+03  0.41251919310E+02 -0.26944662066E+03  0.75568696969E+03  0.12699999809E+01 0.  1.
</event>
<event>
 5   0  0.6423388E-05  0.1884896E+04  0.7818609E-02  0.8662412E-01
        2   -1    0    0  501    0  0.00000000000E+00  0.00000000000E+00  0.12690236707E+04  0.12690236707E+04  0.25500000920E-02 0.  1.
       -2   -1    0    0    0  501  0.00000000000E+00  0.00000000000E+00 -0.69991436442E+03  0.69991436442E+03  0.25500000920E-02 0. -1.
    10030    2    1    2    0    0  0.00000000000E+00  0.00000000000E+00  0.56910930631E+03  0.19689380351E+04  0.18848956427E+04 0.  0.
        2    1    3    3  502    0  0.83938589756E+03 -0.38003720024E+03  0.49140123580E+03  0.10442567372E+04  0.25500000920E-02 0. -1.
       -2    1    3    3    0  502 -0.83938589756E+03  0.38003720024E+03  0.77708070509E+02  0.92468129797E+03  0.25500000920E-02 0.  1.
</event>
<event>
 5   0  0.2279625E-05  0.1907788E+04  0.7818609E-02  0.8650989E-01
        3   -1    0    0  501    0  0.00000000000E+00  0.00000000000E+00  0.38824604192E+03  0.38824605506E+03  0.10100000352E+00 0.  1.
       -3   -1    0    0    0  501  0.00000000000E+00  0.00000000000E+00 -0.23436523205E+04  0.23436523227E+04  0.10100000352E+00 0. -1.
    10030    2    1    2    0    0  0.00000000000E+00  0.00000000000E+00 -0.19554062786E+04  0.27318983778E+04  0.19077879945E+04 0.  0.
        5    1    3    3  502    0  0.78161561169E+03 -0.53906710005E+03 -0.11087529222E+04  0.14597504702E+04  0.46999998093E+01 0.  1.
       -5    1    3    3    0  502 -0.78161561169E+03  0.53906710005E+03 -0.84665335642E+03  0.12721479076E+04  0.46999998093E+01 0. -1.
</event>
<event>
 5   0  0.6098377E-05  0.1901356E+04  0.7818609E-02  0.8654182E-01
        2   -1    0    0  501    0  0.00000000000E+00  0.00000000000E+00  0.81367342992E+03  0.81367342993E+03  0.25500000920E-02 0. -1.
       -2   -1    0    0    0  501  0.00000000000E+00  0.00000000000E+00 -0.11107513851E+04  0.11107513851E+04  0.25500000920E-02 0.  1.
    10030    2    1    2    0    0  0.00000000000E+00  0.00000000000E+00 -0.29707795521E+03  0.19244248151E+04  0.19013562416E+04 0.  0.
        5    1    3    3  502    0 -0.95066595399E+02 -0.41699455946E+03  0.71078771521E+03  0.82955613811E+03  0.46999998093E+01 0. -1.
       -5    1    3    3    0  502  0.95066595399E+02  0.41699455946E+03 -0.10078656704E+04  0.10948686770E+04  0.46999998093E+01 0.  1.
</event>
<event>
 5   0  0.6098377E-05  0.1902502E+04  0.7818609E-02  0.8653612E-01
        2   -1    0    0  501    0  0.00000000000E+00  0.00000000000E+00  0.10280435404E+04  0.10280435404E+04  0.25500000920E-02 0.  1.
       -2   -1    0    0    0  501  0.00000000000E+00  0.00000000000E+00 -0.88019512439E+03  0.88019512440E+03  0.25500000920E-02 0. -1.
    10030    2    1    2    0    0  0.00000000000E+00  0.00000000000E+00  0.14784841596E+03  0.19082386648E+04  0.19025024698E+04 0.  0.
        5    1    3    3  502    0  0.83230054544E+03 -0.37287410541E+03 -0.19725650591E+03  0.93310852292E+03  0.46999998093E+01 0. -1.
       -5    1    3    3    0  502 -0.83230054544E+03  0.37287410541E+03  0.34510492187E+03  0.97513014183E+03  0.46999998093E+01 0.  1.
</event>
<event>
 5   0  0.3203527E-05  0.1892745E+04  0.7818609E-02  0.8658476E-01
        1   -1    0    0  501    0  0.00000000000E+00  0.00000000000E+00  0.55644045890E+03  0.55644045893E+03  0.50400001928E-02 0.  1.
       -1   -1    0    0    0  501  0.00000000000E+00  0.00000000000E+00 -0.16095534695E+04  0.16095534695E+04  0.50400001928E-02 0. -1.
    10030    2    1    2    0    0  0.00000000000E+00  0.00000000000E+00 -0.10531130106E+04  0.21659939285E+04  0.18927447490E+04 0.  0.
        1    1    3    3  502    0  0.24593645455E+03  0.89714403286E+03 -0.72565168629E+03  0.11797976628E+04  0.50400001928E-02 0. -1.
       -1    1    3    3    0  502 -0.24593645455E+03 -0.89714403286E+03 -0.32746132433E+03  0.98619626562E+03  0.50400001928E-02 0.  1.
</event>
<event>
 5   0  0.3144958E-05  0.1907649E+04  0.7818609E-02  0.8651058E-01
       -1   -1    0    0    0  501  0.00000000000E+00  0.00000000000E+00  0.10596859408E+04  0.10596859408E+04  0.50400001928E-02 0. -1.
        1   -1    0    0  501    0  0.00000000000E+00  0.00000000000E+00 -0.85853834451E+03  0.85853834452E+03  0.50400001928E-02 0.  1.
    10030    2    1    2    0    0  0.00000000000E+00  0.00000000000E+00  0.20114759632E+03  0.19182242854E+04  0.19076488287E+04 0.  0.
        4    1    3    3  502    0 -0.19198369444E+03 -0.57226171032E+03  0.84320591730E+03  0.10369855524E+04  0.12699999809E+01 0. -1.
       -4    1    3    3    0  502  0.19198369444E+03  0.57226171032E+03 -0.64205832098E+03  0.88123873296E+03  0.12699999809E+01 0.  1.
</event>
<event>
 5   0  0.6452182E-05  0.1898283E+04  0.7818609E-02  0.8655712E-01
       -2   -1    0    0    0  501  0.00000000000E+00  0.00000000000E+00  0.39575587379E+03  0.39575587380E+03  0.25500000920E-02 0.  1.
        2   -1    0    0  501    0  0.00000000000E+00  0.00000000000E+00 -0.22763263721E+04  0.22763263721E+04  0.25500000920E-02 0. -1.
    10030    2    1    2    0    0  0.00000000000E+00  0.00000000000E+00 -0.18805704983E+04  0.26720822459E+04  0.18982829425E+04 0.  0.
        3    1    3    3  502    0 -0.34453063233E+03 -0.34394296973E+03  0.20662875490E+03  0.52886063911E+03  0.10100000352E+00 0.  1.
       -3    1    3    3    0  502  0.34453063233E+03  0.34394296973E+03 -0.20871992532E+04  0.21432216068E+04  0.10100000352E+00 0. -1.
</event>
<event>
 5   0  0.6361762E-05  0.1912669E+04  0.7818609E-02  0.8648576E-01
        2   -1    0    0  501    0  0.00000000000E+00  0.00000000000E+00  0.90353263942E+03  0.90353263942E+03  0.25500000920E-02 0. -1.
       -2   -1    0    0    0  501  0.00000000000E+00  0.00000000000E+00 -0.10122220461E+04  0.10122220461E+04  0.25500000920E-02 0.  1.
    10030    2    1    2    0    0  0.00000000000E+00  0.00000000000E+00 -0.10868940667E+03  0.19157546855E+04  0.19126689802E+04 0.  0.
        1    1    3    3  502    0  0.12033796514E+03 -0.59375871102E+02  0.89405612782E+03  0.90407028468E+03  0.50400001928E-02 0. -1.
       -1    1    3    3    0  502 -0.12033796514E+03  0.59375871102E+02 -0.10027455345E+04  0.10116844008E+04  0.50400001928E-02 0.  1.
</event>
<event>
 5   0  0.6098377E-05  0.1906115E+04  0.7818609E-02  0.8651818E-01
        2   -1    0    0  501    0  0.00000000000E+00  0.00000000000E+00  0.96451965469E+03  0.96451965469E+03  0.25500000920E-02 0. -1.
       -2   -1    0    0    0  501  0.00000000000E+00  0.00000000000E+00 -0.94173171315E+03  0.94173171316E+03  0.25500000920E-02 0.  1.
    10030    2    1    2    0    0  0.00000000000E+00  0.00000000000E+00  0.22787941534E+02  0.19062513678E+04  0.19061151558E+04 0.  0.
        5    1    3    3  502    0 -0.76882170583E+01  0.95299294803E+03  0.49136070619E+01  0.95304821557E+03  0.46999998093E+01 0. -1.
       -5    1    3    3    0  502  0.76882170583E+01 -0.95299294803E+03  0.17874334472E+02  0.95320315228E+03  0.46999998093E+01 0.  1.
</event>
<event>
 5   0  0.2279625E-05  0.1901827E+04  0.7818609E-02  0.8653948E-01
       -4   -1    0    0    0  501  0.00000000000E+00  0.00000000000E+00  0.18104684456E+04  0.18104688910E+04  0.12699999809E+01 0.  1.
        4   -1    0    0  501    0  0.00000000000E+00  0.00000000000E+00 -0.49944748319E+03  0.49944909787E+03  0.12699999809E+01 0. -1.
    10030    2    1    2    0    0  0.00000000000E+00  0.00000000000E+00  0.13110209624E+04  0.23099179889E+04  0.19018267933E+04 0.  0.
        3    1    3    3  502    0  0.86241648148E+03  0.38023344376E+03  0.80864671929E+03  0.12418732569E+04  0.10100000352E+00 0.  1.
       -3    1    3    3    0  502 -0.86241648148E+03 -0.38023344376E+03  0.50237424311E+03  0.10680447320E+04  0.10100000352E+00 0. -1.
</event>
<event>
 5   0  0.6452182E-05  0.1989782E+04  0.7818609E-02  0.8611413E-01
       -2   -1    0    0    0  501  0.00000000000E+00  0.00000000000E+00  0.74601633451E+03  0.74601633451E+03  0.25500000920E-02 0.  1.
        2   -1    0    0  501    0  0.00000000000E+00  0.00000000000E+00 -0.13267919641E+04  0.13267919641E+04  0.25500000920E-02 0. -1.
    10030    2    1    2    0    0  0.00000000000E+00  0.00000000000E+00 -0.58077562962E+03  0.20728082986E+04  0.19897823778E+04 0.  0.
        3    1    3    3  502    0  0.85952273832E+03  0.40370586262E+03 -0.59950274402E+03  0.11230143861E+04  0.10100000352E+00 0. -1.
       -3    1    3    3    0  502 -0.85952273832E+03 -0.40370586262E+03  0.18727114399E+02  0.94979391250E+03  0.10100000352E+00 0.  1.
</event>
<event>
 5   0  0.6395992E-05  0.1899757E+04  0.7818609E-02  0.8654977E-01
       -2   -1    0    0    0  501  0.00000000000E+00  0.00000000000E+00  0.65058637554E+03  0.65058637554E+03  0.25500000920E-02 0.  1.
        2   -1    0    0  501    0  0.00000000000E+00  0.00000000000E+00 -0.13868553716E+04  0.13868553716E+04  0.25500000920E-02 0. -1.
    10030    2    1    2    0    0  0.00000000000E+00  0.00000000000E+00 -0.73626899602E+03  0.20374417471E+04  0.18997570472E+04 0.  0.
        4    1    3    3  502    0 -0.43381008181E+03 -0.34291510040E+03 -0.11964334923E+04  0.13180427412E+04  0.12699999809E+01 0. -1.
       -4    1    3    3    0  502  0.43381008181E+03  0.34291510040E+03  0.46016449630E+03  0.71939900592E+03  0.12699999809E+01 0.  1.
</event>
<event>
 5   0  0.2279625E-05  0.1906346E+04  0.7818609E-02  0.8651704E-01
        3   -1    0    0  501    0  0.00000000000E+00  0.00000000000E+00  0.88434087337E+03  0.88434087914E+03  0.10100000352E+00 0.  1.
       -3   -1    0    0    0  501  0.00000000000E+00  0.00000000000E+00 -0.10273626640E+04  0.10273626690E+04  0.10100000352E+00 0. -1.
    10030    2    1    2    0    0  0.00000000000E+00  0.00000000000E+00 -0.14302179066E+03  0.19117035481E+04  0.19063460398E+04 0.  0.
        4    1    3    3  502    0  0.17899667651E+03 -0.66117659704E+03 -0.73620313906E+03  0.10055799210E+04  0.12699999809E+01 0. -1.
       -4    1    3    3    0  502 -0.17899667651E+03  0.66117659704E+03  0.59318134840E+03  0.90612362714E+03  0.12699999809E+01 0.  1.
</event>
<event>
 5   0  0.6452182E-05  0.1897430E+04  0.7818609E-02  0.8656137E-01
       -2   -1    0    0    0  501  0.00000000000E+00  0.00000000000E+00  0.54162368373E+03  0.54162368373E+03  0.25500000920E-02 0. -1.
        2   -1    0    0  501    0  0.00000000000E+00  0.00000000000E+00 -0.16617810154E+04  0.16617810154E+04  0.25500000920E-02 0.  1.
    10030    2    1    2    0    0  0.00000000000E+00  0.00000000000E+00 -0.11201573317E+04  0.22034046991E+04  0.18974297933E+04 0.  0.
        3    1    3    3  502    0 -0.78294536798E+03 -0.52959764460E+03 -0.65429688519E+03  0.11496005996E+04  0.10100000352E+00 0.  1.
       -3    1    3    3    0  502  0.78294536798E+03  0.52959764460E+03 -0.46586044647E+03  0.10538040995E+04  0.10100000352E+00 0. -1.
</event>
<event>
 5   0  0.6395992E-05  0.1902174E+04  0.7818609E-02  0.8653775E-01
        2   -1    0    0  501    0  0.00000000000E+00  0.00000000000E+00  0.21152447976E+04  0.21152447976E+04  0.25500000920E-02 0. -1.
       -2   -1    0    0    0  501  0.00000000000E+00  0.00000000000E+00 -0.42764164150E+03  0.42764164151E+03  0.25500000920E-02 0.  1.
    10030    2    1    2    0    0  0.00000000000E+00  0.00000000000E+00  0.16876031561E+04  0.25428864391E+04  0.19021742901E+04 0.  0.
        4    1    3    3  502    0  0.70777285271E+03 -0.62867313629E+03  0.96627183922E+03  0.13527214065E+04  0.12699999809E+01 0. -1.
       -4    1    3    3    0  502 -0.70777285271E+03  0.62867313629E+03  0.72133131687E+03  0.11901650326E+04  0.12699999809E+01 0.  1.
</event>
<event>
 5   0  0.6361762E-05  0.1902146E+04  0.7818609E-02  0.8653789E-01
       -2   -1    0    0    0  501  0.00000000000E+00  0.00000000000E+00  0.12212985120E+04  0.12212985120E+04  0.25500000920E-02 0. -1.
        2   -1    0    0  501    0  0.00000000000E+00  0.00000000000E+00 -0.74063753577E+03  0.74063753578E+03  0.25500000920E-02 0.  1.
    10030    2    1    2    0    0  0.00000000000E+00  0.00000000000E+00  0.48066097625E+03  0.19619360478E+04  0.19021456520E+04 0.  0.
        1    1    3    3  502    0 -0.69519165472E+03 -0.38667630628E+03 -0.29733168980E+03  0.84924445033E+03  0.50400001928E-02 0.  1.
       -1    1    3    3    0  502  0.69519165472E+03  0.38667630628E+03  0.77799266605E+03  0.11126915975E+04  0.50400001928E-02 0. -1.
</event>
<event>
 5   0  0.3144958E-05  0.1896149E+04  0.7818609E-02  0.8656776E-01
        1   -1    0    0  501    0  0.00000000000E+00  0.00000000000E+00  0.86180775041E+03  0.86180775042E+03  0.50400001928E-02 0.  1.
       -1   -1    0    0    0  501  0.00000000000E+00  0.00000000000E+00 -0.10429763465E+04  0.10429763465E+04  0.50400001928E-02 0. -1.
    10030    2    1    2    0    0  0.00000000000E+00  0.00000000000E+00 -0.18116859610E+03  0.19047840969E+04  0.18961488327E+04 0.  0.
        4    1    3    3  502    0 -0.10987214337E+03  0.42712258923E+03 -0.93365473386E+03  0.10325785050E+04  0.12699999809E+01 0. -1.
       -4    1    3    3    0  502  0.10987214337E+03 -0.42712258923E+03  0.75248613776E+03  0.87220559190E+03  0.12699999809E+01 0.  1.
</event>
<event>
 5   0  0.6452182E-05  0.1899829E+04  0.7818609E-02  0.8654942E-01
        2   -1    0    0  501    0  0.00000000000E+00  0.00000000000E+00  0.21382295240E+04  0.21382295240E+04  0.25500000920E-02 0.  1.
       -2   -1    0    0    0  501  0.00000000000E+00  0.00000000000E+00 -0.42200208170E+03  0.42200208171E+03  0.25500000920E-02 0. -1.
    10030    2    1    2    0    0  0.00000000000E+00  0.00000000000E+00  0.17162274423E+04  0.25602316057E+04  0.18998287400E+04 0.  0.
        3    1    3    3  502    0 -0.75590762035E+03 -0.57526477050E+03  0.85356098605E+03  0.12770639192E+04  0.10100000352E+00 0. -1.
       -3    1    3    3    0  502  0.75590762035E+03  0.57526477050E+03  0.86266645623E+03  0.12831676865E+04  0.10100000352E+00 0.  1.
</event>
<event>
 5   0  0.6098377E-05  0.1906700E+04  0.7818609E-02  0.8651529E-01
        2   -1    0    0  501    0  0.00000000000E+00  0.00000000000E+00  0.11618349183E+04  0.11618349183E+04  0.25500000920E-02 0. -1.
       -2   -1    0    0    0  501  0.00000000000E+00  0.00000000000E+00 -0.78227618781E+03  0.78227618781E+03  0.25500000920E-02 0.  1.
    10030    2    1    2    0    0  0.00000000000E+00  0.00000000000E+00  0.37955873046E+03  0.19441111061E+04  0.19066995471E+04 0.  0.
        5    1    3    3  502    0  0.53075539216E+03  0.54896816040E+03  0.77175563344E+03  0.10856777492E+04  0.46999998093E+01 0. -1.
       -5    1    3    3    0  502 -0.53075539216E+03 -0.54896816040E+03 -0.39219690299E+03  0.85843335684E+03  0.46999998093E+01 0.  1.
</event>
<event>
 5   0  0.3083469E-05  0.1891981E+04  0.7818609E-02  0.8658858E-01
        1   -1    0    0  501    0  0.00000000000E+00  0.00000000000E+00  0.10177253014E+04  0.10177253014E+04  0.50400001928E-02 0. -1.
       -1   -1    0    0    0  501  0.00000000000E+00  0.00000000000E+00 -0.87931173695E+03  0.87931173697E+03  0.50400001928E-02 0.  1.
    10030    2    1    2    0    0  0.00000000000E+00  0.00000000000E+00  0.13841356442E+03  0.18970370383E+04  0.18919807637E+04 0.  0.
        3    1    3    3  502    0 -0.23786292288E+03 -0.89335390456E+03 -0.13192297719E+03  0.93384348313E+03  0.10100000352E+00 0.  1.
       -3    1    3    3    0  502  0.23786292288E+03  0.89335390456E+03  0.27033654161E+03  0.96319355521E+03  0.10100000352E+00 0. -1.
</event>
<event>
 5   0  0.3144958E-05  0.1895465E+04  0.7818609E-02  0.8657117E-01
        1   -1    0    0  501    0  0.00000000000E+00  0.00000000000E+00  0.57965184565E+03  0.57965184567E+03  0.50400001928E-02 0. -1.
       -1   -1    0    0    0  501  0.00000000000E+00  0.00000000000E+00 -0.15495451109E+04  0.15495451110E+04  0.50400001928E-02 0.  1.
    10030    2    1    2    0    0  0.00000000000E+00  0.00000000000E+00 -0.96989326529E+03  0.21291969566E+04  0.18954647805E+04 0.  0.
        4    1    3    3  502    0  0.80189895143E+03  0.14010781294E+03 -0.10300975250E+04  0.13129259885E+04  0.12699999809E+01 0.  1.
       -4    1    3    3    0  502 -0.80189895143E+03 -0.14010781294E+03  0.60204259671E+02  0.81627096808E+03  0.12699999809E+01 0. -1.
</event>
<event>
 5   0  0.6395992E-05  0.1909093E+04  0.7818609E-02  0.8650344E-01
        2   -1    0    0  501    0  0.00000000000E+00  0.00000000000E+00  0.19991237249E+04  0.19991237249E+04  0.25500000920E-02 0.  1.
       -2   -1    0    0    0  501  0.00000000000E+00  0.00000000000E+00 -0.45577896683E+03  0.45577896684E+03  0.25500000920E-02 0. -1.
    10030    2    1    2    0    0  0.00000000000E+00  0.00000000000E+00  0.15433447581E+04  0.24549026917E+04  0.19090925026E+04 0.  0.
        4    1    3    3  502    0 -0.11405126074E+03 -0.52533271155E+03 -0.24262081938E+03  0.58978693000E+03  0.12699999809E+01 0. -1.
       -4    1    3    3    0  502  0.11405126074E+03  0.52533271155E+03  0.17859655775E+04  0.18651157617E+04  0.12699999809E+01 0.  1.
</event>
<event>
 5   0  0.3083469E-05  0.1902498E+04  0.7818609E-02  0.8653614E-01
       -1   -1    0    0    0  501  0.00000000000E+00  0.00000000000E+00  0.94008423970E+03  0.94008423972E+03  0.50400001928E-02 0. -1.
        1   -1    0    0  501    0  0.00000000000E+00  0.00000000000E+00 -0.96254665028E+03  0.96254665029E+03  0.50400001928E-02 0.  1.
    10030    2    1    2    0    0  0.00000000000E+00  0.00000000000E+00 -0.22462410571E+02  0.19026308900E+04  0.19024982901E+04 0.  0.
        3    1    3    3  502    0 -0.14563334453E+03 -0.66426521642E+03 -0.67642234334E+03  0.95916867420E+03  0.10100000352E+00 0.  1.
       -3    1    3    3    0  502  0.14563334453E+03  0.66426521642E+03  0.65395993277E+03  0.94346221581E+03  0.10100000352E+00 0. -1.
</event>
<event>
 5   0  0.6098377E-05  0.1894336E+04  0.7818609E-02  0.8657681E-01
       -2   -1    0    0    0  501  0.00000000000E+00  0.00000000000E+00  0.12642365824E+04  0.12642365824E+04  0.25500000920E-02 0.  1.
        2   -1    0    0  501    0  0.00000000000E+00  0.00000000000E+00 -0.70961955845E+03  0.70961955846E+03  0.25500000920E-02 0. -1.
    10030    2    1    2    0    0  0.00000000000E+00  0.00000000000E+00  0.55461702397E+03  0.19738561409E+04  0.18943357732E+04 0.  0.
        5    1    3    3  502    0  0.12908936407E+03  0.26241821492E+03 -0.66138441202E+03  0.72317274139E+03  0.46999998093E+01 0. -1.
       -5    1    3    3    0  502 -0.12908936407E+03 -0.26241821492E+03  0.12160014360E+04  0.12506833995E+04  0.46999998093E+01 0.  1.
</event>
<event>
 5   0  0.6423388E-05  0.1900300E+04  0.7818609E-02  0.8654707E-01
       -2   -1    0    0    0  501  0.00000000000E+00  0.00000000000E+00  0.12380164632E+04  0.12380164632E+04  0.25500000920E-02 0.  1.
        2   -1    0    0  501    0  0.00000000000E+00  0.00000000000E+00 -0.72921881454E+03  0.72921881454E+03  0.25500000920E-02 0. -1.
    10030    2    1    2    0    0  0.00000000000E+00  0.00000000000E+00  0.50879764871E+03  0.19672352778E+04  0.19002998687E+04 0.  0.
        2    1    3    3  502    0 -0.67494601295E+03  0.19797708142E+03  0.91567730812E+03  0.11546479887E+04  0.25500000920E-02 0. -1.
       -2    1    3    3    0  502  0.67494601295E+03 -0.19797708142E+03 -0.40687965941E+03  0.81258728910E+03  0.25500000920E-02 0.  1.
</event>
<event>
 5   0  0.6098377E-05  0.1865399E+04  0.7818609E-02  0.8672274E-01
       -2   -1    0    0    0  501  0.00000000000E+00  0.00000000000E+00  0.38228899788E+03  0.38228899789E+03  0.25500000920E-02 0.  1.
        2   -1    0    0  501    0  0.00000000000E+00  0.00000000000E+00 -0.22755779527E+04  0.22755779527E+04  0.25500000920E-02 0. -1.
    10030    2    1    2    0    0  0.00000000000E+00  0.00000000000E+00 -0.18932889548E+04  0.26578669506E+04  0.18653990620E+04 0.  0.
        5    1    3    3  502    0 -0.35345290180E+03 -0.47553419244E+03  0.79669242697E+02  0.59785533384E+03  0.46999998093E+01 0.  1.
       -5    1    3    3    0  502  0.35345290180E+03  0.47553419244E+03 -0.19729581975E+04  0.20600116168E+04  0.46999998093E+01 0. -1.
</event>
<event>
 5   0  0.3147063E-05  0.1901069E+04  0.7818609E-02  0.8654324E-01
        1   -1    0    0  501    0  0.00000000000E+00  0.00000000000E+00  0.16656343027E+04  0.16656343027E+04  0.50400001928E-02 0. -1.
       -1   -1    0    0    0  501  0.00000000000E+00  0.00000000000E+00 -0.54244552809E+03  0.54244552811E+03  0.50400001928E-02 0.  1.
    10030    2    1    2    0    0  0.00000000000E+00  0.00000000000E+00  0.11231887746E+04  0.22080798308E+04  0.19010690455E+04 0.  0.
        5    1    3    3  502    0 -0.79442557172E+01 -0.81729523736E+03  0.11251991927E+04  0.13907299988E+04  0.46999998093E+01 0. -1.
       -5    1    3    3    0  502  0.79442557172E+01  0.81729523736E+03 -0.20104180723E+01  0.81734983207E+03  0.46999998093E+01 0.  1.
</event>
<event>
 5   0  0.3144958E-05  0.1898523E+04  0.7818609E-02  0.8655592E-01
       -1   -1    0    0    0  501  0.00000000000E+00  0.00000000000E+00  0.94347267974E+03  0.94347267975E+03  0.50400001928E-02 0. -1.
        1   -1    0    0  501    0  0.00000000000E+00  0.00000000000E+00 -0.95508632191E+03  0.95508632193E+03  0.50400001928E-02 0.  1.
    10030    2    1    2    0    0  0.00000000000E+00  0.00000000000E+00 -0.11613642174E+02  0.18985590017E+04  0.18985234805E+04 0.  0.
        4    1    3    3  502    0 -0.26163210090E+03  0.11475939074E+03 -0.91107243377E+03  0.95481708534E+03  0.12699999809E+01 0.  1.
       -4    1    3    3    0  502  0.26163210090E+03 -0.11475939074E+03  0.89945879159E+03  0.94374191634E+03  0.12699999809E+01 0. -1.
</event>
<event>
 5   0  0.6452182E-05  0.1868402E+04  0.7818609E-02  0.8670746E-01
        2   -1    0    0  501    0  0.00000000000E+00  0.00000000000E+00  0.99627726362E+03  0.99627726363E+03  0.25500000920E-02 0. -1.
       -2   -1    0    0    0  501  0.00000000000E+00  0.00000000000E+00 -0.87599293641E+03  0.87599293641E+03  0.25500000920E-02 0.  1.
    10030    2    1    2    0    0  0.00000000000E+00  0.00000000000E+00  0.12028432721E+03  0.18722702000E+04  0.18684023610E+04 0.  0.
        3    1    3    3  502    0  0.21991713476E+03 -0.77515519298E+03  0.53388157935E+03  0.96657057183E+03  0.10100000352E+00 0. -1.
       -3    1    3    3    0  502 -0.21991713476E+03  0.77515519298E+03 -0.41359725214E+03  0.90569962821E+03  0.10100000352E+00 0.  1.
</event>
<event>
 5   0  0.3086139E-05  0.1877018E+04  0.7818609E-02  0.8666381E-01
       -1   -1    0    0    0  501  0.00000000000E+00  0.00000000000E+00  0.52567145620E+03  0.52567145622E+03  0.50400001928E-02 0.  1.
        1   -1    0    0  501    0  0.00000000000E+00  0.00000000000E+00 -0.16755698838E+04  0.16755698838E+04  0.50400001928E-02 0. -1.
    10030    2    1    2    0    0  0.00000000000E+00  0.00000000000E+00 -0.11498984276E+04  0.22012413401E+04  0.18770181255E+04 0.  0.
        2    1    3    3  502    0 -0.51993771496E+03 -0.73123982825E+03 -0.89772224474E+03  0.12692328953E+04  0.25500000920E-02 0. -1.
       -2    1    3    3    0  502  0.51993771496E+03  0.73123982825E+03 -0.25217618290E+03  0.93200844475E+03  0.25500000920E-02 0.  1.
</event>
<event>
 5   0  0.6395992E-05  0.1901548E+04  0.7818609E-02  0.8654086E-01
        2   -1    0    0  501    0  0.00000000000E+00  0.00000000000E+00  0.13840156735E+04  0.13840156735E+04  0.25500000920E-02 0. -1.
       -2   -1    0    0    0  501  0.00000000000E+00  0.00000000000E+00 -0.65315127546E+03  0.65315127546E+03  0.25500000920E-02 0.  1.
    10030    2    1    2    0    0  0.00000000000E+00  0.00000000000E+00  0.73086439804E+03  0.20371669490E+04  0.19015484242E+04 0.  0.
        4    1    3    3  502    0  0.96264854011E+02 -0.24066864954E+03  0.13454304730E+04  0.13701726503E+04  0.12699999809E+01 0. -1.
       -4    1    3    3    0  502 -0.96264854011E+02  0.24066864954E+03 -0.61456607500E+03  0.66699429865E+03  0.12699999809E+01 0.  1.
</event>
<event>
 5   0  0.3144958E-05  0.1898947E+04  0.7818609E-02  0.8655381E-01
        1   -1    0    0  501    0  0.00000000000E+00  0.00000000000E+00  0.11481950721E+04  0.11481950722E+04  0.50400001928E-02 0.  1.
       -1   -1    0    0    0  501  0.00000000000E+00  0.00000000000E+00 -0.78514502538E+03  0.78514502540E+03  0.50400001928E-02 0. -1.
    10030    2    1    2    0    0  0.00000000000E+00  0.00000000000E+00  0.36305004676E+03  0.19333400976E+04  0.18989467071E+04 0.  0.
        4    1    3    3  502    0 -0.20450476095E+03  0.62284600255E+03  0.88079717483E+03  0.10979820655E+04  0.12699999809E+01 0.  1.
       -4    1    3    3    0  502  0.20450476095E+03 -0.62284600255E+03 -0.51774712807E+03  0.83535803202E+03  0.12699999809E+01 0. -1.
</event>
<event>
 5   0  0.3203527E-05  0.1923204E+04  0.7818609E-02  0.8643392E-01
        1   -1    0    0  501    0  0.00000000000E+00  0.00000000000E+00  0.19874725012E+04  0.19874725012E+04  0.50400001928E-02 0.  1.
       -1   -1    0    0    0  501  0.00000000000E+00  0.00000000000E+00 -0.46525334055E+03  0.46525334058E+03  0.50400001928E-02 0. -1.
    10030    2    1    2    0    0  0.00000000000E+00  0.00000000000E+00  0.15222191607E+04  0.24527258418E+04  0.19232038066E+04 0.  0.
        1    1    3    3  502    0 -0.69852444449E+03  0.55080840655E+03  0.12268279127E+04  0.15153986365E+04  0.50400001928E-02 0.  1.
       -1    1    3    3    0  502  0.69852444449E+03 -0.55080840655E+03  0.29539124797E+03  0.93732720524E+03  0.50400001928E-02 0. -1.
</event>
<event>
 5   0  0.3147063E-05  0.1900987E+04  0.7818609E-02  0.8654365E-01
        1   -1    0    0  501    0  0.00000000000E+00  0.00000000000E+00  0.81022652346E+03  0.81022652347E+03  0.50400001928E-02 0.  1.
       -1   -1    0    0    0  501  0.00000000000E+00  0.00000000000E+00 -0.11150438957E+04  0.11150438958E+04  0.50400001928E-02 0. -1.
    10030    2    1    2    0    0  0.00000000000E+00  0.00000000000E+00 -0.30481737229E+03  0.19252704192E+04  0.19009872584E+04 0.  0.
        5    1    3    3  502    0  0.11855215008E+03 -0.33350718685E+03  0.74097874437E+03  0.82119013972E+03  0.46999998093E+01 0.  1.
       -5    1    3    3    0  502 -0.11855215008E+03  0.33350718685E+03 -0.10457961167E+04  0.11040802795E+04  0.46999998093E+01 0. -1.
</event>
<event>
 5   0  0.3083469E-05  0.1896491E+04  0.7818609E-02  0.8656605E-01
        1   -1    0    0  501    0  0.00000000000E+00  0.00000000000E+00  0.18382029409E+04  0.18382029409E+04  0.50400001928E-02 0. -1.
       -1   -1    0    0    0  501  0.00000000000E+00  0.00000000000E+00 -0.48915692691E+03  0.48915692693E+03  0.50400001928E-02 0.  1.
    10030    2    1    2    0    0  0.00000000000E+00  0.00000000000E+00  0.13490460140E+04  0.23273598678E+04  0.18964911828E+04 0.  0.
        3    1    3    3  502    0  0.45375464615E+03 -0.81601912570E+03  0.87761947896E+03  0.12814040941E+04  0.10100000352E+00 0.  1.
       -3    1    3    3    0  502 -0.45375464615E+03  0.81601912570E+03  0.47142653501E+03  0.10459557737E+04  0.10100000352E+00 0. -1.
</event>
<event>
 5   0  0.6423388E-05  0.1881658E+04  0.7818609E-02  0.8664041E-01
        2   -1    0    0  501    0  0.00000000000E+00  0.00000000000E+00  0.14402403894E+04  0.14402403894E+04  0.25500000920E-02 0.  1.
       -2   -1    0    0    0  501  0.00000000000E+00  0.00000000000E+00 -0.61459122001E+03  0.61459122001E+03  0.25500000920E-02 0. -1.
    10030    2    1    2    0    0  0.00000000000E+00  0.00000000000E+00  0.82564916942E+03  0.20548316094E+04  0.18816578839E+04 0.  0.
        2    1    3    3  502    0  0.10496276451E+03 -0.12097922089E+03 -0.59959378291E+03  0.62061732036E+03  0.25500000920E-02 0. -1.
       -2    1    3    3    0  502 -0.10496276451E+03  0.12097922089E+03  0.14252429523E+04  0.14342142891E+04  0.25500000920E-02 0.  1.
</event>
<event>
 5   0  0.3144958E-05  0.1890663E+04  0.7818609E-02  0.8659518E-01
        1   -1    0    0  501    0  0.00000000000E+00  0.00000000000E+00  0.10624913876E+04  0.10624913876E+04  0.50400001928E-02 0.  1.
       -1   -1    0    0    0  501  0.00000000000E+00  0.00000000000E+00 -0.84109116006E+03  0.84109116007E+03  0.50400001928E-02 0. -1.
    10030    2    1    2    0    0  0.00000000000E+00  0.00000000000E+00  0.22140022752E+03  0.19035825477E+04  0.18906634960E+04 0.  0.
        4    1    3    3  502    0 -0.61336563527E+03  0.44351161053E+03 -0.45950044637E+03  0.88547288176E+03  0.12699999809E+01 0. -1.
       -4    1    3    3    0  502  0.61336563527E+03 -0.44351161053E+03  0.68090067389E+03  0.10181096659E+04  0.12699999809E+01 0.  1.
</event>
<event>
 5   0  0.6098377E-05  0.1874029E+04  0.7818609E-02  0.8667893E-01
       -2   -1    0    0    0  501  0.00000000000E+00  0.00000000000E+00  0.89873858414E+03  0.89873858415E+03  0.25500000920E-02 0. -1.
        2   -1    0    0  501    0  0.00000000000E+00  0.00000000000E+00 -0.97692094863E+03  0.97692094863E+03  0.25500000920E-02 0.  1.
    10030    2    1    2    0    0  0.00000000000E+00  0.00000000000E+00 -0.78182364482E+02  0.18756595328E+04  0.18740294023E+04 0.  0.
        5    1    3    3  502    0 -0.81645798840E+03  0.28881417250E+03 -0.39711337693E+03  0.95275306202E+03  0.46999998093E+01 0.  1.
       -5    1    3    3    0  502  0.81645798840E+03 -0.28881417250E+03  0.31893101245E+03  0.92290647075E+03  0.46999998093E+01 0. -1.
</event>
<event>
 5   0  0.6395992E-05  0.1901090E+04  0.7818609E-02  0.8654314E-01
        2   -1    0    0  501    0  0.00000000000E+00  0.00000000000E+00  0.12003709550E+04  0.12003709550E+04  0.25500000920E-02 0.  1.
       -2   -1    0    0    0  501  0.00000000000E+00  0.00000000000E+00 -0.75271362100E+03  0.75271362100E+03  0.25500000920E-02 0. -1.
    10030    2    1    2    0    0  0.00000000000E+00  0.00000000000E+00  0.44765733405E+03  0.19530845761E+04  0.19010897592E+04 0.  0.
        4    1    3    3  502    0  0.96747075924E+02  0.13373014938E+03  0.11855348467E+04  0.11969704404E+04  0.12699999809E+01 0.  1.
       -4    1    3    3    0  502 -0.96747075924E+02 -0.13373014938E+03 -0.73787751265E+03  0.75611413565E+03  0.12699999809E+01 0. -1.
</event>
<event>
 5   0  0.3203527E-05  0.1903888E+04  0.7818609E-02  0.8652923E-01
        1   -1    0    0  501    0  0.00000000000E+00  0.00000000000E+00  0.98542551021E+03  0.98542551022E+03  0.50400001928E-02 0.  1.
       -1   -1    0    0    0  501  0.00000000000E+00  0.00000000000E+00 -0.91960013819E+03  0.91960013820E+03  0.50400001928E-02 0. -1.
    10030    2    1    2    0    0  0.00000000000E+00  0.00000000000E+00  0.65825372019E+02  0.19050256484E+04  0.19038880591E+04 0.  0.
        1    1    3    3  502    0 -0.12587197272E+03  0.14055000560E+03  0.96652934700E+03  0.98477258097E+03  0.50400001928E-02 0.  1.
       -1    1    3    3    0  502  0.12587197272E+03 -0.14055000560E+03 -0.90070397498E+03  0.92025306745E+03  0.50400001928E-02 0. -1.
</event>
<event>
 5   0  0.6098377E-05  0.1897824E+04  0.7818609E-02  0.8655940E-01
        2   -1    0    0  501    0  0.00000000000E+00  0.00000000000E+00  0.81454792741E+03  0.81454792741E+03  0.25500000920E-02 0.  1.
       -2   -1    0    0    0  501  0.00000000000E+00  0.00000000000E+00 -0.11054402250E+04  0.11054402250E+04  0.25500000920E-02 0. -1.
    10030    2    1    2    0    0  0.00000000000E+00  0.00000000000E+00 -0.29089229757E+03  0.19199881524E+04  0.18978240636E+04 0.  0.
        5    1    3    3  502    0 -0.13240280612E+02  0.25482494045E+03 -0.10700678328E+04  0.11000810479E+04  0.46999998093E+01 0. -1.
       -5    1    3    3    0  502  0.13240280612E+02 -0.25482494045E+03  0.77917553519E+03  0.81990710446E+03  0.46999998093E+01 0.  1.
</event>
<event>
 5   0  0.6361762E-05  0.1838065E+04  0.7818609E-02  0.8686315E-01
       -2   -1    0    0    0  501  0.00000000000E+00  0.00000000000E+00  0.79531996224E+03  0.79531996224E+03  0.25500000920E-02 0.  1.
        2   -1    0    0  501    0  0.00000000000E+00  0.00000000000E+00 -0.10619889350E+04  0.10619889350E+04  0.25500000920E-02 0. -1.
    10030    2    1    2    0    0  0.00000000000E+00  0.00000000000E+00 -0.26666897275E+03  0.18573088972E+04  0.18380652868E+04 0.  0.
        1    1    3    3  502    0  0.85576279557E+03  0.27250637570E+03 -0.33039239224E+03  0.95694765790E+03  0.50400001928E-02 0.  1.
       -1    1    3    3    0  502 -0.85576279557E+03 -0.27250637570E+03  0.63723419489E+02  0.90036123934E+03  0.50400001928E-02 0. -1.
</event>
<event>
 5   0  0.6452182E-05  0.1901850E+04  0.7818609E-02  0.8653936E-01
       -2   -1    0    0    0  501  0.00000000000E+00  0.00000000000E+00  0.68683023751E+03  0.68683023751E+03  0.25500000920E-02 0.  1.
        2   -1    0    0  501    0  0.00000000000E+00  0.00000000000E+00 -0.13165676329E+04  0.13165676329E+04  0.25500000920E-02 0. -1.
    10030    2    1    2    0    0  0.00000000000E+00  0.00000000000E+00 -0.62973739535E+03  0.20033978704E+04  0.19018501097E+04 0.  0.
        3    1    3    3  502    0 -0.87753291278E+03  0.99344357335E+02  0.56555669715E+02  0.88494738167E+03  0.10100000352E+00 0.  1.
       -3    1    3    3    0  502  0.87753291278E+03 -0.99344357335E+02 -0.68629306506E+03  0.11184504887E+04  0.10100000352E+00 0. -1.
</event>
<event>
 5   0  0.3203527E-05  0.1896636E+04  0.7818609E-02  0.8656533E-01
        1   -1    0    0  501    0  0.00000000000E+00  0.00000000000E+00  0.10354582265E+04  0.10354582265E+04  0.50400001928E-02 0. -1.
       -1   -1    0    0    0  501  0.00000000000E+00  0.00000000000E+00 -0.86851099393E+03  0.86851099394E+03  0.50400001928E-02 0.  1.
    10030    2    1    2    0    0  0.00000000000E+00  0.00000000000E+00  0.16694723254E+03  0.19039692204E+04  0.18966358148E+04 0.  0.
        1    1    3    3  502    0  0.79022369941E+03 -0.44526045768E+03  0.36130441729E+03  0.97634586713E+03  0.50400001928E-02 0. -1.
       -1    1    3    3    0  502 -0.79022369941E+03  0.44526045768E+03 -0.19435718475E+03  0.92762335329E+03  0.50400001928E-02 0.  1.
</event>
<event>
 5   0  0.3086139E-05  0.1907652E+04  0.7818609E-02  0.8651057E-01
        1   -1    0    0  501    0  0.00000000000E+00  0.00000000000E+00  0.15152229774E+04  0.15152229774E+04  0.50400001928E-02 0.  1.
       -1   -1    0    0    0  501  0.00000000000E+00  0.00000000000E+00 -0.60042944077E+03  0.60042944079E+03  0.50400001928E-02 0. -1.
    10030    2    1    2    0    0  0.00000000000E+00  0.00000000000E+00  0.91479353666E+03  0.21156524182E+04  0.19076524684E+04 0.  0.
        2    1    3    3  502    0 -0.27089640983E+03 -0.91405415741E+03  0.49075304316E+03  0.10722492326E+04  0.25500000920E-02 0.  1.
       -2    1    3    3    0  502  0.27089640983E+03  0.91405415741E+03  0.42404049350E+03  0.10434031856E+04  0.25500000920E-02 0. -1.
</event>
<event>
 5   0  0.6361762E-05  0.1897367E+04  0.7818609E-02  0.8656168E-01
       -2   -1    0    0    0  501  0.00000000000E+00  0.00000000000E+00  0.60831717798E+03  0.60831717799E+03  0.25500000920E-02 0. -1.
        2   -1    0    0  501    0  0.00000000000E+00  0.00000000000E+00 -0.14794921613E+04  0.14794921613E+04  0.25500000920E-02 0.  1.
    10030    2    1    2    0    0  0.00000000000E+00  0.00000000000E+00 -0.87117498331E+03  0.20878093393E+04  0.18973671194E+04 0.  0.
        1    1    3    3  502    0 -0.14382182465E+03  0.93698999805E+03 -0.39492547378E+03  0.10269377311E+04  0.50400001928E-02 0.  1.
       -1    1    3    3    0  502  0.14382182465E+03 -0.93698999805E+03 -0.47624950954E+03  0.10608716082E+04  0.50400001928E-02 0. -1.
</event>
<event>
 5   0  0.6452182E-05  0.1905981E+04  0.7818609E-02  0.8651885E-01
       -2   -1    0    0    0  501  0.00000000000E+00  0.00000000000E+00  0.10970835783E+04  0.10970835783E+04  0.25500000920E-02 0. -1.
        2   -1    0    0  501    0  0.00000000000E+00  0.00000000000E+00 -0.82782258559E+03  0.82782258559E+03  0.25500000920E-02 0.  1.
    10030    2    1    2    0    0  0.00000000000E+00  0.00000000000E+00  0.26926099273E+03  0.19249061639E+04  0.19059806551E+04 0.  0.
        3    1    3    3  502    0 -0.76645449862E+03  0.53410302869E+03 -0.55579780182E+02  0.93584596269E+03  0.10100000352E+00 0.  1.
       -3    1    3    3    0  502  0.76645449862E+03 -0.53410302869E+03  0.32484077291E+03  0.98906020123E+03  0.10100000352E+00 0. -1.
</event>
<event>
 5   0  0.3147063E-05  0.1836800E+04  0.7818609E-02  0.8686971E-01
        1   -1    0    0  501    0  0.00000000000E+00  0.00000000000E+00  0.68880136206E+03  0.68880136208E+03  0.50400001928E-02 0. -1.
       -1   -1    0    0    0  501  0.00000000000E+00  0.00000000000E+00 -0.12245307757E+04  0.12245307757E+04  0.50400001928E-02 0.  1.
    10030    2    1    2    0    0  0.00000000000E+00  0.00000000000E+00 -0.53572941360E+03  0.19133321377E+04  0.18367998978E+04 0.  0.
        5    1    3    3  502    0  0.41233144444E+03 -0.77165897373E+03 -0.55871455937E+03  0.10381034826E+04  0.46999998093E+01 0. -1.
       -5    1    3    3    0  502 -0.41233144444E+03  0.77165897373E+03  0.22985145767E+02  0.87522865511E+03  0.46999998093E+01 0.  1.
</event>
<event>
 5   0  0.6452182E-05  0.1897839E+04  0.7818609E-02  0.8655933E-01
        2   -1    0    0  501    0  0.00000000000E+00  0.00000000000E+00  0.86325090886E+03  0.86325090887E+03  0.25500000920E-02 0.  1.
       -2   -1    0    0    0  501  0.00000000000E+00  0.00000000000E+00 -0.10430897290E+04  0.10430897290E+04  0.25500000920E-02 0. -1.
    10030    2    1    2    0    0  0.00000000000E+00  0.00000000000E+00 -0.17983882014E+03  0.19063406379E+04  0.18978389358E+04 0.  0.
        3    1    3    3  502    0 -0.88181171181E+03  0.29740422214E+03  0.96402715870E+02  0.93559321303E+03  0.10100000352E+00 0.  1.
       -3    1    3    3    0  502  0.88181171181E+03 -0.29740422214E+03 -0.27624153601E+03  0.97074742485E+03  0.10100000352E+00 0. -1.
</event>
<event>
 5   0  0.3144958E-05  0.1898626E+04  0.7818609E-02  0.8655541E-01
        1   -1    0    0  501    0  0.00000000000E+00  0.00000000000E+00  0.18533719053E+04  0.18533719053E+04  0.50400001928E-02 0.  1.
       -1   -1    0    0    0  501  0.00000000000E+00  0.00000000000E+00 -0.48624615484E+03  0.48624615486E+03  0.50400001928E-02 0. -1.
    10030    2    1    2    0    0  0.00000000000E+00  0.00000000000E+00  0.13671257504E+04  0.23396180601E+04  0.18986257793E+04 0.  0.
        4    1    3    3  502    0 -0.75243733137E+03  0.53413647490E+03  0.95836066865E+03  0.13303835896E+04  0.12699999809E+01 0. -1.
       -4    1    3    3    0  502  0.75243733137E+03 -0.53413647490E+03  0.40876508178E+03  0.10092344705E+04  0.12699999809E+01 0.  1.
</event>
<event>
 5   0  0.3144958E-05  0.1895786E+04  0.7818609E-02  0.8656957E-01
        1   -1    0    0  501    0  0.00000000000E+00  0.00000000000E+00  0.11104828222E+04  0.11104828222E+04  0.50400001928E-02 0. -1.
       -1   -1    0    0    0  501  0.00000000000E+00  0.00000000000E+00 -0.80910853357E+03  0.80910853358E+03  0.50400001928E-02 0.  1.
    10030    2    1    2    0    0  0.00000000000E+00  0.00000000000E+00  0.30137428861E+03  0.19195913558E+04  0.18957859877E+04 0.  0.
        4    1    3    3  502    0 -0.69050792275E+03 -0.52297446611E+03  0.54048349002E+03  0.10209933886E+04  0.12699999809E+01 0. -1.
       -4    1    3    3    0  502  0.69050792275E+03  0.52297446611E+03 -0.23910920141E+03  0.89859796722E+03  0.12699999809E+01 0.  1.
</event>
<event>
 5   0  0.6452182E-05  0.1905192E+04  0.7818609E-02  0.8652276E-01
       -2   -1    0    0    0  501  0.00000000000E+00  0.00000000000E+00  0.43282661065E+03  0.43282661066E+03  0.25500000920E-02 0.  1.
        2   -1    0    0  501    0  0.00000000000E+00  0.00000000000E+00 -0.20965413427E+04  0.20965413427E+04  0.25500000920E-02 0. -1.
    10030    2    1    2    0    0  0.00000000000E+00  0.00000000000E+00 -0.16637147320E+04  0.25293679534E+04  0.19051917315E+04 0.  0.
        3    1    3    3  502    0  0.79405079642E+03  0.14395949697E+03 -0.15038446895E+04  0.17066897388E+04  0.10100000352E+00 0. -1.
       -3    1    3    3    0  502 -0.79405079642E+03 -0.14395949697E+03 -0.15987004254E+03  0.82267821459E+03  0.10100000352E+00 0.  1.
</event>
<event>
 5   0  0.3147063E-05  0.1899067E+04  0.7818609E-02  0.8655321E-01
       -1   -1    0    0    0  501  0.00000000000E+00  0.00000000000E+00  0.54762251953E+03  0.54762251956E+03  0.50400001928E-02 0. -1.
        1   -1    0    0  501    0  0.00000000000E+00  0.00000000000E+00 -0.16464140391E+04  0.16464140391E+04  0.50400001928E-02 0.  1.
    10030    2    1    2    0    0  0.00000000000E+00  0.00000000000E+00 -0.10987915195E+04  0.21940365586E+04  0.18990665121E+04 0.  0.
        5    1    3    3  502    0  0.70707419241E+03 -0.32822745728E+03  0.76939028085E+02  0.78334467594E+03  0.46999998093E+01 0. -1.
       -5    1    3    3    0  502 -0.70707419241E+03  0.32822745728E+03 -0.11757305476E+04  0.14106918827E+04  0.46999998093E+01 0.  1.
</event>
<event>
 5   0  0.3203527E-05  0.1903322E+04  0.7818609E-02  0.8653205E-01
        1   -1    0    0  501    0  0.00000000000E+00  0.00000000000E+00  0.84832146223E+03  0.84832146224E+03  0.50400001928E-02 0.  1.
       -1   -1    0    0    0  501  0.00000000000E+00  0.00000000000E+00 -0.10675887134E+04  0.10675887134E+04  0.50400001928E-02 0. -1.
    10030    2    1    2    0    0  0.00000000000E+00  0.00000000000E+00 -0.21926725119E+03  0.19159101757E+04  0.19033217473E+04 0.  0.
        1    1    3    3  502    0 -0.66737233528E+03 -0.45855214969E+02  0.57172569883E+03  0.87997659592E+03  0.50400001928E-02 0.  1.
       -1    1    3    3    0  502  0.66737233528E+03  0.45855214969E+02 -0.79099295003E+03  0.10359335798E+04  0.50400001928E-02 0. -1.
</event>
<event>
 5   0  0.3144958E-05  0.1897723E+04  0.7818609E-02  0.8655991E-01
        1   -1    0    0  501    0  0.00000000000E+00  0.00000000000E+00  0.74461949171E+03  0.74461949173E+03  0.50400001928E-02 0. -1.
       -1   -1    0    0    0  501  0.00000000000E+00  0.00000000000E+00 -0.12091249669E+04  0.12091249669E+04  0.50400001928E-02 0.  1.
    10030    2    1    2    0    0  0.00000000000E+00  0.00000000000E+00 -0.46450547520E+03  0.19537444586E+04  0.18977228652E+04 0.  0.
        4    1    3    3  502    0  0.59990761118E+03 -0.73506562561E+03 -0.22070605690E+03  0.97412698985E+03  0.12699999809E+01 0.  1.
       -4    1    3    3    0  502 -0.59990761118E+03  0.73506562561E+03 -0.24379941830E+03  0.97961746880E+03  0.12699999809E+01 0. -1.
</event>
<event>
 5   0  0.6423388E-05  0.1903695E+04  0.7818609E-02  0.8653019E-01
        2   -1    0    0  501    0  0.00000000000E+00  0.00000000000E+00  0.12612428730E+04  0.12612428730E+04  0.25500000920E-02 0.  1.
       -2   -1    0    0    0  501  0.00000000000E+00  0.00000000000E+00 -0.71834985310E+03  0.71834985310E+03  0.25500000920E-02 0. -1.
    10030    2    1    2    0    0  0.00000000000E+00  0.00000000000E+00  0.54289301987E+03  0.19795927261E+04  0.19036949677E+04 0.  0.
        2    1    3    3  502    0 -0.16194166852E+03 -0.42684289996E+03  0.11399663669E+04  0.12279834213E+04  0.25500000920E-02 0.  1.
       -2    1    3    3    0  502  0.16194166852E+03  0.42684289996E+03 -0.59707334706E+03  0.75160930477E+03  0.25500000920E-02 0. -1.
</event>
<event>
 5   0  0.6423388E-05  0.1896934E+04  0.7818609E-02  0.8656384E-01
        2   -1    0    0  501    0  0.00000000000E+00  0.00000000000E+00  0.95003525293E+03  0.95003525293E+03  0.25500000920E-02 0. -1.
       -2   -1    0    0    0  501  0.00000000000E+00  0.00000000000E+00 -0.94690104402E+03  0.94690104403E+03  0.25500000920E-02 0.  1.
    10030    2    1    2    0    0  0.00000000000E+00  0.00000000000E+00  0.31342089044E+01  0.18969362970E+04  0.18969337077E+04 0.  0.
        2    1    3    3  502    0 -0.44714182551E+02  0.50133734447E+03  0.80546550972E+03  0.94979638788E+03  0.25500000920E-02 0. -1.
       -2    1    3    3    0  502  0.44714182551E+02 -0.50133734447E+03 -0.80233130082E+03  0.94713990907E+03  0.25500000920E-02 0.  1.
</event>
<event>
 5   0  0.6423388E-05  0.1881995E+04  0.7818609E-02  0.8663871E-01
       -2   -1    0    0    0  501  0.00000000000E+00  0.00000000000E+00  0.60422659560E+03  0.60422659561E+03  0.25500000920E-02 0. -1.
        2   -1    0    0  501    0  0.00000000000E+00  0.00000000000E+00 -0.14654703446E+04  0.14654703447E+04  0.25500000920E-02 0.  1.
    10030    2    1    2    0    0  0.00000000000E+00  0.00000000000E+00 -0.86124374905E+03  0.20696969403E+04  0.18819948537E+04 0.  0.
        2    1    3    3  502    0  0.29883093699E+03 -0.89066708815E+03 -0.48972554800E+03  0.10594427324E+04  0.25500000920E-02 0.  1.
       -2    1    3    3    0  502 -0.29883093699E+03  0.89066708815E+03 -0.37151820105E+03  0.10102542079E+04  0.25500000920E-02 0. -1.
</event>
<event>
 5   0  0.3086139E-05  0.1897512E+04  0.7818609E-02  0.8656096E-01
        1   -1    0    0  501    0  0.00000000000E+00  0.00000000000E+00  0.95463423725E+03  0.95463423727E+03  0.50400001928E-02 0. -1.
       -1   -1    0    0    0  501  0.00000000000E+00  0.00000000000E+00 -0.94291429695E+03  0.94291429696E+03  0.50400001928E-02 0.  1.
    10030    2    1    2    0    0  0.00000000000E+00  0.00000000000E+00  0.11719940308E+02  0.18975485342E+04  0.18975123406E+04 0.  0.
        2    1    3    3  502    0  0.35596031574E+03  0.86629822320E+03  0.15738154817E+03  0.94971011872E+03  0.25500000920E-02 0. -1.
       -2    1    3    3    0  502 -0.35596031574E+03 -0.86629822320E+03 -0.14566160786E+03  0.94783841550E+03  0.25500000920E-02 0.  1.
</event>
<event>
 5   0  0.3144958E-05  0.1902729E+04  0.7818609E-02  0.8653499E-01
        1   -1    0    0  501    0  0.00000000000E+00  0.00000000000E+00  0.19025523360E+04  0.19025523360E+04  0.50400001928E-02 0.  1.
       -1   -1    0    0    0  501  0.00000000000E+00  0.00000000000E+00 -0.47572639629E+03  0.47572639632E+03  0.50400001928E-02 0. -1.
    10030    2    1    2    0    0  0.00000000000E+00  0.00000000000E+00  0.14268259397E+04  0.23782787323E+04  0.19027289524E+04 0.  0.
        4    1    3    3  502    0  0.86225059610E+03  0.38608332286E+03  0.57335197589E+03  0.11051110912E+04  0.12699999809E+01 0. -1.
       -4    1    3    3    0  502 -0.86225059610E+03 -0.38608332286E+03  0.85347396381E+03  0.12731676411E+04  0.12699999809E+01 0.  1.
</event>
<event>
 5   0  0.3083469E-05  0.1873715E+04  0.7818609E-02  0.8668052E-01
       -1   -1    0    0    0  501  0.00000000000E+00  0.00000000000E+00  0.12229840452E+04  0.12229840452E+04  0.50400001928E-02 0.  1.
        1   -1    0    0  501    0  0.00000000000E+00  0.00000000000E+00 -0.71767279210E+03  0.71767279212E+03  0.50400001928E-02 0. -1.
    10030    2    1    2    0    0  0.00000000000E+00  0.00000000000E+00  0.50531125313E+03  0.19406568374E+04  0.18737154261E+04 0.  0.
        3    1    3    3  502    0  0.47741241154E+03  0.37989345921E+03  0.98901330078E+03  0.11620623780E+04  0.10100000352E+00 0.  1.
       -3    1    3    3    0  502 -0.47741241154E+03 -0.37989345921E+03 -0.48370204765E+03  0.77859445936E+03  0.10100000352E+00 0. -1.
</event>
<event>
 5   0  0.6098377E-05  0.1851864E+04  0.7818609E-02  0.8679195E-01
        2   -1    0    0  501    0  0.00000000000E+00  0.00000000000E+00  0.33473687914E+03  0.33473687915E+03  0.25500000920E-02 0.  1.
       -2   -1    0    0    0  501  0.00000000000E+00  0.00000000000E+00 -0.25612665981E+04  0.25612665981E+04  0.25500000920E-02 0. -1.
    10030    2    1    2    0    0  0.00000000000E+00  0.00000000000E+00 -0.22265297189E+04  0.28960034772E+04  0.18518643446E+04 0.  0.
        5    1    3    3  502    0  0.88515567962E+03  0.16785940383E+03 -0.77913539354E+03  0.11911135160E+04  0.46999998093E+01 0.  1.
       -5    1    3    3    0  502 -0.88515567962E+03 -0.16785940383E+03 -0.14473943254E+04  0.17048899612E+04  0.46999998093E+01 0. -1.
</event>
<event>
 5   0  0.3144958E-05  0.1895816E+04  0.7818609E-02  0.8656942E-01
       -1   -1    0    0    0  501  0.00000000000E+00  0.00000000000E+00  0.66636574589E+03  0.66636574591E+03  0.50400001928E-02 0.  1.
        1   -1    0    0  501    0  0.00000000000E+00  0.00000000000E+00 -0.13484029312E+04  0.13484029312E+04  0.50400001928E-02 0. -1.
    10030    2    1    2    0    0  0.00000000000E+00  0.00000000000E+00 -0.68203718532E+03  0.20147686771E+04  0.18958159457E+04 0.  0.
        4    1    3    3  502    0  0.43513877698E+03 -0.59211393030E+03  0.29537239169E+03  0.79195399132E+03  0.12699999809E+01 0.  1.
       -4    1    3    3    0  502 -0.43513877698E+03  0.59211393030E+03 -0.97740957701E+03  0.12228146858E+04  0.12699999809E+01 0. -1.
</event>
<event>
 5   0  0.6098377E-05  0.1888583E+04  0.7818609E-02  0.8660560E-01
        2   -1    0    0  501    0  0.00000000000E+00  0.00000000000E+00  0.22692273556E+04  0.22692273556E+04  0.25500000920E-02 0. -1.
       -2   -1    0    0    0  501  0.00000000000E+00  0.00000000000E+00 -0.39294717377E+03  0.39294717378E+03  0.25500000920E-02 0.  1.
    10030    2    1    2    0    0  0.00000000000E+00  0.00000000000E+00  0.18762801818E+04  0.26621745294E+04  0.18885830414E+04 0.  0.
        5    1    3    3  502    0 -0.43075138208E+02  0.92180708277E+03  0.12203470099E+04  0.15299845359E+04  0.46999998093E+01 0.  1.
       -5    1    3    3    0  502  0.43075138208E+02 -0.92180708277E+03  0.65593317190E+03  0.11321899935E+04  0.46999998093E+01 0. -1.
</event>
<event>
 5   0  0.3144958E-05  0.1908996E+04  0.7818609E-02  0.8650391E-01
        1   -1    0    0  501    0  0.00000000000E+00  0.00000000000E+00  0.83940822141E+03  0.83940822142E+03  0.50400001928E-02 0. -1.
       -1   -1    0    0    0  501  0.00000000000E+00  0.00000000000E+00 -0.10853677369E+04  0.10853677369E+04  0.50400001928E-02 0.  1.
    10030    2    1    2    0    0  0.00000000000E+00  0.00000000000E+00 -0.24595951548E+03  0.19247759583E+04  0.19089961777E+04 0.  0.
        4    1    3    3  502    0  0.11268630991E+03 -0.42978265473E+03  0.72878344383E+03  0.85354452470E+03  0.12699999809E+01 0. -1.
       -4    1    3    3    0  502 -0.11268630991E+03  0.42978265473E+03 -0.97474295931E+03  0.10712314336E+04  0.12699999809E+01 0.  1.
</event>
<event>
 5   0  0.2279625E-05  0.1890315E+04  0.7818609E-02  0.8659692E-01
        3   -1    0    0  501    0  0.00000000000E+00  0.00000000000E+00  0.92942681268E+03  0.92942681816E+03  0.10100000352E+00 0.  1.
       -3   -1    0    0    0  501  0.00000000000E+00  0.00000000000E+00 -0.96115485613E+03  0.96115486144E+03  0.10100000352E+00 0. -1.
    10030    2    1    2    0    0  0.00000000000E+00  0.00000000000E+00 -0.31728043457E+02  0.18905816796E+04  0.18903154283E+04 0.  0.
        2    1    3    3  502    0  0.65544209945E+01 -0.44311092660E+02  0.92836464400E+03  0.92944464365E+03  0.25500000920E-02 0.  1.
       -2    1    3    3    0  502 -0.65544209945E+01  0.44311092660E+02 -0.96009268746E+03  0.96113703596E+03  0.25500000920E-02 0. -1.
</event>
<event>
 5   0  0.3083469E-05  0.1916755E+04  0.7818609E-02  0.8646561E-01
        1   -1    0    0  501    0  0.00000000000E+00  0.00000000000E+00  0.75312507191E+03  0.75312507193E+03  0.50400001928E-02 0.  1.
       -1   -1    0    0    0  501  0.00000000000E+00  0.00000000000E+00 -0.12195679886E+04  0.12195679886E+04  0.50400001928E-02 0. -1.
    10030    2    1    2    0    0  0.00000000000E+00  0.00000000000E+00 -0.46644291665E+03  0.19726930605E+04  0.19167547878E+04 0.  0.
        3    1    3    3  502    0 -0.36656960028E+03 -0.49495555309E+03  0.52246370693E+03  0.80766490988E+03  0.10100000352E+00 0.  1.
       -3    1    3    3    0  502  0.36656960028E+03  0.49495555309E+03 -0.98890662358E+03  0.11650281506E+04  0.10100000352E+00 0. -1.
</event>
<event>
 5   0  0.3083469E-05  0.1913910E+04  0.7818609E-02  0.8647963E-01
       -1   -1    0    0    0  501  0.00000000000E+00  0.00000000000E+00  0.71772337969E+03  0.71772337971E+03  0.50400001928E-02 0.  1.
        1   -1    0    0  501    0  0.00000000000E+00  0.00000000000E+00 -0.12759268062E+04  0.12759268062E+04  0.50400001928E-02 0. -1.
    10030    2    1    2    0    0  0.00000000000E+00  0.00000000000E+00 -0.55820342652E+03  0.19936501859E+04  0.19139096108E+04 0.  0.
        3    1    3    3  502    0  0.22142236896E+03  0.88026025406E+03 -0.59484183858E+03  0.10852293783E+04  0.10100000352E+00 0. -1.
       -3    1    3    3    0  502 -0.22142236896E+03 -0.88026025406E+03  0.36638412059E+02  0.90842080766E+03  0.10100000352E+00 0.  1.
</event>
<event>
 5   0  0.6395992E-05  0.1899401E+04  0.7818609E-02  0.8655155E-01
        2   -1    0    0  501    0  0.00000000000E+00  0.00000000000E+00  0.17399943428E+04  0.17399943428E+04  0.25500000920E-02 0. -1.
       -2   -1    0    0    0  501  0.00000000000E+00  0.00000000000E+00 -0.51835261251E+03  0.51835261251E+03  0.25500000920E-02 0.  1.
    10030    2    1    2    0    0  0.00000000000E+00  0.00000000000E+00  0.12216417303E+04  0.22583469553E+04  0.18994005511E+04 0.  0.
        4    1    3    3  502    0 -0.75833470955E+03  0.19752977653E+03 -0.27074236806E+02  0.78410724492E+03  0.12699999809E+01 0.  1.
       -4    1    3    3    0  502  0.75833470955E+03 -0.19752977653E+03  0.12487159671E+04  0.14742397104E+04  0.12699999809E+01 0. -1.
</event>
<event>
 5   0  0.6423388E-05  0.1904555E+04  0.7818609E-02  0.8652593E-01
       -2   -1    0    0    0  501  0.00000000000E+00  0.00000000000E+00  0.92460940760E+03  0.92460940761E+03  0.25500000920E-02 0. -1.
        2   -1    0    0  501    0  0.00000000000E+00  0.00000000000E+00 -0.98077327668E+03  0.98077327668E+03  0.25500000920E-02 0.  1.
    10030    2    1    2    0    0  0.00000000000E+00  0.00000000000E+00 -0.56163869075E+02  0.19053826843E+04  0.19045547494E+04 0.  0.
        2    1    3    3  502    0  0.36599032721E+03 -0.86436127480E+03 -0.18865985688E+03  0.95742460517E+03  0.25500000920E-02 0.  1.
       -2    1    3    3    0  502 -0.36599032721E+03  0.86436127480E+03  0.13249598781E+03  0.94795807912E+03  0.25500000920E-02 0. -1.
</event>
<event>
 5   0  0.3083469E-05  0.1889578E+04  0.7818609E-02  0.8660061E-01
        1   -1    0    0  501    0  0.00000000000E+00  0.00000000000E+00  0.76720308280E+03  0.76720308282E+03  0.50400001928E-02 0.  1.
       -1   -1    0    0    0  501  0.00000000000E+00  0.00000000000E+00 -0.11634814248E+04  0.11634814248E+04  0.50400001928E-02 0. -1.
    10030    2    1    2    0    0  0.00000000000E+00  0.00000000000E+00 -0.39627834201E+03  0.19306845076E+04  0.18895782978E+04 0.  0.
        3    1    3    3  502    0 -0.30394680306E+03 -0.89220922949E+03 -0.26440020427E+03  0.97894251440E+03  0.10100000352E+00 0.  1.
       -3    1    3    3    0  502  0.30394680306E+03  0.89220922949E+03 -0.13187813774E+03  0.95174199324E+03  0.10100000352E+00 0. -1.
</event>
<event>
 5   0  0.6452182E-05  0.1899688E+04  0.7818609E-02  0.8655012E-01
        2   -1    0    0  501    0  0.00000000000E+00  0.00000000000E+00  0.22086191239E+04  0.22086191239E+04  0.25500000920E-02 0. -1.
       -2   -1    0    0    0  501  0.00000000000E+00  0.00000000000E+00 -0.40849211457E+03  0.40849211458E+03  0.25500000920E-02 0.  1.
    10030    2    1    2    0    0  0.00000000000E+00  0.00000000000E+00  0.18001270093E+04  0.26171112385E+04  0.18996878651E+04 0.  0.
        3    1    3    3  502    0  0.10258200312E+03 -0.55956299114E+03  0.19479585050E+04  0.20293289916E+04  0.10100000352E+00 0. -1.
       -3    1    3    3    0  502 -0.10258200312E+03  0.55956299114E+03 -0.14783149574E+03  0.58778224689E+03  0.10100000352E+00 0.  1.
</event>
<event>
 5   0  0.3203527E-05  0.1903539E+04  0.7818609E-02  0.8653097E-01
       -1   -1    0    0    0  501  0.00000000000E+00  0.00000000000E+00  0.75329057337E+03  0.75329057338E+03  0.50400001928E-02 0.  1.
        1   -1    0    0  501    0  0.00000000000E+00  0.00000000000E+00 -0.12025444898E+04  0.12025444898E+04  0.50400001928E-02 0. -1.
    10030    2    1    2    0    0  0.00000000000E+00  0.00000000000E+00 -0.44925391644E+03  0.19558350632E+04  0.19035392596E+04 0.  0.
        1    1    3    3  502    0  0.24383237137E+03  0.89527555636E+03 -0.69266077428E+01  0.92791191665E+03  0.50400001928E-02 0. -1.
       -1    1    3    3    0  502 -0.24383237137E+03 -0.89527555636E+03 -0.44232730869E+03  0.10279231465E+04  0.50400001928E-02 0.  1.
</event>
<event>
 5   0  0.3144958E-05  0.1907862E+04  0.7818609E-02  0.8650953E-01
       -1   -1    0    0    0  501  0.00000000000E+00  0.00000000000E+00  0.55779364811E+03  0.55779364813E+03  0.50400001928E-02 0.  1.
        1   -1    0    0  501    0  0.00000000000E+00  0.00000000000E+00 -0.16313988313E+04  0.16313988313E+04  0.50400001928E-02 0. -1.
    10030    2    1    2    0    0  0.00000000000E+00  0.00000000000E+00 -0.10736051832E+04  0.21891924795E+04  0.19078615313E+04 0.  0.
        4    1    3    3  502    0  0.52287654974E+01  0.92106965775E+03 -0.25204401072E+03  0.95494735491E+03  0.12699999809E+01 0.  1.
       -4    1    3    3    0  502 -0.52287654974E+01 -0.92106965775E+03 -0.82156117250E+03  0.12342451246E+04  0.12699999809E+01 0. -1.
</event>
<event>
 5   0  0.3147063E-05  0.1902714E+04  0.7818609E-02  0.8653507E-01
       -1   -1    0    0    0  501  0.00000000000E+00  0.00000000000E+00  0.67938305040E+03  0.67938305041E+03  0.50400001928E-02 0.  1.
        1   -1    0    0  501    0  0.00000000000E+00  0.00000000000E+00 -0.13322085323E+04  0.13322085323E+04  0.50400001928E-02 0. -1.
    10030    2    1    2    0    0  0.00000000000E+00  0.00000000000E+00 -0.65282548194E+03  0.20115915828E+04  0.19027137425E+04 0.  0.
        5    1    3    3  502    0 -0.88755564609E+03  0.20508169419E+03 -0.36409333311E+02  0.91168045704E+03  0.46999998093E+01 0. -1.
       -5    1    3    3    0  502  0.88755564609E+03 -0.20508169419E+03 -0.61641614863E+03  0.10999111257E+04  0.46999998093E+01 0.  1.
</event>
<event>
 5   0  0.6452182E-05  0.1898540E+04  0.7818609E-02  0.8655583E-01
        2   -1    0    0  501    0  0.00000000000E+00  0.00000000000E+00  0.54015096363E+03  0.54015096363E+03  0.25500000920E-02 0. -1.
       -2   -1    0    0    0  501  0.00000000000E+00  0.00000000000E+00 -0.16682630591E+04  0.16682630591E+04  0.25500000920E-02 0.  1.
    10030    2    1    2    0    0  0.00000000000E+00  0.00000000000E+00 -0.11281120955E+04  0.22084140228E+04  0.18985403857E+04 0.  0.
        3    1    3    3  502    0  0.34614985122E+03  0.12356209803E+03  0.45402552102E+03  0.58414595395E+03  0.10100000352E+00 0. -1.
       -3    1    3    3    0  502 -0.34614985122E+03 -0.12356209803E+03 -0.15821376165E+04  0.16242680688E+04  0.10100000352E+00 0.  1.
</event>
<event>
 5   0  0.3203527E-05  0.1902923E+04  0.7818609E-02  0.8653403E-01
       -1   -1    0    0    0  501  0.00000000000E+00  0.00000000000E+00  0.83197924380E+03  0.83197924382E+03  0.50400001928E-02 0. -1.
        1   -1    0    0  501    0  0.00000000000E+00  0.00000000000E+00 -0.10881033631E+04  0.10881033631E+04  0.50400001928E-02 0.  1.
    10030    2    1    2    0    0  0.00000000000E+00  0.00000000000E+00 -0.25612411925E+03  0.19200826069E+04  0.19029234490E+04 0.  0.
        1    1    3    3  502    0 -0.39819352330E+03  0.29642344648E+03 -0.94707986740E+03  0.10692919231E+04  0.50400001928E-02 0.  1.
       -1    1    3    3    0  502  0.39819352330E+03 -0.29642344648E+03  0.69095574815E+03  0.85079068375E+03  0.50400001928E-02 0. -1.
</event>
<event>
 5   0  0.6361762E-05  0.1912611E+04  0.7818609E-02  0.8648604E-01
        2   -1    0    0  501    0  0.00000000000E+00  0.00000000000E+00  0.23296446190E+04  0.23296446190E+04  0.25500000920E-02 0. -1.
       -2   -1    0    0    0  501  0.00000000000E+00  0.00000000000E+00 -0.39255801330E+03  0.39255801331E+03  0.25500000920E-02 0.  1.
    10030    2    1    2    0    0  0.00000000000E+00  0.00000000000E+00  0.19370866057E+04  0.27222026324E+04  0.19126114748E+04 0.  0.
        1    1    3    3  502    0  0.82651131556E+03 -0.33800995494E+03  0.48139303418E+03  0.10144510524E+04  0.50400001928E-02 0.  1.
       -1    1    3    3    0  502 -0.82651131556E+03  0.33800995494E+03  0.14556935716E+04  0.17077515799E+04  0.50400001928E-02 0. -1.
</event>
<event>
 5   0  0.3144958E-05  0.1903894E+04  0.7818609E-02  0.8652921E-01
       -1   -1    0    0    0  501  0.00000000000E+00  0.00000000000E+00  0.11453395683E+04  0.11453395683E+04  0.50400001928E-02 0. -1.
        1   -1    0    0  501    0  0.00000000000E+00  0.00000000000E+00 -0.79120903154E+03  0.79120903156E+03  0.50400001928E-02 0.  1.
    10030    2    1    2    0    0  0.00000000000E+00  0.00000000000E+00  0.35413053676E+03  0.19365485999E+04  0.19038939158E+04 0.  0.
        4    1    3    3  502    0 -0.71021323594E+03 -0.53892701541E+03 -0.16235901744E+03  0.90620485095E+03  0.12699999809E+01 0.  1.
       -4    1    3    3    0  502  0.71021323594E+03  0.53892701541E+03  0.51648955420E+03  0.10303437489E+04  0.12699999809E+01 0. -1.
</event>
<event>
 5   0  0.3147063E-05  0.1890091E+04  0.7818609E-02  0.8659805E-01
       -1   -1    0    0    0  501  0.00000000000E+00  0.00000000000E+00  0.84503381218E+03  0.84503381220E+03  0.50400001928E-02 0. -1.
        1   -1    0    0  501    0  0.00000000000E+00  0.00000000000E+00 -0.10568936687E+04  0.10568936687E+04  0.50400001928E-02 0.  1.
    10030    2    1    2    0    0  0.00000000000E+00  0.00000000000E+00 -0.21185985648E+03  0.19019274809E+04  0.18900908824E+04 0.  0.
        5    1    3    3  502    0 -0.82771181690E+03  0.37521874319E+03 -0.36676906938E+03  0.98001918212E+03  0.46999998093E+01 0.  1.
       -5    1    3    3    0  502  0.82771181690E+03 -0.37521874319E+03  0.15490921290E+03  0.92190829875E+03  0.46999998093E+01 0. -1.
</event>
<event>
 5   0  0.3086139E-05  0.1903394E+04  0.7818609E-02  0.8653169E-01
        1   -1    0    0  501    0  0.00000000000E+00  0.00000000000E+00  0.66427831512E+03  0.66427831514E+03  0.50400001928E-02 0.  1.
       -1   -1    0    0    0  501  0.00000000000E+00  0.00000000000E+00 -0.13634749307E+04  0.13634749307E+04  0.50400001928E-02 0. -1.
    10030    2    1    2    0    0  0.00000000000E+00  0.00000000000E+00 -0.69919661554E+03  0.20277532458E+04  0.19033936321E+04 0.  0.
        2    1    3    3  502    0 -0.90832502550E+01  0.68038936654E+03  0.35924204368E+03  0.76945892774E+03  0.25500000920E-02 0.  1.
       -2    1    3    3    0  502  0.90832502550E+01 -0.68038936654E+03 -0.10584386592E+04  0.12582943181E+04  0.25500000920E-02 0. -1.
</event>
<event>
 5   0  0.3144958E-05  0.1900214E+04  0.7818609E-02  0.8654750E-01
        1   -1    0    0  501    0  0.00000000000E+00  0.00000000000E+00  0.10403994209E+04  0.10403994209E+04  0.50400001928E-02 0.  1.
       -1   -1    0    0    0  501  0.00000000000E+00  0.00000000000E+00 -0.86765096253E+03  0.86765096255E+03  0.50400001928E-02 0. -1.
    10030    2    1    2    0    0  0.00000000000E+00  0.00000000000E+00  0.17274845836E+03  0.19080503835E+04  0.19002142605E+04 0.  0.
        4    1    3    3  502    0  0.61463793553E+03 -0.71974990489E+03  0.16967553618E+03  0.96156701163E+03  0.12699999809E+01 0. -1.
       -4    1    3    3    0  502 -0.61463793553E+03  0.71974990489E+03  0.30729221767E+01  0.94648337182E+03  0.12699999809E+01 0.  1.
</event>
<event>
 5   0  0.3147063E-05  0.1894989E+04  0.7818609E-02  0.8657355E-01
        1   -1    0    0  501    0  0.00000000000E+00  0.00000000000E+00  0.75135818081E+03  0.75135818083E+03  0.50400001928E-02 0. -1.
       -1   -1    0    0    0  501  0.00000000000E+00  0.00000000000E+00 -0.11948301436E+04  0.11948301436E+04  0.50400001928E-02 0.  1.
    10030    2    1    2    0    0  0.00000000000E+00  0.00000000000E+00 -0.44347196282E+03  0.19461883245E+04  0.18949885521E+04 0.  0.
        5    1    3    3  502    0 -0.30906028505E+03 -0.79734690088E+03  0.19726110634E+03  0.87761858129E+03  0.46999998093E+01 0. -1.
       -5    1    3    3    0  502  0.30906028505E+03  0.79734690088E+03 -0.64073306917E+03  0.10685697432E+04  0.46999998093E+01 0.  1.
</event>
<event>
 5   0  0.6423388E-05  0.1889726E+04  0.7818609E-02  0.8659987E-01
        2   -1    0    0  501    0  0.00000000000E+00  0.00000000000E+00  0.15006503240E+04  0.15006503240E+04  0.25500000920E-02 0. -1.
       -2   -1    0    0    0  501  0.00000000000E+00  0.00000000000E+00 -0.59491957591E+03  0.59491957592E+03  0.25500000920E-02 0.  1.
    10030    2    1    2    0    0  0.00000000000E+00  0.00000000000E+00  0.90573074809E+03  0.20955698999E+04  0.18897261752E+04 0.  0.
        2    1    3    3  502    0 -0.25388856554E+03  0.85482118896E+03  0.10644728664E+03  0.89805884754E+03  0.25500000920E-02 0.  1.
       -2    1    3    3    0  502  0.25388856554E+03 -0.85482118896E+03  0.79928346145E+03  0.11975110524E+04  0.25500000920E-02 0. -1.
</event>
<event>
 5   0  0.3203527E-05  0.1901212E+04  0.7818609E-02  0.8654253E-01
        1   -1    0    0  501    0  0.00000000000E+00  0.00000000000E+00  0.11525578419E+04  0.11525578419E+04  0.50400001928E-02 0. -1.
       -1   -1    0    0    0  501  0.00000000000E+00  0.00000000000E+00 -0.78404050909E+03  0.78404050910E+03  0.50400001928E-02 0.  1.
    10030    2    1    2    0    0  0.00000000000E+00  0.00000000000E+00  0.36851733278E+03  0.19365983510E+04  0.19012122839E+04 0.  0.
        1    1    3    3  502    0 -0.41533168173E+03  0.22145695770E+03  0.10255291659E+04  0.11283854218E+04  0.50400001928E-02 0. -1.
       -1    1    3    3    0  502  0.41533168173E+03 -0.22145695770E+03 -0.65701183315E+03  0.80821292917E+03  0.50400001928E-02 0.  1.
</event>
<event>
 5   0  0.3203527E-05  0.1900281E+04  0.7818609E-02  0.8654717E-01
       -1   -1    0    0    0  501  0.00000000000E+00  0.00000000000E+00  0.81975341798E+03  0.81975341800E+03  0.50400001928E-02 0.  1.
        1   -1    0    0  501    0  0.00000000000E+00  0.00000000000E+00 -0.11012663163E+04  0.11012663164E+04  0.50400001928E-02 0. -1.
    10030    2    1    2    0    0  0.00000000000E+00  0.00000000000E+00 -0.28151289836E+03  0.19210197343E+04  0.19002808497E+04 0.  0.
        1    1    3    3  502    0 -0.77298372987E+03  0.37963473628E+03 -0.54656044306E+03  0.10199777927E+04  0.50400001928E-02 0. -1.
       -1    1    3    3    0  502  0.77298372987E+03 -0.37963473628E+03  0.26504754471E+03  0.90104194166E+03  0.50400001928E-02 0.  1.
</event>
<event>
 5   0  0.3203527E-05  0.1902537E+04  0.7818609E-02  0.8653594E-01
        1   -1    0    0  501    0  0.00000000000E+00  0.00000000000E+00  0.95112485532E+03  0.95112485533E+03  0.50400001928E-02 0.  1.
       -1   -1    0    0    0  501  0.00000000000E+00  0.00000000000E+00 -0.95141263971E+03  0.95141263972E+03  0.50400001928E-02 0. -1.
    10030    2    1    2    0    0  0.00000000000E+00  0.00000000000E+00 -0.28778438953E+00  0.19025374951E+04  0.19025374733E+04 0.  0.
        1    1    3    3  502    0  0.87862675729E+03 -0.24247164060E+03 -0.27242083921E+03  0.95130993308E+03  0.50400001928E-02 0. -1.
       -1    1    3    3    0  502 -0.87862675729E+03  0.24247164060E+03  0.27213305482E+03  0.95122756198E+03  0.50400001928E-02 0.  1.
</event>
<event>
 5   0  0.6395992E-05  0.1897504E+04  0.7818609E-02  0.8656100E-01
        2   -1    0    0  501    0  0.00000000000E+00  0.00000000000E+00  0.18729423762E+04  0.18729423762E+04  0.25500000920E-02 0. -1.
       -2   -1    0    0    0  501  0.00000000000E+00  0.00000000000E+00 -0.48059706062E+03  0.48059706063E+03  0.25500000920E-02 0.  1.
    10030    2    1    2    0    0  0.00000000000E+00  0.00000000000E+00  0.13923453156E+04  0.23535394368E+04  0.18975042564E+04 0.  0.
        4    1    3    3  502    0 -0.10103398045E+03  0.26704650533E+03  0.18183888331E+04  0.18406686998E+04  0.12699999809E+01 0. -1.
       -4    1    3    3    0  502  0.10103398045E+03 -0.26704650533E+03 -0.42604351750E+03  0.51287073704E+03  0.12699999809E+01 0.  1.
</event>
<event>
 5   0  0.3083469E-05  0.1914756E+04  0.7818609E-02  0.8647546E-01
        1   -1    0    0  501    0  0.00000000000E+00  0.00000000000E+00  0.12139425411E+04  0.12139425411E+04  0.50400001928E-02 0. -1.
       -1   -1    0    0    0  501  0.00000000000E+00  0.00000000000E+00 -0.75503828547E+03  0.75503828549E+03  0.50400001928E-02 0.  1.
    10030    2    1    2    0    0  0.00000000000E+00  0.00000000000E+00  0.45890425558E+03  0.19689808266E+04  0.19147564805E+04 0.  0.
        3    1    3    3  502    0 -0.41136682989E+03  0.13776060443E+02 -0.65941108115E+03  0.77732582147E+03  0.10100000352E+00 0.  1.
       -3    1    3    3    0  502  0.41136682989E+03 -0.13776060443E+02  0.11183153367E+04  0.11916550051E+04  0.10100000352E+00 0. -1.
</event>
<event>
 5   0  0.6395992E-05  0.1896780E+04  0.7818609E-02  0.8656461E-01
        2   -1    0    0  501    0  0.00000000000E+00  0.00000000000E+00  0.20074684550E+04  0.20074684550E+04  0.25500000920E-02 0.  1.
       -2   -1    0    0    0  501  0.00000000000E+00  0.00000000000E+00 -0.44804877342E+03  0.44804877342E+03  0.25500000920E-02 0. -1.
    10030    2    1    2    0    0  0.00000000000E+00  0.00000000000E+00  0.15594196816E+04  0.24555172284E+04  0.18967801970E+04 0.  0.
        4    1    3    3  502    0 -0.76328065145E+03  0.35668859502E+03  0.21598674602E+03  0.86975628429E+03  0.12699999809E+01 0. -1.
       -4    1    3    3    0  502  0.76328065145E+03 -0.35668859502E+03  0.13434329356E+04  0.15857609441E+04  0.12699999809E+01 0.  1.
</event>
<event>
 5   0  0.6452182E-05  0.1914295E+04  0.7818609E-02  0.8647773E-01
       -2   -1    0    0    0  501  0.00000000000E+00  0.00000000000E+00  0.54655304582E+03  0.54655304582E+03  0.25500000920E-02 0.  1.
        2   -1    0    0  501    0  0.00000000000E+00  0.00000000000E+00 -0.16761985435E+04  0.16761985435E+04  0.25500000920E-02 0. -1.
    10030    2    1    2    0    0  0.00000000000E+00  0.00000000000E+00 -0.11296454977E+04  0.22227515893E+04  0.19142950863E+04 0.  0.
        3    1    3    3  502    0 -0.51290514493E+03 -0.32557076831E+03  0.29399472769E+03  0.67490808484E+03  0.10100000352E+00 0.  1.
       -3    1    3    3    0  502  0.51290514493E+03  0.32557076831E+03 -0.14236402254E+04  0.15478435045E+04  0.10100000352E+00 0. -1.
</event>
<event>
 5   0  0.6361762E-05  0.1904119E+04  0.7818609E-02  0.8652809E-01
       -2   -1    0    0    0  501  0.00000000000E+00  0.00000000000E+00  0.64668104496E+03  0.64668104496E+03  0.25500000920E-02 0. -1.
        2   -1    0    0  501    0  0.00000000000E+00  0.00000000000E+00 -0.14016457643E+04  0.14016457643E+04  0.25500000920E-02 0.  1.
    10030    2    1    2    0    0  0.00000000000E+00  0.00000000000E+00 -0.75496471933E+03  0.20483268093E+04  0.19041194789E+04 0.  0.
        1    1    3    3  502    0  0.71998525678E+03  0.61214632357E+03 -0.50161603079E+03  0.10699161340E+04  0.50400001928E-02 0.  1.
       -1    1    3    3    0  502 -0.71998525678E+03 -0.61214632357E+03 -0.25334868855E+03  0.97841067525E+03  0.50400001928E-02 0. -1.
</event>
<event>
 5   0  0.6395992E-05  0.1904240E+04  0.7818609E-02  0.8652749E-01
       -2   -1    0    0    0  501  0.00000000000E+00  0.00000000000E+00  0.12123076772E+04  0.12123076772E+04  0.25500000920E-02 0. -1.
        2   -1    0    0  501    0  0.00000000000E+00  0.00000000000E+00 -0.74777431847E+03  0.74777431847E+03  0.25500000920E-02 0.  1.
    10030    2    1    2    0    0  0.00000000000E+00  0.00000000000E+00  0.46453335873E+03  0.19600819957E+04  0.19042400553E+04 0.  0.
        4    1    3    3  502    0 -0.65619088945E+03 -0.26888375053E+03  0.88622919953E+03  0.11350280885E+04  0.12699999809E+01 0. -1.
       -4    1    3    3    0  502  0.65619088945E+03  0.26888375053E+03 -0.42169584080E+03  0.82505390717E+03  0.12699999809E+01 0.  1.
</event>
<event>
 5   0  0.3083469E-05  0.1907654E+04  0.7818609E-02  0.8651056E-01
        1   -1    0    0  501    0  0.00000000000E+00  0.00000000000E+00  0.15549958584E+04  0.15549958584E+04  0.50400001928E-02 0. -1.
       -1   -1    0    0    0  501  0.00000000000E+00  0.00000000000E+00 -0.58507265737E+03  0.58507265739E+03  0.50400001928E-02 0.  1.
    10030    2    1    2    0    0  0.00000000000E+00  0.00000000000E+00  0.96992320107E+03  0.21400685158E+04  0.19076535945E+04 0.  0.
        3    1    3    3  502    0 -0.26805212051E+03 -0.12364743753E+03 -0.53253829413E+03  0.60888231460E+03  0.10100000352E+00 0.  1.
       -3    1    3    3    0  502  0.26805212051E+03  0.12364743753E+03  0.15024614952E+04  0.15311862012E+04  0.10100000352E+00 0. -1.
</event>
<event>
 5   0  0.6452182E-05  0.1902147E+04  0.7818609E-02  0.8653788E-01
       -2   -1    0    0    0  501  0.00000000000E+00  0.00000000000E+00  0.11939479521E+04  0.11939479521E+04  0.25500000920E-02 0. -1.
        2   -1    0    0  501    0  0.00000000000E+00  0.00000000000E+00 -0.75760490808E+03  0.75760490808E+03  0.25500000920E-02 0.  1.
    10030    2    1    2    0    0  0.00000000000E+00  0.00000000000E+00  0.43634304405E+03  0.19515528602E+04  0.19021470275E+04 0.  0.
        3    1    3    3  502    0 -0.25127773071E+03 -0.59605248551E+03  0.93350535256E+03  0.11357162132E+04  0.10100000352E+00 0. -1.
       -3    1    3    3    0  502  0.25127773071E+03  0.59605248551E+03 -0.49716230851E+03  0.81583664703E+03  0.10100000352E+00 0.  1.
</event>
<event>
 5   0  0.3083469E-05  0.1929124E+04  0.7818609E-02  0.8640494E-01
       -1   -1    0    0    0  501  0.00000000000E+00  0.00000000000E+00  0.76095571336E+03  0.76095571337E+03  0.50400001928E-02 0. -1.
        1   -1    0    0  501    0  0.00000000000E+00  0.00000000000E+00 -0.12226470330E+04  0.12226470331E+04  0.50400001928E-02 0.  1.
    10030    2    1    2    0    0  0.00000000000E+00  0.00000000000E+00 -0.46169131969E+03  0.19836027464E+04  0.19291244079E+04 0.  0.
        3    1    3    3  502    0  0.42731411703E+03  0.66539139256E+03  0.33705300841E+03  0.85962073066E+03  0.10100000352E+00 0. -1.
       -3    1    3    3    0  502 -0.42731411703E+03 -0.66539139256E+03 -0.79874432810E+03  0.11239820158E+04  0.10100000352E+00 0.  1.
</event>
<event>
 5   0  0.6395992E-05  0.1891542E+04  0.7818609E-02  0.8659078E-01
       -2   -1    0    0    0  501  0.00000000000E+00  0.00000000000E+00  0.93389122392E+03  0.93389122392E+03  0.25500000920E-02 0. -1.
        2   -1    0    0  501    0  0.00000000000E+00  0.00000000000E+00 -0.95780145353E+03  0.95780145353E+03  0.25500000920E-02 0.  1.
    10030    2    1    2    0    0  0.00000000000E+00  0.00000000000E+00 -0.23910229609E+02  0.18916926775E+04  0.18915415636E+04 0.  0.
        4    1    3    3  502    0 -0.40372367973E+03  0.45198038417E+02 -0.86609892053E+03  0.95664237064E+03  0.12699999809E+01 0.  1.
       -4    1    3    3    0  502  0.40372367973E+03 -0.45198038417E+02  0.84218869093E+03  0.93505030682E+03  0.12699999809E+01 0. -1.
</event>
<event>
 5   0  0.6423388E-05  0.1903201E+04  0.7818609E-02  0.8653265E-01
        2   -1    0    0  501    0  0.00000000000E+00  0.00000000000E+00  0.15284594918E+04  0.15284594918E+04  0.25500000920E-02 0. -1.
       -2   -1    0    0    0  501  0.00000000000E+00  0.00000000000E+00 -0.59245488585E+03  0.59245488586E+03  0.25500000920E-02 0.  1.
    10030    2    1    2    0    0  0.00000000000E+00  0.00000000000E+00  0.93600460594E+03  0.21209143776E+04  0.19032007711E+04 0.  0.
        2    1    3    3  502    0  0.73680786170E+03  0.41738483202E+03 -0.15761725752E+02  0.84696183802E+03  0.25500000920E-02 0.  1.
       -2    1    3    3    0  502 -0.73680786170E+03 -0.41738483202E+03  0.95176633169E+03  0.12739525396E+04  0.25500000920E-02 0. -1.
</event>
<event>
 5   0  0.6361762E-05  0.1898651E+04  0.7818609E-02  0.8655528E-01
        2   -1    0    0  501    0  0.00000000000E+00  0.00000000000E+00  0.14036427795E+04  0.14036427795E+04  0.25500000920E-02 0.  1.
       -2   -1    0    0    0  501  0.00000000000E+00  0.00000000000E+00 -0.64205725550E+03  0.64205725550E+03  0.25500000920E-02 0. -1.
    10030    2    1    2    0    0  0.00000000000E+00  0.00000000000E+00  0.76158552402E+03  0.20457000350E+04  0.18986511325E+04 0.  0.
        1    1    3    3  502    0 -0.66046359733E+03  0.31053441786E+03 -0.27333090086E+03  0.77932892251E+03  0.50400001928E-02 0. -1.
       -1    1    3    3    0  502  0.66046359733E+03 -0.31053441786E+03  0.10349164249E+04  0.12663711125E+04  0.50400001928E-02 0.  1.
</event>
<event>
 5   0  0.6452182E-05  0.1912865E+04  0.7818609E-02  0.8648479E-01
       -2   -1    0    0    0  501  0.00000000000E+00  0.00000000000E+00  0.56485964381E+03  0.56485964382E+03  0.25500000920E-02 0.  1.
        2   -1    0    0  501    0  0.00000000000E+00  0.00000000000E+00 -0.16194514406E+04  0.16194514406E+04  0.25500000920E-02 0. -1.
    10030    2    1    2    0    0  0.00000000000E+00  0.00000000000E+00 -0.10545917968E+04  0.21843110844E+04  0.19128646203E+04 0.  0.
        3    1    3    3  502    0  0.50257155285E+03  0.50802713665E+03 -0.12531860888E+04  0.14426174547E+04  0.10100000352E+00 0. -1.
       -3    1    3    3    0  502 -0.50257155285E+03 -0.50802713665E+03  0.19859429201E+03  0.74169362970E+03  0.10100000352E+00 0.  1.
</event>
<event>
 5   0  0.6423388E-05  0.1894749E+04  0.7818609E-02  0.8657475E-01
       -2   -1    0    0    0  501  0.00000000000E+00  0.00000000000E+00  0.70814375430E+03  0.70814375431E+03  0.25500000920E-02 0.  1.
        2   -1    0    0  501    0  0.00000000000E+00  0.00000000000E+00 -0.12674238553E+04  0.12674238553E+04  0.25500000920E-02 0. -1.
    10030    2    1    2    0    0  0.00000000000E+00  0.00000000000E+00 -0.55928010101E+03  0.19755676096E+04  0.18947488353E+04 0.  0.
        2    1    3    3  502    0 -0.47955170424E+03  0.70457134784E+02  0.56907284291E+03  0.74751451185E+03  0.25500000920E-02 0.  1.
       -2    1    3    3    0  502  0.47955170424E+03 -0.70457134784E+02 -0.11283529439E+04  0.12280530978E+04  0.25500000920E-02 0. -1.
</event>
<event>
 5   0  0.3086139E-05  0.1898032E+04  0.7818609E-02  0.8655836E-01
        1   -1    0    0  501    0  0.00000000000E+00  0.00000000000E+00  0.90389209826E+03  0.90389209828E+03  0.50400001928E-02 0.  1.
       -1   -1    0    0    0  501  0.00000000000E+00  0.00000000000E+00 -0.99639299627E+03  0.99639299628E+03  0.50400001928E-02 0. -1.
    10030    2    1    2    0    0  0.00000000000E+00  0.00000000000E+00 -0.92500898004E+02  0.19002850946E+04  0.18980324087E+04 0.  0.
        2    1    3    3  502    0 -0.84562558196E+03 -0.95277641660E+02 -0.46683390313E+03  0.97061544753E+03  0.25500000920E-02 0. -1.
       -2    1    3    3    0  502  0.84562558196E+03  0.95277641660E+02  0.37433300513E+03  0.92966964703E+03  0.25500000920E-02 0.  1.
</event>
<event>
 5   0  0.3086139E-05  0.1903234E+04  0.7818609E-02  0.8653248E-01
       -1   -1    0    0    0  501  0.00000000000E+00  0.00000000000E+00  0.62648718853E+03  0.62648718855E+03  0.50400001928E-02 0. -1.
        1   -1    0    0  501    0  0.00000000000E+00  0.00000000000E+00 -0.14454798510E+04  0.14454798510E+04  0.50400001928E-02 0.  1.
    10030    2    1    2    0    0  0.00000000000E+00  0.00000000000E+00 -0.81899266242E+03  0.20719670395E+04  0.19032336776E+04 0.  0.
        2    1    3    3  502    0  0.18710444430E+03  0.13198730929E+03  0.59605067822E+03  0.63851791980E+03  0.25500000920E-02 0. -1.
       -2    1    3    3    0  502 -0.18710444430E+03 -0.13198730929E+03 -0.14150433406E+04  0.14334491197E+04  0.25500000920E-02 0.  1.
</event>
<event>
 5   0  0.3144958E-05  0.1927888E+04  0.7818609E-02  0.8641098E-01
        1   -1    0    0  501    0  0.00000000000E+00  0.00000000000E+00  0.14646810254E+04  0.14646810254E+04  0.50400001928E-02 0.  1.
       -1   -1    0    0    0  501  0.00000000000E+00  0.00000000000E+00 -0.63439639147E+03  0.63439639149E+03  0.50400001928E-02 0. -1.
    10030    2    1    2    0    0  0.00000000000E+00  0.00000000000E+00  0.83028463389E+03  0.20990774169E+04  0.19278883341E+04 0.  0.
        4    1    3    3  502    0  0.45941906683E+03 -0.12579131834E+03  0.13275881961E+04  0.14104543119E+04  0.12699999809E+01 0.  1.
       -4    1    3    3    0  502 -0.45941906683E+03  0.12579131834E+03 -0.49730356222E+03  0.68862310492E+03  0.12699999809E+01 0. -1.
</event>
<event>
 5   0  0.3147063E-05  0.1901624E+04  0.7818609E-02  0.8654048E-01
       -1   -1    0    0    0  501  0.00000000000E+00  0.00000000000E+00  0.64415942930E+03  0.64415942932E+03  0.50400001928E-02 0.  1.
        1   -1    0    0  501    0  0.00000000000E+00  0.00000000000E+00 -0.14034473801E+04  0.14034473801E+04  0.50400001928E-02 0. -1.
    10030    2    1    2    0    0  0.00000000000E+00  0.00000000000E+00 -0.75928795078E+03  0.20476068094E+04  0.19016244250E+04 0.  0.
        5    1    3    3  502    0  0.69673009814E+03 -0.56024045624E+03 -0.72809019220E+03  0.11530132768E+04  0.46999998093E+01 0. -1.
       -5    1    3    3    0  502 -0.69673009814E+03  0.56024045624E+03 -0.31197758578E+02  0.89459353262E+03  0.46999998093E+01 0.  1.
</event>
<event>
 5   0  0.3147063E-05  0.1898293E+04  0.7818609E-02  0.8655707E-01
        1   -1    0    0  501    0  0.00000000000E+00  0.00000000000E+00  0.10123403297E+04  0.10123403297E+04  0.50400001928E-02 0.  1.
       -1   -1    0    0    0  501  0.00000000000E+00  0.00000000000E+00 -0.88989740361E+03  0.88989740362E+03  0.50400001928E-02 0. -1.
    10030    2    1    2    0    0  0.00000000000E+00  0.00000000000E+00  0.12244292607E+03  0.19022377333E+04  0.18982929500E+04 0.  0.
        5    1    3    3  502    0  0.69604161330E+03 -0.47716892606E+03  0.49651203007E+03  0.97913757840E+03  0.46999998093E+01 0.  1.
       -5    1    3    3    0  502 -0.69604161330E+03  0.47716892606E+03 -0.37406910400E+03  0.92310015491E+03  0.46999998093E+01 0. -1.
</event>
<event>
 5   0  0.6452182E-05  0.1904961E+04  0.7818609E-02  0.8652391E-01
       -2   -1    0    0    0  501  0.00000000000E+00  0.00000000000E+00  0.98473513602E+03  0.98473513602E+03  0.25500000920E-02 0.  1.
        2   -1    0    0  501    0  0.00000000000E+00  0.00000000000E+00 -0.92128243156E+03  0.92128243156E+03  0.25500000920E-02 0. -1.
    10030    2    1    2    0    0  0.00000000000E+00  0.00000000000E+00  0.63452704458E+02  0.19060175676E+04  0.19049610816E+04 0.  0.
        3    1    3    3  502    0  0.77464243769E+03  0.45654554549E+03  0.34608912488E+03  0.96347414804E+03  0.10100000352E+00 0.  1.
       -3    1    3    3    0  502 -0.77464243769E+03 -0.45654554549E+03 -0.28263642043E+03  0.94254341955E+03  0.10100000352E+00 0. -1.
</event>
<event>
 5   0  0.6452182E-05  0.1895827E+04  0.7818609E-02  0.8656936E-01
       -2   -1    0    0    0  501  0.00000000000E+00  0.00000000000E+00  0.86549253735E+03  0.86549253735E+03  0.25500000920E-02 0. -1.
        2   -1    0    0  501    0  0.00000000000E+00  0.00000000000E+00 -0.10381834232E+04  0.10381834232E+04  0.25500000920E-02 0.  1.
    10030    2    1    2    0    0  0.00000000000E+00  0.00000000000E+00 -0.17269088585E+03  0.19036759605E+04  0.18958270018E+04 0.  0.
        3    1    3    3  502    0  0.21717384784E+03 -0.86722930639E+02 -0.10087642404E+04  0.10355146787E+04  0.10100000352E+00 0.  1.
       -3    1    3    3    0  502 -0.21717384784E+03  0.86722930639E+02  0.83607335456E+03  0.86816128184E+03  0.10100000352E+00 0. -1.
</event>
<event>
 5   0  0.2279625E-05  0.1927569E+04  0.7818609E-02  0.8641254E-01
       -3   -1    0    0    0  501  0.00000000000E+00  0.00000000000E+00  0.65995062221E+03  0.65995062994E+03  0.10100000352E+00 0.  1.
        3   -1    0    0  501    0  0.00000000000E+00  0.00000000000E+00 -0.14074997555E+04  0.14074997591E+04  0.10100000352E+00 0. -1.
    10030    2    1    2    0    0  0.00000000000E+00  0.00000000000E+00 -0.74754913332E+03  0.20674503891E+04  0.19275687808E+04 0.  0.
        2    1    3    3  502    0  0.52849372518E+03 -0.10475531926E+03  0.48334227667E+03  0.72380871153E+03  0.25500000920E-02 0.  1.
       -2    1    3    3    0  502 -0.52849372518E+03  0.10475531926E+03 -0.12308914100E+04  0.13436416776E+04  0.25500000920E-02 0. -1.
</event>
<event>
 5   0  0.6361762E-05  0.1900476E+04  0.7818609E-02  0.8654620E-01
       -2   -1    0    0    0  501  0.00000000000E+00  0.00000000000E+00  0.48052437540E+03  0.48052437540E+03  0.25500000920E-02 0. -1.
        2   -1    0    0  501    0  0.00000000000E+00  0.00000000000E+00 -0.18790970241E+04  0.18790970241E+04  0.25500000920E-02 0.  1.
    10030    2    1    2    0    0  0.00000000000E+00  0.00000000000E+00 -0.13985726487E+04  0.23596213995E+04  0.19004756498E+04 0.  0.
        1    1    3    3  502    0  0.79874893660E+03  0.16083487389E+03 -0.92192999063E+02  0.81998004212E+03  0.50400001928E-02 0. -1.
       -1    1    3    3    0  502 -0.79874893660E+03 -0.16083487389E+03 -0.13063796497E+04  0.15396413574E+04  0.50400001928E-02 0.  1.
</event>
<event>
 5   0  0.3086139E-05  0.1898101E+04  0.7818609E-02  0.8655802E-01
       -1   -1    0    0    0  501  0.00000000000E+00  0.00000000000E+00  0.87442195161E+03  0.87442195162E+03  0.50400001928E-02 0.  1.
        1   -1    0    0  501    0  0.00000000000E+00  0.00000000000E+00 -0.10300480925E+04  0.10300480925E+04  0.50400001928E-02 0. -1.
    10030    2    1    2    0    0  0.00000000000E+00  0.00000000000E+00 -0.15562614086E+03  0.19044700441E+04  0.18981008016E+04 0.  0.
        2    1    3    3  502    0 -0.22877031046E+03  0.18622071980E+03  0.82725741292E+03  0.87827606063E+03  0.25500000920E-02 0.  1.
       -2    1    3    3    0  502  0.22877031046E+03 -0.18622071980E+03 -0.98288355378E+03  0.10261939835E+04  0.25500000920E-02 0. -1.
</event>
<event>
 5   0  0.6452182E-05  0.1896226E+04  0.7818609E-02  0.8656737E-01
        2   -1    0    0  501    0  0.00000000000E+00  0.00000000000E+00  0.11367940223E+04  0.11367940223E+04  0.25500000920E-02 0.  1.
       -2   -1    0    0    0  501  0.00000000000E+00  0.00000000000E+00 -0.79074841323E+03  0.79074841323E+03  0.25500000920E-02 0. -1.
    10030    2    1    2    0    0  0.00000000000E+00  0.00000000000E+00  0.34604560907E+03  0.19275424355E+04  0.18962257981E+04 0.  0.
        3    1    3    3  502    0  0.23680482414E+03  0.80589212965E+03 -0.27398902089E+03  0.88352059576E+03  0.10100000352E+00 0. -1.
       -3    1    3    3    0  502 -0.23680482414E+03 -0.80589212965E+03  0.62003462996E+03  0.10440218398E+04  0.10100000352E+00 0.  1.
</event>
<event>
 5   0  0.6395992E-05  0.1901084E+04  0.7818609E-02  0.8654317E-01
        2   -1    0    0  501    0  0.00000000000E+00  0.00000000000E+00  0.11279734528E+04  0.11279734528E+04  0.25500000920E-02 0.  1.
       -2   -1    0    0    0  501  0.00000000000E+00  0.00000000000E+00 -0.80102069235E+03  0.80102069236E+03  0.25500000920E-02 0. -1.
    10030    2    1    2    0    0  0.00000000000E+00  0.00000000000E+00  0.32695276049E+03  0.19289941452E+04  0.19010839815E+04 0.  0.
        4    1    3    3  502    0 -0.94124957844E+03  0.58464503917E+02  0.28421745576E+03  0.98496194962E+03  0.12699999809E+01 0. -1.
       -4    1    3    3    0  502  0.94124957844E+03 -0.58464503917E+02  0.42735304735E+02  0.94403219559E+03  0.12699999809E+01 0.  1.
</event>
<event>
 5   0  0.6098377E-05  0.1905576E+04  0.7818609E-02  0.8652086E-01
        2   -1    0    0  501    0  0.00000000000E+00  0.00000000000E+00  0.14616000436E+04  0.14616000436E+04  0.25500000920E-02 0. -1.
       -2   -1    0    0    0  501  0.00000000000E+00  0.00000000000E+00 -0.62110385603E+03  0.62110385603E+03  0.25500000920E-02 0.  1.
    10030    2    1    2    0    0  0.00000000000E+00  0.00000000000E+00  0.84049618760E+03  0.20827038997E+04  0.19055764724E+04 0.  0.
        5    1    3    3  502    0 -0.57656080242E+03  0.64107534971E+03  0.86337700746E+03  0.12201810972E+04  0.46999998093E+01 0. -1.
       -5    1    3    3    0  502  0.57656080242E+03 -0.64107534971E+03 -0.22880819864E+02  0.86252280248E+03  0.46999998093E+01 0.  1.
</event>
<event>
 5   0  0.3203527E-05  0.1827256E+04  0.7818609E-02  0.8691938E-01
        1   -1    0    0  501    0  0.00000000000E+00  0.00000000000E+00  0.10343695018E+04  0.10343695018E+04  0.50400001928E-02 0. -1.
       -1   -1    0    0    0  501  0.00000000000E+00  0.00000000000E+00 -0.80698092441E+03  0.80698092443E+03  0.50400001928E-02 0.  1.
    10030    2    1    2    0    0  0.00000000000E+00  0.00000000000E+00  0.22738857740E+03  0.18413504263E+04  0.18272563660E+04 0.  0.
        1    1    3    3  502    0 -0.55007395349E+03  0.71746331077E+03 -0.19161533457E+02  0.90426883226E+03  0.50400001928E-02 0.  1.
       -1    1    3    3    0  502  0.55007395349E+03 -0.71746331077E+03  0.24655011086E+03  0.93708159399E+03  0.50400001928E-02 0. -1.
</event>
<event>
 5   0  0.3083469E-05  0.1895727E+04  0.7818609E-02  0.8656986E-01
        1   -1    0    0  501    0  0.00000000000E+00  0.00000000000E+00  0.86659701202E+03  0.86659701203E+03  0.50400001928E-02 0. -1.
       -1   -1    0    0    0  501  0.00000000000E+00  0.00000000000E+00 -0.10367505240E+04  0.10367505240E+04  0.50400001928E-02 0.  1.
    10030    2    1    2    0    0  0.00000000000E+00  0.00000000000E+00 -0.17015351197E+03  0.19033475360E+04  0.18957266747E+04 0.  0.
        3    1    3    3  502    0  0.94031418612E+03 -0.40972727976E+02  0.27513975159E+02  0.94160849725E+03  0.10100000352E+00 0.  1.
       -3    1    3    3    0  502 -0.94031418612E+03  0.40972727976E+02 -0.19766748713E+03  0.96173903879E+03  0.10100000352E+00 0. -1.
</event>
<event>
 5   0  0.3144958E-05  0.1891414E+04  0.7818609E-02  0.8659142E-01
        1   -1    0    0  501    0  0.00000000000E+00  0.00000000000E+00  0.18141317488E+04  0.18141317488E+04  0.50400001928E-02 0. -1.
       -1   -1    0    0    0  501  0.00000000000E+00  0.00000000000E+00 -0.49299725312E+03  0.49299725315E+03  0.50400001928E-02 0.  1.
    10030    2    1    2    0    0  0.00000000000E+00  0.00000000000E+00  0.13211344957E+04  0.23071290020E+04  0.18914142529E+04 0.  0.
        4    1    3    3  502    0 -0.16684827357E+03  0.33916214629E+02 -0.47414715002E+03  0.50379141396E+03  0.12699999809E+01 0.  1.
       -4    1    3    3    0  502  0.16684827357E+03 -0.33916214629E+02  0.17952816457E+04  0.18033375880E+04  0.12699999809E+01 0. -1.
</event>
<event>
 5   0  0.3147063E-05  0.1900786E+04  0.7818609E-02  0.8654465E-01
        1   -1    0    0  501    0  0.00000000000E+00  0.00000000000E+00  0.16442413714E+04  0.16442413714E+04  0.50400001928E-02 0. -1.
       -1   -1    0    0    0  501  0.00000000000E+00  0.00000000000E+00 -0.54933951722E+03  0.54933951724E+03  0.50400001928E-02 0.  1.
    10030    2    1    2    0    0  0.00000000000E+00  0.00000000000E+00  0.10949018542E+04  0.21935808887E+04  0.19007859019E+04 0.  0.
        5    1    3    3  502    0 -0.47082242857E+03  0.22576270627E+03  0.14638639983E+04  0.15542079830E+04  0.46999998093E+01 0. -1.
       -5    1    3    3    0  502  0.47082242857E+03 -0.22576270627E+03 -0.36896214409E+03  0.63937290571E+03  0.46999998093E+01 0.  1.
</event>
<event>
 5   0  0.6452182E-05  0.1890993E+04  0.7818609E-02  0.8659353E-01
        2   -1    0    0  501    0  0.00000000000E+00  0.00000000000E+00  0.77949089876E+03  0.77949089876E+03  0.25500000920E-02 0.  1.
       -2   -1    0    0    0  501  0.00000000000E+00  0.00000000000E+00 -0.11468554113E+04  0.11468554113E+04  0.25500000920E-02 0. -1.
    10030    2    1    2    0    0  0.00000000000E+00  0.00000000000E+00 -0.36736451249E+03  0.19263463100E+04  0.18909927078E+04 0.  0.
        3    1    3    3  502    0  0.26496045784E+02  0.37028997487E+02  0.77837339935E+03  0.77970401186E+03  0.10100000352E+00 0.  1.
       -3    1    3    3    0  502 -0.26496045784E+02 -0.37028997487E+02 -0.11457379118E+04  0.11466422982E+04  0.10100000352E+00 0. -1.
</event>
<event>
 5   0  0.3086139E-05  0.1904070E+04  0.7818609E-02  0.8652833E-01
        1   -1    0    0  501    0  0.00000000000E+00  0.00000000000E+00  0.22053384926E+04  0.22053384926E+04  0.50400001928E-02 0.  1.
       -1   -1    0    0    0  501  0.00000000000E+00  0.00000000000E+00 -0.41098936230E+03  0.41098936233E+03  0.50400001928E-02 0. -1.
    10030    2    1    2    0    0  0.00000000000E+00  0.00000000000E+00  0.17943491303E+04  0.26163278549E+04  0.19040700205E+04 0.  0.
        2    1    3    3  502    0  0.62681355209E+03 -0.45364278555E+03  0.13498769575E+03  0.78543534678E+03  0.25500000920E-02 0. -1.
       -2    1    3    3    0  502 -0.62681355209E+03  0.45364278555E+03  0.16593614345E+04  0.18308925081E+04  0.25500000920E-02 0.  1.
</event>
<event>
 5   0  0.3144958E-05  0.1935269E+04  0.7818609E-02  0.8637497E-01
       -1   -1    0    0    0  501  0.00000000000E+00  0.00000000000E+00  0.69168517836E+03  0.69168517838E+03  0.50400001928E-02 0. -1.
        1   -1    0    0  501    0  0.00000000000E+00  0.00000000000E+00 -0.13536739866E+04  0.13536739866E+04  0.50400001928E-02 0.  1.
    10030    2    1    2    0    0  0.00000000000E+00  0.00000000000E+00 -0.66198880827E+03  0.20453591650E+04  0.19352686975E+04 0.  0.
        4    1    3    3  502    0  0.56597616588E+03  0.50764128765E+03  0.30162597992E+03  0.81792942356E+03  0.12699999809E+01 0. -1.
       -4    1    3    3    0  502 -0.56597616588E+03 -0.50764128765E+03 -0.96361478819E+03  0.12274297414E+04  0.12699999809E+01 0.  1.
</event>
<event>
 5   0  0.3083469E-05  0.1905055E+04  0.7818609E-02  0.8652344E-01
       -1   -1    0    0    0  501  0.00000000000E+00  0.00000000000E+00  0.10161085518E+04  0.10161085518E+04  0.50400001928E-02 0. -1.
        1   -1    0    0  501    0  0.00000000000E+00  0.00000000000E+00 -0.89292525101E+03  0.89292525102E+03  0.50400001928E-02 0.  1.
    10030    2    1    2    0    0  0.00000000000E+00  0.00000000000E+00  0.12318330079E+03  0.19090338028E+04  0.19050553627E+04 0.  0.
        3    1    3    3  502    0  0.26849128700E+03  0.31460971412E+03 -0.79824578615E+03  0.89903458706E+03  0.10100000352E+00 0.  1.
       -3    1    3    3    0  502 -0.26849128700E+03 -0.31460971412E+03  0.92142908694E+03  0.10099992158E+04  0.10100000352E+00 0. -1.
</event>
<event>
 5   0  0.3144958E-05  0.1904362E+04  0.7818609E-02  0.8652688E-01
       -1   -1    0    0    0  501  0.00000000000E+00  0.00000000000E+00  0.65876070592E+03  0.65876070594E+03  0.50400001928E-02 0.  1.
        1   -1    0    0  501    0  0.00000000000E+00  0.00000000000E+00 -0.13762942389E+04  0.13762942389E+04  0.50400001928E-02 0. -1.
    10030    2    1    2    0    0  0.00000000000E+00  0.00000000000E+00 -0.71753353299E+03  0.20350549449E+04  0.19043619030E+04 0.  0.
        4    1    3    3  502    0  0.41082437572E+03 -0.35535526018E+03 -0.11944811564E+04  0.13121893440E+04  0.12699999809E+01 0. -1.
       -4    1    3    3    0  502 -0.41082437572E+03  0.35535526018E+03  0.47694762337E+03  0.72286560090E+03  0.12699999809E+01 0.  1.
</event>
<event>
 5   0  0.6423388E-05  0.1897423E+04  0.7818609E-02  0.8656140E-01
       -2   -1    0    0    0  501  0.00000000000E+00  0.00000000000E+00  0.45172627455E+03  0.45172627456E+03  0.25500000920E-02 0.  1.
        2   -1    0    0  501    0  0.00000000000E+00  0.00000000000E+00 -0.19924744775E+04  0.19924744775E+04  0.25500000920E-02 0. -1.
    10030    2    1    2    0    0  0.00000000000E+00  0.00000000000E+00 -0.15407482030E+04  0.24442007521E+04  0.18974225390E+04 0.  0.
        2    1    3    3  502    0  0.58738417573E+03  0.70861129907E+02  0.18496761886E+03  0.61988264185E+03  0.25500000920E-02 0.  1.
       -2    1    3    3    0  502 -0.58738417573E+03 -0.70861129907E+02 -0.17257158218E+04  0.18243181102E+04  0.25500000920E-02 0. -1.
</event>
<event>
 5   0  0.6098377E-05  0.1902453E+04  0.7818609E-02  0.8653637E-01
       -2   -1    0    0    0  501  0.00000000000E+00  0.00000000000E+00  0.72409114978E+03  0.72409114978E+03  0.25500000920E-02 0.  1.
        2   -1    0    0  501    0  0.00000000000E+00  0.00000000000E+00 -0.12496098254E+04  0.12496098254E+04  0.25500000920E-02 0. -1.
    10030    2    1    2    0    0  0.00000000000E+00  0.00000000000E+00 -0.52551867566E+03  0.19737009752E+04  0.19024525385E+04 0.  0.
        5    1    3    3  502    0 -0.40734212601E+03 -0.81503506162E+03 -0.54611746611E+03  0.10622975742E+04  0.46999998093E+01 0.  1.
       -5    1    3    3    0  502  0.40734212601E+03  0.81503506162E+03  0.20598790452E+02  0.91140340106E+03  0.46999998093E+01 0. -1.
</event>
<event>
 5   0  0.6452182E-05  0.1901653E+04  0.7818609E-02  0.8654034E-01
       -2   -1    0    0    0  501  0.00000000000E+00  0.00000000000E+00  0.51914525956E+03  0.51914525957E+03  0.25500000920E-02 0.  1.
        2   -1    0    0  501    0  0.00000000000E+00  0.00000000000E+00 -0.17414612951E+04  0.17414612951E+04  0.25500000920E-02 0. -1.
    10030    2    1    2    0    0  0.00000000000E+00  0.00000000000E+00 -0.12223160356E+04  0.22606065547E+04  0.19016533607E+04 0.  0.
        3    1    3    3  502    0 -0.87599969138E+03  0.10596185589E+03 -0.19008239419E+03  0.90262655677E+03  0.10100000352E+00 0.  1.
       -3    1    3    3    0  502  0.87599969138E+03 -0.10596185589E+03 -0.10322336414E+04  0.13579799979E+04  0.10100000352E+00 0. -1.
</event>
<event>
 5   0  0.6098377E-05  0.1892156E+04  0.7818609E-02  0.8658771E-01
       -2   -1    0    0    0  501  0.00000000000E+00  0.00000000000E+00  0.44483145267E+03  0.44483145268E+03  0.25500000920E-02 0.  1.
        2   -1    0    0  501    0  0.00000000000E+00  0.00000000000E+00 -0.20121412093E+04  0.20121412093E+04  0.25500000920E-02 0. -1.
    10030    2    1    2    0    0  0.00000000000E+00  0.00000000000E+00 -0.15673097567E+04  0.24569726620E+04  0.18921561216E+04 0.  0.
        5    1    3    3  502    0 -0.27975819061E+03  0.85705929319E+03 -0.11560026938E+04  0.14660080475E+04  0.46999998093E+01 0. -1.
       -5    1    3    3    0  502  0.27975819061E+03 -0.85705929319E+03 -0.41130706286E+03  0.99096461451E+03  0.46999998093E+01 0.  1.
</event>
<event>
 5   0  0.3144958E-05  0.1896224E+04  0.7818609E-02  0.8656738E-01
       -1   -1    0    0    0  501  0.00000000000E+00  0.00000000000E+00  0.12013679655E+04  0.12013679655E+04  0.50400001928E-02 0.  1.
        1   -1    0    0  501    0  0.00000000000E+00  0.00000000000E+00 -0.74824401783E+03  0.74824401784E+03  0.50400001928E-02 0. -1.
    10030    2    1    2    0    0  0.00000000000E+00  0.00000000000E+00  0.45312394768E+03  0.19496119834E+04  0.18962240305E+04 0.  0.
        4    1    3    3  502    0  0.20834219086E+03 -0.82979115130E+03  0.64666731096E+03  0.10724458248E+04  0.12699999809E+01 0.  1.
       -4    1    3    3    0  502 -0.20834219086E+03  0.82979115130E+03 -0.19354336329E+03  0.87716615851E+03  0.12699999809E+01 0. -1.
</event>
<event>
 5   0  0.3147063E-05  0.1885812E+04  0.7818609E-02  0.8661951E-01
        1   -1    0    0  501    0  0.00000000000E+00  0.00000000000E+00  0.11070895575E+04  0.11070895575E+04  0.50400001928E-02 0.  1.
       -1   -1    0    0    0  501  0.00000000000E+00  0.00000000000E+00 -0.80307124006E+03  0.80307124008E+03  0.50400001928E-02 0. -1.
    10030    2    1    2    0    0  0.00000000000E+00  0.00000000000E+00  0.30401831744E+03  0.19101607976E+04  0.18858120626E+04 0.  0.
        5    1    3    3  502    0  0.73659665930E+03 -0.44993270135E+03  0.53642959829E+03  0.10162641773E+04  0.46999998093E+01 0.  1.
       -5    1    3    3    0  502 -0.73659665930E+03  0.44993270135E+03 -0.23241128085E+03  0.89389662025E+03  0.46999998093E+01 0. -1.
</event>
<event>
 5   0  0.3083469E-05  0.1902313E+04  0.7818609E-02  0.8653706E-01
       -1   -1    0    0    0  501  0.00000000000E+00  0.00000000000E+00  0.62957175592E+03  0.62957175594E+03  0.50400001928E-02 0. -1.
        1   -1    0    0  501    0  0.00000000000E+00  0.00000000000E+00 -0.14370066656E+04  0.14370066656E+04  0.50400001928E-02 0.  1.
    10030    2    1    2    0    0  0.00000000000E+00  0.00000000000E+00 -0.80743490971E+03  0.20665784216E+04  0.19023131286E+04 0.  0.
        3    1    3    3  502    0 -0.69471778754E+03  0.62779753574E+03 -0.58529156921E+03  0.11042322135E+04  0.10100000352E+00 0.  1.
       -3    1    3    3    0  502  0.69471778754E+03 -0.62779753574E+03 -0.22214334049E+03  0.96234620805E+03  0.10100000352E+00 0. -1.
</event>
<event>
 5   0  0.3147063E-05  0.1900227E+04  0.7818609E-02  0.8654743E-01
       -1   -1    0    0    0  501  0.00000000000E+00  0.00000000000E+00  0.67937831869E+03  0.67937831871E+03  0.50400001928E-02 0. -1.
        1   -1    0    0  501    0  0.00000000000E+00  0.00000000000E+00 -0.13287384606E+04  0.13287384606E+04  0.50400001928E-02 0.  1.
    10030    2    1    2    0    0  0.00000000000E+00  0.00000000000E+00 -0.64936014194E+03  0.20081167794E+04  0.19002274615E+04 0.  0.
        5    1    3    3  502    0 -0.19907479218E+03  0.64628052827E+02 -0.13040601169E+04  0.13207582809E+04  0.46999998093E+01 0.  1.
       -5    1    3    3    0  502  0.19907479218E+03 -0.64628052827E+02  0.65469997499E+03  0.68735849842E+03  0.46999998093E+01 0. -1.
</event>
<event>
 5   0  0.6423388E-05  0.1904201E+04  0.7818609E-02  0.8652768E-01
        2   -1    0    0  501    0  0.00000000000E+00  0.00000000000E+00  0.16735321098E+04  0.16735321098E+04  0.25500000920E-02 0.  1.
       -2   -1    0    0    0  501  0.00000000000E+00  0.00000000000E+00 -0.54166569293E+03  0.54166569294E+03  0.25500000920E-02 0. -1.
    10030    2    1    2    0    0  0.00000000000E+00  0.00000000000E+00  0.11318664169E+04  0.22151978028E+04  0.19042005461E+04 0.  0.
        2    1    3    3  502    0  0.86050094316E+03  0.67466008573E+01  0.10398887125E+04  0.13497688410E+04  0.25500000920E-02 0.  1.
       -2    1    3    3    0  502 -0.86050094316E+03 -0.67466008573E+01  0.91977704459E+02  0.86542896180E+03  0.25500000920E-02 0. -1.
</event>
<event>
 5   0  0.6452182E-05  0.1889751E+04  0.7818609E-02  0.8659975E-01
       -2   -1    0    0    0  501  0.00000000000E+00  0.00000000000E+00  0.10384042947E+04  0.10384042947E+04  0.25500000920E-02 0.  1.
        2   -1    0    0  501    0  0.00000000000E+00  0.00000000000E+00 -0.85977110719E+03  0.85977110720E+03  0.25500000920E-02 0. -1.
    10030    2    1    2    0    0  0.00000000000E+00  0.00000000000E+00  0.17863318752E+03  0.18981754019E+04  0.18897513172E+04 0.  0.
        3    1    3    3  502    0  0.94366335030E+03 -0.37693358847E+02  0.11892156121E+03  0.95187376050E+03  0.10100000352E+00 0. -1.
       -3    1    3    3    0  502 -0.94366335030E+03  0.37693358847E+02  0.59711626309E+02  0.94630164141E+03  0.10100000352E+00 0.  1.
</event>
<event>
 5   0  0.6452182E-05  0.1900863E+04  0.7818609E-02  0.8654427E-01
        2   -1    0    0  501    0  0.00000000000E+00  0.00000000000E+00  0.99922960001E+03  0.99922960002E+03  0.25500000920E-02 0. -1.
       -2   -1    0    0    0  501  0.00000000000E+00  0.00000000000E+00 -0.90401632734E+03  0.90401632734E+03  0.25500000920E-02 0.  1.
    10030    2    1    2    0    0  0.00000000000E+00  0.00000000000E+00  0.95213272676E+02  0.19032459274E+04  0.19008628285E+04 0.  0.
        3    1    3    3  502    0  0.13457830354E+03 -0.38545866815E+03 -0.81174098403E+03  0.90863256600E+03  0.10100000352E+00 0.  1.
       -3    1    3    3    0  502 -0.13457830354E+03  0.38545866815E+03  0.90695425671E+03  0.99461336136E+03  0.10100000352E+00 0. -1.
</event>
<event>
 5   0  0.3086139E-05  0.1906059E+04  0.7818609E-02  0.8651846E-01
        1   -1    0    0  501    0  0.00000000000E+00  0.00000000000E+00  0.15436453971E+04  0.15436453971E+04  0.50400001928E-02 0. -1.
       -1   -1    0    0    0  501  0.00000000000E+00  0.00000000000E+00 -0.58838995954E+03  0.58838995956E+03  0.50400001928E-02 0.  1.
    10030    2    1    2    0    0  0.00000000000E+00  0.00000000000E+00  0.95525543753E+03  0.21320353566E+04  0.19060592360E+04 0.  0.
        2    1    3    3  502    0  0.70022259618E+03  0.63112535235E+03  0.32089178494E+03  0.99579236401E+03  0.25500000920E-02 0. -1.
       -2    1    3    3    0  502 -0.70022259618E+03 -0.63112535235E+03  0.63436365259E+03  0.11362429926E+04  0.25500000920E-02 0.  1.
</event>
<event>
 5   0  0.6395992E-05  0.1902353E+04  0.7818609E-02  0.8653686E-01
       -2   -1    0    0    0  501  0.00000000000E+00  0.00000000000E+00  0.52869075646E+03  0.52869075647E+03  0.25500000920E-02 0.  1.
        2   -1    0    0  501    0  0.00000000000E+00  0.00000000000E+00 -0.17112780051E+04  0.17112780051E+04  0.25500000920E-02 0. -1.
    10030    2    1    2    0    0  0.00000000000E+00  0.00000000000E+00 -0.11825872486E+04  0.22399687615E+04  0.19023531355E+04 0.  0.
        4    1    3    3  502    0 -0.32496167058E+03  0.63179399538E+03  0.15337893742E+03  0.72683591772E+03  0.12699999809E+01 0.  1.
       -4    1    3    3    0  502  0.32496167058E+03 -0.63179399538E+03 -0.13359661860E+04  0.15131328438E+04  0.12699999809E+01 0. -1.
</event>
<event>
 5   0  0.6452182E-05  0.1900915E+04  0.7818609E-02  0.8654401E-01
        2   -1    0    0  501    0  0.00000000000E+00  0.00000000000E+00  0.17120411871E+04  0.17120411871E+04  0.25500000920E-02 0.  1.
       -2   -1    0    0    0  501  0.00000000000E+00  0.00000000000E+00 -0.52765656127E+03  0.52765656128E+03  0.25500000920E-02 0. -1.
    10030    2    1    2    0    0  0.00000000000E+00  0.00000000000E+00  0.11843846258E+04  0.22396977483E+04  0.19009153222E+04 0.  0.
        3    1    3    3  502    0 -0.60943725148E+03  0.39346653763E+03  0.13157580340E+04  0.15024809130E+04  0.10100000352E+00 0.  1.
       -3    1    3    3    0  502  0.60943725148E+03 -0.39346653763E+03 -0.13137340819E+03  0.73721683534E+03  0.10100000352E+00 0. -1.
</event>
<event>
 5   0  0.6452182E-05  0.1904055E+04  0.7818609E-02  0.8652840E-01
        2   -1    0    0  501    0  0.00000000000E+00  0.00000000000E+00  0.71226721936E+03  0.71226721936E+03  0.25500000920E-02 0. -1.
       -2   -1    0    0    0  501  0.00000000000E+00  0.00000000000E+00 -0.12724950519E+04  0.12724950519E+04  0.25500000920E-02 0.  1.
    10030    2    1    2    0    0  0.00000000000E+00  0.00000000000E+00 -0.56022783259E+03  0.19847622713E+04  0.19040551592E+04 0.  0.
        3    1    3    3  502    0  0.60548600827E+03  0.11175472236E+03  0.47678684840E+03  0.77873495696E+03  0.10100000352E+00 0. -1.
       -3    1    3    3    0  502 -0.60548600827E+03 -0.11175472236E+03 -0.10370146810E+04  0.12060273144E+04  0.10100000352E+00 0.  1.
</event>
<event>
 5   0  0.6452182E-05  0.1897658E+04  0.7818609E-02  0.8656023E-01
       -2   -1    0    0    0  501  0.00000000000E+00  0.00000000000E+00  0.65468632418E+03  0.65468632419E+03  0.25500000920E-02 0. -1.
        2   -1    0    0  501    0  0.00000000000E+00  0.00000000000E+00 -0.13751264038E+04  0.13751264038E+04  0.25500000920E-02 0.  1.
    10030    2    1    2    0    0  0.00000000000E+00  0.00000000000E+00 -0.72044007960E+03  0.20298127280E+04  0.18976579782E+04 0.  0.
        3    1    3    3  502    0 -0.53574020198E+03  0.67698332603E+03  0.60833437308E+02  0.86546213380E+03  0.10100000352E+00 0. -1.
       -3    1    3    3    0  502  0.53574020198E+03 -0.67698332603E+03 -0.78127351691E+03  0.11643505942E+04  0.10100000352E+00 0.  1.
</event>
<event>
 5   0  0.6098377E-05  0.1904381E+04  0.7818609E-02  0.8652679E-01
       -2   -1    0    0    0  501  0.00000000000E+00  0.00000000000E+00  0.39828144730E+03  0.39828144730E+03  0.25500000920E-02 0.  1.
        2   -1    0    0  501    0  0.00000000000E+00  0.00000000000E+00 -0.22764482817E+04  0.22764482817E+04  0.25500000920E-02 0. -1.
    10030    2    1    2    0    0  0.00000000000E+00  0.00000000000E+00 -0.18781668344E+04  0.26747297290E+04  0.19043813865E+04 0.  0.
        5    1    3    3  502    0 -0.60979257295E+03  0.54791410950E+00  0.88035575930E+02  0.61613280619E+03  0.46999998093E+01 0.  1.
       -5    1    3    3    0  502  0.60979257295E+03 -0.54791410950E+00 -0.19662024103E+04  0.20585969228E+04  0.46999998093E+01 0. -1.
</event>
<event>
 5   0  0.3083469E-05  0.1903739E+04  0.7818609E-02  0.8652997E-01
        1   -1    0    0  501    0  0.00000000000E+00  0.00000000000E+00  0.13271168138E+04  0.13271168138E+04  0.50400001928E-02 0.  1.
       -1   -1    0    0    0  501  0.00000000000E+00  0.00000000000E+00 -0.68272505869E+03  0.68272505870E+03  0.50400001928E-02 0. -1.
    10030    2    1    2    0    0  0.00000000000E+00  0.00000000000E+00  0.64439175513E+03  0.20098418725E+04  0.19037393778E+04 0.  0.
        3    1    3    3  502    0 -0.55799573521E+03  0.49787310791E+03 -0.29953988889E+03  0.80558117364E+03  0.10100000352E+00 0. -1.
       -3    1    3    3    0  502  0.55799573521E+03 -0.49787310791E+03  0.94393164402E+03  0.12042606989E+04  0.10100000352E+00 0.  1.
</event>
<event>
 5   0  0.3086139E-05  0.1897198E+04  0.7818609E-02  0.8656252E-01
        1   -1    0    0  501    0  0.00000000000E+00  0.00000000000E+00  0.68717940278E+03  0.68717940280E+03  0.50400001928E-02 0. -1.
       -1   -1    0    0    0  501  0.00000000000E+00  0.00000000000E+00 -0.13094686821E+04  0.13094686821E+04  0.50400001928E-02 0.  1.
    10030    2    1    2    0    0  0.00000000000E+00  0.00000000000E+00 -0.62228927933E+03  0.19966480849E+04  0.18971978357E+04 0.  0.
        2    1    3    3  502    0 -0.69163610445E+03 -0.35343625814E+03 -0.88426629103E+03  0.11769471369E+04  0.25500000920E-02 0.  1.
       -2    1    3    3    0  502  0.69163610445E+03  0.35343625814E+03  0.26197701171E+03  0.81970094804E+03  0.25500000920E-02 0. -1.
</event>
<event>
 5   0  0.3144958E-05  0.1904752E+04  0.7818609E-02  0.8652495E-01
        1   -1    0    0  501    0  0.00000000000E+00  0.00000000000E+00  0.16406773839E+04  0.16406773839E+04  0.50400001928E-02 0. -1.
       -1   -1    0    0    0  501  0.00000000000E+00  0.00000000000E+00 -0.55283254332E+03  0.55283254334E+03  0.50400001928E-02 0.  1.
    10030    2    1    2    0    0  0.00000000000E+00  0.00000000000E+00  0.10878448406E+04  0.21935099272E+04  0.19047517958E+04 0.  0.
        4    1    3    3  502    0 -0.10607113983E+03 -0.79439082989E+03  0.11364201389E+04  0.13905970740E+04  0.12699999809E+01 0. -1.
       -4    1    3    3    0  502  0.10607113983E+03  0.79439082989E+03 -0.48575298341E+02  0.80291285319E+03  0.12699999809E+01 0.  1.
</event>
<event>
 5   0  0.6452182E-05  0.1901733E+04  0.7818609E-02  0.8653994E-01
       -2   -1    0    0    0  501  0.00000000000E+00  0.00000000000E+00  0.40025388118E+03  0.40025388119E+03  0.25500000920E-02 0.  1.
        2   -1    0    0  501    0  0.00000000000E+00  0.00000000000E+00 -0.22589333342E+04  0.22589333342E+04  0.25500000920E-02 0. -1.
    10030    2    1    2    0    0  0.00000000000E+00  0.00000000000E+00 -0.18586794530E+04  0.26591872154E+04  0.19017327198E+04 0.  0.
        3    1    3    3  502    0 -0.43983508803E+02 -0.43341024357E+02  0.39744731180E+03  0.40221557566E+03  0.10100000352E+00 0.  1.
       -3    1    3    3    0  502  0.43983508803E+02  0.43341024357E+02 -0.22561267648E+04  0.22569716397E+04  0.10100000352E+00 0. -1.
</event>
<event>
 5   0  0.6452182E-05  0.1901027E+04  0.7818609E-02  0.8654345E-01
        2   -1    0    0  501    0  0.00000000000E+00  0.00000000000E+00  0.14681656092E+04  0.14681656092E+04  0.25500000920E-02 0. -1.
       -2   -1    0    0    0  501  0.00000000000E+00  0.00000000000E+00 -0.61537742184E+03  0.61537742184E+03  0.25500000920E-02 0.  1.
    10030    2    1    2    0    0  0.00000000000E+00  0.00000000000E+00  0.85278818735E+03  0.20835430310E+04  0.19010270565E+04 0.  0.
        3    1    3    3  502    0 -0.32622036952E+02  0.94905829095E+03  0.47158530730E+03  0.10602681497E+04  0.10100000352E+00 0. -1.
       -3    1    3    3    0  502  0.32622036952E+02 -0.94905829095E+03  0.38120288006E+03  0.10232748814E+04  0.10100000352E+00 0.  1.
</event>
<event>
 5   0  0.6361762E-05  0.1901709E+04  0.7818609E-02  0.8654006E-01
        2   -1    0    0  501    0  0.00000000000E+00  0.00000000000E+00  0.87981068006E+03  0.87981068006E+03  0.25500000920E-02 0. -1.
       -2   -1    0    0    0  501  0.00000000000E+00  0.00000000000E+00 -0.10276351911E+04  0.10276351911E+04  0.25500000920E-02 0.  1.
    10030    2    1    2    0    0  0.00000000000E+00  0.00000000000E+00 -0.14782451105E+03  0.19074458712E+04  0.19017091432E+04 0.  0.
        1    1    3    3  502    0  0.86478192782E+03 -0.12723011373E+02 -0.47021776406E+03  0.98443608395E+03  0.50400001928E-02 0.  1.
       -1    1    3    3    0  502 -0.86478192782E+03  0.12723011373E+02  0.32239325301E+03  0.92300978723E+03  0.50400001928E-02 0. -1.
</event>
<event>
 5   0  0.3203527E-05  0.1899949E+04  0.7818609E-02  0.8654882E-01
        1   -1    0    0  501    0  0.00000000000E+00  0.00000000000E+00  0.13685821749E+04  0.13685821749E+04  0.50400001928E-02 0. -1.
       -1   -1    0    0    0  501  0.00000000000E+00  0.00000000000E+00 -0.65940599180E+03  0.65940599182E+03  0.50400001928E-02 0.  1.
    10030    2    1    2    0    0  0.00000000000E+00  0.00000000000E+00  0.70917618313E+03  0.20279881668E+04  0.18999487219E+04 0.  0.
        1    1    3    3  502    0  0.92181969770E+02 -0.92830719756E+03  0.54612312461E+03  0.10809728192E+04  0.50400001928E-02 0. -1.
       -1    1    3    3    0  502 -0.92181969770E+02  0.92830719756E+03  0.16305305852E+03  0.94701534756E+03  0.50400001928E-02 0.  1.
</event>
<event>
 5   0  0.6423388E-05  0.1893251E+04  0.7818609E-02  0.8658223E-01
        2   -1    0    0  501    0  0.00000000000E+00  0.00000000000E+00  0.13410361422E+04  0.13410361422E+04  0.25500000920E-02 0. -1.
       -2   -1    0    0    0  501  0.00000000000E+00  0.00000000000E+00 -0.66821454545E+03  0.66821454545E+03  0.25500000920E-02 0.  1.
    10030    2    1    2    0    0  0.00000000000E+00  0.00000000000E+00  0.67282159674E+03  0.20092506876E+04  0.18932510200E+04 0.  0.
        2    1    3    3  502    0  0.43441152385E+03 -0.45590925678E+03 -0.41367012384E+03  0.75345178600E+03  0.25500000920E-02 0.  1.
       -2    1    3    3    0  502 -0.43441152385E+03  0.45590925678E+03  0.10864917206E+04  0.12557989016E+04  0.25500000920E-02 0. -1.
</event>
<event>
 5   0  0.6452182E-05  0.1896969E+04  0.7818609E-02  0.8656366E-01
       -2   -1    0    0    0  501  0.00000000000E+00  0.00000000000E+00  0.58361609673E+03  0.58361609673E+03  0.25500000920E-02 0.  1.
        2   -1    0    0  501    0  0.00000000000E+00  0.00000000000E+00 -0.15414638882E+04  0.15414638882E+04  0.25500000920E-02 0. -1.
    10030    2    1    2    0    0  0.00000000000E+00  0.00000000000E+00 -0.95784779149E+03  0.21250799850E+04  0.18969693068E+04 0.  0.
        3    1    3    3  502    0 -0.48836014838E+03 -0.68553005425E+03  0.10890680487E+02  0.84176345070E+03  0.10100000352E+00 0.  1.
       -3    1    3    3    0  502  0.48836014838E+03  0.68553005425E+03 -0.96873847198E+03  0.12833165343E+04  0.10100000352E+00 0. -1.
</event>
<event>
 5   0  0.3203527E-05  0.1897947E+04  0.7818609E-02  0.8655879E-01
       -1   -1    0    0    0  501  0.00000000000E+00  0.00000000000E+00  0.65743392787E+03  0.65743392789E+03  0.50400001928E-02 0.  1.
        1   -1    0    0  501    0  0.00000000000E+00  0.00000000000E+00 -0.13697965913E+04  0.13697965913E+04  0.50400001928E-02 0. -1.
    10030    2    1    2    0    0  0.00000000000E+00  0.00000000000E+00 -0.71236266344E+03  0.20272305192E+04  0.18979470524E+04 0.  0.
        1    1    3    3  502    0 -0.40697601863E+03  0.31084582731E+03 -0.12095371501E+04  0.13134819092E+04  0.50400001928E-02 0. -1.
       -1    1    3    3    0  502  0.40697601863E+03 -0.31084582731E+03  0.49717448670E+03  0.71374861005E+03  0.50400001928E-02 0.  1.
</event>
<event>
 5   0  0.6395992E-05  0.1915204E+04  0.7818609E-02  0.8647325E-01
        2   -1    0    0  501    0  0.00000000000E+00  0.00000000000E+00  0.14117072218E+04  0.14117072218E+04  0.25500000920E-02 0.  1.
       -2   -1    0    0    0  501  0.00000000000E+00  0.00000000000E+00 -0.64956907565E+03  0.64956907565E+03  0.25500000920E-02 0. -1.
    10030    2    1    2    0    0  0.00000000000E+00  0.00000000000E+00  0.76213814616E+03  0.20612762975E+04  0.19152037543E+04 0.  0.
        4    1    3    3  502    0 -0.71996393465E+03  0.24236230422E+03 -0.24641772625E+03  0.79863061700E+03  0.12699999809E+01 0.  1.
       -4    1    3    3    0  502  0.71996393465E+03 -0.24236230422E+03  0.10085558724E+04  0.12626456805E+04  0.12699999809E+01 0. -1.
</event>
<event>
 5   0  0.2279625E-05  0.1768591E+04  0.7818609E-02  0.8723183E-01
        3   -1    0    0  501    0  0.00000000000E+00  0.00000000000E+00  0.80033850172E+03  0.80033850810E+03  0.10100000352E+00 0. -1.
       -3   -1    0    0    0  501  0.00000000000E+00  0.00000000000E+00 -0.97706012019E+03  0.97706012541E+03  0.10100000352E+00 0.  1.
    10030    2    1    2    0    0  0.00000000000E+00  0.00000000000E+00 -0.17672161847E+03  0.17773986335E+04  0.17685913525E+04 0.  0.
        4    1    3    3  502    0  0.12627544758E+03  0.45870334538E+03  0.66075238319E+03  0.81421715317E+03  0.12699999809E+01 0. -1.
       -4    1    3    3    0  502 -0.12627544758E+03 -0.45870334538E+03 -0.83747400166E+03  0.96318148034E+03  0.12699999809E+01 0.  1.
</event>
<event>
 5   0  0.6098377E-05  0.1907311E+04  0.7818609E-02  0.8651226E-01
       -2   -1    0    0    0  501  0.00000000000E+00  0.00000000000E+00  0.55760871281E+03  0.55760871281E+03  0.25500000920E-02 0.  1.
        2   -1    0    0  501    0  0.00000000000E+00  0.00000000000E+00 -0.16309974387E+04  0.16309974387E+04  0.25500000920E-02 0. -1.
    10030    2    1    2    0    0  0.00000000000E+00  0.00000000000E+00 -0.10733887259E+04  0.21886061515E+04  0.19073105488E+04 0.  0.
        5    1    3    3  502    0 -0.83751423344E+02 -0.20492240285E+03 -0.16010914422E+04  0.16163302225E+04  0.46999998093E+01 0. -1.
       -5    1    3    3    0  502  0.83751423344E+02  0.20492240285E+03  0.52770271629E+03  0.57227592897E+03  0.46999998093E+01 0.  1.
</event>
<event>
 5   0  0.6395992E-05  0.1813174E+04  0.7818609E-02  0.8699325E-01
       -2   -1    0    0    0  501  0.00000000000E+00  0.00000000000E+00  0.86780590744E+03  0.86780590744E+03  0.25500000920E-02 0.  1.
        2   -1    0    0  501    0  0.00000000000E+00  0.00000000000E+00 -0.94710088893E+03  0.94710088893E+03  0.25500000920E-02 0. -1.
    10030    2    1    2    0    0  0.00000000000E+00  0.00000000000E+00 -0.79294981489E+02  0.18149067964E+04  0.18131737328E+04 0.  0.
        4    1    3    3  502    0  0.75441966825E+02 -0.10388042099E+03  0.85865974948E+03  0.86820551167E+03  0.12699999809E+01 0.  1.
       -4    1    3    3    0  502 -0.75441966825E+02  0.10388042099E+03 -0.93795473097E+03  0.94670128471E+03  0.12699999809E+01 0. -1.
</event>
<event>
 5   0  0.6452182E-05  0.1900303E+04  0.7818609E-02  0.8654706E-01
       -2   -1    0    0    0  501  0.00000000000E+00  0.00000000000E+00  0.54621060493E+03  0.54621060494E+03  0.25500000920E-02 0. -1.
        2   -1    0    0  501    0  0.00000000000E+00  0.00000000000E+00 -0.16528195637E+04  0.16528195637E+04  0.25500000920E-02 0.  1.
    10030    2    1    2    0    0  0.00000000000E+00  0.00000000000E+00 -0.11066089588E+04  0.21990301686E+04  0.19003026851E+04 0.  0.
        3    1    3    3  502    0 -0.42624755393E+02  0.65127790970E+03  0.24575677222E+03  0.69740675845E+03  0.10100000352E+00 0. -1.
       -3    1    3    3    0  502  0.42624755393E+02 -0.65127790970E+03 -0.13523657310E+04  0.15016234102E+04  0.10100000352E+00 0.  1.
</event>
<event>
 5   0  0.6452182E-05  0.1899241E+04  0.7818609E-02  0.8655234E-01
        2   -1    0    0  501    0  0.00000000000E+00  0.00000000000E+00  0.10781112261E+04  0.10781112261E+04  0.25500000920E-02 0.  1.
       -2   -1    0    0    0  501  0.00000000000E+00  0.00000000000E+00 -0.83644324112E+03  0.83644324113E+03  0.25500000920E-02 0. -1.
    10030    2    1    2    0    0  0.00000000000E+00  0.00000000000E+00  0.24166798497E+03  0.19145544672E+04  0.18992407412E+04 0.  0.
        3    1    3    3  502    0  0.59998742543E+03 -0.54531949629E+02 -0.61912838674E+03  0.86387418857E+03  0.10100000352E+00 0. -1.
       -3    1    3    3    0  502 -0.59998742543E+03  0.54531949629E+02  0.86079637171E+03  0.10506802787E+04  0.10100000352E+00 0.  1.
</event>
<event>
 5   0  0.6395992E-05  0.1902159E+04  0.7818609E-02  0.8653783E-01
        2   -1    0    0  501    0  0.00000000000E+00  0.00000000000E+00  0.25656311573E+04  0.25656311573E+04  0.25500000920E-02 0.  1.
       -2   -1    0    0    0  501  0.00000000000E+00  0.00000000000E+00 -0.35256510097E+03  0.35256510098E+03  0.25500000920E-02 0. -1.
    10030    2    1    2    0    0  0.00000000000E+00  0.00000000000E+00  0.22130660563E+04  0.29181962583E+04  0.19021587821E+04 0.  0.
        4    1    3    3  502    0  0.51149760941E+03 -0.66019012621E+03  0.18046462916E+04  0.19885247441E+04  0.12699999809E+01 0.  1.
       -4    1    3    3    0  502 -0.51149760941E+03  0.66019012621E+03  0.40841976473E+03  0.92967151419E+03  0.12699999809E+01 0. -1.
</event>
<event>
 5   0  0.6452182E-05  0.1896047E+04  0.7818609E-02  0.8656827E-01
        2   -1    0    0  501    0  0.00000000000E+00  0.00000000000E+00  0.13504767301E+04  0.13504767301E+04  0.25500000920E-02 0.  1.
       -2   -1    0    0    0  501  0.00000000000E+00  0.00000000000E+00 -0.66550448804E+03  0.66550448804E+03  0.25500000920E-02 0. -1.
    10030    2    1    2    0    0  0.00000000000E+00  0.00000000000E+00  0.68497224209E+03  0.20159812182E+04  0.18960467556E+04 0.  0.
        3    1    3    3  502    0 -0.31416459223E+02 -0.14924085566E+03 -0.65237545782E+03  0.66996535364E+03  0.10100000352E+00 0. -1.
       -3    1    3    3    0  502  0.31416459223E+02  0.14924085566E+03  0.13373476999E+04  0.13460158645E+04  0.10100000352E+00 0.  1.
</event>
<event>
 5   0  0.3147063E-05  0.1895646E+04  0.7818609E-02  0.8657027E-01
        1   -1    0    0  501    0  0.00000000000E+00  0.00000000000E+00  0.66516904904E+03  0.66516904906E+03  0.50400001928E-02 0.  1.
       -1   -1    0    0    0  501  0.00000000000E+00  0.00000000000E+00 -0.13505870919E+04  0.13505870919E+04  0.50400001928E-02 0. -1.
    10030    2    1    2    0    0  0.00000000000E+00  0.00000000000E+00 -0.68541804288E+03  0.20157561410E+04  0.18956463084E+04 0.  0.
        5    1    3    3  502    0 -0.29724398210E+03 -0.89763297281E+03 -0.27340511012E+03  0.98431264495E+03  0.46999998093E+01 0.  1.
       -5    1    3    3    0  502  0.29724398210E+03  0.89763297281E+03 -0.41201293276E+03  0.10314434960E+04  0.46999998093E+01 0. -1.
</event>
<event>
 5   0  0.6361762E-05  0.1900945E+04  0.7818609E-02  0.8654386E-01
       -2   -1    0    0    0  501  0.00000000000E+00  0.00000000000E+00  0.11483767348E+04  0.11483767348E+04  0.25500000920E-02 0.  1.
        2   -1    0    0  501    0  0.00000000000E+00  0.00000000000E+00 -0.78667347972E+03  0.78667347972E+03  0.25500000920E-02 0. -1.
    10030    2    1    2    0    0  0.00000000000E+00  0.00000000000E+00  0.36170325505E+03  0.19350502145E+04  0.19009445252E+04 0.  0.
        1    1    3    3  502    0  0.66503246284E+02  0.46096375127E+03 -0.66255893824E+03  0.80987320514E+03  0.50400001928E-02 0. -1.
       -1    1    3    3    0  502 -0.66503246284E+02 -0.46096375127E+03  0.10242621933E+04  0.11251770094E+04  0.50400001928E-02 0.  1.
</event>
<event>
 5   0  0.3083469E-05  0.1902961E+04  0.7818609E-02  0.8653384E-01
       -1   -1    0    0    0  501  0.00000000000E+00  0.00000000000E+00  0.16197771516E+04  0.16197771516E+04  0.50400001928E-02 0. -1.
        1   -1    0    0  501    0  0.00000000000E+00  0.00000000000E+00 -0.55891337170E+03  0.55891337172E+03  0.50400001928E-02 0.  1.
    10030    2    1    2    0    0  0.00000000000E+00  0.00000000000E+00  0.10608637799E+04  0.21786905233E+04  0.19029609657E+04 0.  0.
        3    1    3    3  502    0 -0.57288499140E+03  0.62410679898E+03  0.34534270895E+02  0.84787919892E+03  0.10100000352E+00 0. -1.
       -3    1    3    3    0  502  0.57288499140E+03 -0.62410679898E+03  0.10263295090E+04  0.13308113244E+04  0.10100000352E+00 0.  1.
</event>
<event>
 5   0  0.6395992E-05  0.1871062E+04  0.7818609E-02  0.8669396E-01
       -2   -1    0    0    0  501  0.00000000000E+00  0.00000000000E+00  0.66501594831E+03  0.66501594831E+03  0.25500000920E-02 0.  1.
        2   -1    0    0  501    0  0.00000000000E+00  0.00000000000E+00 -0.13160866160E+04  0.13160866160E+04  0.25500000920E-02 0. -1.
    10030    2    1    2    0    0  0.00000000000E+00  0.00000000000E+00 -0.65107066770E+03  0.19811025643E+04  0.18710623603E+04 0.  0.
        4    1    3    3  502    0  0.66855154977E+02  0.19172346577E+03 -0.12924741249E+04  0.13083265936E+04  0.12699999809E+01 0. -1.
       -4    1    3    3    0  502 -0.66855154977E+02 -0.19172346577E+03  0.64140345716E+03  0.67277597076E+03  0.12699999809E+01 0.  1.
</event>
<event>
 5   0  0.6395992E-05  0.1918438E+04  0.7818609E-02  0.8645733E-01
        2   -1    0    0  501    0  0.00000000000E+00  0.00000000000E+00  0.89822912693E+03  0.89822912693E+03  0.25500000920E-02 0. -1.
       -2   -1    0    0    0  501  0.00000000000E+00  0.00000000000E+00 -0.10243497686E+04  0.10243497686E+04  0.25500000920E-02 0.  1.
    10030    2    1    2    0    0  0.00000000000E+00  0.00000000000E+00 -0.12612064169E+03  0.19225788956E+04  0.19184376960E+04 0.  0.
        4    1    3    3  502    0 -0.80569848889E+02 -0.21262955929E+03  0.87082912491E+03  0.90002655946E+03  0.12699999809E+01 0. -1.
       -4    1    3    3    0  502  0.80569848889E+02  0.21262955929E+03 -0.99694976660E+03  0.10225523361E+04  0.12699999809E+01 0.  1.
</event>
<event>
 5   0  0.2279625E-05  0.1904438E+04  0.7818609E-02  0.8652650E-01
       -3   -1    0    0    0  501  0.00000000000E+00  0.00000000000E+00  0.75819113855E+03  0.75819114528E+03  0.10100000352E+00 0.  1.
        3   -1    0    0  501    0  0.00000000000E+00  0.00000000000E+00 -0.11959006084E+04  0.11959006127E+04  0.10100000352E+00 0. -1.
    10030    2    1    2    0    0  0.00000000000E+00  0.00000000000E+00 -0.43770946989E+03  0.19540917580E+04  0.19044382423E+04 0.  0.
        5    1    3    3  502    0  0.80762181611E+02  0.32411224924E+03 -0.11338030280E+04  0.11819909798E+04  0.46999998093E+01 0. -1.
       -5    1    3    3    0  502 -0.80762181611E+02 -0.32411224924E+03  0.69609355808E+03  0.77210077819E+03  0.46999998093E+01 0.  1.
</event>
<event>
 5   0  0.6395992E-05  0.1901694E+04  0.7818609E-02  0.8654014E-01
        2   -1    0    0  501    0  0.00000000000E+00  0.00000000000E+00  0.15150579106E+04  0.15150579106E+04  0.25500000920E-02 0. -1.
       -2   -1    0    0    0  501  0.00000000000E+00  0.00000000000E+00 -0.59674921492E+03  0.59674921492E+03  0.25500000920E-02 0.  1.
    10030    2    1    2    0    0  0.00000000000E+00  0.00000000000E+00  0.91830869564E+03  0.21118071255E+04  0.19016935807E+04 0.  0.
        4    1    3    3  502    0 -0.75130761459E+03  0.54508063491E+03  0.68817333404E+03  0.11554913158E+04  0.12699999809E+01 0. -1.
       -4    1    3    3    0  502  0.75130761459E+03 -0.54508063491E+03  0.23013536160E+03  0.95631580968E+03  0.12699999809E+01 0.  1.
</event>
<event>
 5   0  0.6361762E-05  0.1897642E+04  0.7818609E-02  0.8656031E-01
        2   -1    0    0  501    0  0.00000000000E+00  0.00000000000E+00  0.93403774482E+03  0.93403774482E+03  0.25500000920E-02 0. -1.
       -2   -1    0    0    0  501  0.00000000000E+00  0.00000000000E+00 -0.96383824800E+03  0.96383824800E+03  0.25500000920E-02 0.  1.
    10030    2    1    2    0    0  0.00000000000E+00  0.00000000000E+00 -0.29800503179E+02  0.18978759928E+04  0.18976420142E+04 0.  0.
        1    1    3    3  502    0  0.56519499259E+03 -0.76118100972E+03  0.22779243287E+02  0.94834635190E+03  0.50400001928E-02 0.  1.
       -1    1    3    3    0  502 -0.56519499259E+03  0.76118100972E+03 -0.52579746466E+02  0.94952964092E+03  0.50400001928E-02 0. -1.
</event>
<event>
 5   0  0.3144958E-05  0.1818798E+04  0.7818609E-02  0.8696366E-01
       -1   -1    0    0    0  501  0.00000000000E+00  0.00000000000E+00  0.10511863771E+04  0.10511863772E+04  0.50400001928E-02 0. -1.
        1   -1    0    0  501    0  0.00000000000E+00  0.00000000000E+00 -0.78673624842E+03  0.78673624844E+03  0.50400001928E-02 0.  1.
    10030    2    1    2    0    0  0.00000000000E+00  0.00000000000E+00  0.26445012872E+03  0.18379226256E+04  0.18187978742E+04 0.  0.
        4    1    3    3  502    0 -0.48599142708E+02 -0.85804637432E+03  0.43267169538E+03  0.96219117957E+03  0.12699999809E+01 0.  1.
       -4    1    3    3    0  502  0.48599142708E+02  0.85804637432E+03 -0.16822156666E+03  0.87573144602E+03  0.12699999809E+01 0. -1.
</event>
<event>
 5   0  0.3147063E-05  0.1903272E+04  0.7818609E-02  0.8653229E-01
        1   -1    0    0  501    0  0.00000000000E+00  0.00000000000E+00  0.10119135209E+04  0.10119135209E+04  0.50400001928E-02 0. -1.
       -1   -1    0    0    0  501  0.00000000000E+00  0.00000000000E+00 -0.89494931565E+03  0.89494931566E+03  0.50400001928E-02 0.  1.
    10030    2    1    2    0    0  0.00000000000E+00  0.00000000000E+00  0.11696420526E+03  0.19068628366E+04  0.19032722486E+04 0.  0.
        5    1    3    3  502    0  0.26471883855E+03 -0.82018512159E+02 -0.85361226719E+03  0.89748487036E+03  0.46999998093E+01 0.  1.
       -5    1    3    3    0  502 -0.26471883855E+03  0.82018512159E+02  0.97057647245E+03  0.10093779662E+04  0.46999998093E+01 0. -1.
</event>
<event>
 5   0  0.6395992E-05  0.1788572E+04  0.7818609E-02  0.8712400E-01
        2   -1    0    0  501    0  0.00000000000E+00  0.00000000000E+00  0.15162461815E+04  0.15162461815E+04  0.25500000920E-02 0. -1.
       -2   -1    0    0    0  501  0.00000000000E+00  0.00000000000E+00 -0.52745251528E+03  0.52745251528E+03  0.25500000920E-02 0.  1.
    10030    2    1    2    0    0  0.00000000000E+00  0.00000000000E+00  0.98879366620E+03  0.20436986968E+04  0.17885724612E+04 0.  0.
        4    1    3    3  502    0  0.49372567726E+03 -0.42392349116E+03  0.11953034669E+04  0.13609658929E+04  0.12699999809E+01 0. -1.
       -4    1    3    3    0  502 -0.49372567726E+03  0.42392349116E+03 -0.20650980073E+03  0.68273280384E+03  0.12699999809E+01 0.  1.
</event>
<event>
 5   0  0.6361762E-05  0.1920474E+04  0.7818609E-02  0.8644732E-01
       -2   -1    0    0    0  501  0.00000000000E+00  0.00000000000E+00  0.33784548379E+03  0.33784548380E+03  0.25500000920E-02 0.  1.
        2   -1    0    0  501    0  0.00000000000E+00  0.00000000000E+00 -0.27292222183E+04  0.27292222183E+04  0.25500000920E-02 0. -1.
    10030    2    1    2    0    0  0.00000000000E+00  0.00000000000E+00 -0.23913767345E+04  0.30670677021E+04  0.19204743172E+04 0.  0.
        1    1    3    3  502    0 -0.64631124262E+03 -0.26206145479E+03 -0.22498062649E+04  0.23554240931E+04  0.50400001928E-02 0. -1.
       -1    1    3    3    0  502  0.64631124262E+03  0.26206145479E+03 -0.14157046958E+03  0.71164360905E+03  0.50400001928E-02 0.  1.
</event>
<event>
 5   0  0.6423388E-05  0.1897027E+04  0.7818609E-02  0.8656338E-01
       -2   -1    0    0    0  501  0.00000000000E+00  0.00000000000E+00  0.43993879743E+03  0.43993879744E+03  0.25500000920E-02 0. -1.
        2   -1    0    0  501    0  0.00000000000E+00  0.00000000000E+00 -0.20450057899E+04  0.20450057899E+04  0.25500000920E-02 0.  1.
    10030    2    1    2    0    0  0.00000000000E+00  0.00000000000E+00 -0.16050669925E+04  0.24849445874E+04  0.18970265027E+04 0.  0.
        2    1    3    3  502    0  0.32526237833E+03  0.46045366870E+03 -0.18017374094E+04  0.18878747014E+04  0.25500000920E-02 0.  1.
       -2    1    3    3    0  502 -0.32526237833E+03 -0.46045366870E+03  0.19667041694E+03  0.59706988592E+03  0.25500000920E-02 0. -1.
</event>
<event>
 5   0  0.6098377E-05  0.1890168E+04  0.7818609E-02  0.8659766E-01
       -2   -1    0    0    0  501  0.00000000000E+00  0.00000000000E+00  0.93436488637E+03  0.93436488638E+03  0.25500000920E-02 0. -1.
        2   -1    0    0  501    0  0.00000000000E+00  0.00000000000E+00 -0.95592617137E+03  0.95592617138E+03  0.25500000920E-02 0.  1.
    10030    2    1    2    0    0  0.00000000000E+00  0.00000000000E+00 -0.21561285002E+02  0.18902910578E+04  0.18901680862E+04 0.  0.
        5    1    3    3  502    0 -0.93502118846E+03  0.13725404565E+03 -0.18427223584E+02  0.94523274831E+03  0.46999998093E+01 0. -1.
       -5    1    3    3    0  502  0.93502118846E+03 -0.13725404565E+03 -0.31340614189E+01  0.94505830944E+03  0.46999998093E+01 0.  1.
</event>
<event>
 5   0  0.6423388E-05  0.1907032E+04  0.7818609E-02  0.8651364E-01
       -2   -1    0    0    0  501  0.00000000000E+00  0.00000000000E+00  0.95630845159E+03  0.95630845159E+03  0.25500000920E-02 0.  1.
        2   -1    0    0  501    0  0.00000000000E+00  0.00000000000E+00 -0.95073192822E+03  0.95073192822E+03  0.25500000920E-02 0. -1.
    10030    2    1    2    0    0  0.00000000000E+00  0.00000000000E+00  0.55765233659E+01  0.19070403798E+04  0.19070322264E+04 0.  0.
        2    1    3    3  502    0  0.28083789286E+03 -0.55072255929E+03 -0.72318158985E+03  0.95139732566E+03  0.25500000920E-02 0. -1.
       -2    1    3    3    0  502 -0.28083789286E+03  0.55072255929E+03  0.72875811321E+03  0.95564305415E+03  0.25500000920E-02 0.  1.
</event>
<event>
 5   0  0.3083469E-05  0.1898510E+04  0.7818609E-02  0.8655598E-01
       -1   -1    0    0    0  501  0.00000000000E+00  0.00000000000E+00  0.72411610125E+03  0.72411610127E+03  0.50400001928E-02 0.  1.
        1   -1    0    0  501    0  0.00000000000E+00  0.00000000000E+00 -0.12443936367E+04  0.12443936367E+04  0.50400001928E-02 0. -1.
    10030    2    1    2    0    0  0.00000000000E+00  0.00000000000E+00 -0.52027753548E+03  0.19685097380E+04  0.18985104358E+04 0.  0.
        3    1    3    3  502    0  0.59055994019E+03 -0.57025412547E+03 -0.75429727093E+03  0.11148610648E+04  0.10100000352E+00 0. -1.
       -3    1    3    3    0  502 -0.59055994019E+03  0.57025412547E+03  0.23401973544E+03  0.85364867326E+03  0.10100000352E+00 0.  1.
</event>
<event>
 5   0  0.6361762E-05  0.1888683E+04  0.7818609E-02  0.8660510E-01
       -2   -1    0    0    0  501  0.00000000000E+00  0.00000000000E+00  0.70091595162E+03  0.70091595163E+03  0.25500000920E-02 0.  1.
        2   -1    0    0  501    0  0.00000000000E+00  0.00000000000E+00 -0.12723077029E+04  0.12723077029E+04  0.25500000920E-02 0. -1.
    10030    2    1    2    0    0  0.00000000000E+00  0.00000000000E+00 -0.57139175128E+03  0.19732236545E+04  0.18886828896E+04 0.  0.
        1    1    3    3  502    0 -0.79983865574E+03  0.63552617451E+02 -0.80598298655E+03  0.11372727839E+04  0.50400001928E-02 0. -1.
       -1    1    3    3    0  502  0.79983865574E+03 -0.63552617451E+02  0.23459123527E+03  0.83595087062E+03  0.50400001928E-02 0.  1.
</event>
<event>
 5   0  0.3086139E-05  0.1918924E+04  0.7818609E-02  0.8645494E-01
       -1   -1    0    0    0  501  0.00000000000E+00  0.00000000000E+00  0.86356315138E+03  0.86356315139E+03  0.50400001928E-02 0. -1.
        1   -1    0    0  501    0  0.00000000000E+00  0.00000000000E+00 -0.10660106177E+04  0.10660106177E+04  0.50400001928E-02 0.  1.
    10030    2    1    2    0    0  0.00000000000E+00  0.00000000000E+00 -0.20244746634E+03  0.19295737691E+04  0.19189241657E+04 0.  0.
        2    1    3    3  502    0 -0.21387963915E+03  0.66835102307E+03  0.55672393701E+03  0.89575617895E+03  0.25500000920E-02 0. -1.
       -2    1    3    3    0  502  0.21387963915E+03 -0.66835102307E+03 -0.75917140335E+03  0.10338175902E+04  0.25500000920E-02 0.  1.
</event>
<event>
 5   0  0.3144958E-05  0.1907230E+04  0.7818609E-02  0.8651266E-01
       -1   -1    0    0    0  501  0.00000000000E+00  0.00000000000E+00  0.53432897884E+03  0.53432897886E+03  0.50400001928E-02 0.  1.
        1   -1    0    0  501    0  0.00000000000E+00  0.00000000000E+00 -0.17019138365E+04  0.17019138365E+04  0.50400001928E-02 0. -1.
    10030    2    1    2    0    0  0.00000000000E+00  0.00000000000E+00 -0.11675848576E+04  0.22362428153E+04  0.19072303294E+04 0.  0.
        4    1    3    3  502    0 -0.25875155875E+03 -0.89618304190E+03 -0.35139952244E+03  0.99678465629E+03  0.12699999809E+01 0.  1.
       -4    1    3    3    0  502  0.25875155875E+03  0.89618304190E+03 -0.81618533518E+03  0.12394581590E+04  0.12699999809E+01 0. -1.
</event>
<event>
 5   0  0.6452182E-05  0.1883249E+04  0.7818609E-02  0.8663240E-01
       -2   -1    0    0    0  501  0.00000000000E+00  0.00000000000E+00  0.51120574819E+03  0.51120574820E+03  0.25500000920E-02 0.  1.
        2   -1    0    0  501    0  0.00000000000E+00  0.00000000000E+00 -0.17344418258E+04  0.17344418258E+04  0.25500000920E-02 0. -1.
    10030    2    1    2    0    0  0.00000000000E+00  0.00000000000E+00 -0.12232360776E+04  0.22456475740E+04  0.18832489280E+04 0.  0.
        3    1    3    3  502    0 -0.89449196238E+03  0.29410136337E+03 -0.60360667114E+03  0.11184598814E+04  0.10100000352E+00 0. -1.
       -3    1    3    3    0  502  0.89449196238E+03 -0.29410136337E+03 -0.61962940642E+03  0.11271876925E+04  0.10100000352E+00 0.  1.
</event>
<event>
 5   0  0.6098377E-05  0.1909126E+04  0.7818609E-02  0.8650327E-01
        2   -1    0    0  501    0  0.00000000000E+00  0.00000000000E+00  0.25571872018E+04  0.25571872018E+04  0.25500000920E-02 0.  1.
       -2   -1    0    0    0  501  0.00000000000E+00  0.00000000000E+00 -0.35632537566E+03  0.35632537567E+03  0.25500000920E-02 0. -1.
    10030    2    1    2    0    0  0.00000000000E+00  0.00000000000E+00  0.22008618261E+04  0.29135125774E+04  0.19091261774E+04 0.  0.
        5    1    3    3  502    0 -0.74277031479E+03  0.13159471921E+03  0.20776997299E+03  0.78244192266E+03  0.46999998093E+01 0. -1.
       -5    1    3    3    0  502  0.74277031479E+03 -0.13159471921E+03  0.19930918531E+04  0.21310706548E+04  0.46999998093E+01 0.  1.
</event>
<event>
 5   0  0.6098377E-05  0.1899473E+04  0.7818609E-02  0.8655119E-01
        2   -1    0    0  501    0  0.00000000000E+00  0.00000000000E+00  0.84982415890E+03  0.84982415891E+03  0.25500000920E-02 0.  1.
       -2   -1    0    0    0  501  0.00000000000E+00  0.00000000000E+00 -0.10613957059E+04  0.10613957060E+04  0.25500000920E-02 0. -1.
    10030    2    1    2    0    0  0.00000000000E+00  0.00000000000E+00 -0.21157154705E+03  0.19112198649E+04  0.18994733092E+04 0.  0.
        5    1    3    3  502    0  0.68397681841E+03 -0.20974523043E+03  0.52270510462E+03  0.88603615401E+03  0.46999998093E+01 0.  1.
       -5    1    3    3    0  502 -0.68397681841E+03  0.20974523043E+03 -0.73427665167E+03  0.10251837109E+04  0.46999998093E+01 0. -1.
</event>
<event>
 5   0  0.6361762E-05  0.1900632E+04  0.7818609E-02  0.8654542E-01
        2   -1    0    0  501    0  0.00000000000E+00  0.00000000000E+00  0.99708840902E+03  0.99708840902E+03  0.25500000920E-02 0.  1.
       -2   -1    0    0    0  501  0.00000000000E+00  0.00000000000E+00 -0.90573734406E+03  0.90573734406E+03  0.25500000920E-02 0. -1.
    10030    2    1    2    0    0  0.00000000000E+00  0.00000000000E+00  0.91351064961E+02  0.19028257531E+04  0.19006316922E+04 0.  0.
        1    1    3    3  502    0 -0.73339523771E+03  0.60292613860E+03  0.87096037952E+02  0.95340139666E+03  0.50400001928E-02 0. -1.
       -1    1    3    3    0  502  0.73339523771E+03 -0.60292613860E+03  0.42550270094E+01  0.94942435643E+03  0.50400001928E-02 0.  1.
</event>
<event>
 5   0  0.3144958E-05  0.1897624E+04  0.7818609E-02  0.8656040E-01
        1   -1    0    0  501    0  0.00000000000E+00  0.00000000000E+00  0.18270383159E+04  0.18270383159E+04  0.50400001928E-02 0.  1.
       -1   -1    0    0    0  501  0.00000000000E+00  0.00000000000E+00 -0.49273433009E+03  0.49273433011E+03  0.50400001928E-02 0. -1.
    10030    2    1    2    0    0  0.00000000000E+00  0.00000000000E+00  0.13343039858E+04  0.23197726460E+04  0.18976243049E+04 0.  0.
        4    1    3    3  502    0 -0.86732579447E+03  0.10622009559E+02  0.11372453083E+04  0.14302780726E+04  0.12699999809E+01 0.  1.
       -4    1    3    3    0  502  0.86732579447E+03 -0.10622009559E+02  0.19705867752E+03  0.88949457341E+03  0.12699999809E+01 0. -1.
</event>
<event>
 5   0  0.2279625E-05  0.1895118E+04  0.7818609E-02  0.8657290E-01
       -3   -1    0    0    0  501  0.00000000000E+00  0.00000000000E+00  0.86271848476E+03  0.86271849067E+03  0.10100000352E+00 0. -1.
        3   -1    0    0  501    0  0.00000000000E+00  0.00000000000E+00 -0.10407430915E+04  0.10407430964E+04  0.10100000352E+00 0.  1.
    10030    2    1    2    0    0  0.00000000000E+00  0.00000000000E+00 -0.17802460670E+03  0.19034615870E+04  0.18951182688E+04 0.  0.
        4    1    3    3  502    0  0.33331769624E+03 -0.57124624252E+03  0.59253513069E+03  0.88798786604E+03  0.12699999809E+01 0. -1.
       -4    1    3    3    0  502 -0.33331769624E+03  0.57124624252E+03 -0.77055973739E+03  0.10154737210E+04  0.12699999809E+01 0.  1.
</event>
<event>
 5   0  0.6098377E-05  0.1902455E+04  0.7818609E-02  0.8653635E-01
       -2   -1    0    0    0  501  0.00000000000E+00  0.00000000000E+00  0.13902671522E+04  0.13902671522E+04  0.25500000920E-02 0.  1.
        2   -1    0    0  501    0  0.00000000000E+00  0.00000000000E+00 -0.65083440848E+03  0.65083440849E+03  0.25500000920E-02 0. -1.
    10030    2    1    2    0    0  0.00000000000E+00  0.00000000000E+00  0.73943274372E+03  0.20411015607E+04  0.19024549400E+04 0.  0.
        5    1    3    3  502    0  0.39946417383E+03 -0.48089913649E+03 -0.39945242430E+03  0.74190291476E+03  0.46999998093E+01 0. -1.
       -5    1    3    3    0  502 -0.39946417383E+03  0.48089913649E+03  0.11388851680E+04  0.12991986459E+04  0.46999998093E+01 0.  1.
</event>
<event>
 5   0  0.6423388E-05  0.1892166E+04  0.7818609E-02  0.8658766E-01
        2   -1    0    0  501    0  0.00000000000E+00  0.00000000000E+00  0.13237343816E+04  0.13237343816E+04  0.25500000920E-02 0. -1.
       -2   -1    0    0    0  501  0.00000000000E+00  0.00000000000E+00 -0.67617242003E+03  0.67617242003E+03  0.25500000920E-02 0.  1.
    10030    2    1    2    0    0  0.00000000000E+00  0.00000000000E+00  0.64756196156E+03  0.19999068016E+04  0.18921656167E+04 0.  0.
        2    1    3    3  502    0  0.27433127431E+03  0.37959399900E+03  0.11926115628E+04  0.12812773283E+04  0.25500000920E-02 0. -1.
       -2    1    3    3    0  502 -0.27433127431E+03 -0.37959399900E+03 -0.54504960126E+03  0.71862947336E+03  0.25500000920E-02 0.  1.
</event>
<event>
 5   0  0.6452182E-05  0.1897700E+04  0.7818609E-02  0.8656002E-01
        2   -1    0    0  501    0  0.00000000000E+00  0.00000000000E+00  0.13382514547E+04  0.13382514547E+04  0.25500000920E-02 0. -1.
       -2   -1    0    0    0  501  0.00000000000E+00  0.00000000000E+00 -0.67275592075E+03  0.67275592075E+03  0.25500000920E-02 0.  1.
    10030    2    1    2    0    0  0.00000000000E+00  0.00000000000E+00  0.66549553394E+03  0.20110073754E+04  0.18977002815E+04 0.  0.
        3    1    3    3  502    0  0.10864129074E+03 -0.92772502676E+03  0.15593237649E+03  0.94699079804E+03  0.10100000352E+00 0. -1.
       -3    1    3    3    0  502 -0.10864129074E+03  0.92772502676E+03  0.50956315744E+03  0.10640165774E+04  0.10100000352E+00 0.  1.
</event>
<event>
 5   0  0.3203527E-05  0.1909926E+04  0.7818609E-02  0.8649931E-01
        1   -1    0    0  501    0  0.00000000000E+00  0.00000000000E+00  0.74469980556E+03  0.74469980557E+03  0.50400001928E-02 0.  1.
       -1   -1    0    0    0  501  0.00000000000E+00  0.00000000000E+00 -0.12245938038E+04  0.12245938038E+04  0.50400001928E-02 0. -1.
    10030    2    1    2    0    0  0.00000000000E+00  0.00000000000E+00 -0.47989399821E+03  0.19692936093E+04  0.19099264568E+04 0.  0.
        1    1    3    3  502    0 -0.87852994744E+03  0.23650954550E+03  0.59250496887E+02  0.91173584720E+03  0.50400001928E-02 0.  1.
       -1    1    3    3    0  502  0.87852994744E+03 -0.23650954550E+03 -0.53914449510E+03  0.10575577621E+04  0.50400001928E-02 0. -1.
</event>
<event>
 5   0  0.6452182E-05  0.1898779E+04  0.7818609E-02  0.8655464E-01
       -2   -1    0    0    0  501  0.00000000000E+00  0.00000000000E+00  0.13882146215E+04  0.13882146215E+04  0.25500000920E-02 0. -1.
        2   -1    0    0  501    0  0.00000000000E+00  0.00000000000E+00 -0.64928028701E+03  0.64928028701E+03  0.25500000920E-02 0.  1.
    10030    2    1    2    0    0  0.00000000000E+00  0.00000000000E+00  0.73893433448E+03  0.20374949085E+04  0.18987789633E+04 0.  0.
        3    1    3    3  502    0 -0.72644569179E+03 -0.52223410925E+03  0.28633016759E+02  0.89513779265E+03  0.10100000352E+00 0.  1.
       -3    1    3    3    0  502  0.72644569179E+03  0.52223410925E+03  0.71030131772E+03  0.11423571159E+04  0.10100000352E+00 0. -1.
</event>
<event>
 5   0  0.6098377E-05  0.1898701E+04  0.7818609E-02  0.8655503E-01
       -2   -1    0    0    0  501  0.00000000000E+00  0.00000000000E+00  0.43226330500E+03  0.43226330501E+03  0.25500000920E-02 0.  1.
        2   -1    0    0  501    0  0.00000000000E+00  0.00000000000E+00 -0.20849932641E+04  0.20849932642E+04  0.25500000920E-02 0. -1.
    10030    2    1    2    0    0  0.00000000000E+00  0.00000000000E+00 -0.16527299592E+04  0.25172565692E+04  0.18987006918E+04 0.  0.
        5    1    3    3  502    0  0.55235364704E+03  0.10548216099E+02  0.19718254352E+03  0.58660792846E+03  0.46999998093E+01 0.  1.
       -5    1    3    3    0  502 -0.55235364704E+03 -0.10548216099E+02 -0.18499125027E+04  0.19306486407E+04  0.46999998093E+01 0. -1.
</event>
<event>
 5   0  0.3203527E-05  0.1896586E+04  0.7818609E-02  0.8656557E-01
       -1   -1    0    0    0  501  0.00000000000E+00  0.00000000000E+00  0.73032984698E+03  0.73032984700E+03  0.50400001928E-02 0. -1.
        1   -1    0    0  501    0  0.00000000000E+00  0.00000000000E+00 -0.12313065985E+04  0.12313065985E+04  0.50400001928E-02 0.  1.
    10030    2    1    2    0    0  0.00000000000E+00  0.00000000000E+00 -0.50097675156E+03  0.19616364455E+04  0.18965863647E+04 0.  0.
        1    1    3    3  502    0  0.48765846085E+03 -0.65211817043E+03 -0.75315221170E+03  0.11091921099E+04  0.50400001928E-02 0.  1.
       -1    1    3    3    0  502 -0.48765846085E+03  0.65211817043E+03  0.25217546014E+03  0.85244433564E+03  0.50400001928E-02 0. -1.
</event>
<event>
 5   0  0.3086139E-05  0.1897212E+04  0.7818609E-02  0.8656246E-01
       -1   -1    0    0    0  501  0.00000000000E+00  0.00000000000E+00  0.76479058380E+03  0.76479058381E+03  0.50400001928E-02 0.  1.
        1   -1    0    0  501    0  0.00000000000E+00  0.00000000000E+00 -0.11766003986E+04  0.11766003986E+04  0.50400001928E-02 0. -1.
    10030    2    1    2    0    0  0.00000000000E+00  0.00000000000E+00 -0.41180981476E+03  0.19413909824E+04  0.18972115388E+04 0.  0.
        2    1    3    3  502    0  0.74274734677E+03  0.29769337091E+03  0.31542712624E+03  0.86011001400E+03  0.25500000920E-02 0.  1.
       -2    1    3    3    0  502 -0.74274734677E+03 -0.29769337091E+03 -0.72723694101E+03  0.10812809684E+04  0.25500000920E-02 0. -1.
</event>
<event>
 5   0  0.6395992E-05  0.1895435E+04  0.7818609E-02  0.8657132E-01
       -2   -1    0    0    0  501  0.00000000000E+00  0.00000000000E+00  0.34736395003E+03  0.34736395004E+03  0.25500000920E-02 0.  1.
        2   -1    0    0  501    0  0.00000000000E+00  0.00000000000E+00 -0.25856684756E+04  0.25856684756E+04  0.25500000920E-02 0. -1.
    10030    2    1    2    0    0  0.00000000000E+00  0.00000000000E+00 -0.22383045256E+04  0.29330324256E+04  0.18954345308E+04 0.  0.
        4    1    3    3  502    0  0.14167100857E+03  0.81484288466E+02  0.32539188016E+03  0.36413164173E+03  0.12699999809E+01 0.  1.
       -4    1    3    3    0  502 -0.14167100857E+03 -0.81484288466E+02 -0.25636964057E+04  0.25689007839E+04  0.12699999809E+01 0. -1.
</event>
<event>
 5   0  0.6395992E-05  0.1902882E+04  0.7818609E-02  0.8653423E-01
       -2   -1    0    0    0  501  0.00000000000E+00  0.00000000000E+00  0.88623758164E+03  0.88623758164E+03  0.25500000920E-02 0.  1.
        2   -1    0    0  501    0  0.00000000000E+00  0.00000000000E+00 -0.10214412758E+04  0.10214412758E+04  0.25500000920E-02 0. -1.
    10030    2    1    2    0    0  0.00000000000E+00  0.00000000000E+00 -0.13520369413E+03  0.19076788574E+04  0.19028816527E+04 0.  0.
        4    1    3    3  502    0 -0.42770183086E+03  0.23573205358E+03 -0.88620159202E+03  0.10118563790E+04  0.12699999809E+01 0. -1.
       -4    1    3    3    0  502  0.42770183086E+03 -0.23573205358E+03  0.75099789789E+03  0.89582247837E+03  0.12699999809E+01 0.  1.
</event>
<event>
 5   0  0.6423388E-05  0.1905510E+04  0.7818609E-02  0.8652118E-01
        2   -1    0    0  501    0  0.00000000000E+00  0.00000000000E+00  0.15892875306E+04  0.15892875306E+04  0.25500000920E-02 0. -1.
       -2   -1    0    0    0  501  0.00000000000E+00  0.00000000000E+00 -0.57116298247E+03  0.57116298247E+03  0.25500000920E-02 0.  1.
    10030    2    1    2    0    0  0.00000000000E+00  0.00000000000E+00  0.10181245481E+04  0.21604505131E+04  0.19055101217E+04 0.  0.
        2    1    3    3  502    0 -0.51964200734E+03  0.39195750944E+03  0.12979102091E+04  0.14519743165E+04  0.25500000920E-02 0. -1.
       -2    1    3    3    0  502  0.51964200734E+03 -0.39195750944E+03 -0.27978566095E+03  0.70847619655E+03  0.25500000920E-02 0.  1.
</event>
<event>
 5   0  0.6361762E-05  0.1926215E+04  0.7818609E-02  0.8641916E-01
       -2   -1    0    0    0  501  0.00000000000E+00  0.00000000000E+00  0.72809211553E+03  0.72809211553E+03  0.25500000920E-02 0.  1.
        2   -1    0    0  501    0  0.00000000000E+00  0.00000000000E+00 -0.12739820652E+04  0.12739820652E+04  0.25500000920E-02 0. -1.
    10030    2    1    2    0    0  0.00000000000E+00  0.00000000000E+00 -0.54588994965E+03  0.20020741807E+04  0.19262152496E+04 0.  0.
        1    1    3    3  502    0  0.69875920825E+03 -0.44370979024E+03  0.23882128854E+03  0.86149777537E+03  0.50400001928E-02 0.  1.
       -1    1    3    3    0  502 -0.69875920825E+03  0.44370979024E+03 -0.78471123819E+03  0.11405764054E+04  0.50400001928E-02 0. -1.
</event>
<event>
 5   0  0.6395992E-05  0.1935935E+04  0.7818609E-02  0.8637173E-01
        2   -1    0    0  501    0  0.00000000000E+00  0.00000000000E+00  0.20375237917E+04  0.20375237917E+04  0.25500000920E-02 0. -1.
       -2   -1    0    0    0  501  0.00000000000E+00  0.00000000000E+00 -0.45985285941E+03  0.45985285942E+03  0.25500000920E-02 0.  1.
    10030    2    1    2    0    0  0.00000000000E+00  0.00000000000E+00  0.15776709323E+04  0.24973766511E+04  0.19359350627E+04 0.  0.
        4    1    3    3  502    0  0.42603234360E+03 -0.43306905978E+03 -0.18331151905E+03  0.63455267255E+03  0.12699999809E+01 0.  1.
       -4    1    3    3    0  502 -0.42603234360E+03  0.43306905978E+03  0.17609824513E+04  0.18628239786E+04  0.12699999809E+01 0. -1.
</event>
<event>
 5   0  0.6098377E-05  0.1898813E+04  0.7818609E-02  0.8655447E-01
       -2   -1    0    0    0  501  0.00000000000E+00  0.00000000000E+00  0.88983703773E+03  0.88983703774E+03  0.25500000920E-02 0. -1.
        2   -1    0    0  501    0  0.00000000000E+00  0.00000000000E+00 -0.10129637044E+04  0.10129637044E+04  0.25500000920E-02 0.  1.
    10030    2    1    2    0    0  0.00000000000E+00  0.00000000000E+00 -0.12312666669E+03  0.19028007422E+04  0.18988129156E+04 0.  0.
        5    1    3    3  502    0 -0.32702694020E+03 -0.85340247682E+03 -0.31921832161E+03  0.96807274205E+03  0.46999998093E+01 0.  1.
       -5    1    3    3    0  502  0.32702694020E+03  0.85340247682E+03  0.19609165492E+03  0.93472800011E+03  0.46999998093E+01 0. -1.
</event>
<event>
 5   0  0.3083469E-05  0.1940944E+04  0.7818609E-02  0.8634740E-01
        1   -1    0    0  501    0  0.00000000000E+00  0.00000000000E+00  0.11759818621E+04  0.11759818621E+04  0.50400001928E-02 0. -1.
       -1   -1    0    0    0  501  0.00000000000E+00  0.00000000000E+00 -0.80087626850E+03  0.80087626852E+03  0.50400001928E-02 0.  1.
    10030    2    1    2    0    0  0.00000000000E+00  0.00000000000E+00  0.37510559360E+03  0.19768581306E+04  0.19409440647E+04 0.  0.
        3    1    3    3  502    0 -0.28380892063E+03  0.61416447386E+03  0.89617828615E+03  0.11228895917E+04  0.10100000352E+00 0. -1.
       -3    1    3    3    0  502  0.28380892063E+03 -0.61416447386E+03 -0.52107269255E+03  0.85396853894E+03  0.10100000352E+00 0.  1.
</event>
<event>
 5   0  0.3083469E-05  0.1914325E+04  0.7818609E-02  0.8647759E-01
        1   -1    0    0  501    0  0.00000000000E+00  0.00000000000E+00  0.12820444851E+04  0.12820444851E+04  0.50400001928E-02 0. -1.
       -1   -1    0    0    0  501  0.00000000000E+00  0.00000000000E+00 -0.71460826007E+03  0.71460826008E+03  0.50400001928E-02 0.  1.
    10030    2    1    2    0    0  0.00000000000E+00  0.00000000000E+00  0.56743622502E+03  0.19966527452E+04  0.19143245063E+04 0.  0.
        3    1    3    3  502    0 -0.33881699659E+03 -0.17097986565E+03 -0.63278041435E+03  0.73786322216E+03  0.10100000352E+00 0.  1.
       -3    1    3    3    0  502  0.33881699659E+03  0.17097986565E+03  0.12002166394E+04  0.12587895230E+04  0.10100000352E+00 0. -1.
</event>
<event>
 5   0  0.3144958E-05  0.1914029E+04  0.7818609E-02  0.8647904E-01
        1   -1    0    0  501    0  0.00000000000E+00  0.00000000000E+00  0.20071707000E+04  0.20071707000E+04  0.50400001928E-02 0. -1.
       -1   -1    0    0    0  501  0.00000000000E+00  0.00000000000E+00 -0.45630260236E+03  0.45630260239E+03  0.50400001928E-02 0.  1.
    10030    2    1    2    0    0  0.00000000000E+00  0.00000000000E+00  0.15508680977E+04  0.24634733024E+04  0.19140294813E+04 0.  0.
        4    1    3    3  502    0  0.30001484475E+03  0.19363243139E+03  0.19182206944E+04  0.19511726399E+04  0.12699999809E+01 0. -1.
       -4    1    3    3    0  502 -0.30001484475E+03 -0.19363243139E+03 -0.36735259673E+03  0.51230066248E+03  0.12699999809E+01 0.  1.
</event>
<event>
 5   0  0.3203527E-05  0.1898570E+04  0.7818609E-02  0.8655569E-01
       -1   -1    0    0    0  501  0.00000000000E+00  0.00000000000E+00  0.65513030982E+03  0.65513030984E+03  0.50400001928E-02 0. -1.
        1   -1    0    0  501    0  0.00000000000E+00  0.00000000000E+00 -0.13755154447E+04  0.13755154448E+04  0.50400001928E-02 0.  1.
    10030    2    1    2    0    0  0.00000000000E+00  0.00000000000E+00 -0.72038513492E+03  0.20306457546E+04  0.18985698402E+04 0.  0.
        1    1    3    3  502    0  0.48053468986E+02 -0.41616467901E+03 -0.12712968805E+04  0.13385432135E+04  0.50400001928E-02 0.  1.
       -1    1    3    3    0  502 -0.48053468986E+02  0.41616467901E+03  0.55091174560E+03  0.69210254110E+03  0.50400001928E-02 0. -1.
</event>
<event>
 5   0  0.6361762E-05  0.1890539E+04  0.7818609E-02  0.8659580E-01
       -2   -1    0    0    0  501  0.00000000000E+00  0.00000000000E+00  0.96343379108E+03  0.96343379109E+03  0.25500000920E-02 0.  1.
        2   -1    0    0  501    0  0.00000000000E+00  0.00000000000E+00 -0.92744721959E+03  0.92744721959E+03  0.25500000920E-02 0. -1.
    10030    2    1    2    0    0  0.00000000000E+00  0.00000000000E+00  0.35986571491E+02  0.18908810107E+04  0.18905385379E+04 0.  0.
        1    1    3    3  502    0 -0.70373433372E+02 -0.36253778115E+03  0.88829338848E+03  0.96200374580E+03  0.50400001928E-02 0.  1.
       -1    1    3    3    0  502  0.70373433372E+02  0.36253778115E+03 -0.85230681699E+03  0.92887726488E+03  0.50400001928E-02 0. -1.
</event>
<event>
 5   0  0.6395992E-05  0.1905907E+04  0.7818609E-02  0.8651922E-01
        2   -1    0    0  501    0  0.00000000000E+00  0.00000000000E+00  0.38063761564E+03  0.38063761565E+03  0.25500000920E-02 0.  1.
       -2   -1    0    0    0  501  0.00000000000E+00  0.00000000000E+00 -0.23857869875E+04  0.23857869875E+04  0.25500000920E-02 0. -1.
    10030    2    1    2    0    0  0.00000000000E+00  0.00000000000E+00 -0.20051493718E+04  0.27664246031E+04  0.19059068921E+04 0.  0.
        4    1    3    3  502    0  0.35974070522E+03  0.69478079021E+03 -0.17922561826E+04  0.19555862442E+04  0.12699999809E+01 0. -1.
       -4    1    3    3    0  502 -0.35974070522E+03 -0.69478079021E+03 -0.21289318924E+03  0.81083835896E+03  0.12699999809E+01 0.  1.
</event>
<event>
 5   0  0.6423388E-05  0.1897115E+04  0.7818609E-02  0.8656294E-01
        2   -1    0    0  501    0  0.00000000000E+00  0.00000000000E+00  0.18693313202E+04  0.18693313202E+04  0.25500000920E-02 0. -1.
       -2   -1    0    0    0  501  0.00000000000E+00  0.00000000000E+00 -0.48132794083E+03  0.48132794083E+03  0.25500000920E-02 0.  1.
    10030    2    1    2    0    0  0.00000000000E+00  0.00000000000E+00  0.13880033794E+04  0.23506592611E+04  0.18971150678E+04 0.  0.
        2    1    3    3  502    0 -0.84156535090E+03  0.43076943144E+03  0.59828919258E+03  0.11188138812E+04  0.25500000920E-02 0. -1.
       -2    1    3    3    0  502  0.84156535090E+03 -0.43076943144E+03  0.78971418682E+03  0.12318453798E+04  0.25500000920E-02 0.  1.
</event>
<event>
 5   0  0.3147063E-05  0.1892834E+04  0.7818609E-02  0.8658431E-01
       -1   -1    0    0    0  501  0.00000000000E+00  0.00000000000E+00  0.17638558161E+04  0.17638558161E+04  0.50400001928E-02 0.  1.
        1   -1    0    0  501    0  0.00000000000E+00  0.00000000000E+00 -0.50781109269E+03  0.50781109272E+03  0.50400001928E-02 0. -1.
    10030    2    1    2    0    0  0.00000000000E+00  0.00000000000E+00  0.12560447234E+04  0.22716669088E+04  0.18928344347E+04 0.  0.
        5    1    3    3  502    0  0.90837769973E+03 -0.76085872388E+02  0.93339700634E+03  0.13046804846E+04  0.46999998093E+01 0.  1.
       -5    1    3    3    0  502 -0.90837769973E+03  0.76085872388E+02  0.32264771703E+03  0.96698642423E+03  0.46999998093E+01 0. -1.
</event>
<event>
 5   0  0.3083469E-05  0.1902197E+04  0.7818609E-02  0.8653763E-01
       -1   -1    0    0    0  501  0.00000000000E+00  0.00000000000E+00  0.14493621335E+04  0.14493621335E+04  0.50400001928E-02 0.  1.
        1   -1    0    0  501    0  0.00000000000E+00  0.00000000000E+00 -0.62412883992E+03  0.62412883994E+03  0.50400001928E-02 0. -1.
    10030    2    1    2    0    0  0.00000000000E+00  0.00000000000E+00  0.82523329358E+03  0.20734909735E+04  0.19021973684E+04 0.  0.
        3    1    3    3  502    0 -0.17500402965E+03 -0.80953088242E+03  0.92229189219E+03  0.12395922735E+04  0.10100000352E+00 0.  1.
       -3    1    3    3    0  502  0.17500402965E+03  0.80953088242E+03 -0.97058598607E+02  0.83389869993E+03  0.10100000352E+00 0. -1.
</event>
<event>
 5   0  0.6361762E-05  0.1905297E+04  0.7818609E-02  0.8652224E-01
       -2   -1    0    0    0  501  0.00000000000E+00  0.00000000000E+00  0.41188140434E+03  0.41188140435E+03  0.25500000920E-02 0. -1.
        2   -1    0    0  501    0  0.00000000000E+00  0.00000000000E+00 -0.22033998050E+04  0.22033998050E+04  0.25500000920E-02 0.  1.
    10030    2    1    2    0    0  0.00000000000E+00  0.00000000000E+00 -0.17915184006E+04  0.26152812093E+04  0.19052972534E+04 0.  0.
        1    1    3    3  502    0 -0.55470052330E+03 -0.16532336696E+03 -0.19343609657E+04  0.20191029770E+04  0.50400001928E-02 0.  1.
       -1    1    3    3    0  502  0.55470052330E+03  0.16532336696E+03  0.14284256508E+03  0.59617823227E+03  0.50400001928E-02 0. -1.
</event>
<event>
 5   0  0.3144958E-05  0.1895643E+04  0.7818609E-02  0.8657028E-01
        1   -1    0    0  501    0  0.00000000000E+00  0.00000000000E+00  0.13990794512E+04  0.13990794513E+04  0.50400001928E-02 0. -1.
       -1   -1    0    0    0  501  0.00000000000E+00  0.00000000000E+00 -0.64211194897E+03  0.64211194898E+03  0.50400001928E-02 0.  1.
    10030    2    1    2    0    0  0.00000000000E+00  0.00000000000E+00  0.75696750228E+03  0.20411914002E+04  0.18956430394E+04 0.  0.
        4    1    3    3  502    0  0.69177575663E+03 -0.93612886915E+02 -0.31187190048E+03  0.76458012351E+03  0.12699999809E+01 0.  1.
       -4    1    3    3    0  502 -0.69177575663E+03  0.93612886915E+02  0.10688394028E+04  0.12766112767E+04  0.12699999809E+01 0. -1.
</event>
<event>
 5   0  0.3083469E-05  0.1900394E+04  0.7818609E-02  0.8654660E-01
        1   -1    0    0  501    0  0.00000000000E+00  0.00000000000E+00  0.11099987290E+04  0.11099987290E+04  0.50400001928E-02 0. -1.
       -1   -1    0    0    0  501  0.00000000000E+00  0.00000000000E+00 -0.81340127035E+03  0.81340127037E+03  0.50400001928E-02 0.  1.
    10030    2    1    2    0    0  0.00000000000E+00  0.00000000000E+00  0.29659745864E+03  0.19233999994E+04  0.19003940394E+04 0.  0.
        3    1    3    3  502    0 -0.56123865489E+03  0.38215340527E+03  0.82105938759E+03  0.10654429037E+04  0.10100000352E+00 0. -1.
       -3    1    3    3    0  502  0.56123865489E+03 -0.38215340527E+03 -0.52446192894E+03  0.85795709567E+03  0.10100000352E+00 0.  1.
</event>
<event>
 5   0  0.3203527E-05  0.1901288E+04  0.7818609E-02  0.8654215E-01
        1   -1    0    0  501    0  0.00000000000E+00  0.00000000000E+00  0.67809499295E+03  0.67809499297E+03  0.50400001928E-02 0. -1.
       -1   -1    0    0    0  501  0.00000000000E+00  0.00000000000E+00 -0.13327397352E+04  0.13327397352E+04  0.50400001928E-02 0.  1.
    10030    2    1    2    0    0  0.00000000000E+00  0.00000000000E+00 -0.65464474224E+03  0.20108347282E+04  0.19012881332E+04 0.  0.
        1    1    3    3  502    0  0.48398622714E+03  0.80940268376E+03 -0.20063428986E+03  0.96417295691E+03  0.50400001928E-02 0. -1.
       -1    1    3    3    0  502 -0.48398622714E+03 -0.80940268376E+03 -0.45401045238E+03  0.10466617713E+04  0.50400001928E-02 0.  1.
</event>
<event>
 5   0  0.3147063E-05  0.1901606E+04  0.7818609E-02  0.8654058E-01
        1   -1    0    0  501    0  0.00000000000E+00  0.00000000000E+00  0.65166157587E+03  0.65166157589E+03  0.50400001928E-02 0.  1.
       -1   -1    0    0    0  501  0.00000000000E+00  0.00000000000E+00 -0.13872628582E+04  0.13872628582E+04  0.50400001928E-02 0. -1.
    10030    2    1    2    0    0  0.00000000000E+00  0.00000000000E+00 -0.73560128229E+03  0.20389244341E+04  0.19016055325E+04 0.  0.
        5    1    3    3  502    0 -0.66642494121E+03 -0.64627090887E+03 -0.14749948732E+03  0.93998216934E+03  0.46999998093E+01 0. -1.
       -5    1    3    3    0  502  0.66642494121E+03  0.64627090887E+03 -0.58810179497E+03  0.10989422647E+04  0.46999998093E+01 0.  1.
</event>
<event>
 5   0  0.3083469E-05  0.1888484E+04  0.7818609E-02  0.8660610E-01
        1   -1    0    0  501    0  0.00000000000E+00  0.00000000000E+00  0.89947521465E+03  0.89947521467E+03  0.50400001928E-02 0. -1.
       -1   -1    0    0    0  501  0.00000000000E+00  0.00000000000E+00 -0.99123729479E+03  0.99123729481E+03  0.50400001928E-02 0.  1.
    10030    2    1    2    0    0  0.00000000000E+00  0.00000000000E+00 -0.91762080138E+02  0.18907125095E+04  0.18884844490E+04 0.  0.
        3    1    3    3  502    0  0.70645836263E+03  0.45141872768E+03 -0.48082549672E+03  0.96646544394E+03  0.10100000352E+00 0.  1.
       -3    1    3    3    0  502 -0.70645836263E+03 -0.45141872768E+03  0.38906341658E+03  0.92424706554E+03  0.10100000352E+00 0. -1.
</event>
<event>
 5   0  0.6395992E-05  0.1898961E+04  0.7818609E-02  0.8655374E-01
       -2   -1    0    0    0  501  0.00000000000E+00  0.00000000000E+00  0.71392544858E+03  0.71392544859E+03  0.25500000920E-02 0. -1.
        2   -1    0    0  501    0  0.00000000000E+00  0.00000000000E+00 -0.12627548994E+04  0.12627548994E+04  0.25500000920E-02 0.  1.
    10030    2    1    2    0    0  0.00000000000E+00  0.00000000000E+00 -0.54882945081E+03  0.19766803480E+04  0.18989606189E+04 0.  0.
        4    1    3    3  502    0 -0.27539783097E+03  0.85010316170E+03  0.59643376539E+02  0.89558824027E+03  0.12699999809E+01 0. -1.
       -4    1    3    3    0  502  0.27539783097E+03 -0.85010316170E+03 -0.60847282735E+03  0.10810921077E+04  0.12699999809E+01 0.  1.
</event>
<event>
 5   0  0.6361762E-05  0.1895512E+04  0.7818609E-02  0.8657093E-01
       -2   -1    0    0    0  501  0.00000000000E+00  0.00000000000E+00  0.67982447143E+03  0.67982447144E+03  0.25500000920E-02 0. -1.
        2   -1    0    0  501    0  0.00000000000E+00  0.00000000000E+00 -0.13212849255E+04  0.13212849255E+04  0.25500000920E-02 0.  1.
    10030    2    1    2    0    0  0.00000000000E+00  0.00000000000E+00 -0.64146045407E+03  0.20011093969E+04  0.18955124121E+04 0.  0.
        1    1    3    3  502    0 -0.57796574444E+03  0.49926813535E+03 -0.91317838809E+03  0.11904653885E+04  0.50400001928E-02 0.  1.
       -1    1    3    3    0  502  0.57796574444E+03 -0.49926813535E+03  0.27171793402E+03  0.81064400844E+03  0.50400001928E-02 0. -1.
</event>
<event>
 5   0  0.3144958E-05  0.1918845E+04  0.7818609E-02  0.8645533E-01
       -1   -1    0    0    0  501  0.00000000000E+00  0.00000000000E+00  0.58258445906E+03  0.58258445908E+03  0.50400001928E-02 0. -1.
        1   -1    0    0  501    0  0.00000000000E+00  0.00000000000E+00 -0.15800131291E+04  0.15800131291E+04  0.50400001928E-02 0.  1.
    10030    2    1    2    0    0  0.00000000000E+00  0.00000000000E+00 -0.99742867001E+03  0.21625975882E+04  0.19188445421E+04 0.  0.
        4    1    3    3  502    0  0.53153439417E+03  0.19765170230E+03  0.37347561063E+03  0.67902919837E+03  0.12699999809E+01 0. -1.
       -4    1    3    3    0  502 -0.53153439417E+03 -0.19765170230E+03 -0.13709042806E+04  0.14835683898E+04  0.12699999809E+01 0.  1.
</event>
<event>
 5   0  0.6098377E-05  0.1899739E+04  0.7818609E-02  0.8654987E-01
        2   -1    0    0  501    0  0.00000000000E+00  0.00000000000E+00  0.14183097295E+04  0.14183097295E+04  0.25500000920E-02 0.  1.
       -2   -1    0    0    0  501  0.00000000000E+00  0.00000000000E+00 -0.63614571732E+03  0.63614571732E+03  0.25500000920E-02 0. -1.
    10030    2    1    2    0    0  0.00000000000E+00  0.00000000000E+00  0.78216401218E+03  0.20544554468E+04  0.18997385718E+04 0.  0.
        5    1    3    3  502    0 -0.47935539366E+03  0.20904120016E+03  0.12485971545E+04  0.13536974407E+04  0.46999998093E+01 0.  1.
       -5    1    3    3    0  502  0.47935539366E+03 -0.20904120016E+03 -0.46643314235E+03  0.70075800607E+03  0.46999998093E+01 0. -1.
</event>
<event>
 5   0  0.3144958E-05  0.1900404E+04  0.7818609E-02  0.8654656E-01
       -1   -1    0    0    0  501  0.00000000000E+00  0.00000000000E+00  0.58540137186E+03  0.58540137188E+03  0.50400001928E-02 0.  1.
        1   -1    0    0  501    0  0.00000000000E+00  0.00000000000E+00 -0.15423322128E+04  0.15423322128E+04  0.50400001928E-02 0. -1.
    10030    2    1    2    0    0  0.00000000000E+00  0.00000000000E+00 -0.95693084093E+03  0.21277335847E+04  0.19004035290E+04 0.  0.
        4    1    3    3  502    0  0.18290771770E+03  0.41547795638E+03 -0.14130679015E+04  0.14841966422E+04  0.12699999809E+01 0. -1.
       -4    1    3    3    0  502 -0.18290771770E+03 -0.41547795638E+03  0.45613706059E+03  0.64353694251E+03  0.12699999809E+01 0.  1.
</event>
<event>
 5   0  0.3203527E-05  0.1890741E+04  0.7818609E-02  0.8659479E-01
        1   -1    0    0  501    0  0.00000000000E+00  0.00000000000E+00  0.77546600816E+03  0.77546600818E+03  0.50400001928E-02 0. -1.
       -1   -1    0    0    0  501  0.00000000000E+00  0.00000000000E+00 -0.11525009794E+04  0.11525009794E+04  0.50400001928E-02 0.  1.
    10030    2    1    2    0    0  0.00000000000E+00  0.00000000000E+00 -0.37703497123E+03  0.19279669876E+04  0.18907409489E+04 0.  0.
        1    1    3    3  502    0 -0.92630182611E+03 -0.12116992740E+03 -0.40722040514E+02  0.93508048261E+03  0.50400001928E-02 0. -1.
       -1    1    3    3    0  502  0.92630182611E+03  0.12116992740E+03 -0.33631293071E+03  0.99288650497E+03  0.50400001928E-02 0.  1.
</event>
<event>
 5   0  0.3203527E-05  0.1902855E+04  0.7818609E-02  0.8653436E-01
       -1   -1    0    0    0  501  0.00000000000E+00  0.00000000000E+00  0.60166318545E+03  0.60166318547E+03  0.50400001928E-02 0.  1.
        1   -1    0    0  501    0  0.00000000000E+00  0.00000000000E+00 -0.15045206413E+04  0.15045206413E+04  0.50400001928E-02 0. -1.
    10030    2    1    2    0    0  0.00000000000E+00  0.00000000000E+00 -0.90285745588E+03  0.21061838268E+04  0.19028554140E+04 0.  0.
        1    1    3    3  502    0 -0.62746089465E+03 -0.42224531568E+03  0.18750184218E+03  0.77920165668E+03  0.50400001928E-02 0.  1.
       -1    1    3    3    0  502  0.62746089465E+03  0.42224531568E+03 -0.10903592981E+04  0.13269821701E+04  0.50400001928E-02 0. -1.
</event>
<event>
 5   0  0.3083469E-05  0.1900890E+04  0.7818609E-02  0.8654414E-01
       -1   -1    0    0    0  501  0.00000000000E+00  0.00000000000E+00  0.90142513010E+03  0.90142513011E+03  0.50400001928E-02 0.  1.
        1   -1    0    0  501    0  0.00000000000E+00  0.00000000000E+00 -0.10021304414E+04  0.10021304414E+04  0.50400001928E-02 0. -1.
    10030    2    1    2    0    0  0.00000000000E+00  0.00000000000E+00 -0.10070531132E+03  0.19035555715E+04  0.19008898585E+04 0.  0.
        3    1    3    3  502    0 -0.73511216400E+03 -0.69527543388E+02  0.54891915940E+03  0.92007403328E+03  0.10100000352E+00 0.  1.
       -3    1    3    3    0  502  0.73511216400E+03  0.69527543388E+02 -0.64962447071E+03  0.98348153826E+03  0.10100000352E+00 0. -1.
</event>
<event>
 5   0  0.6098377E-05  0.1913535E+04  0.7818609E-02  0.8648148E-01
       -2   -1    0    0    0  501  0.00000000000E+00  0.00000000000E+00  0.12820211820E+04  0.12820211820E+04  0.25500000920E-02 0.  1.
        2   -1    0    0  501    0  0.00000000000E+00  0.00000000000E+00 -0.71403213484E+03  0.71403213485E+03  0.25500000920E-02 0. -1.
    10030    2    1    2    0    0  0.00000000000E+00  0.00000000000E+00  0.56798904717E+03  0.19960533169E+04  0.19135352848E+04 0.  0.
        5    1    3    3  502    0  0.54537925657E+02 -0.37120315696E+03 -0.63408206310E+03  0.73678241145E+03  0.46999998093E+01 0. -1.
       -5    1    3    3    0  502 -0.54537925657E+02  0.37120315696E+03  0.12020711103E+04  0.12592709054E+04  0.46999998093E+01 0.  1.
</event>
<event>
 5   0  0.6361762E-05  0.1902770E+04  0.7818609E-02  0.8653479E-01
        2   -1    0    0  501    0  0.00000000000E+00  0.00000000000E+00  0.12531196338E+04  0.12531196338E+04  0.25500000920E-02 0. -1.
       -2   -1    0    0    0  501  0.00000000000E+00  0.00000000000E+00 -0.72230430640E+03  0.72230430640E+03  0.25500000920E-02 0.  1.
    10030    2    1    2    0    0  0.00000000000E+00  0.00000000000E+00  0.53081532737E+03  0.19754239402E+04  0.19027703045E+04 0.  0.
        1    1    3    3  502    0  0.29062972654E+03  0.71955018117E+03 -0.30598514788E+03  0.83417325054E+03  0.50400001928E-02 0.  1.
       -1    1    3    3    0  502 -0.29062972654E+03 -0.71955018117E+03  0.83680047525E+03  0.11412506896E+04  0.50400001928E-02 0. -1.
</event>
<event>
 5   0  0.3144958E-05  0.1903171E+04  0.7818609E-02  0.8653280E-01
        1   -1    0    0  501    0  0.00000000000E+00  0.00000000000E+00  0.12337596209E+04  0.12337596209E+04  0.50400001928E-02 0.  1.
       -1   -1    0    0    0  501  0.00000000000E+00  0.00000000000E+00 -0.73394753333E+03  0.73394753335E+03  0.50400001928E-02 0. -1.
    10030    2    1    2    0    0  0.00000000000E+00  0.00000000000E+00  0.49981208754E+03  0.19677071542E+04  0.19031708599E+04 0.  0.
        4    1    3    3  502    0  0.27843675950E+03 -0.36138300356E+03 -0.61350993193E+03  0.76453956979E+03  0.12699999809E+01 0. -1.
       -4    1    3    3    0  502 -0.27843675950E+03  0.36138300356E+03  0.11133220195E+04  0.12031675844E+04  0.12699999809E+01 0.  1.
</event>
<event>
 5   0  0.3083469E-05  0.1901777E+04  0.7818609E-02  0.8653972E-01
        1   -1    0    0  501    0  0.00000000000E+00  0.00000000000E+00  0.88195556092E+03  0.88195556094E+03  0.50400001928E-02 0.  1.
       -1   -1    0    0    0  501  0.00000000000E+00  0.00000000000E+00 -0.10252093450E+04  0.10252093450E+04  0.50400001928E-02 0. -1.
    10030    2    1    2    0    0  0.00000000000E+00  0.00000000000E+00 -0.14325378403E+03  0.19071649059E+04  0.19017771509E+04 0.  0.
        3    1    3    3  502    0  0.76087169966E+03 -0.56643247771E+03 -0.13828004738E+03  0.95858900309E+03  0.10100000352E+00 0. -1.
       -3    1    3    3    0  502 -0.76087169966E+03  0.56643247771E+03 -0.49737366529E+01  0.94857590282E+03  0.10100000352E+00 0.  1.
</event>
<event>
 5   0  0.6098377E-05  0.1887330E+04  0.7818609E-02  0.8661189E-01
       -2   -1    0    0    0  501  0.00000000000E+00  0.00000000000E+00  0.78440036123E+03  0.78440036124E+03  0.25500000920E-02 0. -1.
        2   -1    0    0  501    0  0.00000000000E+00  0.00000000000E+00 -0.11352670599E+04  0.11352670599E+04  0.25500000920E-02 0.  1.
    10030    2    1    2    0    0  0.00000000000E+00  0.00000000000E+00 -0.35086669865E+03  0.19196674211E+04  0.18873302752E+04 0.  0.
        5    1    3    3  502    0  0.20007905100E+03  0.74445524348E+03  0.37816835697E+03  0.85864930700E+03  0.46999998093E+01 0. -1.
       -5    1    3    3    0  502 -0.20007905100E+03 -0.74445524348E+03 -0.72903505562E+03  0.10610181141E+04  0.46999998093E+01 0.  1.
</event>
<event>
 5   0  0.3083469E-05  0.1904899E+04  0.7818609E-02  0.8652421E-01
       -1   -1    0    0    0  501  0.00000000000E+00  0.00000000000E+00  0.80431027279E+03  0.80431027281E+03  0.50400001928E-02 0.  1.
        1   -1    0    0  501    0  0.00000000000E+00  0.00000000000E+00 -0.11278738445E+04  0.11278738445E+04  0.50400001928E-02 0. -1.
    10030    2    1    2    0    0  0.00000000000E+00  0.00000000000E+00 -0.32356357168E+03  0.19321841173E+04  0.19048994929E+04 0.  0.
        3    1    3    3  502    0  0.62217990253E+03  0.27657434526E+03  0.51376011441E+03  0.85296580525E+03  0.10100000352E+00 0.  1.
       -3    1    3    3    0  502 -0.62217990253E+03 -0.27657434526E+03 -0.83732368609E+03  0.10792183120E+04  0.10100000352E+00 0. -1.
</event>
<event>
 5   0  0.3083469E-05  0.1904286E+04  0.7818609E-02  0.8652726E-01
        1   -1    0    0  501    0  0.00000000000E+00  0.00000000000E+00  0.14463164647E+04  0.14463164647E+04  0.50400001928E-02 0. -1.
       -1   -1    0    0    0  501  0.00000000000E+00  0.00000000000E+00 -0.62681754928E+03  0.62681754930E+03  0.50400001928E-02 0.  1.
    10030    2    1    2    0    0  0.00000000000E+00  0.00000000000E+00  0.81949891541E+03  0.20731340140E+04  0.19042862620E+04 0.  0.
        3    1    3    3  502    0 -0.39156299984E+03  0.86210121741E+03  0.30068456278E+03  0.99345423065E+03  0.10100000352E+00 0.  1.
       -3    1    3    3    0  502  0.39156299984E+03 -0.86210121741E+03  0.51881435263E+03  0.10796797834E+04  0.10100000352E+00 0. -1.
</event>
<event>
 5   0  0.6395992E-05  0.1911269E+04  0.7818609E-02  0.8649267E-01
       -2   -1    0    0    0  501  0.00000000000E+00  0.00000000000E+00  0.98756504114E+03  0.98756504114E+03  0.25500000920E-02 0.  1.
        2   -1    0    0  501    0  0.00000000000E+00  0.00000000000E+00 -0.92473612812E+03  0.92473612812E+03  0.25500000920E-02 0. -1.
    10030    2    1    2    0    0  0.00000000000E+00  0.00000000000E+00  0.62828913019E+02  0.19123011693E+04  0.19112687644E+04 0.  0.
        4    1    3    3  502    0 -0.41400572130E+03  0.34833120661E+03 -0.75672932575E+03  0.93025601429E+03  0.12699999809E+01 0. -1.
       -4    1    3    3    0  502  0.41400572130E+03 -0.34833120661E+03  0.81955823877E+03  0.98204515497E+03  0.12699999809E+01 0.  1.
</event>
<event>
 5   0  0.6423388E-05  0.1902768E+04  0.7818609E-02  0.8653480E-01
       -2   -1    0    0    0  501  0.00000000000E+00  0.00000000000E+00  0.63365379501E+03  0.63365379502E+03  0.25500000920E-02 0. -1.
        2   -1    0    0  501    0  0.00000000000E+00  0.00000000000E+00 -0.14284319099E+04  0.14284319099E+04  0.25500000920E-02 0.  1.
    10030    2    1    2    0    0  0.00000000000E+00  0.00000000000E+00 -0.79477811488E+03  0.20620857049E+04  0.19027677742E+04 0.  0.
        2    1    3    3  502    0 -0.17633181937E+03  0.79916241630E+03  0.12839049755E+03  0.82839459077E+03  0.25500000920E-02 0. -1.
       -2    1    3    3    0  502  0.17633181937E+03 -0.79916241630E+03 -0.92316861243E+03  0.12336911141E+04  0.25500000920E-02 0.  1.
</event>
<event>
 5   0  0.3086139E-05  0.1901570E+04  0.7818609E-02  0.8654075E-01
        1   -1    0    0  501    0  0.00000000000E+00  0.00000000000E+00  0.13032293250E+04  0.13032293250E+04  0.50400001928E-02 0. -1.
       -1   -1    0    0    0  501  0.00000000000E+00  0.00000000000E+00 -0.69365531977E+03  0.69365531979E+03  0.50400001928E-02 0.  1.
    10030    2    1    2    0    0  0.00000000000E+00  0.00000000000E+00  0.60957400521E+03  0.19968846448E+04  0.19015698296E+04 0.  0.
        2    1    3    3  502    0 -0.16054517534E+03  0.46500317694E+03  0.11591966953E+04  0.12592615639E+04  0.25500000920E-02 0. -1.
       -2    1    3    3    0  502  0.16054517534E+03 -0.46500317694E+03 -0.54962269013E+03  0.73762308085E+03  0.25500000920E-02 0.  1.
</event>
<event>
 5   0  0.6423388E-05  0.1899880E+04  0.7818609E-02  0.8654916E-01
       -2   -1    0    0    0  501  0.00000000000E+00  0.00000000000E+00  0.66302603241E+03  0.66302603241E+03  0.25500000920E-02 0. -1.
        2   -1    0    0  501    0  0.00000000000E+00  0.00000000000E+00 -0.13610115671E+04  0.13610115671E+04  0.25500000920E-02 0.  1.
    10030    2    1    2    0    0  0.00000000000E+00  0.00000000000E+00 -0.69798553469E+03  0.20240375995E+04  0.18998801008E+04 0.  0.
        2    1    3    3  502    0 -0.94871284612E+03 -0.48269800804E+02 -0.34925659684E+03  0.10121097809E+04  0.25500000920E-02 0. -1.
       -2    1    3    3    0  502  0.94871284612E+03  0.48269800804E+02 -0.34872893785E+03  0.10119278187E+04  0.25500000920E-02 0.  1.
</event>
<event>
 5   0  0.3086139E-05  0.1898361E+04  0.7818609E-02  0.8655673E-01
        1   -1    0    0  501    0  0.00000000000E+00  0.00000000000E+00  0.57615158370E+03  0.57615158373E+03  0.50400001928E-02 0. -1.
       -1   -1    0    0    0  501  0.00000000000E+00  0.00000000000E+00 -0.15637260162E+04  0.15637260162E+04  0.50400001928E-02 0.  1.
    10030    2    1    2    0    0  0.00000000000E+00  0.00000000000E+00 -0.98757443248E+03  0.21398775999E+04  0.18983605777E+04 0.  0.
        2    1    3    3  502    0 -0.41032517593E+02 -0.28327535500E+01 -0.15627210376E+04  0.15632622087E+04  0.25500000920E-02 0.  1.
       -2    1    3    3    0  502  0.41032517593E+02  0.28327535500E+01  0.57514660509E+03  0.57661539118E+03  0.25500000920E-02 0. -1.
</event>
<event>
 5   0  0.2279625E-05  0.1899056E+04  0.7818609E-02  0.8655326E-01
       -3   -1    0    0    0  501  0.00000000000E+00  0.00000000000E+00  0.11893778412E+04  0.11893778455E+04  0.10100000352E+00 0.  1.
        3   -1    0    0  501    0  0.00000000000E+00  0.00000000000E+00 -0.75804639451E+03  0.75804640124E+03  0.10100000352E+00 0. -1.
    10030    2    1    2    0    0  0.00000000000E+00  0.00000000000E+00  0.43133144672E+03  0.19474242468E+04  0.18990561814E+04 0.  0.
        5    1    3    3  502    0  0.45130736152E+03  0.38214294833E+03 -0.54613455749E+03  0.80498236776E+03  0.46999998093E+01 0. -1.
       -5    1    3    3    0  502 -0.45130736152E+03 -0.38214294833E+03  0.97746600420E+03  0.11424418790E+04  0.46999998093E+01 0.  1.
</event>
<event>
 5   0  0.3203527E-05  0.1895124E+04  0.7818609E-02  0.8657288E-01
       -1   -1    0    0    0  501  0.00000000000E+00  0.00000000000E+00  0.45136336569E+03  0.45136336571E+03  0.50400001928E-02 0. -1.
        1   -1    0    0  501    0  0.00000000000E+00  0.00000000000E+00 -0.19892471230E+04  0.19892471230E+04  0.50400001928E-02 0.  1.
    10030    2    1    2    0    0  0.00000000000E+00  0.00000000000E+00 -0.15378837573E+04  0.24406104887E+04  0.18951235070E+04 0.  0.
        1    1    3    3  502    0 -0.45383710472E+03  0.66178128504E+02 -0.18367799391E+04  0.18931741090E+04  0.50400001928E-02 0.  1.
       -1    1    3    3    0  502  0.45383710472E+03 -0.66178128504E+02  0.29889618179E+03  0.54743637971E+03  0.50400001928E-02 0. -1.
</event>
<event>
 5   0  0.6423388E-05  0.1900240E+04  0.7818609E-02  0.8654737E-01
        2   -1    0    0  501    0  0.00000000000E+00  0.00000000000E+00  0.19603103403E+04  0.19603103403E+04  0.25500000920E-02 0.  1.
       -2   -1    0    0    0  501  0.00000000000E+00  0.00000000000E+00 -0.46050246554E+03  0.46050246555E+03  0.25500000920E-02 0. -1.
    10030    2    1    2    0    0  0.00000000000E+00  0.00000000000E+00  0.14998078748E+04  0.24208128059E+04  0.19002397164E+04 0.  0.
        2    1    3    3  502    0  0.38404592613E+03 -0.62812074085E+03  0.15150183339E+04  0.16844309100E+04  0.25500000920E-02 0.  1.
       -2    1    3    3    0  502 -0.38404592613E+03  0.62812074085E+03 -0.15210459151E+02  0.73638189585E+03  0.25500000920E-02 0. -1.
</event>
<event>
 5   0  0.6395992E-05  0.1907428E+04  0.7818609E-02  0.8651168E-01
       -2   -1    0    0    0  501  0.00000000000E+00  0.00000000000E+00  0.93227362400E+03  0.93227362401E+03  0.25500000920E-02 0. -1.
        2   -1    0    0  501    0  0.00000000000E+00  0.00000000000E+00 -0.97564755705E+03  0.97564755705E+03  0.25500000920E-02 0.  1.
    10030    2    1    2    0    0  0.00000000000E+00  0.00000000000E+00 -0.43373933042E+02  0.19079211811E+04  0.19074280943E+04 0.  0.
        4    1    3    3  502    0 -0.24357646340E+03  0.76256291400E+03  0.49684571257E+03  0.94217247164E+03  0.12699999809E+01 0. -1.
       -4    1    3    3    0  502  0.24357646340E+03 -0.76256291400E+03 -0.54021964561E+03  0.96574870941E+03  0.12699999809E+01 0.  1.
</event>
<event>
 5   0  0.6361762E-05  0.1897075E+04  0.7818609E-02  0.8656314E-01
       -2   -1    0    0    0  501  0.00000000000E+00  0.00000000000E+00  0.58220812494E+03  0.58220812494E+03  0.25500000920E-02 0. -1.
        2   -1    0    0  501    0  0.00000000000E+00  0.00000000000E+00 -0.15453632725E+04  0.15453632725E+04  0.25500000920E-02 0.  1.
    10030    2    1    2    0    0  0.00000000000E+00  0.00000000000E+00 -0.96315514753E+03  0.21275713974E+04  0.18970746461E+04 0.  0.
        1    1    3    3  502    0  0.49053567938E+02 -0.81976439871E+03  0.50755362011E+02  0.82279768396E+03  0.50400001928E-02 0. -1.
       -1    1    3    3    0  502 -0.49053567938E+02  0.81976439871E+03 -0.10139105095E+04  0.13047737134E+04  0.50400001928E-02 0.  1.
</event>
<event>
 5   0  0.6361762E-05  0.1892111E+04  0.7818609E-02  0.8658793E-01
       -2   -1    0    0    0  501  0.00000000000E+00  0.00000000000E+00  0.11083285851E+04  0.11083285851E+04  0.25500000920E-02 0. -1.
        2   -1    0    0  501    0  0.00000000000E+00  0.00000000000E+00 -0.80754131793E+03  0.80754131794E+03  0.25500000920E-02 0.  1.
    10030    2    1    2    0    0  0.00000000000E+00  0.00000000000E+00  0.30078726718E+03  0.19158699030E+04  0.18921111239E+04 0.  0.
        1    1    3    3  502    0  0.66254717429E+03 -0.36450952646E+03  0.72602584757E+03  0.10483079149E+04  0.50400001928E-02 0. -1.
       -1    1    3    3    0  502 -0.66254717429E+03  0.36450952646E+03 -0.42523858039E+03  0.86756198817E+03  0.50400001928E-02 0.  1.
</event>
<event>
 5   0  0.3086139E-05  0.1895398E+04  0.7818609E-02  0.8657151E-01
       -1   -1    0    0    0  501  0.00000000000E+00  0.00000000000E+00  0.55204555674E+03  0.55204555677E+03  0.50400001928E-02 0.  1.
        1   -1    0    0  501    0  0.00000000000E+00  0.00000000000E+00 -0.16269185238E+04  0.16269185238E+04  0.50400001928E-02 0. -1.
    10030    2    1    2    0    0  0.00000000000E+00  0.00000000000E+00 -0.10748729671E+04  0.21789640806E+04  0.18953977338E+04 0.  0.
        2    1    3    3  502    0  0.68054691256E+03 -0.27716776191E+03  0.15057001999E+03  0.75009159398E+03  0.25500000920E-02 0.  1.
       -2    1    3    3    0  502 -0.68054691256E+03  0.27716776191E+03 -0.12254429871E+04  0.14288724866E+04  0.25500000920E-02 0. -1.
</event>
<event>
 5   0  0.2279625E-05  0.1900978E+04  0.7818609E-02  0.8654370E-01
       -4   -1    0    0    0  501  0.00000000000E+00  0.00000000000E+00  0.79045459103E+03  0.79045561127E+03  0.12699999809E+01 0.  1.
        4   -1    0    0  501    0  0.00000000000E+00  0.00000000000E+00 -0.11429216667E+04  0.11429223723E+04  0.12699999809E+01 0. -1.
    10030    2    1    2    0    0  0.00000000000E+00  0.00000000000E+00 -0.35246707565E+03  0.19333779836E+04  0.19009780083E+04 0.  0.
        5    1    3    3  502    0  0.33744185013E+03  0.58735245696E+03 -0.85434888204E+03  0.10903137224E+04  0.46999998093E+01 0. -1.
       -5    1    3    3    0  502 -0.33744185013E+03 -0.58735245696E+03  0.50188180640E+03  0.84306426120E+03  0.46999998093E+01 0.  1.
</event>
<event>
 5   0  0.6361762E-05  0.1904787E+04  0.7818609E-02  0.8652477E-01
       -2   -1    0    0    0  501  0.00000000000E+00  0.00000000000E+00  0.47149370675E+03  0.47149370676E+03  0.25500000920E-02 0.  1.
        2   -1    0    0  501    0  0.00000000000E+00  0.00000000000E+00 -0.19237875912E+04  0.19237875912E+04  0.25500000920E-02 0. -1.
    10030    2    1    2    0    0  0.00000000000E+00  0.00000000000E+00 -0.14522938845E+04  0.23952812980E+04  0.19047873817E+04 0.  0.
        1    1    3    3  502    0  0.68284489731E+03  0.59108223716E+03 -0.34597570053E+03  0.96713729648E+03  0.50400001928E-02 0.  1.
       -1    1    3    3    0  502 -0.68284489731E+03 -0.59108223716E+03 -0.11063181840E+04  0.14281440015E+04  0.50400001928E-02 0. -1.
</event>
<event>
 5   0  0.6098377E-05  0.1903025E+04  0.7818609E-02  0.8653352E-01
        2   -1    0    0  501    0  0.00000000000E+00  0.00000000000E+00  0.14800013517E+04  0.14800013517E+04  0.25500000920E-02 0.  1.
       -2   -1    0    0    0  501  0.00000000000E+00  0.00000000000E+00 -0.61174003739E+03  0.61174003740E+03  0.25500000920E-02 0. -1.
    10030    2    1    2    0    0  0.00000000000E+00  0.00000000000E+00  0.86826131435E+03  0.20917413891E+04  0.19030250469E+04 0.  0.
        5    1    3    3  502    0 -0.43536136812E+03  0.18427383328E+03 -0.47350246564E+03  0.66912109625E+03  0.46999998093E+01 0. -1.
       -5    1    3    3    0  502  0.43536136812E+03 -0.18427383328E+03  0.13417637800E+04  0.14226202929E+04  0.46999998093E+01 0.  1.
</event>
<event>
 5   0  0.6395992E-05  0.1893821E+04  0.7818609E-02  0.8657938E-01
        2   -1    0    0  501    0  0.00000000000E+00  0.00000000000E+00  0.12522169914E+04  0.12522169914E+04  0.25500000920E-02 0.  1.
       -2   -1    0    0    0  501  0.00000000000E+00  0.00000000000E+00 -0.71604131264E+03  0.71604131265E+03  0.25500000920E-02 0. -1.
    10030    2    1    2    0    0  0.00000000000E+00  0.00000000000E+00  0.53617567874E+03  0.19682583040E+04  0.18938205810E+04 0.  0.
        4    1    3    3  502    0 -0.65322664652E+03 -0.50181162543E+03 -0.21729960954E+03  0.85190415678E+03  0.12699999809E+01 0. -1.
       -4    1    3    3    0  502  0.65322664652E+03  0.50181162543E+03  0.75347528828E+03  0.11163541473E+04  0.12699999809E+01 0.  1.
</event>
<event>
 5   0  0.3203527E-05  0.1901543E+04  0.7818609E-02  0.8654089E-01
        1   -1    0    0  501    0  0.00000000000E+00  0.00000000000E+00  0.11404055809E+04  0.11404055809E+04  0.50400001928E-02 0. -1.
       -1   -1    0    0    0  501  0.00000000000E+00  0.00000000000E+00 -0.79267069652E+03  0.79267069654E+03  0.50400001928E-02 0.  1.
    10030    2    1    2    0    0  0.00000000000E+00  0.00000000000E+00  0.34773488437E+03  0.19330762774E+04  0.19015426224E+04 0.  0.
        1    1    3    3  502    0 -0.18020868246E+03  0.43917756720E+03  0.10113086520E+04  0.11171827489E+04  0.50400001928E-02 0. -1.
       -1    1    3    3    0  502  0.18020868246E+03 -0.43917756720E+03 -0.66357376766E+03  0.81589352854E+03  0.50400001928E-02 0.  1.
</event>
<event>
 5   0  0.6452182E-05  0.1903704E+04  0.7818609E-02  0.8653015E-01
       -2   -1    0    0    0  501  0.00000000000E+00  0.00000000000E+00  0.74800670839E+03  0.74800670840E+03  0.25500000920E-02 0. -1.
        2   -1    0    0  501    0  0.00000000000E+00  0.00000000000E+00 -0.12112483606E+04  0.12112483606E+04  0.25500000920E-02 0.  1.
    10030    2    1    2    0    0  0.00000000000E+00  0.00000000000E+00 -0.46324165224E+03  0.19592550690E+04  0.19037036527E+04 0.  0.
        3    1    3    3  502    0 -0.80917987180E+03  0.50029058348E+02 -0.74491991061E+03  0.11009907606E+04  0.10100000352E+00 0. -1.
       -3    1    3    3    0  502  0.80917987180E+03 -0.50029058348E+02  0.28167825837E+03  0.85826430839E+03  0.10100000352E+00 0.  1.
</event>
<event>
 5   0  0.6361762E-05  0.1904471E+04  0.7818609E-02  0.8652634E-01
       -2   -1    0    0    0  501  0.00000000000E+00  0.00000000000E+00  0.61128827321E+03  0.61128827322E+03  0.25500000920E-02 0.  1.
        2   -1    0    0  501    0  0.00000000000E+00  0.00000000000E+00 -0.14833467364E+04  0.14833467364E+04  0.25500000920E-02 0. -1.
    10030    2    1    2    0    0  0.00000000000E+00  0.00000000000E+00 -0.87205846318E+03  0.20946350096E+04  0.19044710185E+04 0.  0.
        1    1    3    3  502    0 -0.38742488558E+03 -0.57824316182E+03 -0.11507542962E+04  0.13448786735E+04  0.50400001928E-02 0. -1.
       -1    1    3    3    0  502  0.38742488558E+03  0.57824316182E+03  0.27869583303E+03  0.74975633611E+03  0.50400001928E-02 0.  1.
</event>
<event>
 5   0  0.3144958E-05  0.1899060E+04  0.7818609E-02  0.8655325E-01
       -1   -1    0    0    0  501  0.00000000000E+00  0.00000000000E+00  0.50622742783E+03  0.50622742785E+03  0.50400001928E-02 0. -1.
        1   -1    0    0  501    0  0.00000000000E+00  0.00000000000E+00 -0.17810315244E+04  0.17810315245E+04  0.50400001928E-02 0.  1.
    10030    2    1    2    0    0  0.00000000000E+00  0.00000000000E+00 -0.12748040966E+04  0.22872589523E+04  0.18990597753E+04 0.  0.
        4    1    3    3  502    0 -0.14228295933E+03  0.67691331627E+03 -0.14208741256E+04  0.15802977479E+04  0.12699999809E+01 0.  1.
       -4    1    3    3    0  502  0.14228295933E+03 -0.67691331627E+03  0.14607002900E+03  0.70696120441E+03  0.12699999809E+01 0. -1.
</event>
<event>
 5   0  0.6452182E-05  0.1906523E+04  0.7818609E-02  0.8651616E-01
       -2   -1    0    0    0  501  0.00000000000E+00  0.00000000000E+00  0.52925749816E+03  0.52925749817E+03  0.25500000920E-02 0. -1.
        2   -1    0    0  501    0  0.00000000000E+00  0.00000000000E+00 -0.17169473216E+04  0.17169473216E+04  0.25500000920E-02 0.  1.
    10030    2    1    2    0    0  0.00000000000E+00  0.00000000000E+00 -0.11876898234E+04  0.22462048197E+04  0.19065227446E+04 0.  0.
        3    1    3    3  502    0 -0.38273477020E+03  0.86215711557E+03 -0.43184595589E+03  0.10374448111E+04  0.10100000352E+00 0. -1.
       -3    1    3    3    0  502  0.38273477020E+03 -0.86215711557E+03 -0.75584386752E+03  0.12087600086E+04  0.10100000352E+00 0.  1.
</event>
<event>
 5   0  0.6361762E-05  0.1895244E+04  0.7818609E-02  0.8657227E-01
        2   -1    0    0  501    0  0.00000000000E+00  0.00000000000E+00  0.32171586887E+03  0.32171586888E+03  0.25500000920E-02 0. -1.
       -2   -1    0    0    0  501  0.00000000000E+00  0.00000000000E+00 -0.27912437047E+04  0.27912437047E+04  0.25500000920E-02 0.  1.
    10030    2    1    2    0    0  0.00000000000E+00  0.00000000000E+00 -0.24695278358E+04  0.31129595736E+04  0.18952439354E+04 0.  0.
        1    1    3    3  502    0  0.65721542274E+03 -0.67827156021E+03 -0.13620238063E+04  0.16574357514E+04  0.50400001928E-02 0.  1.
       -1    1    3    3    0  502 -0.65721542274E+03  0.67827156021E+03 -0.11075040295E+04  0.14555238221E+04  0.50400001928E-02 0. -1.
</event>
<event>
 5   0  0.3086139E-05  0.1867230E+04  0.7818609E-02  0.8671342E-01
       -1   -1    0    0    0  501  0.00000000000E+00  0.00000000000E+00  0.39711514467E+03  0.39711514470E+03  0.50400001928E-02 0.  1.
        1   -1    0    0  501    0  0.00000000000E+00  0.00000000000E+00 -0.21949217445E+04  0.21949217445E+04  0.50400001928E-02 0. -1.
    10030    2    1    2    0    0  0.00000000000E+00  0.00000000000E+00 -0.17978065998E+04  0.25920368892E+04  0.18672296764E+04 0.  0.
        2    1    3    3  502    0 -0.14119759275E+03  0.62165034599E+03  0.47959336290E+02  0.63928554717E+03  0.25500000920E-02 0.  1.
       -2    1    3    3    0  502  0.14119759275E+03 -0.62165034599E+03 -0.18457659361E+04  0.19527513420E+04  0.25500000920E-02 0. -1.
</event>
<event>
 5   0  0.6098377E-05  0.1818945E+04  0.7818609E-02  0.8696289E-01
       -2   -1    0    0    0  501  0.00000000000E+00  0.00000000000E+00  0.63794123433E+03  0.63794123433E+03  0.25500000920E-02 0. -1.
        2   -1    0    0  501    0  0.00000000000E+00  0.00000000000E+00 -0.12965775289E+04  0.12965775289E+04  0.25500000920E-02 0.  1.
    10030    2    1    2    0    0  0.00000000000E+00  0.00000000000E+00 -0.65863629462E+03  0.19345187633E+04  0.18189450450E+04 0.  0.
        5    1    3    3  502    0  0.55896042058E+03 -0.71726552872E+03 -0.31384781435E+03  0.96199227182E+03  0.46999998093E+01 0.  1.
       -5    1    3    3    0  502 -0.55896042058E+03  0.71726552872E+03 -0.34478848027E+03  0.97252649146E+03  0.46999998093E+01 0. -1.
</event>
<event>
 5   0  0.3203527E-05  0.1899387E+04  0.7818609E-02  0.8655161E-01
        1   -1    0    0  501    0  0.00000000000E+00  0.00000000000E+00  0.95743833900E+03  0.95743833901E+03  0.50400001928E-02 0. -1.
       -1   -1    0    0    0  501  0.00000000000E+00  0.00000000000E+00 -0.94201172465E+03  0.94201172467E+03  0.50400001928E-02 0.  1.
    10030    2    1    2    0    0  0.00000000000E+00  0.00000000000E+00  0.15426614346E+02  0.18994500637E+04  0.18993874181E+04 0.  0.
        1    1    3    3  502    0  0.41250952587E+03  0.77998501143E+01 -0.84770557301E+03  0.94277764353E+03  0.50400001928E-02 0.  1.
       -1    1    3    3    0  502 -0.41250952587E+03 -0.77998501143E+01  0.86313218736E+03  0.95667242015E+03  0.50400001928E-02 0. -1.
</event>
<event>
 5   0  0.6361762E-05  0.1910811E+04  0.7818609E-02  0.8649494E-01
        2   -1    0    0  501    0  0.00000000000E+00  0.00000000000E+00  0.14205787351E+04  0.14205787351E+04  0.25500000920E-02 0. -1.
       -2   -1    0    0    0  501  0.00000000000E+00  0.00000000000E+00 -0.64255477621E+03  0.64255477621E+03  0.25500000920E-02 0.  1.
    10030    2    1    2    0    0  0.00000000000E+00  0.00000000000E+00  0.77802395886E+03  0.20631335113E+04  0.19108109809E+04 0.  0.
        1    1    3    3  502    0 -0.27132900967E+03 -0.31101017026E+03  0.13193570418E+04  0.13824072343E+04  0.50400001928E-02 0. -1.
       -1    1    3    3    0  502  0.27132900967E+03  0.31101017026E+03 -0.54133308296E+03  0.68072627702E+03  0.50400001928E-02 0.  1.
</event>
<event>
 5   0  0.6423388E-05  0.1895954E+04  0.7818609E-02  0.8656873E-01
       -2   -1    0    0    0  501  0.00000000000E+00  0.00000000000E+00  0.35913293678E+03  0.35913293679E+03  0.25500000920E-02 0.  1.
        2   -1    0    0  501    0  0.00000000000E+00  0.00000000000E+00 -0.25023054333E+04  0.25023054333E+04  0.25500000920E-02 0. -1.
    10030    2    1    2    0    0  0.00000000000E+00  0.00000000000E+00 -0.21431724966E+04  0.28614383701E+04  0.18959539014E+04 0.  0.
        2    1    3    3  502    0  0.66598643470E+03  0.58248412703E+03 -0.55792619502E+03  0.10459958549E+04  0.25500000920E-02 0.  1.
       -2    1    3    3    0  502 -0.66598643470E+03 -0.58248412703E+03 -0.15852463015E+04  0.18154425152E+04  0.25500000920E-02 0. -1.
</event>
<event>
 5   0  0.3147063E-05  0.1886262E+04  0.7818609E-02  0.8661725E-01
        1   -1    0    0  501    0  0.00000000000E+00  0.00000000000E+00  0.13409207744E+04  0.13409207744E+04  0.50400001928E-02 0.  1.
       -1   -1    0    0    0  501  0.00000000000E+00  0.00000000000E+00 -0.66334719820E+03  0.66334719822E+03  0.50400001928E-02 0. -1.
    10030    2    1    2    0    0  0.00000000000E+00  0.00000000000E+00  0.67757357619E+03  0.20042679726E+04  0.18862619529E+04 0.  0.
        5    1    3    3  502    0 -0.64543596361E+03  0.20745437342E+03 -0.35785860062E+03  0.76662231131E+03  0.46999998093E+01 0. -1.
       -5    1    3    3    0  502  0.64543596361E+03 -0.20745437342E+03  0.10354321768E+04  0.12376456613E+04  0.46999998093E+01 0.  1.
</event>
<event>
 5   0  0.3083469E-05  0.1906413E+04  0.7818609E-02  0.8651671E-01
        1   -1    0    0  501    0  0.00000000000E+00  0.00000000000E+00  0.14104741059E+04  0.14104741059E+04  0.50400001928E-02 0. -1.
       -1   -1    0    0    0  501  0.00000000000E+00  0.00000000000E+00 -0.64418235442E+03  0.64418235444E+03  0.50400001928E-02 0.  1.
    10030    2    1    2    0    0  0.00000000000E+00  0.00000000000E+00  0.76629175145E+03  0.20546564603E+04  0.19064128938E+04 0.  0.
        3    1    3    3  502    0 -0.27249388284E+02  0.85331055982E+03 -0.73754758259E+02  0.85692544321E+03  0.10100000352E+00 0.  1.
       -3    1    3    3    0  502  0.27249388284E+02 -0.85331055982E+03  0.84004650971E+03  0.11977310171E+04  0.10100000352E+00 0. -1.
</event>
<event>
 5   0  0.6452182E-05  0.1902488E+04  0.7818609E-02  0.8653619E-01
       -2   -1    0    0    0  501  0.00000000000E+00  0.00000000000E+00  0.81759777241E+03  0.81759777242E+03  0.25500000920E-02 0.  1.
        2   -1    0    0  501    0  0.00000000000E+00  0.00000000000E+00 -0.11067357962E+04  0.11067357962E+04  0.25500000920E-02 0. -1.
    10030    2    1    2    0    0  0.00000000000E+00  0.00000000000E+00 -0.28913802374E+03  0.19243335686E+04  0.19024875522E+04 0.  0.
        3    1    3    3  502    0  0.99030461204E+02  0.13343441617E+02 -0.11014123634E+04  0.11059359313E+04  0.10100000352E+00 0. -1.
       -3    1    3    3    0  502 -0.99030461204E+02 -0.13343441617E+02  0.81227433964E+03  0.81839763729E+03  0.10100000352E+00 0.  1.
</event>
<event>
 5   0  0.6098377E-05  0.1901071E+04  0.7818609E-02  0.8654323E-01
        2   -1    0    0  501    0  0.00000000000E+00  0.00000000000E+00  0.97695319520E+03  0.97695319520E+03  0.25500000920E-02 0.  1.
       -2   -1    0    0    0  501  0.00000000000E+00  0.00000000000E+00 -0.92483244273E+03  0.92483244273E+03  0.25500000920E-02 0. -1.
    10030    2    1    2    0    0  0.00000000000E+00  0.00000000000E+00  0.52120752474E+02  0.19017856379E+04  0.19010712874E+04 0.  0.
        5    1    3    3  502    0 -0.10548033395E+03 -0.42613989403E+03 -0.81733091758E+03  0.92777865300E+03  0.46999998093E+01 0. -1.
       -5    1    3    3    0  502  0.10548033395E+03  0.42613989403E+03  0.86945167006E+03  0.97400698493E+03  0.46999998093E+01 0.  1.
</event>
<event>
 5   0  0.3147063E-05  0.1895408E+04  0.7818609E-02  0.8657146E-01
        1   -1    0    0  501    0  0.00000000000E+00  0.00000000000E+00  0.17557847191E+04  0.17557847191E+04  0.50400001928E-02 0. -1.
       -1   -1    0    0    0  501  0.00000000000E+00  0.00000000000E+00 -0.51153333781E+03  0.51153333783E+03  0.50400001928E-02 0.  1.
    10030    2    1    2    0    0  0.00000000000E+00  0.00000000000E+00  0.12442513813E+04  0.22673180570E+04  0.18954075212E+04 0.  0.
        5    1    3    3  502    0  0.68646980860E+03 -0.33981037726E+03  0.12896622174E+04  0.14999875384E+04  0.46999998093E+01 0. -1.
       -5    1    3    3    0  502 -0.68646980860E+03  0.33981037726E+03 -0.45410836040E+02  0.76733051851E+03  0.46999998093E+01 0.  1.
</event>
<event>
 5   0  0.6361762E-05  0.1928813E+04  0.7818609E-02  0.8640646E-01
       -2   -1    0    0    0  501  0.00000000000E+00  0.00000000000E+00  0.14304844906E+04  0.14304844906E+04  0.25500000920E-02 0.  1.
        2   -1    0    0  501    0  0.00000000000E+00  0.00000000000E+00 -0.65018538470E+03  0.65018538471E+03  0.25500000920E-02 0. -1.
    10030    2    1    2    0    0  0.00000000000E+00  0.00000000000E+00  0.78029910589E+03  0.20806698753E+04  0.19288132194E+04 0.  0.
        1    1    3    3  502    0  0.36073471102E+02  0.79686446849E+03 -0.19454416758E+03  0.82106133122E+03  0.50400001928E-02 0. -1.
       -1    1    3    3    0  502 -0.36073471102E+02 -0.79686446849E+03  0.97484327347E+03  0.12596085441E+04  0.50400001928E-02 0.  1.
</event>
<event>
 5   0  0.3203527E-05  0.1909780E+04  0.7818609E-02  0.8650004E-01
        1   -1    0    0  501    0  0.00000000000E+00  0.00000000000E+00  0.17487026132E+04  0.17487026132E+04  0.50400001928E-02 0. -1.
       -1   -1    0    0    0  501  0.00000000000E+00  0.00000000000E+00 -0.52142360914E+03  0.52142360916E+03  0.50400001928E-02 0.  1.
    10030    2    1    2    0    0  0.00000000000E+00  0.00000000000E+00  0.12272790041E+04  0.22701262224E+04  0.19097799119E+04 0.  0.
        1    1    3    3  502    0  0.43474725989E+03 -0.26724641219E+03  0.15730111851E+04  0.16537200529E+04  0.50400001928E-02 0. -1.
       -1    1    3    3    0  502 -0.43474725989E+03  0.26724641219E+03 -0.34573218101E+03  0.61640616952E+03  0.50400001928E-02 0.  1.
</event>
<event>
 5   0  0.6452182E-05  0.1897353E+04  0.7818609E-02  0.8656175E-01
       -2   -1    0    0    0  501  0.00000000000E+00  0.00000000000E+00  0.12452185254E+04  0.12452185254E+04  0.25500000920E-02 0.  1.
        2   -1    0    0  501    0  0.00000000000E+00  0.00000000000E+00 -0.72275462114E+03  0.72275462114E+03  0.25500000920E-02 0. -1.
    10030    2    1    2    0    0  0.00000000000E+00  0.00000000000E+00  0.52246390429E+03  0.19679731466E+04  0.18973533604E+04 0.  0.
        3    1    3    3  502    0  0.80097569728E+03 -0.49841643800E+03  0.15747664684E+03  0.95644127776E+03  0.10100000352E+00 0.  1.
       -3    1    3    3    0  502 -0.80097569728E+03  0.49841643800E+03  0.36498725745E+03  0.10115318688E+04  0.10100000352E+00 0. -1.
</event>
<event>
 5   0  0.6395992E-05  0.1892749E+04  0.7818609E-02  0.8658474E-01
        2   -1    0    0  501    0  0.00000000000E+00  0.00000000000E+00  0.42954343908E+03  0.42954343909E+03  0.25500000920E-02 0.  1.
       -2   -1    0    0    0  501  0.00000000000E+00  0.00000000000E+00 -0.20850615193E+04  0.20850615193E+04  0.25500000920E-02 0. -1.
    10030    2    1    2    0    0  0.00000000000E+00  0.00000000000E+00 -0.16555180802E+04  0.25146049584E+04  0.18927487902E+04 0.  0.
        4    1    3    3  502    0 -0.62777187615E+03 -0.56406409074E+03 -0.25887257162E+03  0.88276975944E+03  0.12699999809E+01 0.  1.
       -4    1    3    3    0  502  0.62777187615E+03  0.56406409074E+03 -0.13966455086E+04  0.16318351989E+04  0.12699999809E+01 0. -1.
</event>
<event>
 5   0  0.6423388E-05  0.1903928E+04  0.7818609E-02  0.8652904E-01
        2   -1    0    0  501    0  0.00000000000E+00  0.00000000000E+00  0.15142104148E+04  0.15142104148E+04  0.25500000920E-02 0.  1.
       -2   -1    0    0    0  501  0.00000000000E+00  0.00000000000E+00 -0.59848690479E+03  0.59848690479E+03  0.25500000920E-02 0. -1.
    10030    2    1    2    0    0  0.00000000000E+00  0.00000000000E+00  0.91572350997E+03  0.21126973195E+04  0.19039276292E+04 0.  0.
        2    1    3    3  502    0  0.62382307546E+03 -0.26660512813E+03  0.11989246077E+04  0.13775535339E+04  0.25500000920E-02 0.  1.
       -2    1    3    3    0  502 -0.62382307546E+03  0.26660512813E+03 -0.28320109773E+03  0.73514378565E+03  0.25500000920E-02 0. -1.
</event>
<event>
 5   0  0.6423388E-05  0.1907404E+04  0.7818609E-02  0.8651180E-01
       -2   -1    0    0    0  501  0.00000000000E+00  0.00000000000E+00  0.93192571009E+03  0.93192571010E+03  0.25500000920E-02 0. -1.
        2   -1    0    0  501    0  0.00000000000E+00  0.00000000000E+00 -0.97598686851E+03  0.97598686851E+03  0.25500000920E-02 0.  1.
    10030    2    1    2    0    0  0.00000000000E+00  0.00000000000E+00 -0.44061158419E+02  0.19079125786E+04  0.19074037386E+04 0.  0.
        2    1    3    3  502    0 -0.56881200366E+03 -0.59806793971E+02  0.74133964298E+03  0.93632708728E+03  0.25500000920E-02 0. -1.
       -2    1    3    3    0  502  0.56881200366E+03  0.59806793971E+02 -0.78540080140E+03  0.97158549133E+03  0.25500000920E-02 0.  1.
</event>
<event>
 5   0  0.6361762E-05  0.1850885E+04  0.7818609E-02  0.8679698E-01
        2   -1    0    0  501    0  0.00000000000E+00  0.00000000000E+00  0.13008261398E+04  0.13008261398E+04  0.25500000920E-02 0.  1.
       -2   -1    0    0    0  501  0.00000000000E+00  0.00000000000E+00 -0.65838441794E+03  0.65838441795E+03  0.25500000920E-02 0. -1.
    10030    2    1    2    0    0  0.00000000000E+00  0.00000000000E+00  0.64244172182E+03  0.19592105577E+04  0.18508848272E+04 0.  0.
        1    1    3    3  502    0 -0.27483589518E+03 -0.66970573335E+03 -0.28906634350E+03  0.77948693993E+03  0.50400001928E-02 0. -1.
       -1    1    3    3    0  502  0.27483589518E+03  0.66970573335E+03  0.93150806532E+03  0.11797236178E+04  0.50400001928E-02 0.  1.
</event>
<event>
 5   0  0.3147063E-05  0.1878724E+04  0.7818609E-02  0.8665520E-01
       -1   -1    0    0    0  501  0.00000000000E+00  0.00000000000E+00  0.93863622464E+03  0.93863622465E+03  0.50400001928E-02 0.  1.
        1   -1    0    0  501    0  0.00000000000E+00  0.00000000000E+00 -0.94008834070E+03  0.94008834071E+03  0.50400001928E-02 0. -1.
    10030    2    1    2    0    0  0.00000000000E+00  0.00000000000E+00 -0.14521160615E+01  0.18787245654E+04  0.18787240042E+04 0.  0.
        5    1    3    3  502    0  0.91274328069E+03 -0.75273370140E+02 -0.20956219073E+03  0.93952369767E+03  0.46999998093E+01 0. -1.
       -5    1    3    3    0  502 -0.91274328069E+03  0.75273370140E+02  0.20811007467E+03  0.93920086769E+03  0.46999998093E+01 0.  1.
</event>
<event>
 5   0  0.3203527E-05  0.1901965E+04  0.7818609E-02  0.8653879E-01
        1   -1    0    0  501    0  0.00000000000E+00  0.00000000000E+00  0.78883570046E+03  0.78883570048E+03  0.50400001928E-02 0.  1.
       -1   -1    0    0    0  501  0.00000000000E+00  0.00000000000E+00 -0.11464586474E+04  0.11464586474E+04  0.50400001928E-02 0. -1.
    10030    2    1    2    0    0  0.00000000000E+00  0.00000000000E+00 -0.35762294694E+03  0.19352943479E+04  0.19019647843E+04 0.  0.
        1    1    3    3  502    0  0.82997201244E+03  0.46402646309E+03 -0.16466056458E+03  0.96503222819E+03  0.50400001928E-02 0. -1.
       -1    1    3    3    0  502 -0.82997201244E+03 -0.46402646309E+03 -0.19296238236E+03  0.97026211970E+03  0.50400001928E-02 0.  1.
</event>
<event>
 5   0  0.6361762E-05  0.1904234E+04  0.7818609E-02  0.8652752E-01
        2   -1    0    0  501    0  0.00000000000E+00  0.00000000000E+00  0.12039338087E+04  0.12039338087E+04  0.25500000920E-02 0.  1.
       -2   -1    0    0    0  501  0.00000000000E+00  0.00000000000E+00 -0.75297082651E+03  0.75297082652E+03  0.25500000920E-02 0. -1.
    10030    2    1    2    0    0  0.00000000000E+00  0.00000000000E+00  0.45096298216E+03  0.19569046352E+04  0.19042342660E+04 0.  0.
        1    1    3    3  502    0 -0.58992493679E+03 -0.39490869811E+03 -0.42654623743E+03  0.82819442377E+03  0.50400001928E-02 0. -1.
       -1    1    3    3    0  502  0.58992493679E+03  0.39490869811E+03  0.87750921958E+03  0.11287102114E+04  0.50400001928E-02 0.  1.
</event>
<event>
 5   0  0.3086139E-05  0.1903127E+04  0.7818609E-02  0.8653301E-01
        1   -1    0    0  501    0  0.00000000000E+00  0.00000000000E+00  0.11440192353E+04  0.11440192353E+04  0.50400001928E-02 0. -1.
       -1   -1    0    0    0  501  0.00000000000E+00  0.00000000000E+00 -0.79148430045E+03  0.79148430046E+03  0.50400001928E-02 0.  1.
    10030    2    1    2    0    0  0.00000000000E+00  0.00000000000E+00  0.35253493487E+03  0.19355035358E+04  0.19031271783E+04 0.  0.
        2    1    3    3  502    0  0.85726895606E+03 -0.53157915935E+02 -0.24025761519E+03  0.89188538989E+03  0.25500000920E-02 0.  1.
       -2    1    3    3    0  502 -0.85726895606E+03  0.53157915935E+02  0.59279255005E+03  0.10436181459E+04  0.25500000920E-02 0. -1.
</event>
<event>
 5   0  0.3083469E-05  0.1898680E+04  0.7818609E-02  0.8655514E-01
        1   -1    0    0  501    0  0.00000000000E+00  0.00000000000E+00  0.17253230650E+04  0.17253230650E+04  0.50400001928E-02 0.  1.
       -1   -1    0    0    0  501  0.00000000000E+00  0.00000000000E+00 -0.52236382234E+03  0.52236382237E+03  0.50400001928E-02 0. -1.
    10030    2    1    2    0    0  0.00000000000E+00  0.00000000000E+00  0.12029592426E+04  0.22476868874E+04  0.18986799109E+04 0.  0.
        3    1    3    3  502    0  0.60868625677E+03 -0.22376080932E+03 -0.21927133432E+03  0.68457854715E+03  0.10100000352E+00 0. -1.
       -3    1    3    3    0  502 -0.60868625677E+03  0.22376080932E+03  0.14222305770E+04  0.15631083402E+04  0.10100000352E+00 0.  1.
</event>
<event>
 5   0  0.3144958E-05  0.1896594E+04  0.7818609E-02  0.8656553E-01
        1   -1    0    0  501    0  0.00000000000E+00  0.00000000000E+00  0.12712684413E+04  0.12712684413E+04  0.50400001928E-02 0. -1.
       -1   -1    0    0    0  501  0.00000000000E+00  0.00000000000E+00 -0.70737827011E+03  0.70737827012E+03  0.50400001928E-02 0.  1.
    10030    2    1    2    0    0  0.00000000000E+00  0.00000000000E+00  0.56389017117E+03  0.19786467114E+04  0.18965944963E+04 0.  0.
        4    1    3    3  502    0 -0.22147016016E+03 -0.69633316168E+03  0.91252581173E+03  0.11690311689E+04  0.12699999809E+01 0. -1.
       -4    1    3    3    0  502  0.22147016016E+03  0.69633316168E+03 -0.34863564056E+03  0.80961554250E+03  0.12699999809E+01 0.  1.
</event>
<event>
 5   0  0.6361762E-05  0.1905252E+04  0.7818609E-02  0.8652247E-01
       -2   -1    0    0    0  501  0.00000000000E+00  0.00000000000E+00  0.40477583096E+03  0.40477583097E+03  0.25500000920E-02 0. -1.
        2   -1    0    0  501    0  0.00000000000E+00  0.00000000000E+00 -0.22419718439E+04  0.22419718439E+04  0.25500000920E-02 0.  1.
    10030    2    1    2    0    0  0.00000000000E+00  0.00000000000E+00 -0.18371960130E+04  0.26467476749E+04  0.19052517063E+04 0.  0.
        1    1    3    3  502    0  0.74940413727E+03 -0.25110962787E+03 -0.17980030476E+03  0.81054966275E+03  0.50400001928E-02 0. -1.
       -1    1    3    3    0  502 -0.74940413727E+03  0.25110962787E+03 -0.16573957082E+04  0.18361980121E+04  0.50400001928E-02 0.  1.
</event>
<event>
 5   0  0.3086139E-05  0.1995015E+04  0.7818609E-02  0.8608955E-01
       -1   -1    0    0    0  501  0.00000000000E+00  0.00000000000E+00  0.84677613526E+03  0.84677613527E+03  0.50400001928E-02 0.  1.
        1   -1    0    0  501    0  0.00000000000E+00  0.00000000000E+00 -0.11750700534E+04  0.11750700534E+04  0.50400001928E-02 0. -1.
    10030    2    1    2    0    0  0.00000000000E+00  0.00000000000E+00 -0.32829391818E+03  0.20218461887E+04  0.19950150661E+04 0.  0.
        2    1    3    3  502    0 -0.23798507081E+03 -0.94681394016E+03  0.43369571808E+02  0.97722794218E+03  0.25500000920E-02 0. -1.
       -2    1    3    3    0  502  0.23798507081E+03  0.94681394016E+03 -0.37166348999E+03  0.10446182465E+04  0.25500000920E-02 0.  1.
</event>
<event>
 5   0  0.3147063E-05  0.1899303E+04  0.7818609E-02  0.8655203E-01
        1   -1    0    0  501    0  0.00000000000E+00  0.00000000000E+00  0.14440115857E+04  0.14440115858E+04  0.50400001928E-02 0. -1.
       -1   -1    0    0    0  501  0.00000000000E+00  0.00000000000E+00 -0.62453678132E+03  0.62453678134E+03  0.50400001928E-02 0.  1.
    10030    2    1    2    0    0  0.00000000000E+00  0.00000000000E+00  0.81947480443E+03  0.20685483671E+04  0.18993033965E+04 0.  0.
        5    1    3    3  502    0  0.67747934515E+03 -0.56216044799E+03  0.21895887050E+02  0.88062713577E+03  0.46999998093E+01 0.  1.
       -5    1    3    3    0  502 -0.67747934515E+03  0.56216044799E+03  0.79757891738E+03  0.11879212313E+04  0.46999998093E+01 0. -1.
</event>
<event>
 5   0  0.3147063E-05  0.1900839E+04  0.7818609E-02  0.8654439E-01
       -1   -1    0    0    0  501  0.00000000000E+00  0.00000000000E+00  0.89031926344E+03  0.89031926346E+03  0.50400001928E-02 0.  1.
        1   -1    0    0  501    0  0.00000000000E+00  0.00000000000E+00 -0.10145764366E+04  0.10145764366E+04  0.50400001928E-02 0. -1.
    10030    2    1    2    0    0  0.00000000000E+00  0.00000000000E+00 -0.12425717313E+03  0.19048957000E+04  0.19008387051E+04 0.  0.
        5    1    3    3  502    0 -0.29366842614E+03  0.64404630335E+03  0.57344745992E+03  0.91098894871E+03  0.46999998093E+01 0.  1.
       -5    1    3    3    0  502  0.29366842614E+03 -0.64404630335E+03 -0.69770463306E+03  0.99390675134E+03  0.46999998093E+01 0. -1.
</event>
<event>
 5   0  0.6361762E-05  0.1902057E+04  0.7818609E-02  0.8653833E-01
       -2   -1    0    0    0  501  0.00000000000E+00  0.00000000000E+00  0.57291370006E+03  0.57291370007E+03  0.25500000920E-02 0.  1.
        2   -1    0    0  501    0  0.00000000000E+00  0.00000000000E+00 -0.15786934269E+04  0.15786934269E+04  0.25500000920E-02 0. -1.
    10030    2    1    2    0    0  0.00000000000E+00  0.00000000000E+00 -0.10057797269E+04  0.21516071270E+04  0.19020568787E+04 0.  0.
        1    1    3    3  502    0  0.69085200109E+03  0.59842368485E+03 -0.80017758086E+03  0.12147722235E+04  0.50400001928E-02 0.  1.
       -1    1    3    3    0  502 -0.69085200109E+03 -0.59842368485E+03 -0.20560214601E+03  0.93683490353E+03  0.50400001928E-02 0. -1.
</event>
<event>
 5   0  0.3147063E-05  0.1912469E+04  0.7818609E-02  0.8648675E-01
        1   -1    0    0  501    0  0.00000000000E+00  0.00000000000E+00  0.11630439648E+04  0.11630439648E+04  0.50400001928E-02 0.  1.
       -1   -1    0    0    0  501  0.00000000000E+00  0.00000000000E+00 -0.78619938237E+03  0.78619938239E+03  0.50400001928E-02 0. -1.
    10030    2    1    2    0    0  0.00000000000E+00  0.00000000000E+00  0.37684458238E+03  0.19492433472E+04  0.19124690291E+04 0.  0.
        5    1    3    3  502    0  0.96586845788E+01 -0.38867185356E+03 -0.70199125262E+03  0.80247922633E+03  0.46999998093E+01 0. -1.
       -5    1    3    3    0  502 -0.96586845788E+01  0.38867185356E+03  0.10788358350E+04  0.11467641208E+04  0.46999998093E+01 0.  1.
</event>
<event>
 5   0  0.6423388E-05  0.1907555E+04  0.7818609E-02  0.8651105E-01
        2   -1    0    0  501    0  0.00000000000E+00  0.00000000000E+00  0.35562052232E+04  0.35562052232E+04  0.25500000920E-02 0. -1.
       -2   -1    0    0    0  501  0.00000000000E+00  0.00000000000E+00 -0.25580405781E+03  0.25580405783E+03  0.25500000920E-02 0.  1.
    10030    2    1    2    0    0  0.00000000000E+00  0.00000000000E+00  0.33004011654E+04  0.38120092810E+04  0.19075552171E+04 0.  0.
        2    1    3    3  502    0  0.89466897997E+03  0.31344415289E+03  0.18599052399E+04  0.20875649264E+04  0.25500000920E-02 0. -1.
       -2    1    3    3    0  502 -0.89466897997E+03 -0.31344415289E+03  0.14404959255E+04  0.17244443546E+04  0.25500000920E-02 0.  1.
</event>
<event>
 5   0  0.3086139E-05  0.1900634E+04  0.7818609E-02  0.8654541E-01
        1   -1    0    0  501    0  0.00000000000E+00  0.00000000000E+00  0.11015027965E+04  0.11015027965E+04  0.50400001928E-02 0.  1.
       -1   -1    0    0    0  501  0.00000000000E+00  0.00000000000E+00 -0.81988212531E+03  0.81988212532E+03  0.50400001928E-02 0. -1.
    10030    2    1    2    0    0  0.00000000000E+00  0.00000000000E+00  0.28162067115E+03  0.19213849218E+04  0.19006340561E+04 0.  0.
        2    1    3    3  502    0  0.34051916194E+03  0.76285186694E+03 -0.31713231425E+03  0.89357102420E+03  0.25500000920E-02 0.  1.
       -2    1    3    3    0  502 -0.34051916194E+03 -0.76285186694E+03  0.59875298541E+03  0.10278138976E+04  0.25500000920E-02 0. -1.
</event>
<event>
 5   0  0.6098377E-05  0.1921133E+04  0.7818609E-02  0.8644408E-01
       -2   -1    0    0    0  501  0.00000000000E+00  0.00000000000E+00  0.65082192890E+03  0.65082192890E+03  0.25500000920E-02 0. -1.
        2   -1    0    0  501    0  0.00000000000E+00  0.00000000000E+00 -0.14177267875E+04  0.14177267875E+04  0.25500000920E-02 0.  1.
    10030    2    1    2    0    0  0.00000000000E+00  0.00000000000E+00 -0.76690485857E+03  0.20685487164E+04  0.19211326685E+04 0.  0.
        5    1    3    3  502    0 -0.22471287644E+03  0.38598380004E+03  0.53220593709E+03  0.69479825863E+03  0.46999998093E+01 0. -1.
       -5    1    3    3    0  502  0.22471287644E+03 -0.38598380004E+03 -0.12991107957E+04  0.13737504577E+04  0.46999998093E+01 0.  1.
</event>
<event>
 5   0  0.6395992E-05  0.1898505E+04  0.7818609E-02  0.8655601E-01
       -2   -1    0    0    0  501  0.00000000000E+00  0.00000000000E+00  0.10452776914E+04  0.10452776914E+04  0.25500000920E-02 0.  1.
        2   -1    0    0  501    0  0.00000000000E+00  0.00000000000E+00 -0.86204892019E+03  0.86204892019E+03  0.25500000920E-02 0. -1.
    10030    2    1    2    0    0  0.00000000000E+00  0.00000000000E+00  0.18322877118E+03  0.19073266116E+04  0.18985052069E+04 0.  0.
        4    1    3    3  502    0 -0.43213706464E+03 -0.71934972372E+03  0.53737913358E+03  0.99648603290E+03  0.12699999809E+01 0.  1.
       -4    1    3    3    0  502  0.43213706464E+03  0.71934972372E+03 -0.35415036240E+03  0.91084057866E+03  0.12699999809E+01 0. -1.
</event>
<event>
 5   0  0.6395992E-05  0.1899032E+04  0.7818609E-02  0.8655338E-01
       -2   -1    0    0    0  501  0.00000000000E+00  0.00000000000E+00  0.80559043550E+03  0.80559043550E+03  0.25500000920E-02 0.  1.
        2   -1    0    0  501    0  0.00000000000E+00  0.00000000000E+00 -0.11191549864E+04  0.11191549864E+04  0.25500000920E-02 0. -1.
    10030    2    1    2    0    0  0.00000000000E+00  0.00000000000E+00 -0.31356455089E+03  0.19247454219E+04  0.18990319143E+04 0.  0.
        4    1    3    3  502    0  0.52381088827E+03  0.70016390645E+03  0.21832569498E+03  0.90126303850E+03  0.12699999809E+01 0.  1.
       -4    1    3    3    0  502 -0.52381088827E+03 -0.70016390645E+03 -0.53189024587E+03  0.10234823834E+04  0.12699999809E+01 0. -1.
</event>
<event>
 5   0  0.3147063E-05  0.1906678E+04  0.7818609E-02  0.8651540E-01
        1   -1    0    0  501    0  0.00000000000E+00  0.00000000000E+00  0.11370190019E+04  0.11370190020E+04  0.50400001928E-02 0. -1.
       -1   -1    0    0    0  501  0.00000000000E+00  0.00000000000E+00 -0.79933136940E+03  0.79933136942E+03  0.50400001928E-02 0.  1.
    10030    2    1    2    0    0  0.00000000000E+00  0.00000000000E+00  0.33768763254E+03  0.19363503714E+04  0.19066776926E+04 0.  0.
        5    1    3    3  502    0  0.42508351289E+03  0.24980393338E+03  0.99746743766E+03  0.11126820648E+04  0.46999998093E+01 0. -1.
       -5    1    3    3    0  502 -0.42508351289E+03 -0.24980393338E+03 -0.65977980512E+03  0.82366830660E+03  0.46999998093E+01 0.  1.
</event>
<event>
 5   0  0.2279625E-05  0.1894102E+04  0.7818609E-02  0.8657798E-01
       -3   -1    0    0    0  501  0.00000000000E+00  0.00000000000E+00  0.63976891646E+03  0.63976892443E+03  0.10100000352E+00 0.  1.
        3   -1    0    0  501    0  0.00000000000E+00  0.00000000000E+00 -0.14019208814E+04  0.14019208851E+04  0.10100000352E+00 0. -1.
    10030    2    1    2    0    0  0.00000000000E+00  0.00000000000E+00 -0.76215196497E+03  0.20416898095E+04  0.18941018084E+04 0.  0.
        4    1    3    3  502    0 -0.48138093973E+03  0.59130135848E+03  0.22442226941E+03  0.79481562238E+03  0.12699999809E+01 0. -1.
       -4    1    3    3    0  502  0.48138093973E+03 -0.59130135848E+03 -0.98657423437E+03  0.12468741871E+04  0.12699999809E+01 0.  1.
</event>
<event>
 5   0  0.3147063E-05  0.1957575E+04  0.7818609E-02  0.8626717E-01
       -1   -1    0    0    0  501  0.00000000000E+00  0.00000000000E+00  0.10154017491E+04  0.10154017491E+04  0.50400001928E-02 0. -1.
        1   -1    0    0  501    0  0.00000000000E+00  0.00000000000E+00 -0.94349320217E+03  0.94349320218E+03  0.50400001928E-02 0.  1.
    10030    2    1    2    0    0  0.00000000000E+00  0.00000000000E+00  0.71908546940E+02  0.19588949513E+04  0.19575746706E+04 0.  0.
        5    1    3    3  502    0 -0.96201212744E+03 -0.17541609125E+03 -0.60790489142E+01  0.97790448575E+03  0.46999998093E+01 0. -1.
       -5    1    3    3    0  502  0.96201212744E+03  0.17541609125E+03  0.77987595854E+02  0.98099046556E+03  0.46999998093E+01 0.  1.
</event>
<event>
 5   0  0.6361762E-05  0.1885724E+04  0.7818609E-02  0.8661995E-01
       -2   -1    0    0    0  501  0.00000000000E+00  0.00000000000E+00  0.99502113107E+03  0.99502113107E+03  0.25500000920E-02 0. -1.
        2   -1    0    0  501    0  0.00000000000E+00  0.00000000000E+00 -0.89343731902E+03  0.89343731902E+03  0.25500000920E-02 0.  1.
    10030    2    1    2    0    0  0.00000000000E+00  0.00000000000E+00  0.10158381205E+03  0.18884584501E+04  0.18857242765E+04 0.  0.
        1    1    3    3  502    0 -0.93355890878E+03 -0.12813781077E+03  0.18535314567E+02  0.94249408095E+03  0.50400001928E-02 0.  1.
       -1    1    3    3    0  502  0.93355890878E+03  0.12813781077E+03  0.83048497480E+02  0.94596436914E+03  0.50400001928E-02 0. -1.
</event>
<event>
 5   0  0.6098377E-05  0.1901107E+04  0.7818609E-02  0.8654306E-01
        2   -1    0    0  501    0  0.00000000000E+00  0.00000000000E+00  0.12802801773E+04  0.12802801773E+04  0.25500000920E-02 0.  1.
       -2   -1    0    0    0  501  0.00000000000E+00  0.00000000000E+00 -0.70574519729E+03  0.70574519729E+03  0.25500000920E-02 0. -1.
    10030    2    1    2    0    0  0.00000000000E+00  0.00000000000E+00  0.57453497998E+03  0.19860253746E+04  0.19011066107E+04 0.  0.
        5    1    3    3  502    0  0.48441154181E+03  0.57400208093E+03  0.89586762252E+03  0.11690739146E+04  0.46999998093E+01 0.  1.
       -5    1    3    3    0  502 -0.48441154181E+03 -0.57400208093E+03 -0.32133264254E+03  0.81695145995E+03  0.46999998093E+01 0. -1.
</event>
<event>
 5   0  0.3083469E-05  0.1903719E+04  0.7818609E-02  0.8653007E-01
       -1   -1    0    0    0  501  0.00000000000E+00  0.00000000000E+00  0.39935534212E+03  0.39935534215E+03  0.50400001928E-02 0. -1.
        1   -1    0    0  501    0  0.00000000000E+00  0.00000000000E+00 -0.22687483228E+04  0.22687483228E+04  0.50400001928E-02 0.  1.
    10030    2    1    2    0    0  0.00000000000E+00  0.00000000000E+00 -0.18693929806E+04  0.26681036649E+04  0.19037192678E+04 0.  0.
        3    1    3    3  502    0  0.18892936658E+03 -0.58060397881E+03 -0.19581349920E+04  0.20511187052E+04  0.10100000352E+00 0.  1.
       -3    1    3    3    0  502 -0.18892936658E+03  0.58060397881E+03  0.88742011338E+02  0.61698495974E+03  0.10100000352E+00 0. -1.
</event>
<event>
 5   0  0.6395992E-05  0.1902146E+04  0.7818609E-02  0.8653789E-01
       -2   -1    0    0    0  501  0.00000000000E+00  0.00000000000E+00  0.93674942067E+03  0.93674942067E+03  0.25500000920E-02 0.  1.
        2   -1    0    0  501    0  0.00000000000E+00  0.00000000000E+00 -0.96561536253E+03  0.96561536253E+03  0.25500000920E-02 0. -1.
    10030    2    1    2    0    0  0.00000000000E+00  0.00000000000E+00 -0.28865941860E+02  0.19023647832E+04  0.19021457688E+04 0.  0.
        4    1    3    3  502    0  0.20503605931E+03  0.56873276324E+03 -0.74871181121E+03  0.96232412977E+03  0.12699999809E+01 0. -1.
       -4    1    3    3    0  502 -0.20503605931E+03 -0.56873276324E+03  0.71984586935E+03  0.94004065344E+03  0.12699999809E+01 0.  1.
</event>
<event>
 5   0  0.6361762E-05  0.1902976E+04  0.7818609E-02  0.8653376E-01
        2   -1    0    0  501    0  0.00000000000E+00  0.00000000000E+00  0.74838525543E+03  0.74838525543E+03  0.25500000920E-02 0. -1.
       -2   -1    0    0    0  501  0.00000000000E+00  0.00000000000E+00 -0.12097106610E+04  0.12097106610E+04  0.25500000920E-02 0.  1.
    10030    2    1    2    0    0  0.00000000000E+00  0.00000000000E+00 -0.46132540553E+03  0.19580959164E+04  0.19029762184E+04 0.  0.
        1    1    3    3  502    0  0.51697356464E+03 -0.29721523015E+03 -0.99357697481E+03  0.11587897844E+04  0.50400001928E-02 0.  1.
       -1    1    3    3    0  502 -0.51697356464E+03  0.29721523015E+03  0.53225156928E+03  0.79930613197E+03  0.50400001928E-02 0. -1.
</event>
<event>
 5   0  0.3083469E-05  0.1846171E+04  0.7818609E-02  0.8682124E-01
        1   -1    0    0  501    0  0.00000000000E+00  0.00000000000E+00  0.10597762873E+04  0.10597762873E+04  0.50400001928E-02 0.  1.
       -1   -1    0    0    0  501  0.00000000000E+00  0.00000000000E+00 -0.80402526066E+03  0.80402526067E+03  0.50400001928E-02 0. -1.
    10030    2    1    2    0    0  0.00000000000E+00  0.00000000000E+00  0.25575102660E+03  0.18638015479E+04  0.18461710708E+04 0.  0.
        3    1    3    3  502    0  0.12917100702E+03 -0.88254739075E+03  0.36786791230E+03  0.96483255391E+03  0.10100000352E+00 0. -1.
       -3    1    3    3    0  502 -0.12917100702E+03  0.88254739075E+03 -0.11211688570E+03  0.89896899404E+03  0.10100000352E+00 0.  1.
</event>
<event>
 5   0  0.6452182E-05  0.1890422E+04  0.7818609E-02  0.8659639E-01
       -2   -1    0    0    0  501  0.00000000000E+00  0.00000000000E+00  0.70346079464E+03  0.70346079464E+03  0.25500000920E-02 0. -1.
        2   -1    0    0  501    0  0.00000000000E+00  0.00000000000E+00 -0.12700401977E+04  0.12700401977E+04  0.25500000920E-02 0.  1.
    10030    2    1    2    0    0  0.00000000000E+00  0.00000000000E+00 -0.56657940311E+03  0.19735009924E+04  0.18904216321E+04 0.  0.
        3    1    3    3  502    0 -0.43979085711E+03  0.84519380664E+02  0.58567603888E+03  0.73727603815E+03  0.10100000352E+00 0. -1.
       -3    1    3    3    0  502  0.43979085711E+03 -0.84519380664E+02 -0.11522554420E+04  0.12362249542E+04  0.10100000352E+00 0.  1.
</event>
<event>
 5   0  0.3083469E-05  0.1900967E+04  0.7818609E-02  0.8654375E-01
        1   -1    0    0  501    0  0.00000000000E+00  0.00000000000E+00  0.11334151538E+04  0.11334151539E+04  0.50400001928E-02 0.  1.
       -1   -1    0    0    0  501  0.00000000000E+00  0.00000000000E+00 -0.79707655677E+03  0.79707655679E+03  0.50400001928E-02 0. -1.
    10030    2    1    2    0    0  0.00000000000E+00  0.00000000000E+00  0.33633859707E+03  0.19304917106E+04  0.19009667522E+04 0.  0.
        3    1    3    3  502    0  0.33938935673E+03 -0.72027099298E+03 -0.35897198929E+03  0.87340502522E+03  0.10100000352E+00 0. -1.
       -3    1    3    3    0  502 -0.33938935673E+03  0.72027099298E+03  0.69531058636E+03  0.10570866854E+04  0.10100000352E+00 0.  1.
</event>
<event>
 5   0  0.3147063E-05  0.1912567E+04  0.7818609E-02  0.8648626E-01
        1   -1    0    0  501    0  0.00000000000E+00  0.00000000000E+00  0.89886107680E+03  0.89886107681E+03  0.50400001928E-02 0. -1.
       -1   -1    0    0    0  501  0.00000000000E+00  0.00000000000E+00 -0.10173738380E+04  0.10173738380E+04  0.50400001928E-02 0.  1.
    10030    2    1    2    0    0  0.00000000000E+00  0.00000000000E+00 -0.11851276124E+03  0.19162349149E+04  0.19125665934E+04 0.  0.
        5    1    3    3  502    0  0.15236999711E+03  0.27876228812E+03  0.84443291137E+03  0.90222727796E+03  0.46999998093E+01 0. -1.
       -5    1    3    3    0  502 -0.15236999711E+03 -0.27876228812E+03 -0.96294567261E+03  0.10140076369E+04  0.46999998093E+01 0.  1.
</event>
<event>
 5   0  0.3203527E-05  0.1929054E+04  0.7818609E-02  0.8640528E-01
        1   -1    0    0  501    0  0.00000000000E+00  0.00000000000E+00  0.70960533187E+03  0.70960533189E+03  0.50400001928E-02 0.  1.
       -1   -1    0    0    0  501  0.00000000000E+00  0.00000000000E+00 -0.13110281276E+04  0.13110281276E+04  0.50400001928E-02 0. -1.
    10030    2    1    2    0    0  0.00000000000E+00  0.00000000000E+00 -0.60142279574E+03  0.20206334595E+04  0.19290542238E+04 0.  0.
        1    1    3    3  502    0 -0.86052801087E+03 -0.35701547468E+03 -0.39169912487E+02  0.93247133400E+03  0.50400001928E-02 0. -1.
       -1    1    3    3    0  502  0.86052801087E+03  0.35701547468E+03 -0.56225288326E+03  0.10881621255E+04  0.50400001928E-02 0.  1.
</event>
<event>
 5   0  0.3203527E-05  0.1892794E+04  0.7818609E-02  0.8658451E-01
        1   -1    0    0  501    0  0.00000000000E+00  0.00000000000E+00  0.73596553838E+03  0.73596553840E+03  0.50400001928E-02 0. -1.
       -1   -1    0    0    0  501  0.00000000000E+00  0.00000000000E+00 -0.12169966622E+04  0.12169966622E+04  0.50400001928E-02 0.  1.
    10030    2    1    2    0    0  0.00000000000E+00  0.00000000000E+00 -0.48103112386E+03  0.19529622006E+04  0.18927943404E+04 0.  0.
        1    1    3    3  502    0 -0.32366514585E+03 -0.45426362046E+03 -0.10293799858E+04  0.11707850865E+04  0.50400001928E-02 0.  1.
       -1    1    3    3    0  502  0.32366514585E+03  0.45426362046E+03  0.54834886194E+03  0.78217711417E+03  0.50400001928E-02 0. -1.
</event>
<event>
 5   0  0.6452182E-05  0.1894590E+04  0.7818609E-02  0.8657554E-01
       -2   -1    0    0    0  501  0.00000000000E+00  0.00000000000E+00  0.24800264284E+04  0.24800264284E+04  0.25500000920E-02 0.  1.
        2   -1    0    0  501    0  0.00000000000E+00  0.00000000000E+00 -0.36183814821E+03  0.36183814822E+03  0.25500000920E-02 0. -1.
    10030    2    1    2    0    0  0.00000000000E+00  0.00000000000E+00  0.21181882802E+04  0.28418645766E+04  0.18945903730E+04 0.  0.
        3    1    3    3  502    0 -0.16230237067E+03 -0.37802763312E+03 -0.22084669008E+03  0.46692635570E+03  0.10100000352E+00 0. -1.
       -3    1    3    3    0  502  0.16230237067E+03  0.37802763312E+03  0.23390349703E+04  0.23749382209E+04  0.10100000352E+00 0.  1.
</event>
<event>
 5   0  0.3203527E-05  0.1898018E+04  0.7818609E-02  0.8655843E-01
        1   -1    0    0  501    0  0.00000000000E+00  0.00000000000E+00  0.13871459831E+04  0.13871459832E+04  0.50400001928E-02 0. -1.
       -1   -1    0    0    0  501  0.00000000000E+00  0.00000000000E+00 -0.64925997937E+03  0.64925997939E+03  0.50400001928E-02 0.  1.
    10030    2    1    2    0    0  0.00000000000E+00  0.00000000000E+00  0.73788600378E+03  0.20364059625E+04  0.18980183059E+04 0.  0.
        1    1    3    3  502    0  0.89840104400E+03 -0.12209000876E+02  0.41142807566E+02  0.89942549786E+03  0.50400001928E-02 0. -1.
       -1    1    3    3    0  502 -0.89840104400E+03  0.12209000876E+02  0.69674319621E+03  0.11369804647E+04  0.50400001928E-02 0.  1.
</event>
<event>
 5   0  0.3086139E-05  0.1896872E+04  0.7818609E-02  0.8656415E-01
        1   -1    0    0  501    0  0.00000000000E+00  0.00000000000E+00  0.11315644089E+04  0.11315644089E+04  0.50400001928E-02 0.  1.
       -1   -1    0    0    0  501  0.00000000000E+00  0.00000000000E+00 -0.79494426042E+03  0.79494426044E+03  0.50400001928E-02 0. -1.
    10030    2    1    2    0    0  0.00000000000E+00  0.00000000000E+00  0.33662014851E+03  0.19265086694E+04  0.18968717745E+04 0.  0.
        2    1    3    3  502    0 -0.91871311064E+03 -0.11726414066E+03 -0.39200528461E+02  0.92699586827E+03  0.25500000920E-02 0.  1.
       -2    1    3    3    0  502  0.91871311064E+03  0.11726414066E+03  0.37582067697E+03  0.99951280112E+03  0.25500000920E-02 0. -1.
</event>
<event>
 5   0  0.3147063E-05  0.1899642E+04  0.7818609E-02  0.8655034E-01
       -1   -1    0    0    0  501  0.00000000000E+00  0.00000000000E+00  0.76485533639E+03  0.76485533641E+03  0.50400001928E-02 0. -1.
        1   -1    0    0  501    0  0.00000000000E+00  0.00000000000E+00 -0.11795173537E+04  0.11795173537E+04  0.50400001928E-02 0.  1.
    10030    2    1    2    0    0  0.00000000000E+00  0.00000000000E+00 -0.41466201734E+03  0.19443726902E+04  0.18996422215E+04 0.  0.
        5    1    3    3  502    0  0.55525877401E+03 -0.57723988117E+03  0.31519926530E+03  0.86075016896E+03  0.46999998093E+01 0. -1.
       -5    1    3    3    0  502 -0.55525877401E+03  0.57723988117E+03 -0.72986128264E+03  0.10836225212E+04  0.46999998093E+01 0.  1.
</event>
<event>
 5   0  0.6361762E-05  0.1903406E+04  0.7818609E-02  0.8653163E-01
        2   -1    0    0  501    0  0.00000000000E+00  0.00000000000E+00  0.10314851246E+04  0.10314851246E+04  0.25500000920E-02 0. -1.
       -2   -1    0    0    0  501  0.00000000000E+00  0.00000000000E+00 -0.87809213420E+03  0.87809213420E+03  0.25500000920E-02 0.  1.
    10030    2    1    2    0    0  0.00000000000E+00  0.00000000000E+00  0.15339299036E+03  0.19095772588E+04  0.19034063932E+04 0.  0.
        1    1    3    3  502    0 -0.94206544270E+03 -0.12991502043E+03  0.39512016077E+02  0.95180166542E+03  0.50400001928E-02 0.  1.
       -1    1    3    3    0  502  0.94206544270E+03  0.12991502043E+03  0.11388097428E+03  0.95777559333E+03  0.50400001928E-02 0. -1.
</event>
<event>
 5   0  0.6452182E-05  0.1877486E+04  0.7818609E-02  0.8666145E-01
       -2   -1    0    0    0  501  0.00000000000E+00  0.00000000000E+00  0.55176086510E+03  0.55176086511E+03  0.25500000920E-02 0.  1.
        2   -1    0    0  501    0  0.00000000000E+00  0.00000000000E+00 -0.15971380228E+04  0.15971380228E+04  0.25500000920E-02 0. -1.
    10030    2    1    2    0    0  0.00000000000E+00  0.00000000000E+00 -0.10453771576E+04  0.21488988879E+04  0.18774858265E+04 0.  0.
        3    1    3    3  502    0  0.52297022667E+03 -0.74116219876E+03 -0.79932943122E+03  0.12090272175E+04  0.10100000352E+00 0. -1.
       -3    1    3    3    0  502 -0.52297022667E+03  0.74116219876E+03 -0.24604772643E+03  0.93987167036E+03  0.10100000352E+00 0.  1.
</event>
<event>
 5   0  0.3144958E-05  0.1903695E+04  0.7818609E-02  0.8653019E-01
        1   -1    0    0  501    0  0.00000000000E+00  0.00000000000E+00  0.17232351605E+04  0.17232351605E+04  0.50400001928E-02 0.  1.
       -1   -1    0    0    0  501  0.00000000000E+00  0.00000000000E+00 -0.52576346964E+03  0.52576346967E+03  0.50400001928E-02 0. -1.
    10030    2    1    2    0    0  0.00000000000E+00  0.00000000000E+00  0.11974716909E+04  0.22489986302E+04  0.19036954557E+04 0.  0.
        4    1    3    3  502    0  0.47561184973E+03  0.26636867082E+03  0.15205601428E+04  0.16153215349E+04  0.12699999809E+01 0.  1.
       -4    1    3    3    0  502 -0.47561184973E+03 -0.26636867082E+03 -0.32308845193E+03  0.63367709527E+03  0.12699999809E+01 0. -1.
</event>
<event>
 5   0  0.3086139E-05  0.1884074E+04  0.7818609E-02  0.8662825E-01
        1   -1    0    0  501    0  0.00000000000E+00  0.00000000000E+00  0.10232975774E+04  0.10232975774E+04  0.50400001928E-02 0. -1.
       -1   -1    0    0    0  501  0.00000000000E+00  0.00000000000E+00 -0.86722955014E+03  0.86722955015E+03  0.50400001928E-02 0.  1.
    10030    2    1    2    0    0  0.00000000000E+00  0.00000000000E+00  0.15606802729E+03  0.18905271276E+04  0.18840742000E+04 0.  0.
        2    1    3    3  502    0  0.19000804126E+03  0.33129750565E+03  0.94212964298E+03  0.10165969492E+04  0.25500000920E-02 0. -1.
       -2    1    3    3    0  502 -0.19000804126E+03 -0.33129750565E+03 -0.78606161569E+03  0.87393017837E+03  0.25500000920E-02 0.  1.
</event>
<event>
 5   0  0.3144958E-05  0.1900210E+04  0.7818609E-02  0.8654752E-01
        1   -1    0    0  501    0  0.00000000000E+00  0.00000000000E+00  0.16907584611E+04  0.16907584611E+04  0.50400001928E-02 0.  1.
       -1   -1    0    0    0  501  0.00000000000E+00  0.00000000000E+00 -0.53390184277E+03  0.53390184280E+03  0.50400001928E-02 0. -1.
    10030    2    1    2    0    0  0.00000000000E+00  0.00000000000E+00  0.11568566183E+04  0.22246603039E+04  0.19002095233E+04 0.  0.
        4    1    3    3  502    0  0.64488800233E+03  0.24316462007E+03 -0.18721357852E+03  0.71418492345E+03  0.12699999809E+01 0. -1.
       -4    1    3    3    0  502 -0.64488800233E+03 -0.24316462007E+03  0.13440701968E+04  0.15104753805E+04  0.12699999809E+01 0.  1.
</event>
<event>
 5   0  0.3083469E-05  0.1895205E+04  0.7818609E-02  0.8657247E-01
       -1   -1    0    0    0  501  0.00000000000E+00  0.00000000000E+00  0.68055602753E+03  0.68055602755E+03  0.50400001928E-02 0. -1.
        1   -1    0    0  501    0  0.00000000000E+00  0.00000000000E+00 -0.13194368701E+04  0.13194368702E+04  0.50400001928E-02 0.  1.
    10030    2    1    2    0    0  0.00000000000E+00  0.00000000000E+00 -0.63888084262E+03  0.19999928977E+04  0.18952052289E+04 0.  0.
        3    1    3    3  502    0 -0.23578787918E+03  0.65027544229E+03  0.36405631567E+03  0.78165918788E+03  0.10100000352E+00 0. -1.
       -3    1    3    3    0  502  0.23578787918E+03 -0.65027544229E+03 -0.10029371583E+04  0.12183337098E+04  0.10100000352E+00 0.  1.
</event>
<event>
 5   0  0.3203527E-05  0.1904328E+04  0.7818609E-02  0.8652705E-01
       -1   -1    0    0    0  501  0.00000000000E+00  0.00000000000E+00  0.12547467979E+04  0.12547467979E+04  0.50400001928E-02 0.  1.
        1   -1    0    0  501    0  0.00000000000E+00  0.00000000000E+00 -0.72254883240E+03  0.72254883241E+03  0.50400001928E-02 0. -1.
    10030    2    1    2    0    0  0.00000000000E+00  0.00000000000E+00  0.53219796548E+03  0.19772956303E+04  0.19043275283E+04 0.  0.
        1    1    3    3  502    0  0.64968687681E+03 -0.33480212093E+03 -0.36755546172E+03  0.81809688640E+03  0.50400001928E-02 0. -1.
       -1    1    3    3    0  502 -0.64968687681E+03  0.33480212093E+03  0.89975342721E+03  0.11591987439E+04  0.50400001928E-02 0.  1.
</event>
<event>
 5   0  0.6395992E-05  0.1899269E+04  0.7818609E-02  0.8655220E-01
       -2   -1    0    0    0  501  0.00000000000E+00  0.00000000000E+00  0.78637191121E+03  0.78637191121E+03  0.25500000920E-02 0. -1.
        2   -1    0    0  501    0  0.00000000000E+00  0.00000000000E+00 -0.11467928774E+04  0.11467928774E+04  0.25500000920E-02 0.  1.
    10030    2    1    2    0    0  0.00000000000E+00  0.00000000000E+00 -0.36042096622E+03  0.19331647887E+04  0.18992690244E+04 0.  0.
        4    1    3    3  502    0 -0.45133510823E+03 -0.40492999297E+03  0.56367632685E+03  0.82789147445E+03  0.12699999809E+01 0. -1.
       -4    1    3    3    0  502  0.45133510823E+03  0.40492999297E+03 -0.92409729307E+03  0.11052733142E+04  0.12699999809E+01 0.  1.
</event>
<event>
 5   0  0.6395992E-05  0.1890857E+04  0.7818609E-02  0.8659421E-01
       -2   -1    0    0    0  501  0.00000000000E+00  0.00000000000E+00  0.78962367578E+03  0.78962367578E+03  0.25500000920E-02 0.  1.
        2   -1    0    0  501    0  0.00000000000E+00  0.00000000000E+00 -0.11319757726E+04  0.11319757726E+04  0.25500000920E-02 0. -1.
    10030    2    1    2    0    0  0.00000000000E+00  0.00000000000E+00 -0.34235209683E+03  0.19215994484E+04  0.18908568116E+04 0.  0.
        4    1    3    3  502    0 -0.71905480207E+03 -0.39700770116E+03 -0.64695259990E+03  0.10455640595E+04  0.12699999809E+01 0. -1.
       -4    1    3    3    0  502  0.71905480207E+03  0.39700770116E+03  0.30460050308E+03  0.87603538886E+03  0.12699999809E+01 0.  1.
</event>
<event>
 5   0  0.3203527E-05  0.1906002E+04  0.7818609E-02  0.8651875E-01
       -1   -1    0    0    0  501  0.00000000000E+00  0.00000000000E+00  0.12994763022E+04  0.12994763022E+04  0.50400001928E-02 0. -1.
        1   -1    0    0  501    0  0.00000000000E+00  0.00000000000E+00 -0.69890499044E+03  0.69890499046E+03  0.50400001928E-02 0.  1.
    10030    2    1    2    0    0  0.00000000000E+00  0.00000000000E+00  0.60057131172E+03  0.19983812926E+04  0.19060015452E+04 0.  0.
        1    1    3    3  502    0  0.35902198287E+03  0.36417819272E+03  0.11434310763E+04  0.12525802037E+04  0.50400001928E-02 0. -1.
       -1    1    3    3    0  502 -0.35902198287E+03 -0.36417819272E+03 -0.54285976462E+03  0.74580108897E+03  0.50400001928E-02 0.  1.
</event>
<event>
 5   0  0.3144958E-05  0.1933904E+04  0.7818609E-02  0.8638162E-01
       -1   -1    0    0    0  501  0.00000000000E+00  0.00000000000E+00  0.82061193663E+03  0.82061193664E+03  0.50400001928E-02 0.  1.
        1   -1    0    0  501    0  0.00000000000E+00  0.00000000000E+00 -0.11393892390E+04  0.11393892390E+04  0.50400001928E-02 0. -1.
    10030    2    1    2    0    0  0.00000000000E+00  0.00000000000E+00 -0.31877730240E+03  0.19600011757E+04  0.19339042479E+04 0.  0.
        4    1    3    3  502    0 -0.72508584667E+03 -0.55937968022E+03 -0.47396348551E+03  0.10311634740E+04  0.12699999809E+01 0.  1.
       -4    1    3    3    0  502  0.72508584667E+03  0.55937968022E+03  0.15518618311E+03  0.92883770165E+03  0.12699999809E+01 0. -1.
</event>
<event>
 5   0  0.6395992E-05  0.1859401E+04  0.7818609E-02  0.8675333E-01
       -2   -1    0    0    0  501  0.00000000000E+00  0.00000000000E+00  0.95124538251E+03  0.95124538251E+03  0.25500000920E-02 0.  1.
        2   -1    0    0  501    0  0.00000000000E+00  0.00000000000E+00 -0.90864373327E+03  0.90864373327E+03  0.25500000920E-02 0. -1.
    10030    2    1    2    0    0  0.00000000000E+00  0.00000000000E+00  0.42601649241E+02  0.18598891158E+04  0.18594011462E+04 0.  0.
        4    1    3    3  502    0 -0.57393269242E+03  0.63594235945E+03 -0.34006967431E+03  0.92166719388E+03  0.12699999809E+01 0. -1.
       -4    1    3    3    0  502  0.57393269242E+03 -0.63594235945E+03  0.38267132356E+03  0.93822192191E+03  0.12699999809E+01 0.  1.
</event>
<event>
 5   0  0.6395992E-05  0.1902888E+04  0.7818609E-02  0.8653420E-01
       -2   -1    0    0    0  501  0.00000000000E+00  0.00000000000E+00  0.42214960571E+03  0.42214960572E+03  0.25500000920E-02 0.  1.
        2   -1    0    0  501    0  0.00000000000E+00  0.00000000000E+00 -0.21443718409E+04  0.21443718409E+04  0.25500000920E-02 0. -1.
    10030    2    1    2    0    0  0.00000000000E+00  0.00000000000E+00 -0.17222222352E+04  0.25665214466E+04  0.19028880441E+04 0.  0.
        4    1    3    3  502    0 -0.83706997643E+03  0.45148133889E+03 -0.82485582210E+03  0.12589322003E+04  0.12699999809E+01 0. -1.
       -4    1    3    3    0  502  0.83706997643E+03 -0.45148133889E+03 -0.89736641305E+03  0.13075892463E+04  0.12699999809E+01 0.  1.
</event>
<event>
 5   0  0.6098377E-05  0.1905157E+04  0.7818609E-02  0.8652294E-01
        2   -1    0    0  501    0  0.00000000000E+00  0.00000000000E+00  0.15861748167E+04  0.15861748167E+04  0.25500000920E-02 0. -1.
       -2   -1    0    0    0  501  0.00000000000E+00  0.00000000000E+00 -0.57207151166E+03  0.57207151167E+03  0.25500000920E-02 0.  1.
    10030    2    1    2    0    0  0.00000000000E+00  0.00000000000E+00  0.10141033050E+04  0.21582463284E+04  0.19051566079E+04 0.  0.
        5    1    3    3  502    0  0.49737498675E+02  0.57824970774E+03 -0.34862987640E+03  0.67706087170E+03  0.46999998093E+01 0.  1.
       -5    1    3    3    0  502 -0.49737498675E+02 -0.57824970774E+03  0.13627331814E+04  0.14811854567E+04  0.46999998093E+01 0. -1.
</event>
<event>
 5   0  0.6361762E-05  0.1897602E+04  0.7818609E-02  0.8656051E-01
       -2   -1    0    0    0  501  0.00000000000E+00  0.00000000000E+00  0.11836475508E+04  0.11836475508E+04  0.25500000920E-02 0. -1.
        2   -1    0    0  501    0  0.00000000000E+00  0.00000000000E+00 -0.76055043822E+03  0.76055043822E+03  0.25500000920E-02 0.  1.
    10030    2    1    2    0    0  0.00000000000E+00  0.00000000000E+00  0.42309711253E+03  0.19441979890E+04  0.18976023434E+04 0.  0.
        1    1    3    3  502    0  0.21811422384E+03 -0.32490611225E+03 -0.67401664405E+03  0.77938195572E+03  0.50400001928E-02 0.  1.
       -1    1    3    3    0  502 -0.21811422384E+03  0.32490611225E+03  0.10971137566E+04  0.11648160333E+04  0.50400001928E-02 0. -1.
</event>
<event>
 5   0  0.3147063E-05  0.1909681E+04  0.7818609E-02  0.8650053E-01
       -1   -1    0    0    0  501  0.00000000000E+00  0.00000000000E+00  0.11208153957E+04  0.11208153957E+04  0.50400001928E-02 0.  1.
        1   -1    0    0  501    0  0.00000000000E+00  0.00000000000E+00 -0.81344373524E+03  0.81344373526E+03  0.50400001928E-02 0. -1.
    10030    2    1    2    0    0  0.00000000000E+00  0.00000000000E+00  0.30737166043E+03  0.19342591309E+04  0.19096808760E+04 0.  0.
        5    1    3    3  502    0 -0.74340788691E+03  0.42875187035E+02  0.75904396196E+03  0.10633265699E+04  0.46999998093E+01 0.  1.
       -5    1    3    3    0  502  0.74340788691E+03 -0.42875187035E+02 -0.45167230153E+03  0.87093256108E+03  0.46999998093E+01 0. -1.
</event>
<event>
 5   0  0.6098377E-05  0.1898276E+04  0.7818609E-02  0.8655715E-01
       -2   -1    0    0    0  501  0.00000000000E+00  0.00000000000E+00  0.51069295838E+03  0.51069295839E+03  0.25500000920E-02 0.  1.
        2   -1    0    0  501    0  0.00000000000E+00  0.00000000000E+00 -0.17640005347E+04  0.17640005347E+04  0.25500000920E-02 0. -1.
    10030    2    1    2    0    0  0.00000000000E+00  0.00000000000E+00 -0.12533075763E+04  0.22746934930E+04  0.18982756930E+04 0.  0.
        5    1    3    3  502    0 -0.59281393372E+03  0.29680673156E+03  0.18723259533E+03  0.68891271629E+03  0.46999998093E+01 0.  1.
       -5    1    3    3    0  502  0.59281393372E+03 -0.29680673156E+03 -0.14405401716E+04  0.15857807767E+04  0.46999998093E+01 0. -1.
</event>
<event>
 5   0  0.3086139E-05  0.1895689E+04  0.7818609E-02  0.8657005E-01
       -1   -1    0    0    0  501  0.00000000000E+00  0.00000000000E+00  0.14133379624E+04  0.14133379624E+04  0.50400001928E-02 0.  1.
        1   -1    0    0  501    0  0.00000000000E+00  0.00000000000E+00 -0.63566469709E+03  0.63566469711E+03  0.50400001928E-02 0. -1.
    10030    2    1    2    0    0  0.00000000000E+00  0.00000000000E+00  0.77767326530E+03  0.20490026595E+04  0.18956888434E+04 0.  0.
        2    1    3    3  502    0  0.21959254533E+03  0.90107493430E+03  0.60023578844E+03  0.11047352284E+04  0.25500000920E-02 0. -1.
       -2    1    3    3    0  502 -0.21959254533E+03 -0.90107493430E+03  0.17743747686E+03  0.94426743107E+03  0.25500000920E-02 0.  1.
</event>
<event>
 5   0  0.6098377E-05  0.1900569E+04  0.7818609E-02  0.8654573E-01
        2   -1    0    0  501    0  0.00000000000E+00  0.00000000000E+00  0.17995085996E+04  0.17995085996E+04  0.25500000920E-02 0. -1.
       -2   -1    0    0    0  501  0.00000000000E+00  0.00000000000E+00 -0.50182617862E+03  0.50182617863E+03  0.25500000920E-02 0.  1.
    10030    2    1    2    0    0  0.00000000000E+00  0.00000000000E+00  0.12976824210E+04  0.23013347782E+04  0.19005688874E+04 0.  0.
        5    1    3    3  502    0 -0.28350685537E+03 -0.78414631580E+03  0.96924093297E+02  0.83945098219E+03  0.46999998093E+01 0.  1.
       -5    1    3    3    0  502  0.28350685537E+03  0.78414631580E+03  0.12007583277E+04  0.14618837960E+04  0.46999998093E+01 0. -1.
</event>
<event>
 5   0  0.3083469E-05  0.1901993E+04  0.7818609E-02  0.8653865E-01
       -1   -1    0    0    0  501  0.00000000000E+00  0.00000000000E+00  0.89754718967E+03  0.89754718968E+03  0.50400001928E-02 0.  1.
        1   -1    0    0  501    0  0.00000000000E+00  0.00000000000E+00 -0.10076284945E+04  0.10076284945E+04  0.50400001928E-02 0. -1.
    10030    2    1    2    0    0  0.00000000000E+00  0.00000000000E+00 -0.11008130480E+03  0.19051756842E+04  0.19019927691E+04 0.  0.
        3    1    3    3  502    0 -0.45168847456E+03 -0.19224970133E+03 -0.87090457218E+03  0.99972856804E+03  0.10100000352E+00 0. -1.
       -3    1    3    3    0  502  0.45168847456E+03  0.19224970133E+03  0.76082326738E+03  0.90544711613E+03  0.10100000352E+00 0.  1.
</event>
<event>
 5   0  0.3144958E-05  0.1897051E+04  0.7818609E-02  0.8656326E-01
        1   -1    0    0  501    0  0.00000000000E+00  0.00000000000E+00  0.12913851735E+04  0.12913851735E+04  0.50400001928E-02 0.  1.
       -1   -1    0    0    0  501  0.00000000000E+00  0.00000000000E+00 -0.69669416895E+03  0.69669416897E+03  0.50400001928E-02 0. -1.
    10030    2    1    2    0    0  0.00000000000E+00  0.00000000000E+00  0.59469100458E+03  0.19880793425E+04  0.18970508905E+04 0.  0.
        4    1    3    3  502    0 -0.74797596793E+03 -0.17227569367E+03 -0.28666661414E+03  0.81934505783E+03  0.12699999809E+01 0. -1.
       -4    1    3    3    0  502  0.74797596793E+03  0.17227569367E+03  0.88135761873E+03  0.11687342847E+04  0.12699999809E+01 0.  1.
</event>
<event>
 5   0  0.3083469E-05  0.1848819E+04  0.7818609E-02  0.8680761E-01
       -1   -1    0    0    0  501  0.00000000000E+00  0.00000000000E+00  0.86606646814E+03  0.86606646815E+03  0.50400001928E-02 0.  1.
        1   -1    0    0  501    0  0.00000000000E+00  0.00000000000E+00 -0.98668255179E+03  0.98668255180E+03  0.50400001928E-02 0. -1.
    10030    2    1    2    0    0  0.00000000000E+00  0.00000000000E+00 -0.12061608365E+03  0.18527490200E+04  0.18488187286E+04 0.  0.
        3    1    3    3  502    0 -0.42988504129E+03  0.40857817601E+03  0.65028001360E+03  0.88011441354E+03  0.10100000352E+00 0.  1.
       -3    1    3    3    0  502  0.42988504129E+03 -0.40857817601E+03 -0.77089609725E+03  0.97263460641E+03  0.10100000352E+00 0. -1.
</event>
<event>
 5   0  0.3083469E-05  0.1907087E+04  0.7818609E-02  0.8651337E-01
        1   -1    0    0  501    0  0.00000000000E+00  0.00000000000E+00  0.11380632835E+04  0.11380632835E+04  0.50400001928E-02 0. -1.
       -1   -1    0    0    0  501  0.00000000000E+00  0.00000000000E+00 -0.79894078292E+03  0.79894078293E+03  0.50400001928E-02 0.  1.
    10030    2    1    2    0    0  0.00000000000E+00  0.00000000000E+00  0.33912250055E+03  0.19370040664E+04  0.19070869626E+04 0.  0.
        3    1    3    3  502    0  0.60740796890E+03  0.63878796283E+03 -0.19980648504E+03  0.90383468831E+03  0.10100000352E+00 0.  1.
       -3    1    3    3    0  502 -0.60740796890E+03 -0.63878796283E+03  0.53892898560E+03  0.10331693781E+04  0.10100000352E+00 0. -1.
</event>
<event>
 5   0  0.6423388E-05  0.1895912E+04  0.7818609E-02  0.8656894E-01
        2   -1    0    0  501    0  0.00000000000E+00  0.00000000000E+00  0.15212260243E+04  0.15212260243E+04  0.25500000920E-02 0. -1.
       -2   -1    0    0    0  501  0.00000000000E+00  0.00000000000E+00 -0.59072127825E+03  0.59072127826E+03  0.25500000920E-02 0.  1.
    10030    2    1    2    0    0  0.00000000000E+00  0.00000000000E+00  0.93050474608E+03  0.21119473026E+04  0.18959120039E+04 0.  0.
        2    1    3    3  502    0 -0.75392763227E+03 -0.30784750190E+03 -0.75263393634E+02  0.81782732747E+03  0.25500000920E-02 0.  1.
       -2    1    3    3    0  502  0.75392763227E+03  0.30784750190E+03  0.10057681397E+04  0.12941199751E+04  0.25500000920E-02 0. -1.
</event>
<event>
 5   0  0.3147063E-05  0.1899172E+04  0.7818609E-02  0.8655269E-01
        1   -1    0    0  501    0  0.00000000000E+00  0.00000000000E+00  0.10360862206E+04  0.10360862206E+04  0.50400001928E-02 0. -1.
       -1   -1    0    0    0  501  0.00000000000E+00  0.00000000000E+00 -0.87030766610E+03  0.87030766611E+03  0.50400001928E-02 0.  1.
    10030    2    1    2    0    0  0.00000000000E+00  0.00000000000E+00  0.16577855453E+03  0.19063938868E+04  0.18991722203E+04 0.  0.
        5    1    3    3  502    0  0.84015024061E+03 -0.11179866773E+03 -0.34692148129E+03  0.91582092850E+03  0.46999998093E+01 0. -1.
       -5    1    3    3    0  502 -0.84015024061E+03  0.11179866773E+03  0.51270003582E+03  0.99057295826E+03  0.46999998093E+01 0.  1.
</event>
<event>
 5   0  0.3086139E-05  0.1926154E+04  0.7818609E-02  0.8641946E-01
        1   -1    0    0  501    0  0.00000000000E+00  0.00000000000E+00  0.99551102206E+03  0.99551102207E+03  0.50400001928E-02 0. -1.
       -1   -1    0    0    0  501  0.00000000000E+00  0.00000000000E+00 -0.93169993852E+03  0.93169993853E+03  0.50400001928E-02 0.  1.
    10030    2    1    2    0    0  0.00000000000E+00  0.00000000000E+00  0.63811083537E+02  0.19272109606E+04  0.19261542597E+04 0.  0.
        2    1    3    3  502    0 -0.82362963159E+03  0.49188651671E+03  0.11680162061E+03  0.96641643919E+03  0.25500000920E-02 0.  1.
       -2    1    3    3    0  502  0.82362963159E+03 -0.49188651671E+03 -0.52990537075E+02  0.96079452141E+03  0.25500000920E-02 0. -1.
</event>
<event>
 5   0  0.3083469E-05  0.1898123E+04  0.7818609E-02  0.8655791E-01
       -1   -1    0    0    0  501  0.00000000000E+00  0.00000000000E+00  0.62099725778E+03  0.62099725780E+03  0.50400001928E-02 0. -1.
        1   -1    0    0  501    0  0.00000000000E+00  0.00000000000E+00 -0.14504374976E+04  0.14504374976E+04  0.50400001928E-02 0.  1.
    10030    2    1    2    0    0  0.00000000000E+00  0.00000000000E+00 -0.82944023986E+03  0.20714347554E+04  0.18981229767E+04 0.  0.
        3    1    3    3  502    0 -0.88999075802E+03 -0.12853153606E+03 -0.74593454738E+03  0.11683416728E+04  0.10100000352E+00 0.  1.
       -3    1    3    3    0  502  0.88999075802E+03  0.12853153606E+03 -0.83505692483E+02  0.90309308269E+03  0.10100000352E+00 0. -1.
</event>
<event>
 5   0  0.6361762E-05  0.1904049E+04  0.7818609E-02  0.8652843E-01
       -2   -1    0    0    0  501  0.00000000000E+00  0.00000000000E+00  0.86888601418E+03  0.86888601419E+03  0.25500000920E-02 0. -1.
        2   -1    0    0  501    0  0.00000000000E+00  0.00000000000E+00 -0.10431184928E+04  0.10431184928E+04  0.25500000920E-02 0.  1.
    10030    2    1    2    0    0  0.00000000000E+00  0.00000000000E+00 -0.17423247858E+03  0.19120045069E+04  0.19040494421E+04 0.  0.
        1    1    3    3  502    0 -0.36812418778E+03 -0.12338038479E+03 -0.96000797431E+03  0.10355450004E+04  0.50400001928E-02 0.  1.
       -1    1    3    3    0  502  0.36812418778E+03  0.12338038479E+03  0.78577549574E+03  0.87645950660E+03  0.50400001928E-02 0. -1.
</event>
<event>
 5   0  0.6423388E-05  0.1904267E+04  0.7818609E-02  0.8652735E-01
        2   -1    0    0  501    0  0.00000000000E+00  0.00000000000E+00  0.21634281082E+04  0.21634281082E+04  0.25500000920E-02 0.  1.
       -2   -1    0    0    0  501  0.00000000000E+00  0.00000000000E+00 -0.41903799603E+03  0.41903799604E+03  0.25500000920E-02 0. -1.
    10030    2    1    2    0    0  0.00000000000E+00  0.00000000000E+00  0.17443901122E+04  0.25824661043E+04  0.19042673962E+04 0.  0.
        2    1    3    3  502    0 -0.55827557417E+03 -0.70739818607E+03  0.45535963474E+03  0.10096713363E+04  0.25500000920E-02 0.  1.
       -2    1    3    3    0  502  0.55827557417E+03  0.70739818607E+03  0.12890304775E+04  0.15727947680E+04  0.25500000920E-02 0. -1.
</event>
<event>
 5   0  0.3083469E-05  0.1897363E+04  0.7818609E-02  0.8656170E-01
        1   -1    0    0  501    0  0.00000000000E+00  0.00000000000E+00  0.85736663322E+03  0.85736663323E+03  0.50400001928E-02 0. -1.
       -1   -1    0    0    0  501  0.00000000000E+00  0.00000000000E+00 -0.10497218138E+04  0.10497218138E+04  0.50400001928E-02 0.  1.
    10030    2    1    2    0    0  0.00000000000E+00  0.00000000000E+00 -0.19235518059E+03  0.19070884470E+04  0.18973628618E+04 0.  0.
        3    1    3    3  502    0 -0.41177893098E+03  0.76617904553E+03  0.28445101145E+03  0.91515277737E+03  0.10100000352E+00 0. -1.
       -3    1    3    3    0  502  0.41177893098E+03 -0.76617904553E+03 -0.47680619204E+03  0.99193566968E+03  0.10100000352E+00 0.  1.
</event>
<event>
 5   0  0.6361762E-05  0.1891880E+04  0.7818609E-02  0.8658909E-01
       -2   -1    0    0    0  501  0.00000000000E+00  0.00000000000E+00  0.55319796829E+03  0.55319796830E+03  0.25500000920E-02 0.  1.
        2   -1    0    0  501    0  0.00000000000E+00  0.00000000000E+00 -0.16175089633E+04  0.16175089633E+04  0.25500000920E-02 0. -1.
    10030    2    1    2    0    0  0.00000000000E+00  0.00000000000E+00 -0.10643109950E+04  0.21707069316E+04  0.18918801994E+04 0.  0.
        1    1    3    3  502    0 -0.67268503870E+03  0.55428508981E+03 -0.95383244282E+03  0.12921042725E+04  0.50400001928E-02 0. -1.
       -1    1    3    3    0  502  0.67268503870E+03 -0.55428508981E+03 -0.11047855222E+03  0.87860265911E+03  0.50400001928E-02 0.  1.
</event>
<event>
 5   0  0.3203527E-05  0.1889455E+04  0.7818609E-02  0.8660123E-01
       -1   -1    0    0    0  501  0.00000000000E+00  0.00000000000E+00  0.42561298975E+03  0.42561298978E+03  0.50400001928E-02 0. -1.
        1   -1    0    0  501    0  0.00000000000E+00  0.00000000000E+00 -0.20970000364E+04  0.20970000364E+04  0.50400001928E-02 0.  1.
    10030    2    1    2    0    0  0.00000000000E+00  0.00000000000E+00 -0.16713870466E+04  0.25226130261E+04  0.18894554295E+04 0.  0.
        1    1    3    3  502    0  0.51861334017E+02  0.92715094790E+03 -0.10677552684E+04  0.14150617624E+04  0.50400001928E-02 0.  1.
       -1    1    3    3    0  502 -0.51861334017E+02 -0.92715094790E+03 -0.60363177825E+03  0.11075512638E+04  0.50400001928E-02 0. -1.
</event>
<event>
 5   0  0.3083469E-05  0.1900153E+04  0.7818609E-02  0.8654780E-01
       -1   -1    0    0    0  501  0.00000000000E+00  0.00000000000E+00  0.97482261057E+03  0.97482261058E+03  0.50400001928E-02 0. -1.
        1   -1    0    0  501    0  0.00000000000E+00  0.00000000000E+00 -0.92595809709E+03  0.92595809711E+03  0.50400001928E-02 0.  1.
    10030    2    1    2    0    0  0.00000000000E+00  0.00000000000E+00  0.48864513474E+02  0.19007807077E+04  0.19001525092E+04 0.  0.
        3    1    3    3  502    0  0.34023845716E+03 -0.86582361526E+03  0.21745236221E+03  0.95535243785E+03  0.10100000352E+00 0. -1.
       -3    1    3    3    0  502 -0.34023845716E+03  0.86582361526E+03 -0.16858784874E+03  0.94542826984E+03  0.10100000352E+00 0.  1.
</event>
<event>
 5   0  0.6395992E-05  0.1901950E+04  0.7818609E-02  0.8653886E-01
        2   -1    0    0  501    0  0.00000000000E+00  0.00000000000E+00  0.76239234259E+03  0.76239234260E+03  0.25500000920E-02 0. -1.
       -2   -1    0    0    0  501  0.00000000000E+00  0.00000000000E+00 -0.11862046553E+04  0.11862046553E+04  0.25500000920E-02 0.  1.
    10030    2    1    2    0    0  0.00000000000E+00  0.00000000000E+00 -0.42381231270E+03  0.19485969979E+04  0.19019498899E+04 0.  0.
        4    1    3    3  502    0 -0.73290877108E+03  0.10820828465E+03 -0.82275686926E+03  0.11071561671E+04  0.12699999809E+01 0.  1.
       -4    1    3    3    0  502  0.73290877108E+03 -0.10820828465E+03  0.39894455656E+03  0.84144083077E+03  0.12699999809E+01 0. -1.
</event>
<event>
 5   0  0.2279625E-05  0.1893656E+04  0.7818609E-02  0.8658021E-01
       -4   -1    0    0    0  501  0.00000000000E+00  0.00000000000E+00  0.87199430700E+03  0.87199523184E+03  0.12699999809E+01 0.  1.
        4   -1    0    0  501    0  0.00000000000E+00  0.00000000000E+00 -0.10280818532E+04  0.10280826376E+04  0.12699999809E+01 0. -1.
    10030    2    1    2    0    0  0.00000000000E+00  0.00000000000E+00 -0.15608754618E+03  0.19000778694E+04  0.18936558789E+04 0.  0.
        4    1    3    3  502    0 -0.15228466644E+03 -0.73039789638E+03  0.50686523040E+03  0.90198984549E+03  0.12699999809E+01 0. -1.
       -4    1    3    3    0  502  0.15228466644E+03  0.73039789638E+03 -0.66295277658E+03  0.99808802395E+03  0.12699999809E+01 0.  1.
</event>
<event>
 5   0  0.6361762E-05  0.1896896E+04  0.7818609E-02  0.8656403E-01
        2   -1    0    0  501    0  0.00000000000E+00  0.00000000000E+00  0.15704793969E+04  0.15704793969E+04  0.25500000920E-02 0. -1.
       -2   -1    0    0    0  501  0.00000000000E+00  0.00000000000E+00 -0.57278919863E+03  0.57278919864E+03  0.25500000920E-02 0.  1.
    10030    2    1    2    0    0  0.00000000000E+00  0.00000000000E+00  0.99769019823E+03  0.21432685955E+04  0.18968960279E+04 0.  0.
        1    1    3    3  502    0 -0.62161026926E+02  0.14146137203E+03 -0.55847228461E+03  0.57945371321E+03  0.50400001928E-02 0.  1.
       -1    1    3    3    0  502  0.62161026926E+02 -0.14146137203E+03  0.15561624828E+04  0.15638148823E+04  0.50400001928E-02 0. -1.
</event>
<event>
 5   0  0.6098377E-05  0.1896226E+04  0.7818609E-02  0.8656737E-01
       -2   -1    0    0    0  501  0.00000000000E+00  0.00000000000E+00  0.94136088855E+03  0.94136088856E+03  0.25500000920E-02 0.  1.
        2   -1    0    0  501    0  0.00000000000E+00  0.00000000000E+00 -0.95491380093E+03  0.95491380094E+03  0.25500000920E-02 0. -1.
    10030    2    1    2    0    0  0.00000000000E+00  0.00000000000E+00 -0.13552912380E+02  0.18962746895E+04  0.18962262567E+04 0.  0.
        5    1    3    3  502    0 -0.85078722831E+02  0.78384348324E+02  0.93426507031E+03  0.94141160326E+03  0.46999998093E+01 0.  1.
       -5    1    3    3    0  502  0.85078722831E+02 -0.78384348324E+02 -0.94781798269E+03  0.95486308624E+03  0.46999998093E+01 0. -1.
</event>
<event>
 5   0  0.6395992E-05  0.1897123E+04  0.7818609E-02  0.8656290E-01
        2   -1    0    0  501    0  0.00000000000E+00  0.00000000000E+00  0.15801082969E+04  0.15801082969E+04  0.25500000920E-02 0.  1.
       -2   -1    0    0    0  501  0.00000000000E+00  0.00000000000E+00 -0.56943481886E+03  0.56943481886E+03  0.25500000920E-02 0. -1.
    10030    2    1    2    0    0  0.00000000000E+00  0.00000000000E+00  0.10106734781E+04  0.21495431158E+04  0.18971227497E+04 0.  0.
        4    1    3    3  502    0  0.43457509575E+03  0.22983561105E+03 -0.41382604745E+03  0.64259904482E+03  0.12699999809E+01 0. -1.
       -4    1    3    3    0  502 -0.43457509575E+03 -0.22983561105E+03  0.14244995255E+04  0.15069440710E+04  0.12699999809E+01 0.  1.
</event>
<event>
 5   0  0.3083469E-05  0.1895586E+04  0.7818609E-02  0.8657056E-01
        1   -1    0    0  501    0  0.00000000000E+00  0.00000000000E+00  0.88246603967E+03  0.88246603969E+03  0.50400001928E-02 0.  1.
       -1   -1    0    0    0  501  0.00000000000E+00  0.00000000000E+00 -0.10179564130E+04  0.10179564130E+04  0.50400001928E-02 0. -1.
    10030    2    1    2    0    0  0.00000000000E+00  0.00000000000E+00 -0.13549037330E+03  0.19004224527E+04  0.18955864152E+04 0.  0.
        3    1    3    3  502    0 -0.34975130497E+03 -0.77210673253E+03 -0.49289921448E+03  0.98052252783E+03  0.10100000352E+00 0. -1.
       -3    1    3    3    0  502  0.34975130497E+03  0.77210673253E+03  0.35740884119E+03  0.91989992483E+03  0.10100000352E+00 0.  1.
</event>
<event>
 5   0  0.3083469E-05  0.1897073E+04  0.7818609E-02  0.8656315E-01
       -1   -1    0    0    0  501  0.00000000000E+00  0.00000000000E+00  0.11116914533E+04  0.11116914533E+04  0.50400001928E-02 0.  1.
        1   -1    0    0  501    0  0.00000000000E+00  0.00000000000E+00 -0.80932627723E+03  0.80932627725E+03  0.50400001928E-02 0. -1.
    10030    2    1    2    0    0  0.00000000000E+00  0.00000000000E+00  0.30236517609E+03  0.19210177306E+04  0.18970725926E+04 0.  0.
        3    1    3    3  502    0 -0.80094668483E+03  0.36276868549E+03 -0.20912366222E+03  0.90379722694E+03  0.10100000352E+00 0. -1.
       -3    1    3    3    0  502  0.80094668483E+03 -0.36276868549E+03  0.51148883831E+03  0.10172205036E+04  0.10100000352E+00 0.  1.
</event>
<event>
 5   0  0.6452182E-05  0.1911212E+04  0.7818609E-02  0.8649295E-01
        2   -1    0    0  501    0  0.00000000000E+00  0.00000000000E+00  0.98563865626E+03  0.98563865626E+03  0.25500000920E-02 0. -1.
       -2   -1    0    0    0  501  0.00000000000E+00  0.00000000000E+00 -0.92648874579E+03  0.92648874580E+03  0.25500000920E-02 0.  1.
    10030    2    1    2    0    0  0.00000000000E+00  0.00000000000E+00  0.59149910462E+02  0.19121274021E+04  0.19112123089E+04 0.  0.
        3    1    3    3  502    0  0.46242729225E+02  0.67947989398E+03 -0.64108308014E+03  0.93531750875E+03  0.10100000352E+00 0.  1.
       -3    1    3    3    0  502 -0.46242729225E+02 -0.67947989398E+03  0.70023299061E+03  0.97680989331E+03  0.10100000352E+00 0. -1.
</event>
<event>
 5   0  0.6395992E-05  0.1924802E+04  0.7818609E-02  0.8642608E-01
        2   -1    0    0  501    0  0.00000000000E+00  0.00000000000E+00  0.14898697393E+04  0.14898697393E+04  0.25500000920E-02 0. -1.
       -2   -1    0    0    0  501  0.00000000000E+00  0.00000000000E+00 -0.62167573488E+03  0.62167573489E+03  0.25500000920E-02 0.  1.
    10030    2    1    2    0    0  0.00000000000E+00  0.00000000000E+00  0.86819400445E+03  0.21115454742E+04  0.19248021873E+04 0.  0.
        4    1    3    3  502    0 -0.32027654034E+03 -0.43238886337E+03  0.13094312820E+04  0.14156797260E+04  0.12699999809E+01 0. -1.
       -4    1    3    3    0  502  0.32027654034E+03  0.43238886337E+03 -0.44123727758E+03  0.69586574818E+03  0.12699999809E+01 0.  1.
</event>
<event>
 5   0  0.3086139E-05  0.1844536E+04  0.7818609E-02  0.8682968E-01
       -1   -1    0    0    0  501  0.00000000000E+00  0.00000000000E+00  0.11519685338E+04  0.11519685338E+04  0.50400001928E-02 0.  1.
        1   -1    0    0  501    0  0.00000000000E+00  0.00000000000E+00 -0.73836916629E+03  0.73836916631E+03  0.50400001928E-02 0. -1.
    10030    2    1    2    0    0  0.00000000000E+00  0.00000000000E+00  0.41359936748E+03  0.18903377001E+04  0.18445357637E+04 0.  0.
        2    1    3    3  502    0 -0.65497923048E+03  0.61622631574E+03 -0.28412476517E+01  0.89930013748E+03  0.25500000920E-02 0. -1.
       -2    1    3    3    0  502  0.65497923048E+03 -0.61622631574E+03  0.41644061513E+03  0.99103756262E+03  0.25500000920E-02 0.  1.
</event>
<event>
 5   0  0.3203527E-05  0.1906137E+04  0.7818609E-02  0.8651808E-01
       -1   -1    0    0    0  501  0.00000000000E+00  0.00000000000E+00  0.80875314978E+03  0.80875314980E+03  0.50400001928E-02 0. -1.
        1   -1    0    0  501    0  0.00000000000E+00  0.00000000000E+00 -0.11231356511E+04  0.11231356511E+04  0.50400001928E-02 0.  1.
    10030    2    1    2    0    0  0.00000000000E+00  0.00000000000E+00 -0.31438250132E+03  0.19318888009E+04  0.19061369263E+04 0.  0.
        1    1    3    3  502    0  0.72220150543E+03  0.59986893112E+03 -0.32348642447E+03  0.99300615094E+03  0.50400001928E-02 0. -1.
       -1    1    3    3    0  502 -0.72220150543E+03 -0.59986893112E+03  0.91039231467E+01  0.93888264997E+03  0.50400001928E-02 0.  1.
</event>
<event>
 5   0  0.3086139E-05  0.1902030E+04  0.7818609E-02  0.8653847E-01
        1   -1    0    0  501    0  0.00000000000E+00  0.00000000000E+00  0.17362725084E+04  0.17362725084E+04  0.50400001928E-02 0. -1.
       -1   -1    0    0    0  501  0.00000000000E+00  0.00000000000E+00 -0.52090282692E+03  0.52090282694E+03  0.50400001928E-02 0.  1.
    10030    2    1    2    0    0  0.00000000000E+00  0.00000000000E+00  0.12153696814E+04  0.22571753353E+04  0.19020297137E+04 0.  0.
        2    1    3    3  502    0 -0.48888861219E+03  0.20360567634E+03  0.15450893507E+04  0.16333304773E+04  0.25500000920E-02 0. -1.
       -2    1    3    3    0  502  0.48888861219E+03 -0.20360567634E+03 -0.32971966923E+03  0.62384485800E+03  0.25500000920E-02 0.  1.
</event>
<event>
 5   0  0.6395992E-05  0.1895752E+04  0.7818609E-02  0.8656974E-01
       -2   -1    0    0    0  501  0.00000000000E+00  0.00000000000E+00  0.87653451672E+03  0.87653451673E+03  0.25500000920E-02 0. -1.
        2   -1    0    0  501    0  0.00000000000E+00  0.00000000000E+00 -0.10250240093E+04  0.10250240093E+04  0.25500000920E-02 0.  1.
    10030    2    1    2    0    0  0.00000000000E+00  0.00000000000E+00 -0.14848949259E+03  0.19015585260E+04  0.18957520140E+04 0.  0.
        4    1    3    3  502    0 -0.23757687699E+03  0.86875490714E+03  0.22210806440E+03  0.92763757273E+03  0.12699999809E+01 0. -1.
       -4    1    3    3    0  502  0.23757687699E+03 -0.86875490714E+03 -0.37059755699E+03  0.97392095332E+03  0.12699999809E+01 0.  1.
</event>
<event>
 5   0  0.6395992E-05  0.1908526E+04  0.7818609E-02  0.8650624E-01
       -2   -1    0    0    0  501  0.00000000000E+00  0.00000000000E+00  0.50332430996E+03  0.50332430996E+03  0.25500000920E-02 0.  1.
        2   -1    0    0  501    0  0.00000000000E+00  0.00000000000E+00 -0.18092065208E+04  0.18092065208E+04  0.25500000920E-02 0. -1.
    10030    2    1    2    0    0  0.00000000000E+00  0.00000000000E+00 -0.13058822108E+04  0.23125308307E+04  0.19085257385E+04 0.  0.
        4    1    3    3  502    0  0.52860595932E+03 -0.63312851209E+03 -0.71408289493E+02  0.82787482735E+03  0.12699999809E+01 0.  1.
       -4    1    3    3    0  502 -0.52860595932E+03  0.63312851209E+03 -0.12344739213E+04  0.14846560034E+04  0.12699999809E+01 0. -1.
</event>
<event>
 5   0  0.6098377E-05  0.1904263E+04  0.7818609E-02  0.8652737E-01
        2   -1    0    0  501    0  0.00000000000E+00  0.00000000000E+00  0.33211710645E+03  0.33211710646E+03  0.25500000920E-02 0.  1.
       -2   -1    0    0    0  501  0.00000000000E+00  0.00000000000E+00 -0.27296240614E+04  0.27296240614E+04  0.25500000920E-02 0. -1.
    10030    2    1    2    0    0  0.00000000000E+00  0.00000000000E+00 -0.23975069549E+04  0.30617411679E+04  0.19042634744E+04 0.  0.
        5    1    3    3  502    0  0.59916252176E+03 -0.58522889068E+03 -0.19268100929E+04  0.21009778214E+04  0.46999998093E+01 0.  1.
       -5    1    3    3    0  502 -0.59916252176E+03  0.58522889068E+03 -0.47069686207E+03  0.96076334647E+03  0.46999998093E+01 0. -1.
</event>
<event>
 5   0  0.3083469E-05  0.1898955E+04  0.7818609E-02  0.8655377E-01
       -1   -1    0    0    0  501  0.00000000000E+00  0.00000000000E+00  0.39531078708E+03  0.39531078711E+03  0.50400001928E-02 0.  1.
        1   -1    0    0  501    0  0.00000000000E+00  0.00000000000E+00 -0.22805030906E+04  0.22805030906E+04  0.50400001928E-02 0. -1.
    10030    2    1    2    0    0  0.00000000000E+00  0.00000000000E+00 -0.18851923035E+04  0.26758138777E+04  0.18989549460E+04 0.  0.
        3    1    3    3  502    0  0.16808052893E+03  0.83659138608E+03 -0.35587765328E+03  0.92454590247E+03  0.10100000352E+00 0.  1.
       -3    1    3    3    0  502 -0.16808052893E+03 -0.83659138608E+03 -0.15293146502E+04  0.17512679752E+04  0.10100000352E+00 0. -1.
</event>
<event>
 5   0  0.3086139E-05  0.1897634E+04  0.7818609E-02  0.8656035E-01
        1   -1    0    0  501    0  0.00000000000E+00  0.00000000000E+00  0.14368272849E+04  0.14368272849E+04  0.50400001928E-02 0. -1.
       -1   -1    0    0    0  501  0.00000000000E+00  0.00000000000E+00 -0.62655668168E+03  0.62655668171E+03  0.50400001928E-02 0.  1.
    10030    2    1    2    0    0  0.00000000000E+00  0.00000000000E+00  0.81027060319E+03  0.20633839666E+04  0.18976340383E+04 0.  0.
        2    1    3    3  502    0 -0.93975032736E+03 -0.91748700106E+02  0.30368395500E+03  0.99185303663E+03  0.25500000920E-02 0.  1.
       -2    1    3    3    0  502  0.93975032736E+03  0.91748700106E+02  0.50658664819E+03  0.10715309300E+04  0.25500000920E-02 0. -1.
</event>
<event>
 5   0  0.6361762E-05  0.1898493E+04  0.7818609E-02  0.8655607E-01
        2   -1    0    0  501    0  0.00000000000E+00  0.00000000000E+00  0.13478231226E+04  0.13478231226E+04  0.25500000920E-02 0. -1.
       -2   -1    0    0    0  501  0.00000000000E+00  0.00000000000E+00 -0.66853680228E+03  0.66853680229E+03  0.25500000920E-02 0.  1.
    10030    2    1    2    0    0  0.00000000000E+00  0.00000000000E+00  0.67928632032E+03  0.20163599249E+04  0.18984934663E+04 0.  0.
        1    1    3    3  502    0 -0.38533736811E+03 -0.12014296774E+03  0.12521398628E+04  0.13155886348E+04  0.50400001928E-02 0. -1.
       -1    1    3    3    0  502  0.38533736811E+03  0.12014296774E+03 -0.57285354244E+03  0.70077129013E+03  0.50400001928E-02 0.  1.
</event>
<event>
 5   0  0.3144958E-05  0.1896918E+04  0.7818609E-02  0.8656392E-01
       -1   -1    0    0    0  501  0.00000000000E+00  0.00000000000E+00  0.37514378954E+03  0.37514378958E+03  0.50400001928E-02 0. -1.
        1   -1    0    0  501    0  0.00000000000E+00  0.00000000000E+00 -0.23979456044E+04  0.23979456044E+04  0.50400001928E-02 0.  1.
    10030    2    1    2    0    0  0.00000000000E+00  0.00000000000E+00 -0.20228018149E+04  0.27730893940E+04  0.18969179225E+04 0.  0.
        4    1    3    3  502    0  0.26324281332E+02 -0.21425842918E+03  0.33875216564E+03  0.40168928899E+03  0.12699999809E+01 0. -1.
       -4    1    3    3    0  502 -0.26324281332E+02  0.21425842918E+03 -0.23615539805E+04  0.23714001050E+04  0.12699999809E+01 0.  1.
</event>
<event>
 5   0  0.6361762E-05  0.1895213E+04  0.7818609E-02  0.8657243E-01
       -2   -1    0    0    0  501  0.00000000000E+00  0.00000000000E+00  0.86259240868E+03  0.86259240869E+03  0.25500000920E-02 0. -1.
        2   -1    0    0  501    0  0.00000000000E+00  0.00000000000E+00 -0.10409988906E+04  0.10409988906E+04  0.25500000920E-02 0.  1.
    10030    2    1    2    0    0  0.00000000000E+00  0.00000000000E+00 -0.17840648187E+03  0.19035912992E+04  0.18952126429E+04 0.  0.
        1    1    3    3  502    0 -0.86063074337E+03 -0.37304306740E+02 -0.48576620554E+03  0.98896192758E+03  0.50400001928E-02 0.  1.
       -1    1    3    3    0  502  0.86063074337E+03  0.37304306740E+02  0.30735972367E+03  0.91462937166E+03  0.50400001928E-02 0. -1.
</event>
<event>
 5   0  0.6423388E-05  0.1912627E+04  0.7818609E-02  0.8648596E-01
        2   -1    0    0  501    0  0.00000000000E+00  0.00000000000E+00  0.14201978312E+04  0.14201978312E+04  0.25500000920E-02 0. -1.
       -2   -1    0    0    0  501  0.00000000000E+00  0.00000000000E+00 -0.64394964339E+03  0.64394964339E+03  0.25500000920E-02 0.  1.
    10030    2    1    2    0    0  0.00000000000E+00  0.00000000000E+00  0.77624818782E+03  0.20641474746E+04  0.19126273939E+04 0.  0.
        2    1    3    3  502    0  0.60088322466E+03  0.33983921629E+03 -0.32610862864E+03  0.76347768814E+03  0.25500000920E-02 0.  1.
       -2    1    3    3    0  502 -0.60088322466E+03 -0.33983921629E+03  0.11023568165E+04  0.13006697865E+04  0.25500000920E-02 0. -1.
</event>
<event>
 5   0  0.3144958E-05  0.1897956E+04  0.7818609E-02  0.8655875E-01
        1   -1    0    0  501    0  0.00000000000E+00  0.00000000000E+00  0.72262738615E+03  0.72262738617E+03  0.50400001928E-02 0. -1.
       -1   -1    0    0    0  501  0.00000000000E+00  0.00000000000E+00 -0.12462288395E+04  0.12462288395E+04  0.50400001928E-02 0.  1.
    10030    2    1    2    0    0  0.00000000000E+00  0.00000000000E+00 -0.52360145338E+03  0.19688562257E+04  0.18979558360E+04 0.  0.
        4    1    3    3  502    0  0.43059298777E+03  0.73513333516E+03  0.17181680720E+03  0.86911102266E+03  0.12699999809E+01 0. -1.
       -4    1    3    3    0  502 -0.43059298777E+03 -0.73513333516E+03 -0.69541826058E+03  0.10997452030E+04  0.12699999809E+01 0.  1.
</event>
<event>
 5   0  0.6395992E-05  0.1868805E+04  0.7818609E-02  0.8670542E-01
       -2   -1    0    0    0  501  0.00000000000E+00  0.00000000000E+00  0.61635141440E+03  0.61635141441E+03  0.25500000920E-02 0. -1.
        2   -1    0    0  501    0  0.00000000000E+00  0.00000000000E+00 -0.14165755158E+04  0.14165755158E+04  0.25500000920E-02 0.  1.
    10030    2    1    2    0    0  0.00000000000E+00  0.00000000000E+00 -0.80022410141E+03  0.20329269302E+04  0.18688053112E+04 0.  0.
        4    1    3    3  502    0  0.68762788127E+03  0.62248939560E+03 -0.27712776399E+03  0.96805297438E+03  0.12699999809E+01 0.  1.
       -4    1    3    3    0  502 -0.68762788127E+03 -0.62248939560E+03 -0.52309633741E+03  0.10648739558E+04  0.12699999809E+01 0. -1.
</event>
<event>
 5   0  0.3083469E-05  0.1926546E+04  0.7818609E-02  0.8641754E-01
       -1   -1    0    0    0  501  0.00000000000E+00  0.00000000000E+00  0.55470355810E+03  0.55470355812E+03  0.50400001928E-02 0. -1.
        1   -1    0    0  501    0  0.00000000000E+00  0.00000000000E+00 -0.16727766459E+04  0.16727766459E+04  0.50400001928E-02 0.  1.
    10030    2    1    2    0    0  0.00000000000E+00  0.00000000000E+00 -0.11180730878E+04  0.22274802040E+04  0.19265462957E+04 0.  0.
        3    1    3    3  502    0 -0.82848634372E+02  0.36914600813E+03 -0.15832807539E+04  0.16278546088E+04  0.10100000352E+00 0.  1.
       -3    1    3    3    0  502  0.82848634372E+02 -0.36914600813E+03  0.46520766615E+03  0.59962559517E+03  0.10100000352E+00 0. -1.
</event>
<event>
 5   0  0.6098377E-05  0.1903847E+04  0.7818609E-02  0.8652944E-01
       -2   -1    0    0    0  501  0.00000000000E+00  0.00000000000E+00  0.11858382074E+04  0.11858382074E+04  0.25500000920E-02 0. -1.
        2   -1    0    0  501    0  0.00000000000E+00  0.00000000000E+00 -0.76414979156E+03  0.76414979156E+03  0.25500000920E-02 0.  1.
    10030    2    1    2    0    0  0.00000000000E+00  0.00000000000E+00  0.42168841582E+03  0.19499879989E+04  0.19038466524E+04 0.  0.
        5    1    3    3  502    0  0.31539893809E+03 -0.51777982260E+03  0.96249899866E+03  0.11375407014E+04  0.46999998093E+01 0. -1.
       -5    1    3    3    0  502 -0.31539893809E+03  0.51777982260E+03 -0.54081058284E+03  0.81244729758E+03  0.46999998093E+01 0.  1.
</event>
<event>
 5   0  0.6098377E-05  0.1903498E+04  0.7818609E-02  0.8653117E-01
       -2   -1    0    0    0  501  0.00000000000E+00  0.00000000000E+00  0.11061280511E+04  0.11061280511E+04  0.25500000920E-02 0.  1.
        2   -1    0    0  501    0  0.00000000000E+00  0.00000000000E+00 -0.81891594911E+03  0.81891594912E+03  0.25500000920E-02 0. -1.
    10030    2    1    2    0    0  0.00000000000E+00  0.00000000000E+00  0.28721210197E+03  0.19250440002E+04  0.19034977308E+04 0.  0.
        5    1    3    3  502    0  0.17376393050E+03 -0.26057507452E+03 -0.76529409274E+03  0.82691620578E+03  0.46999998093E+01 0. -1.
       -5    1    3    3    0  502 -0.17376393050E+03  0.26057507452E+03  0.10525061947E+04  0.10981277944E+04  0.46999998093E+01 0.  1.
</event>
<event>
 5   0  0.6361762E-05  0.1911544E+04  0.7818609E-02  0.8649131E-01
       -2   -1    0    0    0  501  0.00000000000E+00  0.00000000000E+00  0.78661109391E+03  0.78661109391E+03  0.25500000920E-02 0.  1.
        2   -1    0    0  501    0  0.00000000000E+00  0.00000000000E+00 -0.11613115040E+04  0.11613115040E+04  0.25500000920E-02 0. -1.
    10030    2    1    2    0    0  0.00000000000E+00  0.00000000000E+00 -0.37470041007E+03  0.19479225979E+04  0.19115444149E+04 0.  0.
        1    1    3    3  502    0 -0.44562936859E+03  0.73969337094E+03 -0.60474090306E+03  0.10542501492E+04  0.50400001928E-02 0. -1.
       -1    1    3    3    0  502  0.44562936859E+03 -0.73969337094E+03  0.23004049299E+03  0.89367244872E+03  0.50400001928E-02 0.  1.
</event>
<event>
 5   0  0.3144958E-05  0.1866316E+04  0.7818609E-02  0.8671807E-01
        1   -1    0    0  501    0  0.00000000000E+00  0.00000000000E+00  0.63985286145E+03  0.63985286147E+03  0.50400001928E-02 0.  1.
       -1   -1    0    0    0  501  0.00000000000E+00  0.00000000000E+00 -0.13609124432E+04  0.13609124432E+04  0.50400001928E-02 0. -1.
    10030    2    1    2    0    0  0.00000000000E+00  0.00000000000E+00 -0.72105958175E+03  0.20007653047E+04  0.18663158586E+04 0.  0.
        4    1    3    3  502    0 -0.77588939706E+03 -0.43871836541E+03 -0.65666122123E+03  0.11071060170E+04  0.12699999809E+01 0.  1.
       -4    1    3    3    0  502  0.77588939706E+03  0.43871836541E+03 -0.64398360518E+02  0.89365928762E+03  0.12699999809E+01 0. -1.
</event>
<event>
 5   0  0.3083469E-05  0.1905220E+04  0.7818609E-02  0.8652262E-01
        1   -1    0    0  501    0  0.00000000000E+00  0.00000000000E+00  0.91493752224E+03  0.91493752225E+03  0.50400001928E-02 0. -1.
       -1   -1    0    0    0  501  0.00000000000E+00  0.00000000000E+00 -0.99183391862E+03  0.99183391864E+03  0.50400001928E-02 0.  1.
    10030    2    1    2    0    0  0.00000000000E+00  0.00000000000E+00 -0.76896396384E+02  0.19067714409E+04  0.19052202686E+04 0.  0.
        3    1    3    3  502    0 -0.85626043410E+03 -0.40745160918E+03 -0.12944699185E+03  0.95705552541E+03  0.10100000352E+00 0.  1.
       -3    1    3    3    0  502  0.85626043410E+03  0.40745160918E+03  0.52550595471E+02  0.94971591548E+03  0.10100000352E+00 0. -1.
</event>
<event>
 5   0  0.3083469E-05  0.1882327E+04  0.7818609E-02  0.8663704E-01
        1   -1    0    0  501    0  0.00000000000E+00  0.00000000000E+00  0.69802888465E+03  0.69802888467E+03  0.50400001928E-02 0. -1.
       -1   -1    0    0    0  501  0.00000000000E+00  0.00000000000E+00 -0.12689860645E+04  0.12689860645E+04  0.50400001928E-02 0.  1.
    10030    2    1    2    0    0  0.00000000000E+00  0.00000000000E+00 -0.57095717988E+03  0.19670149492E+04  0.18823272057E+04 0.  0.
        3    1    3    3  502    0 -0.24191933314E+03  0.90631607787E+03 -0.20551717804E+03  0.96029741092E+03  0.10100000352E+00 0. -1.
       -3    1    3    3    0  502  0.24191933314E+03 -0.90631607787E+03 -0.36544000184E+03  0.10067175383E+04  0.10100000352E+00 0.  1.
</event>
<event>
 5   0  0.6395992E-05  0.1906382E+04  0.7818609E-02  0.8651686E-01
        2   -1    0    0  501    0  0.00000000000E+00  0.00000000000E+00  0.12347445310E+04  0.12347445310E+04  0.25500000920E-02 0.  1.
       -2   -1    0    0    0  501  0.00000000000E+00  0.00000000000E+00 -0.73583909158E+03  0.73583909158E+03  0.25500000920E-02 0. -1.
    10030    2    1    2    0    0  0.00000000000E+00  0.00000000000E+00  0.49890543942E+03  0.19705836226E+04  0.19063822219E+04 0.  0.
        4    1    3    3  502    0 -0.89379196934E+03 -0.94655082364E+01  0.59168882776E+03  0.10719379469E+04  0.12699999809E+01 0.  1.
       -4    1    3    3    0  502  0.89379196934E+03  0.94655082364E+01 -0.92783388344E+02  0.89864567564E+03  0.12699999809E+01 0. -1.
</event>
<event>
 5   0  0.3147063E-05  0.1914266E+04  0.7818609E-02  0.8647788E-01
        1   -1    0    0  501    0  0.00000000000E+00  0.00000000000E+00  0.13178563388E+04  0.13178563388E+04  0.50400001928E-02 0.  1.
       -1   -1    0    0    0  501  0.00000000000E+00  0.00000000000E+00 -0.69514661016E+03  0.69514661018E+03  0.50400001928E-02 0. -1.
    10030    2    1    2    0    0  0.00000000000E+00  0.00000000000E+00  0.62270972867E+03  0.20130029490E+04  0.19142657774E+04 0.  0.
        5    1    3    3  502    0  0.63841721707E+03  0.25097508449E+03  0.10132527690E+04  0.12236291514E+04  0.46999998093E+01 0.  1.
       -5    1    3    3    0  502 -0.63841721707E+03 -0.25097508449E+03 -0.39054304036E+03  0.78937379768E+03  0.46999998093E+01 0. -1.
</event>
<event>
 5   0  0.3144958E-05  0.1905751E+04  0.7818609E-02  0.8651999E-01
       -1   -1    0    0    0  501  0.00000000000E+00  0.00000000000E+00  0.71099334600E+03  0.71099334601E+03  0.50400001928E-02 0.  1.
        1   -1    0    0  501    0  0.00000000000E+00  0.00000000000E+00 -0.12770466484E+04  0.12770466484E+04  0.50400001928E-02 0. -1.
    10030    2    1    2    0    0  0.00000000000E+00  0.00000000000E+00 -0.56605330238E+03  0.19880399944E+04  0.19057509486E+04 0.  0.
        4    1    3    3  502    0  0.43637344868E+03  0.29843427874E+03  0.54397526853E+03  0.75854829188E+03  0.12699999809E+01 0.  1.
       -4    1    3    3    0  502 -0.43637344868E+03 -0.29843427874E+03 -0.11100285709E+04  0.12294917025E+04  0.12699999809E+01 0. -1.
</event>
<event>
 5   0  0.3086139E-05  0.1901904E+04  0.7818609E-02  0.8653909E-01
       -1   -1    0    0    0  501  0.00000000000E+00  0.00000000000E+00  0.83654689141E+03  0.83654689143E+03  0.50400001928E-02 0. -1.
        1   -1    0    0  501    0  0.00000000000E+00  0.00000000000E+00 -0.10810032349E+04  0.10810032349E+04  0.50400001928E-02 0.  1.
    10030    2    1    2    0    0  0.00000000000E+00  0.00000000000E+00 -0.24445634344E+03  0.19175501263E+04  0.19019041992E+04 0.  0.
        2    1    3    3  502    0 -0.40768893912E+03  0.41572430210E+03 -0.88025954785E+03  0.10554116912E+04  0.25500000920E-02 0.  1.
       -2    1    3    3    0  502  0.40768893912E+03 -0.41572430210E+03  0.63580320441E+03  0.86213843504E+03  0.25500000920E-02 0. -1.
</event>
<event>
 5   0  0.6452182E-05  0.1909139E+04  0.7818609E-02  0.8650321E-01
       -2   -1    0    0    0  501  0.00000000000E+00  0.00000000000E+00  0.37523512841E+03  0.37523512842E+03  0.25500000920E-02 0.  1.
        2   -1    0    0  501    0  0.00000000000E+00  0.00000000000E+00 -0.24283524461E+04  0.24283524461E+04  0.25500000920E-02 0. -1.
    10030    2    1    2    0    0  0.00000000000E+00  0.00000000000E+00 -0.20531173177E+04  0.28035875745E+04  0.19091392217E+04 0.  0.
        3    1    3    3  502    0 -0.83990101350E+03  0.43799631858E+03 -0.11998715825E+04  0.15287139407E+04  0.10100000352E+00 0. -1.
       -3    1    3    3    0  502  0.83990101350E+03 -0.43799631858E+03 -0.85324573514E+03  0.12748736339E+04  0.10100000352E+00 0.  1.
</event>
<event>
 5   0  0.6395992E-05  0.1905551E+04  0.7818609E-02  0.8652098E-01
        2   -1    0    0  501    0  0.00000000000E+00  0.00000000000E+00  0.97430028320E+03  0.97430028321E+03  0.25500000920E-02 0. -1.
       -2   -1    0    0    0  501  0.00000000000E+00  0.00000000000E+00 -0.93172613818E+03  0.93172613818E+03  0.25500000920E-02 0.  1.
    10030    2    1    2    0    0  0.00000000000E+00  0.00000000000E+00  0.42574145023E+02  0.19060264214E+04  0.19055508813E+04 0.  0.
        4    1    3    3  502    0 -0.45647045615E-01  0.76470488946E+03 -0.54719080133E+03  0.94031534923E+03  0.12699999809E+01 0.  1.
       -4    1    3    3    0  502  0.45647045615E-01 -0.76470488946E+03  0.58976494635E+03  0.96571107216E+03  0.12699999809E+01 0. -1.
</event>
<event>
 5   0  0.6361762E-05  0.1909487E+04  0.7818609E-02  0.8650149E-01
        2   -1    0    0  501    0  0.00000000000E+00  0.00000000000E+00  0.63552372283E+03  0.63552372283E+03  0.25500000920E-02 0. -1.
       -2   -1    0    0    0  501  0.00000000000E+00  0.00000000000E+00 -0.14343047812E+04  0.14343047812E+04  0.25500000920E-02 0.  1.
    10030    2    1    2    0    0  0.00000000000E+00  0.00000000000E+00 -0.79878105834E+03  0.20698285040E+04  0.19094865427E+04 0.  0.
        1    1    3    3  502    0 -0.16765803808E+03  0.46708374938E+03 -0.12835139627E+04  0.13761121100E+04  0.50400001928E-02 0.  1.
       -1    1    3    3    0  502  0.16765803808E+03 -0.46708374938E+03  0.48473290441E+03  0.69371639401E+03  0.50400001928E-02 0. -1.
</event>
<event>
 5   0  0.6452182E-05  0.1985173E+04  0.7818609E-02  0.8613584E-01
       -2   -1    0    0    0  501  0.00000000000E+00  0.00000000000E+00  0.47814289768E+03  0.47814289769E+03  0.25500000920E-02 0. -1.
        2   -1    0    0  501    0  0.00000000000E+00  0.00000000000E+00 -0.20605313098E+04  0.20605313098E+04  0.25500000920E-02 0.  1.
    10030    2    1    2    0    0  0.00000000000E+00  0.00000000000E+00 -0.15823884122E+04  0.25386742075E+04  0.19851734547E+04 0.  0.
        3    1    3    3  502    0 -0.46162061493E+03 -0.83823690412E+03 -0.45407675573E+03  0.10592074442E+04  0.10100000352E+00 0. -1.
       -3    1    3    3    0  502  0.46162061493E+03  0.83823690412E+03 -0.11283116564E+04  0.14794667633E+04  0.10100000352E+00 0.  1.
</event>
<event>
 5   0  0.3147063E-05  0.1900082E+04  0.7818609E-02  0.8654816E-01
       -1   -1    0    0    0  501  0.00000000000E+00  0.00000000000E+00  0.55816954965E+03  0.55816954967E+03  0.50400001928E-02 0. -1.
        1   -1    0    0  501    0  0.00000000000E+00  0.00000000000E+00 -0.16170317424E+04  0.16170317424E+04  0.50400001928E-02 0.  1.
    10030    2    1    2    0    0  0.00000000000E+00  0.00000000000E+00 -0.10588621928E+04  0.21752012921E+04  0.19000819766E+04 0.  0.
        5    1    3    3  502    0  0.32079788934E+03  0.26346467223E+03  0.44883546380E+03  0.61139208604E+03  0.46999998093E+01 0. -1.
       -5    1    3    3    0  502 -0.32079788934E+03 -0.26346467223E+03 -0.15076976566E+04  0.15638092061E+04  0.46999998093E+01 0.  1.
</event>
<event>
 5   0  0.3144958E-05  0.1899132E+04  0.7818609E-02  0.8655289E-01
        1   -1    0    0  501    0  0.00000000000E+00  0.00000000000E+00  0.85294575563E+03  0.85294575564E+03  0.50400001928E-02 0.  1.
       -1   -1    0    0    0  501  0.00000000000E+00  0.00000000000E+00 -0.10571311015E+04  0.10571311015E+04  0.50400001928E-02 0. -1.
    10030    2    1    2    0    0  0.00000000000E+00  0.00000000000E+00 -0.20418534584E+03  0.19100768571E+04  0.18991318924E+04 0.  0.
        4    1    3    3  502    0 -0.46937822580E+03 -0.28803652432E+03  0.67592405914E+03  0.87186920167E+03  0.12699999809E+01 0.  1.
       -4    1    3    3    0  502  0.46937822580E+03  0.28803652432E+03 -0.88010940498E+03  0.10382076555E+04  0.12699999809E+01 0. -1.
</event>
<event>
 5   0  0.3147063E-05  0.1841235E+04  0.7818609E-02  0.8684674E-01
        1   -1    0    0  501    0  0.00000000000E+00  0.00000000000E+00  0.13186439480E+04  0.13186439480E+04  0.50400001928E-02 0. -1.
       -1   -1    0    0    0  501  0.00000000000E+00  0.00000000000E+00 -0.64273311083E+03  0.64273311085E+03  0.50400001928E-02 0.  1.
    10030    2    1    2    0    0  0.00000000000E+00  0.00000000000E+00  0.67591083720E+03  0.19613770589E+04  0.18412345063E+04 0.  0.
        5    1    3    3  502    0  0.51257289516E+03  0.46130791706E+03 -0.31174127130E+03  0.75679632493E+03  0.46999998093E+01 0.  1.
       -5    1    3    3    0  502 -0.51257289516E+03 -0.46130791706E+03  0.98765210850E+03  0.12045807340E+04  0.46999998093E+01 0. -1.
</event>
<event>
 5   0  0.3203527E-05  0.1902274E+04  0.7818609E-02  0.8653725E-01
       -1   -1    0    0    0  501  0.00000000000E+00  0.00000000000E+00  0.63982219172E+03  0.63982219174E+03  0.50400001928E-02 0.  1.
        1   -1    0    0  501    0  0.00000000000E+00  0.00000000000E+00 -0.14139269596E+04  0.14139269596E+04  0.50400001928E-02 0. -1.
    10030    2    1    2    0    0  0.00000000000E+00  0.00000000000E+00 -0.77410476785E+03  0.20537491513E+04  0.19022742665E+04 0.  0.
        1    1    3    3  502    0  0.24953532478E+03  0.80162674209E+03 -0.86962152263E+03  0.12087658601E+04  0.50400001928E-02 0. -1.
       -1    1    3    3    0  502 -0.24953532478E+03 -0.80162674209E+03  0.95516754775E+02  0.84498329121E+03  0.50400001928E-02 0.  1.
</event>
<event>
 5   0  0.6395992E-05  0.1919075E+04  0.7818609E-02  0.8645419E-01
        2   -1    0    0  501    0  0.00000000000E+00  0.00000000000E+00  0.15465549810E+04  0.15465549810E+04  0.25500000920E-02 0.  1.
       -2   -1    0    0    0  501  0.00000000000E+00  0.00000000000E+00 -0.59533125283E+03  0.59533125284E+03  0.25500000920E-02 0. -1.
    10030    2    1    2    0    0  0.00000000000E+00  0.00000000000E+00  0.95122372815E+03  0.21418862338E+04  0.19190753132E+04 0.  0.
        4    1    3    3  502    0  0.60642193411E+02  0.54429274521E+03 -0.40376053658E+03  0.68040888583E+03  0.12699999809E+01 0. -1.
       -4    1    3    3    0  502 -0.60642193411E+02 -0.54429274521E+03  0.13549842647E+04  0.14614773480E+04  0.12699999809E+01 0.  1.
</event>
<event>
 5   0  0.6361762E-05  0.1901332E+04  0.7818609E-02  0.8654193E-01
       -2   -1    0    0    0  501  0.00000000000E+00  0.00000000000E+00  0.75322768185E+03  0.75322768185E+03  0.25500000920E-02 0.  1.
        2   -1    0    0  501    0  0.00000000000E+00  0.00000000000E+00 -0.11998579081E+04  0.11998579081E+04  0.25500000920E-02 0. -1.
    10030    2    1    2    0    0  0.00000000000E+00  0.00000000000E+00 -0.44663022626E+03  0.19530855900E+04  0.19013323651E+04 0.  0.
        1    1    3    3  502    0 -0.65618699550E+03 -0.29594585926E+03 -0.86118519829E+03  0.11224104732E+04  0.50400001928E-02 0. -1.
       -1    1    3    3    0  502  0.65618699550E+03  0.29594585926E+03  0.41455497202E+03  0.83067511672E+03  0.50400001928E-02 0.  1.
</event>
<event>
 5   0  0.6423388E-05  0.1899641E+04  0.7818609E-02  0.8655035E-01
        2   -1    0    0  501    0  0.00000000000E+00  0.00000000000E+00  0.79683066376E+03  0.79683066377E+03  0.25500000920E-02 0.  1.
       -2   -1    0    0    0  501  0.00000000000E+00  0.00000000000E+00 -0.11321843570E+04  0.11321843570E+04  0.25500000920E-02 0. -1.
    10030    2    1    2    0    0  0.00000000000E+00  0.00000000000E+00 -0.33535369326E+03  0.19290150208E+04  0.18996412427E+04 0.  0.
        2    1    3    3  502    0 -0.71324450498E+03 -0.11804773798E+03  0.45788963220E+03  0.85575458375E+03  0.25500000920E-02 0.  1.
       -2    1    3    3    0  502  0.71324450498E+03  0.11804773798E+03 -0.79324332546E+03  0.10732604370E+04  0.25500000920E-02 0. -1.
</event>
<event>
 5   0  0.3083469E-05  0.1897930E+04  0.7818609E-02  0.8655887E-01
       -1   -1    0    0    0  501  0.00000000000E+00  0.00000000000E+00  0.75276740805E+03  0.75276740807E+03  0.50400001928E-02 0.  1.
        1   -1    0    0  501    0  0.00000000000E+00  0.00000000000E+00 -0.11962991160E+04  0.11962991160E+04  0.50400001928E-02 0. -1.
    10030    2    1    2    0    0  0.00000000000E+00  0.00000000000E+00 -0.44353170797E+03  0.19490665241E+04  0.18979304359E+04 0.  0.
        3    1    3    3  502    0 -0.12467019256E+03  0.43227381403E+03 -0.10798206856E+04  0.11697931571E+04  0.10100000352E+00 0. -1.
       -3    1    3    3    0  502  0.12467019256E+03 -0.43227381403E+03  0.63628897763E+03  0.77927336697E+03  0.10100000352E+00 0.  1.
</event>
<event>
 5   0  0.6452182E-05  0.1908714E+04  0.7818609E-02  0.8650531E-01
       -2   -1    0    0    0  501  0.00000000000E+00  0.00000000000E+00  0.12183319976E+04  0.12183319977E+04  0.25500000920E-02 0.  1.
        2   -1    0    0  501    0  0.00000000000E+00  0.00000000000E+00 -0.74757728763E+03  0.74757728764E+03  0.25500000920E-02 0. -1.
    10030    2    1    2    0    0  0.00000000000E+00  0.00000000000E+00  0.47075471002E+03  0.19659092853E+04  0.19087140490E+04 0.  0.
        3    1    3    3  502    0 -0.21262696466E+03 -0.11815874030E+03 -0.71511134766E+03  0.75535154979E+03  0.10100000352E+00 0. -1.
       -3    1    3    3    0  502  0.21262696466E+03  0.11815874030E+03  0.11858660577E+04  0.12105577355E+04  0.10100000352E+00 0.  1.
</event>
<event>
 5   0  0.6098377E-05  0.1880759E+04  0.7818609E-02  0.8664494E-01
       -2   -1    0    0    0  501  0.00000000000E+00  0.00000000000E+00  0.98385845287E+03  0.98385845288E+03  0.25500000920E-02 0.  1.
        2   -1    0    0  501    0  0.00000000000E+00  0.00000000000E+00 -0.89882208590E+03  0.89882208591E+03  0.25500000920E-02 0. -1.
    10030    2    1    2    0    0  0.00000000000E+00  0.00000000000E+00  0.85036366970E+02  0.18826805388E+04  0.18807591094E+04 0.  0.
        5    1    3    3  502    0 -0.12429762823E+03 -0.31859457410E+03 -0.83435574113E+03  0.90173388302E+03  0.46999998093E+01 0. -1.
       -5    1    3    3    0  502  0.12429762823E+03  0.31859457410E+03  0.91939210810E+03  0.98094665577E+03  0.46999998093E+01 0.  1.
</event>
<event>
 5   0  0.6361762E-05  0.1910937E+04  0.7818609E-02  0.8649432E-01
        2   -1    0    0  501    0  0.00000000000E+00  0.00000000000E+00  0.10026153136E+04  0.10026153136E+04  0.25500000920E-02 0.  1.
       -2   -1    0    0    0  501  0.00000000000E+00  0.00000000000E+00 -0.91053839966E+03  0.91053839966E+03  0.25500000920E-02 0. -1.
    10030    2    1    2    0    0  0.00000000000E+00  0.00000000000E+00  0.92076913967E+02  0.19131537133E+04  0.19109366741E+04 0.  0.
        1    1    3    3  502    0  0.26873869434E+03 -0.63105314320E+03  0.71199527222E+03  0.98862825322E+03  0.50400001928E-02 0.  1.
       -1    1    3    3    0  502 -0.26873869434E+03  0.63105314320E+03 -0.61991835825E+03  0.92452546006E+03  0.50400001928E-02 0. -1.
</event>
<event>
 5   0  0.3083469E-05  0.1901244E+04  0.7818609E-02  0.8654238E-01
       -1   -1    0    0    0  501  0.00000000000E+00  0.00000000000E+00  0.59477162284E+03  0.59477162286E+03  0.50400001928E-02 0.  1.
        1   -1    0    0  501    0  0.00000000000E+00  0.00000000000E+00 -0.15193761787E+04  0.15193761787E+04  0.50400001928E-02 0. -1.
    10030    2    1    2    0    0  0.00000000000E+00  0.00000000000E+00 -0.92460455581E+03  0.21141478015E+04  0.19012436304E+04 0.  0.
        3    1    3    3  502    0  0.30320996399E+03  0.30561730841E+03  0.48015937455E+03  0.64489631464E+03  0.10100000352E+00 0.  1.
       -3    1    3    3    0  502 -0.30320996399E+03 -0.30561730841E+03 -0.14047639304E+04  0.14692514869E+04  0.10100000352E+00 0. -1.
</event>
<event>
 5   0  0.3144958E-05  0.1903305E+04  0.7818609E-02  0.8653213E-01
        1   -1    0    0  501    0  0.00000000000E+00  0.00000000000E+00  0.12672415918E+04  0.12672415918E+04  0.50400001928E-02 0.  1.
       -1   -1    0    0    0  501  0.00000000000E+00  0.00000000000E+00 -0.71465674679E+03  0.71465674681E+03  0.50400001928E-02 0. -1.
    10030    2    1    2    0    0  0.00000000000E+00  0.00000000000E+00  0.55258484498E+03  0.19818983386E+04  0.19033052865E+04 0.  0.
        4    1    3    3  502    0 -0.35919817931E+03  0.78113920962E+03  0.70110847299E+03  0.11093946550E+04  0.12699999809E+01 0.  1.
       -4    1    3    3    0  502  0.35919817931E+03 -0.78113920962E+03 -0.14852362801E+03  0.87250368355E+03  0.12699999809E+01 0. -1.
</event>
<event>
 5   0  0.3083469E-05  0.1934699E+04  0.7818609E-02  0.8637775E-01
        1   -1    0    0  501    0  0.00000000000E+00  0.00000000000E+00  0.11889616111E+04  0.11889616111E+04  0.50400001928E-02 0. -1.
       -1   -1    0    0    0  501  0.00000000000E+00  0.00000000000E+00 -0.78704380605E+03  0.78704380606E+03  0.50400001928E-02 0.  1.
    10030    2    1    2    0    0  0.00000000000E+00  0.00000000000E+00  0.40191780506E+03  0.19760054172E+04  0.19346988103E+04 0.  0.
        3    1    3    3  502    0 -0.39956384862E+03 -0.38240600498E+03  0.10115529562E+04  0.11528768431E+04  0.10100000352E+00 0. -1.
       -3    1    3    3    0  502  0.39956384862E+03  0.38240600498E+03 -0.60963515119E+03  0.82312857412E+03  0.10100000352E+00 0.  1.
</event>
<event>
 5   0  0.6395992E-05  0.1901499E+04  0.7818609E-02  0.8654111E-01
       -2   -1    0    0    0  501  0.00000000000E+00  0.00000000000E+00  0.55600243850E+03  0.55600243850E+03  0.25500000920E-02 0. -1.
        2   -1    0    0  501    0  0.00000000000E+00  0.00000000000E+00 -0.16257562793E+04  0.16257562793E+04  0.25500000920E-02 0.  1.
    10030    2    1    2    0    0  0.00000000000E+00  0.00000000000E+00 -0.10697538408E+04  0.21817587178E+04  0.19014988359E+04 0.  0.
        4    1    3    3  502    0 -0.45280659893E+03 -0.21665763552E+03 -0.14613169247E+04  0.15451288342E+04  0.12699999809E+01 0.  1.
       -4    1    3    3    0  502  0.45280659893E+03  0.21665763552E+03  0.39156308391E+03  0.63662988356E+03  0.12699999809E+01 0. -1.
</event>
<event>
 5   0  0.6098377E-05  0.1903071E+04  0.7818609E-02  0.8653329E-01
       -2   -1    0    0    0  501  0.00000000000E+00  0.00000000000E+00  0.25639426354E+04  0.25639426354E+04  0.25500000920E-02 0.  1.
        2   -1    0    0  501    0  0.00000000000E+00  0.00000000000E+00 -0.35313592341E+03  0.35313592342E+03  0.25500000920E-02 0. -1.
    10030    2    1    2    0    0  0.00000000000E+00  0.00000000000E+00  0.22108067120E+04  0.29170785588E+04  0.19030714649E+04 0.  0.
        5    1    3    3  502    0  0.61864757840E+03 -0.83975982473E+02  0.22060767819E+04  0.22927218866E+04  0.46999998093E+01 0.  1.
       -5    1    3    3    0  502 -0.61864757840E+03  0.83975982473E+02  0.47299301334E+01  0.62435667221E+03  0.46999998093E+01 0. -1.
</event>
<event>
 5   0  0.6423388E-05  0.1878932E+04  0.7818609E-02  0.8665415E-01
        2   -1    0    0  501    0  0.00000000000E+00  0.00000000000E+00  0.29532495631E+04  0.29532495631E+04  0.25500000920E-02 0.  1.
       -2   -1    0    0    0  501  0.00000000000E+00  0.00000000000E+00 -0.29885610232E+03  0.29885610233E+03  0.25500000920E-02 0. -1.
    10030    2    1    2    0    0  0.00000000000E+00  0.00000000000E+00  0.26543934608E+04  0.32521056655E+04  0.18789323071E+04 0.  0.
        2    1    3    3  502    0  0.66070861510E+02 -0.93202948816E+03  0.14963608018E+04  0.17641258387E+04  0.25500000920E-02 0.  1.
       -2    1    3    3    0  502 -0.66070861510E+02  0.93202948816E+03  0.11580326590E+04  0.14879798267E+04  0.25500000920E-02 0. -1.
</event>
<event>
 5   0  0.6452182E-05  0.1907024E+04  0.7818609E-02  0.8651368E-01
        2   -1    0    0  501    0  0.00000000000E+00  0.00000000000E+00  0.83479473797E+03  0.83479473797E+03  0.25500000920E-02 0.  1.
       -2   -1    0    0    0  501  0.00000000000E+00  0.00000000000E+00 -0.10891120721E+04  0.10891120721E+04  0.25500000920E-02 0. -1.
    10030    2    1    2    0    0  0.00000000000E+00  0.00000000000E+00 -0.25431733417E+03  0.19239068101E+04  0.19070238875E+04 0.  0.
        3    1    3    3  502    0 -0.56033808318E+01  0.39197698732E+03  0.74973581020E+03  0.84603850489E+03  0.10100000352E+00 0.  1.
       -3    1    3    3    0  502  0.56033808318E+01 -0.39197698732E+03 -0.10040531444E+04  0.10778683052E+04  0.10100000352E+00 0. -1.
</event>
<event>
 5   0  0.6423388E-05  0.1910113E+04  0.7818609E-02  0.8649839E-01
        2   -1    0    0  501    0  0.00000000000E+00  0.00000000000E+00  0.62334522979E+03  0.62334522980E+03  0.25500000920E-02 0. -1.
       -2   -1    0    0    0  501  0.00000000000E+00  0.00000000000E+00 -0.14632872037E+04  0.14632872037E+04  0.25500000920E-02 0.  1.
    10030    2    1    2    0    0  0.00000000000E+00  0.00000000000E+00 -0.83994197387E+03  0.20866324335E+04  0.19101131885E+04 0.  0.
        2    1    3    3  502    0  0.43254452739E+03 -0.30395036338E+03  0.44892835213E+03  0.69355407643E+03  0.25500000920E-02 0. -1.
       -2    1    3    3    0  502 -0.43254452739E+03  0.30395036338E+03 -0.12888703260E+04  0.13930783570E+04  0.25500000920E-02 0.  1.
</event>
<event>
 5   0  0.6452182E-05  0.1901920E+04  0.7818609E-02  0.8653901E-01
       -2   -1    0    0    0  501  0.00000000000E+00  0.00000000000E+00  0.57975278832E+03  0.57975278833E+03  0.25500000920E-02 0.  1.
        2   -1    0    0  501    0  0.00000000000E+00  0.00000000000E+00 -0.15598461578E+04  0.15598461578E+04  0.25500000920E-02 0. -1.
    10030    2    1    2    0    0  0.00000000000E+00  0.00000000000E+00 -0.98009336943E+03  0.21395989461E+04  0.19019202500E+04 0.  0.
        3    1    3    3  502    0  0.17843820719E+03  0.27115530672E+03 -0.14955940321E+04  0.15304139679E+04  0.10100000352E+00 0. -1.
       -3    1    3    3    0  502 -0.17843820719E+03 -0.27115530672E+03  0.51550066270E+03  0.60918497814E+03  0.10100000352E+00 0.  1.
</event>
<event>
 5   0  0.6452182E-05  0.1894129E+04  0.7818609E-02  0.8657784E-01
       -2   -1    0    0    0  501  0.00000000000E+00  0.00000000000E+00  0.10234670633E+04  0.10234670633E+04  0.25500000920E-02 0.  1.
        2   -1    0    0  501    0  0.00000000000E+00  0.00000000000E+00 -0.87636547069E+03  0.87636547070E+03  0.25500000920E-02 0. -1.
    10030    2    1    2    0    0  0.00000000000E+00  0.00000000000E+00  0.14710159264E+03  0.18998325340E+04  0.18941290291E+04 0.  0.
        3    1    3    3  502    0  0.81176069564E+03  0.21411019235E+03  0.51319998015E+03  0.98395773856E+03  0.10100000352E+00 0.  1.
       -3    1    3    3    0  502 -0.81176069564E+03 -0.21411019235E+03 -0.36609838751E+03  0.91587479548E+03  0.10100000352E+00 0. -1.
</event>
<event>
 5   0  0.6395992E-05  0.1798270E+04  0.7818609E-02  0.8707220E-01
        2   -1    0    0  501    0  0.00000000000E+00  0.00000000000E+00  0.90976532432E+03  0.90976532433E+03  0.25500000920E-02 0.  1.
       -2   -1    0    0    0  501  0.00000000000E+00  0.00000000000E+00 -0.88862876716E+03  0.88862876717E+03  0.25500000920E-02 0. -1.
    10030    2    1    2    0    0  0.00000000000E+00  0.00000000000E+00  0.21136557158E+02  0.17983940915E+04  0.17982698780E+04 0.  0.
        4    1    3    3  502    0  0.64260225682E+03 -0.15769714767E+03 -0.59827257016E+03  0.89204132862E+03  0.12699999809E+01 0. -1.
       -4    1    3    3    0  502 -0.64260225682E+03  0.15769714767E+03  0.61940912732E+03  0.90635276287E+03  0.12699999809E+01 0.  1.
</event>
<event>
 5   0  0.3147063E-05  0.1903789E+04  0.7818609E-02  0.8652973E-01
        1   -1    0    0  501    0  0.00000000000E+00  0.00000000000E+00  0.85046401369E+03  0.85046401370E+03  0.50400001928E-02 0. -1.
       -1   -1    0    0    0  501  0.00000000000E+00  0.00000000000E+00 -0.10654217735E+04  0.10654217735E+04  0.50400001928E-02 0.  1.
    10030    2    1    2    0    0  0.00000000000E+00  0.00000000000E+00 -0.21495775978E+03  0.19158857872E+04  0.19037887254E+04 0.  0.
        5    1    3    3  502    0 -0.29723904200E+03  0.87876554212E+03  0.10718584077E+03  0.93385803020E+03  0.46999998093E+01 0. -1.
       -5    1    3    3    0  502  0.29723904200E+03 -0.87876554212E+03 -0.32214360056E+03  0.98202775699E+03  0.46999998093E+01 0.  1.
</event>
<event>
 5   0  0.3086139E-05  0.1900298E+04  0.7818609E-02  0.8654708E-01
       -1   -1    0    0    0  501  0.00000000000E+00  0.00000000000E+00  0.59538991050E+03  0.59538991052E+03  0.50400001928E-02 0. -1.
        1   -1    0    0  501    0  0.00000000000E+00  0.00000000000E+00 -0.15162883903E+04  0.15162883903E+04  0.50400001928E-02 0.  1.
    10030    2    1    2    0    0  0.00000000000E+00  0.00000000000E+00 -0.92089847982E+03  0.21116783008E+04  0.19002976704E+04 0.  0.
        2    1    3    3  502    0 -0.35347081735E+03 -0.29376415988E+03  0.46364437618E+03  0.65284386182E+03  0.25500000920E-02 0. -1.
       -2    1    3    3    0  502  0.35347081735E+03  0.29376415988E+03 -0.13845428560E+04  0.14588344390E+04  0.25500000920E-02 0.  1.
</event>
<event>
 5   0  0.3086139E-05  0.1870297E+04  0.7818609E-02  0.8669785E-01
        1   -1    0    0  501    0  0.00000000000E+00  0.00000000000E+00  0.85796001310E+03  0.85796001312E+03  0.50400001928E-02 0. -1.
       -1   -1    0    0    0  501  0.00000000000E+00  0.00000000000E+00 -0.10192810812E+04  0.10192810812E+04  0.50400001928E-02 0.  1.
    10030    2    1    2    0    0  0.00000000000E+00  0.00000000000E+00 -0.16132106811E+03  0.18772410943E+04  0.18702966715E+04 0.  0.
        2    1    3    3  502    0 -0.91472945043E+03 -0.95067373703E+02 -0.25080287647E+03  0.95324176151E+03  0.25500000920E-02 0.  1.
       -2    1    3    3    0  502  0.91472945043E+03  0.95067373703E+02  0.89481808362E+02  0.92399933283E+03  0.25500000920E-02 0. -1.
</event>
<event>
 5   0  0.3083469E-05  0.1898029E+04  0.7818609E-02  0.8655838E-01
        1   -1    0    0  501    0  0.00000000000E+00  0.00000000000E+00  0.10246967465E+04  0.10246967465E+04  0.50400001928E-02 0.  1.
       -1   -1    0    0    0  501  0.00000000000E+00  0.00000000000E+00 -0.87892191806E+03  0.87892191807E+03  0.50400001928E-02 0. -1.
    10030    2    1    2    0    0  0.00000000000E+00  0.00000000000E+00  0.14577482839E+03  0.19036186645E+04  0.18980289037E+04 0.  0.
        3    1    3    3  502    0 -0.73826221859E+03  0.33370157012E+03 -0.42277506232E+03  0.91385261657E+03  0.10100000352E+00 0.  1.
       -3    1    3    3    0  502  0.73826221859E+03 -0.33370157012E+03  0.56854989071E+03  0.98976604797E+03  0.10100000352E+00 0. -1.
</event>
<event>
 5   0  0.6361762E-05  0.1896934E+04  0.7818609E-02  0.8656384E-01
        2   -1    0    0  501    0  0.00000000000E+00  0.00000000000E+00  0.28985752794E+04  0.28985752794E+04  0.25500000920E-02 0. -1.
       -2   -1    0    0    0  501  0.00000000000E+00  0.00000000000E+00 -0.31035593618E+03  0.31035593619E+03  0.25500000920E-02 0.  1.
    10030    2    1    2    0    0  0.00000000000E+00  0.00000000000E+00  0.25882193432E+04  0.32089312156E+04  0.18969344158E+04 0.  0.
        1    1    3    3  502    0 -0.72249471285E+03 -0.31586101798E+03  0.40246383300E+03  0.88529313206E+03  0.50400001928E-02 0.  1.
       -1    1    3    3    0  502  0.72249471285E+03  0.31586101798E+03  0.21857555102E+04  0.23236380835E+04  0.50400001928E-02 0. -1.
</event>
<event>
 5   0  0.3083469E-05  0.1916282E+04  0.7818609E-02  0.8646794E-01
       -1   -1    0    0    0  501  0.00000000000E+00  0.00000000000E+00  0.11994125177E+04  0.11994125177E+04  0.50400001928E-02 0. -1.
        1   -1    0    0  501    0  0.00000000000E+00  0.00000000000E+00 -0.76540316593E+03  0.76540316594E+03  0.50400001928E-02 0.  1.
    10030    2    1    2    0    0  0.00000000000E+00  0.00000000000E+00  0.43400935173E+03  0.19648156836E+04  0.19162819608E+04 0.  0.
        3    1    3    3  502    0  0.44924298689E+03  0.51673854453E+02  0.10831145522E+04  0.11737233881E+04  0.10100000352E+00 0. -1.
       -3    1    3    3    0  502 -0.44924298689E+03 -0.51673854453E+02 -0.64910520045E+03  0.79109229548E+03  0.10100000352E+00 0.  1.
</event>
<event>
 5   0  0.6452182E-05  0.1899483E+04  0.7818609E-02  0.8655114E-01
        2   -1    0    0  501    0  0.00000000000E+00  0.00000000000E+00  0.77887467919E+03  0.77887467919E+03  0.25500000920E-02 0.  1.
       -2   -1    0    0    0  501  0.00000000000E+00  0.00000000000E+00 -0.11580927375E+04  0.11580927375E+04  0.25500000920E-02 0. -1.
    10030    2    1    2    0    0  0.00000000000E+00  0.00000000000E+00 -0.37921805831E+03  0.19369674167E+04  0.18994832028E+04 0.  0.
        3    1    3    3  502    0  0.77251947429E+03  0.54201154270E+03 -0.80510613216E+02  0.94712450060E+03  0.10100000352E+00 0.  1.
       -3    1    3    3    0  502 -0.77251947429E+03 -0.54201154270E+03 -0.29870744509E+03  0.98984291609E+03  0.10100000352E+00 0. -1.
</event>
<event>
 5   0  0.3203527E-05  0.1901002E+04  0.7818609E-02  0.8654358E-01
       -1   -1    0    0    0  501  0.00000000000E+00  0.00000000000E+00  0.11365353393E+04  0.11365353393E+04  0.50400001928E-02 0. -1.
        1   -1    0    0  501    0  0.00000000000E+00  0.00000000000E+00 -0.79491811040E+03  0.79491811041E+03  0.50400001928E-02 0.  1.
    10030    2    1    2    0    0  0.00000000000E+00  0.00000000000E+00  0.34161722887E+03  0.19314534497E+04  0.19010023928E+04 0.  0.
        1    1    3    3  502    0 -0.48323742887E+03  0.34234952014E+03 -0.58455917417E+03  0.83212441061E+03  0.50400001928E-02 0.  1.
       -1    1    3    3    0  502  0.48323742887E+03 -0.34234952014E+03  0.92617640304E+03  0.10993290391E+04  0.50400001928E-02 0. -1.
</event>
<event>
 5   0  0.6395992E-05  0.1900117E+04  0.7818609E-02  0.8654798E-01
        2   -1    0    0  501    0  0.00000000000E+00  0.00000000000E+00  0.20413952784E+04  0.20413952784E+04  0.25500000920E-02 0. -1.
       -2   -1    0    0    0  501  0.00000000000E+00  0.00000000000E+00 -0.44215414849E+03  0.44215414849E+03  0.25500000920E-02 0.  1.
    10030    2    1    2    0    0  0.00000000000E+00  0.00000000000E+00  0.15992411299E+04  0.24835494269E+04  0.19001172501E+04 0.  0.
        4    1    3    3  502    0  0.52096029010E+03  0.63655432880E+03  0.14209973513E+04  0.16419001562E+04  0.12699999809E+01 0. -1.
       -4    1    3    3    0  502 -0.52096029010E+03 -0.63655432880E+03  0.17824377853E+03  0.84164927069E+03  0.12699999809E+01 0.  1.
</event>
<event>
 5   0  0.6395992E-05  0.1901118E+04  0.7818609E-02  0.8654300E-01
       -2   -1    0    0    0  501  0.00000000000E+00  0.00000000000E+00  0.13017252593E+04  0.13017252593E+04  0.25500000920E-02 0. -1.
        2   -1    0    0  501    0  0.00000000000E+00  0.00000000000E+00 -0.69412685211E+03  0.69412685211E+03  0.25500000920E-02 0.  1.
    10030    2    1    2    0    0  0.00000000000E+00  0.00000000000E+00  0.60759840723E+03  0.19958521115E+04  0.19011180464E+04 0.  0.
        4    1    3    3  502    0 -0.14657115017E+03 -0.80739792907E+03  0.80748422245E+03  0.11512631760E+04  0.12699999809E+01 0. -1.
       -4    1    3    3    0  502  0.14657115017E+03  0.80739792907E+03 -0.19988581522E+03  0.84458893549E+03  0.12699999809E+01 0.  1.
</event>
<event>
 5   0  0.3147063E-05  0.1898557E+04  0.7818609E-02  0.8655575E-01
        1   -1    0    0  501    0  0.00000000000E+00  0.00000000000E+00  0.10672483883E+04  0.10672483883E+04  0.50400001928E-02 0. -1.
       -1   -1    0    0    0  501  0.00000000000E+00  0.00000000000E+00 -0.84434886623E+03  0.84434886625E+03  0.50400001928E-02 0.  1.
    10030    2    1    2    0    0  0.00000000000E+00  0.00000000000E+00  0.22289952210E+03  0.19115972546E+04  0.18985573120E+04 0.  0.
        5    1    3    3  502    0  0.13253381191E+03 -0.60670181155E+03  0.83433325425E+03  0.10400895964E+04  0.46999998093E+01 0. -1.
       -5    1    3    3    0  502 -0.13253381191E+03  0.60670181155E+03 -0.61143373215E+03  0.87150765817E+03  0.46999998093E+01 0.  1.
</event>
<event>
 5   0  0.3083469E-05  0.1873106E+04  0.7818609E-02  0.8668360E-01
        1   -1    0    0  501    0  0.00000000000E+00  0.00000000000E+00  0.25974116815E+04  0.25974116815E+04  0.50400001928E-02 0. -1.
       -1   -1    0    0    0  501  0.00000000000E+00  0.00000000000E+00 -0.33769447821E+03  0.33769447824E+03  0.50400001928E-02 0.  1.
    10030    2    1    2    0    0  0.00000000000E+00  0.00000000000E+00  0.22597172033E+04  0.29351061597E+04  0.18731060648E+04 0.  0.
        3    1    3    3  502    0 -0.44673850466E+03  0.53353229199E+03  0.21120637877E+04  0.22237458154E+04  0.10100000352E+00 0. -1.
       -3    1    3    3    0  502  0.44673850466E+03 -0.53353229199E+03  0.14765341561E+03  0.71136034433E+03  0.10100000352E+00 0.  1.
</event>
<event>
 5   0  0.3086139E-05  0.1897646E+04  0.7818609E-02  0.8656029E-01
       -1   -1    0    0    0  501  0.00000000000E+00  0.00000000000E+00  0.12243146916E+04  0.12243146916E+04  0.50400001928E-02 0. -1.
        1   -1    0    0  501    0  0.00000000000E+00  0.00000000000E+00 -0.73532134322E+03  0.73532134323E+03  0.50400001928E-02 0.  1.
    10030    2    1    2    0    0  0.00000000000E+00  0.00000000000E+00  0.48899334839E+03  0.19596360349E+04  0.18976456187E+04 0.  0.
        2    1    3    3  502    0 -0.54659876651E+03 -0.76773618599E+03  0.35797574121E+03  0.10081347599E+04  0.25500000920E-02 0. -1.
       -2    1    3    3    0  502  0.54659876651E+03  0.76773618599E+03  0.13101760718E+03  0.95150127495E+03  0.25500000920E-02 0.  1.
</event>
<event>
 5   0  0.6395992E-05  0.1902374E+04  0.7818609E-02  0.8653676E-01
        2   -1    0    0  501    0  0.00000000000E+00  0.00000000000E+00  0.14686711674E+04  0.14686711674E+04  0.25500000920E-02 0.  1.
       -2   -1    0    0    0  501  0.00000000000E+00  0.00000000000E+00 -0.61603773450E+03  0.61603773450E+03  0.25500000920E-02 0. -1.
    10030    2    1    2    0    0  0.00000000000E+00  0.00000000000E+00  0.85263343293E+03  0.20847089019E+04  0.19023741574E+04 0.  0.
        4    1    3    3  502    0  0.32604506638E+03 -0.36247101566E+03  0.13213381543E+04  0.14084128490E+04  0.12699999809E+01 0.  1.
       -4    1    3    3    0  502 -0.32604506638E+03  0.36247101566E+03 -0.46870472132E+03  0.67629605292E+03  0.12699999809E+01 0. -1.
</event>
<event>
 5   0  0.3083469E-05  0.1926321E+04  0.7818609E-02  0.8641865E-01
       -1   -1    0    0    0  501  0.00000000000E+00  0.00000000000E+00  0.61662166202E+03  0.61662166204E+03  0.50400001928E-02 0.  1.
        1   -1    0    0  501    0  0.00000000000E+00  0.00000000000E+00 -0.15044521297E+04  0.15044521297E+04  0.50400001928E-02 0. -1.
    10030    2    1    2    0    0  0.00000000000E+00  0.00000000000E+00 -0.88783046772E+03  0.21210737918E+04  0.19263206095E+04 0.  0.
        3    1    3    3  502    0 -0.16846480770E+03  0.77417355474E+02  0.59678781661E+03  0.62492363263E+03  0.10100000352E+00 0.  1.
       -3    1    3    3    0  502  0.16846480770E+03 -0.77417355474E+02 -0.14846182843E+04  0.14961501592E+04  0.10100000352E+00 0. -1.
</event>
<event>
 5   0  0.6423388E-05  0.1902770E+04  0.7818609E-02  0.8653479E-01
        2   -1    0    0  501    0  0.00000000000E+00  0.00000000000E+00  0.14570422624E+04  0.14570422624E+04  0.25500000920E-02 0. -1.
       -2   -1    0    0    0  501  0.00000000000E+00  0.00000000000E+00 -0.62121298329E+03  0.62121298329E+03  0.25500000920E-02 0.  1.
    10030    2    1    2    0    0  0.00000000000E+00  0.00000000000E+00  0.83582927913E+03  0.20782552457E+04  0.19027701602E+04 0.  0.
        2    1    3    3  502    0 -0.48469985273E+02 -0.90981079295E+03  0.71709000920E+03  0.11594494813E+04  0.25500000920E-02 0. -1.
       -2    1    3    3    0  502  0.48469985273E+02  0.90981079295E+03  0.11873926992E+03  0.91880576438E+03  0.25500000920E-02 0.  1.
</event>
<event>
 5   0  0.6395992E-05  0.1894068E+04  0.7818609E-02  0.8657815E-01
        2   -1    0    0  501    0  0.00000000000E+00  0.00000000000E+00  0.27321806227E+04  0.27321806227E+04  0.25500000920E-02 0. -1.
       -2   -1    0    0    0  501  0.00000000000E+00  0.00000000000E+00 -0.32826287705E+03  0.32826287706E+03  0.25500000920E-02 0.  1.
    10030    2    1    2    0    0  0.00000000000E+00  0.00000000000E+00  0.24039177457E+04  0.30604434998E+04  0.18940680789E+04 0.  0.
        4    1    3    3  502    0 -0.47052679892E+03  0.47435363801E+03  0.11748444470E+03  0.67838856863E+03  0.12699999809E+01 0.  1.
       -4    1    3    3    0  502  0.47052679892E+03 -0.47435363801E+03  0.22864333010E+04  0.23820549312E+04  0.12699999809E+01 0. -1.
</event>
<event>
 5   0  0.3147063E-05  0.1899118E+04  0.7818609E-02  0.8655295E-01
       -1   -1    0    0    0  501  0.00000000000E+00  0.00000000000E+00  0.16778137185E+04  0.16778137185E+04  0.50400001928E-02 0.  1.
        1   -1    0    0  501    0  0.00000000000E+00  0.00000000000E+00 -0.53740320488E+03  0.53740320491E+03  0.50400001928E-02 0. -1.
    10030    2    1    2    0    0  0.00000000000E+00  0.00000000000E+00  0.11404105136E+04  0.22152169234E+04  0.18991181844E+04 0.  0.
        5    1    3    3  502    0 -0.14628383070E+03 -0.87536973282E+03  0.96398930195E+03  0.13103314819E+04  0.46999998093E+01 0. -1.
       -5    1    3    3    0  502  0.14628383070E+03  0.87536973282E+03  0.17642121164E+03  0.90488544146E+03  0.46999998093E+01 0.  1.
</event>
<event>
 5   0  0.3086139E-05  0.1933622E+04  0.7818609E-02  0.8638299E-01
        1   -1    0    0  501    0  0.00000000000E+00  0.00000000000E+00  0.14704739656E+04  0.14704739656E+04  0.50400001928E-02 0.  1.
       -1   -1    0    0    0  501  0.00000000000E+00  0.00000000000E+00 -0.63566131966E+03  0.63566131968E+03  0.50400001928E-02 0. -1.
    10030    2    1    2    0    0  0.00000000000E+00  0.00000000000E+00  0.83481264596E+03  0.21061352853E+04  0.19336219088E+04 0.  0.
        2    1    3    3  502    0 -0.68386344360E+03 -0.41773768253E+03 -0.17172802246E+03  0.81955139839E+03  0.25500000920E-02 0. -1.
       -2    1    3    3    0  502  0.68386344360E+03  0.41773768253E+03  0.10065406684E+04  0.12865838869E+04  0.25500000920E-02 0.  1.
</event>
<event>
 5   0  0.6423388E-05  0.1898760E+04  0.7818609E-02  0.8655474E-01
       -2   -1    0    0    0  501  0.00000000000E+00  0.00000000000E+00  0.12370481914E+04  0.12370481914E+04  0.25500000920E-02 0.  1.
        2   -1    0    0  501    0  0.00000000000E+00  0.00000000000E+00 -0.72860751430E+03  0.72860751431E+03  0.25500000920E-02 0. -1.
    10030    2    1    2    0    0  0.00000000000E+00  0.00000000000E+00  0.50844067706E+03  0.19656557057E+04  0.18987602353E+04 0.  0.
        2    1    3    3  502    0  0.37801653406E+03 -0.56481776045E+03  0.94045209455E+03  0.11603300154E+04  0.25500000920E-02 0.  1.
       -2    1    3    3    0  502 -0.37801653406E+03  0.56481776045E+03 -0.43201141749E+03  0.80532569026E+03  0.25500000920E-02 0. -1.
</event>
<event>
 5   0  0.6452182E-05  0.1901141E+04  0.7818609E-02  0.8654289E-01
       -2   -1    0    0    0  501  0.00000000000E+00  0.00000000000E+00  0.50369277802E+03  0.50369277803E+03  0.25500000920E-02 0.  1.
        2   -1    0    0  501    0  0.00000000000E+00  0.00000000000E+00 -0.17939193324E+04  0.17939193324E+04  0.25500000920E-02 0. -1.
    10030    2    1    2    0    0  0.00000000000E+00  0.00000000000E+00 -0.12902265543E+04  0.22976121104E+04  0.19011409333E+04 0.  0.
        3    1    3    3  502    0 -0.57695919425E+03 -0.13547752411E+03 -0.15433045752E+04  0.16531863457E+04  0.10100000352E+00 0. -1.
       -3    1    3    3    0  502  0.57695919425E+03  0.13547752411E+03  0.25307802090E+03  0.64442576472E+03  0.10100000352E+00 0.  1.
</event>
<event>
 5   0  0.6098377E-05  0.1900097E+04  0.7818609E-02  0.8654808E-01
        2   -1    0    0  501    0  0.00000000000E+00  0.00000000000E+00  0.11857667476E+04  0.11857667476E+04  0.25500000920E-02 0.  1.
       -2   -1    0    0    0  501  0.00000000000E+00  0.00000000000E+00 -0.76118877038E+03  0.76118877038E+03  0.25500000920E-02 0. -1.
    10030    2    1    2    0    0  0.00000000000E+00  0.00000000000E+00  0.42457797725E+03  0.19469555180E+04  0.19000971897E+04 0.  0.
        5    1    3    3  502    0 -0.10856542044E+03 -0.71997366708E+03  0.83760235078E+03  0.11098415742E+04  0.46999998093E+01 0.  1.
       -5    1    3    3    0  502  0.10856542044E+03  0.71997366708E+03 -0.41302437353E+03  0.83711394381E+03  0.46999998093E+01 0. -1.
</event>
<event>
 5   0  0.3086139E-05  0.1900098E+04  0.7818609E-02  0.8654807E-01
       -1   -1    0    0    0  501  0.00000000000E+00  0.00000000000E+00  0.44652950187E+03  0.44652950190E+03  0.50400001928E-02 0. -1.
        1   -1    0    0  501    0  0.00000000000E+00  0.00000000000E+00 -0.20213522978E+04  0.20213522978E+04  0.50400001928E-02 0.  1.
    10030    2    1    2    0    0  0.00000000000E+00  0.00000000000E+00 -0.15748227960E+04  0.24678817997E+04  0.19000983498E+04 0.  0.
        2    1    3    3  502    0 -0.30278864348E+03  0.23088618476E+03  0.34308560628E+03  0.51253987764E+03  0.25500000920E-02 0. -1.
       -2    1    3    3    0  502  0.30278864348E+03 -0.23088618476E+03 -0.19179084022E+04  0.19553419221E+04  0.25500000920E-02 0.  1.
</event>
<event>
 5   0  0.6423388E-05  0.1897945E+04  0.7818609E-02  0.8655880E-01
        2   -1    0    0  501    0  0.00000000000E+00  0.00000000000E+00  0.95363929391E+03  0.95363929391E+03  0.25500000920E-02 0.  1.
       -2   -1    0    0    0  501  0.00000000000E+00  0.00000000000E+00 -0.94432836791E+03  0.94432836791E+03  0.25500000920E-02 0. -1.
    10030    2    1    2    0    0  0.00000000000E+00  0.00000000000E+00  0.93109259946E+01  0.18979676618E+04  0.18979448232E+04 0.  0.
        2    1    3    3  502    0  0.94218311865E+03  0.10292898294E+03  0.52039927006E+02  0.94921628653E+03  0.25500000920E-02 0. -1.
       -2    1    3    3    0  502 -0.94218311865E+03 -0.10292898294E+03 -0.42729001012E+02  0.94875137530E+03  0.25500000920E-02 0.  1.
</event>
<event>
 5   0  0.3086139E-05  0.1917720E+04  0.7818609E-02  0.8646086E-01
       -1   -1    0    0    0  501  0.00000000000E+00  0.00000000000E+00  0.68321945284E+03  0.68321945286E+03  0.50400001928E-02 0.  1.
        1   -1    0    0  501    0  0.00000000000E+00  0.00000000000E+00 -0.13457053219E+04  0.13457053219E+04  0.50400001928E-02 0. -1.
    10030    2    1    2    0    0  0.00000000000E+00  0.00000000000E+00 -0.66248586903E+03  0.20289247748E+04  0.19177195350E+04 0.  0.
        2    1    3    3  502    0  0.24932849025E+03  0.23150693724E+03 -0.12796938056E+04  0.13241511976E+04  0.25500000920E-02 0. -1.
       -2    1    3    3    0  502 -0.24932849025E+03 -0.23150693724E+03  0.61720793658E+03  0.70477357713E+03  0.25500000920E-02 0.  1.
</event>
<event>
 5   0  0.6098377E-05  0.1904622E+04  0.7818609E-02  0.8652559E-01
        2   -1    0    0  501    0  0.00000000000E+00  0.00000000000E+00  0.11416834655E+04  0.11416834655E+04  0.25500000920E-02 0.  1.
       -2   -1    0    0    0  501  0.00000000000E+00  0.00000000000E+00 -0.79435020585E+03  0.79435020586E+03  0.25500000920E-02 0. -1.
    10030    2    1    2    0    0  0.00000000000E+00  0.00000000000E+00  0.34733325969E+03  0.19360336714E+04  0.19046222679E+04 0.  0.
        5    1    3    3  502    0  0.54419794530E+03  0.77916414912E+03  0.11245530515E+03  0.95703524522E+03  0.46999998093E+01 0. -1.
       -5    1    3    3    0  502 -0.54419794530E+03 -0.77916414912E+03  0.23487795455E+03  0.97899842618E+03  0.46999998093E+01 0.  1.
</event>
<event>
 5   0  0.3203527E-05  0.1896996E+04  0.7818609E-02  0.8656353E-01
        1   -1    0    0  501    0  0.00000000000E+00  0.00000000000E+00  0.17246562881E+04  0.17246562881E+04  0.50400001928E-02 0.  1.
       -1   -1    0    0    0  501  0.00000000000E+00  0.00000000000E+00 -0.52163932728E+03  0.52163932730E+03  0.50400001928E-02 0. -1.
    10030    2    1    2    0    0  0.00000000000E+00  0.00000000000E+00  0.12030169608E+04  0.22462956154E+04  0.18969960948E+04 0.  0.
        1    1    3    3  502    0 -0.94725121005E+03  0.28039602878E+02  0.64853916006E+03  0.11483353676E+04  0.50400001928E-02 0.  1.
       -1    1    3    3    0  502  0.94725121005E+03 -0.28039602878E+02  0.55447780076E+03  0.10979602478E+04  0.50400001928E-02 0. -1.
</event>
<event>
 5   0  0.3086139E-05  0.1900220E+04  0.7818609E-02  0.8654747E-01
       -1   -1    0    0    0  501  0.00000000000E+00  0.00000000000E+00  0.82038888339E+03  0.82038888340E+03  0.50400001928E-02 0. -1.
        1   -1    0    0  501    0  0.00000000000E+00  0.00000000000E+00 -0.11003427774E+04  0.11003427774E+04  0.50400001928E-02 0.  1.
    10030    2    1    2    0    0  0.00000000000E+00  0.00000000000E+00 -0.27995389398E+03  0.19207316608E+04  0.19002199688E+04 0.  0.
        2    1    3    3  502    0 -0.77848151700E+03 -0.49173458129E+03  0.96800663455E+02  0.92585459938E+03  0.25500000920E-02 0.  1.
       -2    1    3    3    0  502  0.77848151700E+03  0.49173458129E+03 -0.37675455743E+03  0.99487706140E+03  0.25500000920E-02 0. -1.
</event>
<event>
 5   0  0.3203527E-05  0.1895976E+04  0.7818609E-02  0.8656862E-01
       -1   -1    0    0    0  501  0.00000000000E+00  0.00000000000E+00  0.95551994579E+03  0.95551994580E+03  0.50400001928E-02 0. -1.
        1   -1    0    0  501    0  0.00000000000E+00  0.00000000000E+00 -0.94051553821E+03  0.94051553823E+03  0.50400001928E-02 0.  1.
    10030    2    1    2    0    0  0.00000000000E+00  0.00000000000E+00  0.15004407578E+02  0.18960354840E+04  0.18959761139E+04 0.  0.
        1    1    3    3  502    0 -0.74911565745E+03  0.47519647861E+03  0.34172127847E+03  0.95066260771E+03  0.50400001928E-02 0. -1.
       -1    1    3    3    0  502  0.74911565745E+03 -0.47519647861E+03 -0.32671687089E+03  0.94537287632E+03  0.50400001928E-02 0.  1.
</event>
<event>
 5   0  0.6098377E-05  0.1901740E+04  0.7818609E-02  0.8653991E-01
        2   -1    0    0  501    0  0.00000000000E+00  0.00000000000E+00  0.18293447236E+04  0.18293447236E+04  0.25500000920E-02 0. -1.
       -2   -1    0    0    0  501  0.00000000000E+00  0.00000000000E+00 -0.49425026040E+03  0.49425026041E+03  0.25500000920E-02 0.  1.
    10030    2    1    2    0    0  0.00000000000E+00  0.00000000000E+00  0.13350944632E+04  0.23235949840E+04  0.19017403671E+04 0.  0.
        5    1    3    3  502    0  0.57262068682E+03 -0.34859012585E+03 -0.15636779193E+03  0.68839124280E+03  0.46999998093E+01 0.  1.
       -5    1    3    3    0  502 -0.57262068682E+03  0.34859012585E+03  0.14914622551E+04  0.16352037412E+04  0.46999998093E+01 0. -1.
</event>
<event>
 5   0  0.3147063E-05  0.1905551E+04  0.7818609E-02  0.8652098E-01
        1   -1    0    0  501    0  0.00000000000E+00  0.00000000000E+00  0.13465096107E+04  0.13465096108E+04  0.50400001928E-02 0.  1.
       -1   -1    0    0    0  501  0.00000000000E+00  0.00000000000E+00 -0.67417373987E+03  0.67417373989E+03  0.50400001928E-02 0. -1.
    10030    2    1    2    0    0  0.00000000000E+00  0.00000000000E+00  0.67233587087E+03  0.20206833506E+04  0.19055512799E+04 0.  0.
        5    1    3    3  502    0 -0.73489651381E+03 -0.47680193990E+03 -0.61095130771E+02  0.87816153463E+03  0.46999998093E+01 0. -1.
       -5    1    3    3    0  502  0.73489651381E+03  0.47680193990E+03  0.73343100165E+03  0.11425218160E+04  0.46999998093E+01 0.  1.
</event>
<event>
 5   0  0.3083469E-05  0.1894188E+04  0.7818609E-02  0.8657755E-01
       -1   -1    0    0    0  501  0.00000000000E+00  0.00000000000E+00  0.14288564992E+04  0.14288564992E+04  0.50400001928E-02 0.  1.
        1   -1    0    0  501    0  0.00000000000E+00  0.00000000000E+00 -0.62776581789E+03  0.62776581791E+03  0.50400001928E-02 0. -1.
    10030    2    1    2    0    0  0.00000000000E+00  0.00000000000E+00  0.80109068132E+03  0.20566223171E+04  0.18941882366E+04 0.  0.
        3    1    3    3  502    0  0.69284334310E+03 -0.50826384286E+03 -0.31883646946E+02  0.85987243774E+03  0.10100000352E+00 0. -1.
       -3    1    3    3    0  502 -0.69284334310E+03  0.50826384286E+03  0.83297432827E+03  0.11967498794E+04  0.10100000352E+00 0.  1.
</event>
<event>
 5   0  0.6361762E-05  0.1894283E+04  0.7818609E-02  0.8657707E-01
       -2   -1    0    0    0  501  0.00000000000E+00  0.00000000000E+00  0.83557164651E+03  0.83557164651E+03  0.25500000920E-02 0. -1.
        2   -1    0    0  501    0  0.00000000000E+00  0.00000000000E+00 -0.10736090193E+04  0.10736090193E+04  0.25500000920E-02 0.  1.
    10030    2    1    2    0    0  0.00000000000E+00  0.00000000000E+00 -0.23803737283E+03  0.19091806659E+04  0.18942832481E+04 0.  0.
        1    1    3    3  502    0 -0.59818354886E+03  0.36421867069E+03 -0.76168416580E+03  0.10347181098E+04  0.50400001928E-02 0.  1.
       -1    1    3    3    0  502  0.59818354886E+03 -0.36421867069E+03  0.52364679297E+03  0.87446255610E+03  0.50400001928E-02 0. -1.
</event>
<event>
 5   0  0.3083469E-05  0.1912293E+04  0.7818609E-02  0.8648761E-01
        1   -1    0    0  501    0  0.00000000000E+00  0.00000000000E+00  0.15858891199E+04  0.15858891199E+04  0.50400001928E-02 0.  1.
       -1   -1    0    0    0  501  0.00000000000E+00  0.00000000000E+00 -0.57646936335E+03  0.57646936337E+03  0.50400001928E-02 0. -1.
    10030    2    1    2    0    0  0.00000000000E+00  0.00000000000E+00  0.10094197565E+04  0.21623584832E+04  0.19122933784E+04 0.  0.
        3    1    3    3  502    0 -0.89278482305E+03  0.34058202853E+03  0.46627007125E+03  0.10632349919E+04  0.10100000352E+00 0. -1.
       -3    1    3    3    0  502  0.89278482305E+03 -0.34058202853E+03  0.54314968527E+03  0.10991234913E+04  0.10100000352E+00 0.  1.
</event>
<event>
 5   0  0.6452182E-05  0.1906155E+04  0.7818609E-02  0.8651799E-01
        2   -1    0    0  501    0  0.00000000000E+00  0.00000000000E+00  0.68573134670E+03  0.68573134671E+03  0.25500000920E-02 0. -1.
       -2   -1    0    0    0  501  0.00000000000E+00  0.00000000000E+00 -0.13246541192E+04  0.13246541192E+04  0.25500000920E-02 0.  1.
    10030    2    1    2    0    0  0.00000000000E+00  0.00000000000E+00 -0.63892277247E+03  0.20103854659E+04  0.19061551386E+04 0.  0.
        3    1    3    3  502    0  0.35008918380E+03  0.10646292970E+02  0.61539356904E+03  0.70808547166E+03  0.10100000352E+00 0. -1.
       -3    1    3    3    0  502 -0.35008918380E+03 -0.10646292970E+02 -0.12543163415E+04  0.13022999942E+04  0.10100000352E+00 0.  1.
</event>
<event>
 5   0  0.3203527E-05  0.1905297E+04  0.7818609E-02  0.8652224E-01
       -1   -1    0    0    0  501  0.00000000000E+00  0.00000000000E+00  0.51331053293E+03  0.51331053296E+03  0.50400001928E-02 0.  1.
        1   -1    0    0  501    0  0.00000000000E+00  0.00000000000E+00 -0.17680116058E+04  0.17680116058E+04  0.50400001928E-02 0. -1.
    10030    2    1    2    0    0  0.00000000000E+00  0.00000000000E+00 -0.12547010729E+04  0.22813221388E+04  0.19052968059E+04 0.  0.
        1    1    3    3  502    0 -0.32090373109E+03  0.61888477781E+03  0.15004867529E+03  0.71310039813E+03  0.50400001928E-02 0.  1.
       -1    1    3    3    0  502  0.32090373109E+03 -0.61888477781E+03 -0.14047497482E+04  0.15682217406E+04  0.50400001928E-02 0. -1.
</event>
<event>
 5   0  0.3203527E-05  0.1898244E+04  0.7818609E-02  0.8655731E-01
       -1   -1    0    0    0  501  0.00000000000E+00  0.00000000000E+00  0.92853553023E+03  0.92853553024E+03  0.50400001928E-02 0. -1.
        1   -1    0    0  501    0  0.00000000000E+00  0.00000000000E+00 -0.97016536811E+03  0.97016536813E+03  0.50400001928E-02 0.  1.
    10030    2    1    2    0    0  0.00000000000E+00  0.00000000000E+00 -0.41629837884E+02  0.18987008984E+04  0.18982444674E+04 0.  0.
        1    1    3    3  502    0 -0.85232623075E+03 -0.40726635885E+03  0.71441329400E+02  0.94732769106E+03  0.50400001928E-02 0. -1.
       -1    1    3    3    0  502  0.85232623075E+03  0.40726635885E+03 -0.11307116728E+03  0.95137320731E+03  0.50400001928E-02 0.  1.
</event>
<event>
 5   0  0.6361762E-05  0.1896495E+04  0.7818609E-02  0.8656603E-01
       -2   -1    0    0    0  501  0.00000000000E+00  0.00000000000E+00  0.65827632153E+03  0.65827632154E+03  0.25500000920E-02 0.  1.
        2   -1    0    0  501    0  0.00000000000E+00  0.00000000000E+00 -0.13659513302E+04  0.13659513302E+04  0.25500000920E-02 0. -1.
    10030    2    1    2    0    0  0.00000000000E+00  0.00000000000E+00 -0.70767500868E+03  0.20242276518E+04  0.18964951010E+04 0.  0.
        1    1    3    3  502    0  0.90346899987E+02 -0.53979263532E+03 -0.11803530571E+04  0.13010657135E+04  0.50400001928E-02 0. -1.
       -1    1    3    3    0  502 -0.90346899987E+02  0.53979263532E+03  0.47267804840E+03  0.72316193825E+03  0.50400001928E-02 0.  1.
</event>
<event>
 5   0  0.3083469E-05  0.1900030E+04  0.7818609E-02  0.8654841E-01
       -1   -1    0    0    0  501  0.00000000000E+00  0.00000000000E+00  0.55835835232E+03  0.55835835235E+03  0.50400001928E-02 0. -1.
        1   -1    0    0  501    0  0.00000000000E+00  0.00000000000E+00 -0.16163969044E+04  0.16163969044E+04  0.50400001928E-02 0.  1.
    10030    2    1    2    0    0  0.00000000000E+00  0.00000000000E+00 -0.10580385521E+04  0.21747552567E+04  0.19000302232E+04 0.  0.
        3    1    3    3  502    0 -0.26617266779E+03 -0.55476057319E+03  0.29946257398E+03  0.68431354368E+03  0.10100000352E+00 0. -1.
       -3    1    3    3    0  502  0.26617266779E+03  0.55476057319E+03 -0.13575011260E+04  0.14904417131E+04  0.10100000352E+00 0.  1.
</event>
<event>
 5   0  0.3203527E-05  0.1931101E+04  0.7818609E-02  0.8639528E-01
       -1   -1    0    0    0  501  0.00000000000E+00  0.00000000000E+00  0.48751631724E+03  0.48751631727E+03  0.50400001928E-02 0.  1.
        1   -1    0    0  501    0  0.00000000000E+00  0.00000000000E+00 -0.19123218682E+04  0.19123218682E+04  0.50400001928E-02 0. -1.
    10030    2    1    2    0    0  0.00000000000E+00  0.00000000000E+00 -0.14248055510E+04  0.23998381855E+04  0.19311013589E+04 0.  0.
        1    1    3    3  502    0 -0.73717819179E+03  0.41977167502E+03 -0.13933272293E+03  0.85968223973E+03  0.50400001928E-02 0.  1.
       -1    1    3    3    0  502  0.73717819179E+03 -0.41977167502E+03 -0.12854728281E+04  0.15401559458E+04  0.50400001928E-02 0. -1.
</event>
<event>
 5   0  0.6452182E-05  0.1901087E+04  0.7818609E-02  0.8654315E-01
        2   -1    0    0  501    0  0.00000000000E+00  0.00000000000E+00  0.11687688229E+04  0.11687688229E+04  0.25500000920E-02 0.  1.
       -2   -1    0    0    0  501  0.00000000000E+00  0.00000000000E+00 -0.77306396100E+03  0.77306396100E+03  0.25500000920E-02 0. -1.
    10030    2    1    2    0    0  0.00000000000E+00  0.00000000000E+00  0.39570486191E+03  0.19418327839E+04  0.19010871161E+04 0.  0.
        3    1    3    3  502    0 -0.56795193127E+03  0.65927254110E+03 -0.19286847721E+03  0.89129565206E+03  0.10100000352E+00 0. -1.
       -3    1    3    3    0  502  0.56795193127E+03 -0.65927254110E+03  0.58857333912E+03  0.10505371319E+04  0.10100000352E+00 0.  1.
</event>
<event>
 5   0  0.6098377E-05  0.1899677E+04  0.7818609E-02  0.8655017E-01
       -2   -1    0    0    0  501  0.00000000000E+00  0.00000000000E+00  0.10705162329E+04  0.10705162329E+04  0.25500000920E-02 0. -1.
        2   -1    0    0  501    0  0.00000000000E+00  0.00000000000E+00 -0.84276433933E+03  0.84276433934E+03  0.25500000920E-02 0.  1.
    10030    2    1    2    0    0  0.00000000000E+00  0.00000000000E+00  0.22775189360E+03  0.19132805723E+04  0.18996767154E+04 0.  0.
        5    1    3    3  502    0  0.73282928555E+03  0.29719948622E+03 -0.41601384181E+03  0.89356359759E+03  0.46999998093E+01 0.  1.
       -5    1    3    3    0  502 -0.73282928555E+03 -0.29719948622E+03  0.64376573541E+03  0.10197169747E+04  0.46999998093E+01 0. -1.
</event>
<event>
 5   0  0.6423388E-05  0.1870116E+04  0.7818609E-02  0.8669876E-01
       -2   -1    0    0    0  501  0.00000000000E+00  0.00000000000E+00  0.63154351873E+03  0.63154351873E+03  0.25500000920E-02 0. -1.
        2   -1    0    0  501    0  0.00000000000E+00  0.00000000000E+00 -0.13844392943E+04  0.13844392943E+04  0.25500000920E-02 0.  1.
    10030    2    1    2    0    0  0.00000000000E+00  0.00000000000E+00 -0.75289577559E+03  0.20159828131E+04  0.18701162139E+04 0.  0.
        2    1    3    3  502    0 -0.10004625119E+03 -0.92330730420E+03 -0.49368753264E+03  0.10517761217E+04  0.25500000920E-02 0.  1.
       -2    1    3    3    0  502  0.10004625119E+03  0.92330730420E+03 -0.25920824296E+03  0.96420669132E+03  0.25500000920E-02 0. -1.
</event>
<event>
 5   0  0.6423388E-05  0.1902489E+04  0.7818609E-02  0.8653618E-01
        2   -1    0    0  501    0  0.00000000000E+00  0.00000000000E+00  0.12908878630E+04  0.12908878630E+04  0.25500000920E-02 0. -1.
       -2   -1    0    0    0  501  0.00000000000E+00  0.00000000000E+00 -0.70096431755E+03  0.70096431756E+03  0.25500000920E-02 0.  1.
    10030    2    1    2    0    0  0.00000000000E+00  0.00000000000E+00  0.58992354542E+03  0.19918521805E+04  0.19024892430E+04 0.  0.
        2    1    3    3  502    0 -0.50268953815E+03 -0.49547810230E+03 -0.37269998549E+03  0.79818581848E+03  0.25500000920E-02 0.  1.
       -2    1    3    3    0  502  0.50268953815E+03  0.49547810230E+03  0.96262353091E+03  0.11936663621E+04  0.25500000920E-02 0. -1.
</event>
<event>
 5   0  0.6452182E-05  0.1896044E+04  0.7818609E-02  0.8656828E-01
       -2   -1    0    0    0  501  0.00000000000E+00  0.00000000000E+00  0.45445603612E+03  0.45445603613E+03  0.25500000920E-02 0.  1.
        2   -1    0    0  501    0  0.00000000000E+00  0.00000000000E+00 -0.19776304700E+04  0.19776304700E+04  0.25500000920E-02 0. -1.
    10030    2    1    2    0    0  0.00000000000E+00  0.00000000000E+00 -0.15231744339E+04  0.24320865061E+04  0.18960444133E+04 0.  0.
        3    1    3    3  502    0  0.66928628430E+03 -0.58530720941E+03 -0.33961959455E+03  0.95177210452E+03  0.10100000352E+00 0.  1.
       -3    1    3    3    0  502 -0.66928628430E+03  0.58530720941E+03 -0.11835548393E+04  0.14803144016E+04  0.10100000352E+00 0. -1.
</event>
<event>
 5   0  0.3086139E-05  0.1896044E+04  0.7818609E-02  0.8656828E-01
       -1   -1    0    0    0  501  0.00000000000E+00  0.00000000000E+00  0.68988316896E+03  0.68988316898E+03  0.50400001928E-02 0. -1.
        1   -1    0    0  501    0  0.00000000000E+00  0.00000000000E+00 -0.13027511591E+04  0.13027511591E+04  0.50400001928E-02 0.  1.
    10030    2    1    2    0    0  0.00000000000E+00  0.00000000000E+00 -0.61286799009E+03  0.19926343280E+04  0.18960444067E+04 0.  0.
        2    1    3    3  502    0  0.19513561926E+03  0.95985645774E+02  0.66331634153E+03  0.69805424076E+03  0.25500000920E-02 0. -1.
       -2    1    3    3    0  502 -0.19513561926E+03 -0.95985645774E+02 -0.12761843316E+04  0.12945800873E+04  0.25500000920E-02 0.  1.
</event>
<event>
 5   0  0.6361762E-05  0.1898677E+04  0.7818609E-02  0.8655515E-01
       -2   -1    0    0    0  501  0.00000000000E+00  0.00000000000E+00  0.99461860675E+03  0.99461860675E+03  0.25500000920E-02 0. -1.
        2   -1    0    0  501    0  0.00000000000E+00  0.00000000000E+00 -0.90611950826E+03  0.90611950826E+03  0.25500000920E-02 0.  1.
    10030    2    1    2    0    0  0.00000000000E+00  0.00000000000E+00  0.88499098493E+02  0.19007381150E+04  0.18986767212E+04 0.  0.
        1    1    3    3  502    0 -0.71225320765E+02 -0.67462077030E+02 -0.90103149785E+03  0.90635640799E+03  0.50400001928E-02 0.  1.
       -1    1    3    3    0  502  0.71225320765E+02  0.67462077030E+02  0.98953059634E+03  0.99438170703E+03  0.50400001928E-02 0. -1.
</event>
<event>
 5   0  0.3083469E-05  0.1888965E+04  0.7818609E-02  0.8660369E-01
       -1   -1    0    0    0  501  0.00000000000E+00  0.00000000000E+00  0.53313766959E+03  0.53313766961E+03  0.50400001928E-02 0.  1.
        1   -1    0    0  501    0  0.00000000000E+00  0.00000000000E+00 -0.16732024227E+04  0.16732024227E+04  0.50400001928E-02 0. -1.
    10030    2    1    2    0    0  0.00000000000E+00  0.00000000000E+00 -0.11400647531E+04  0.22063400923E+04  0.18889650504E+04 0.  0.
        3    1    3    3  502    0 -0.21646539032E+03  0.19817884349E+03  0.47852737513E+03  0.56135601731E+03  0.10100000352E+00 0.  1.
       -3    1    3    3    0  502  0.21646539032E+03 -0.19817884349E+03 -0.16185921282E+04  0.16449840750E+04  0.10100000352E+00 0. -1.
</event>
<event>
 5   0  0.3083469E-05  0.1909988E+04  0.7818609E-02  0.8649901E-01
        1   -1    0    0  501    0  0.00000000000E+00  0.00000000000E+00  0.57496389372E+03  0.57496389374E+03  0.50400001928E-02 0. -1.
       -1   -1    0    0    0  501  0.00000000000E+00  0.00000000000E+00 -0.15862105304E+04  0.15862105304E+04  0.50400001928E-02 0.  1.
    10030    2    1    2    0    0  0.00000000000E+00  0.00000000000E+00 -0.10112466367E+04  0.21611744242E+04  0.19099882543E+04 0.  0.
        3    1    3    3  502    0  0.12837725874E+03  0.31358063941E+03  0.50465918524E+03  0.60786054438E+03  0.10100000352E+00 0. -1.
       -3    1    3    3    0  502 -0.12837725874E+03 -0.31358063941E+03 -0.15159058220E+04  0.15533138798E+04  0.10100000352E+00 0.  1.
</event>
<event>
 5   0  0.3144958E-05  0.1899560E+04  0.7818609E-02  0.8655076E-01
       -1   -1    0    0    0  501  0.00000000000E+00  0.00000000000E+00  0.96636985075E+03  0.96636985077E+03  0.50400001928E-02 0.  1.
        1   -1    0    0  501    0  0.00000000000E+00  0.00000000000E+00 -0.93347447983E+03  0.93347447985E+03  0.50400001928E-02 0. -1.
    10030    2    1    2    0    0  0.00000000000E+00  0.00000000000E+00  0.32895370920E+02  0.18998443306E+04  0.18995595213E+04 0.  0.
        4    1    3    3  502    0  0.55213398259E+03  0.14048496352E+03 -0.74359521199E+03  0.93676219603E+03  0.12699999809E+01 0. -1.
       -4    1    3    3    0  502 -0.55213398259E+03 -0.14048496352E+03  0.77649058291E+03  0.96308213459E+03  0.12699999809E+01 0.  1.
</event>
<event>
 5   0  0.6395992E-05  0.1799703E+04  0.7818609E-02  0.8706457E-01
        2   -1    0    0  501    0  0.00000000000E+00  0.00000000000E+00  0.20130609024E+04  0.20130609024E+04  0.25500000920E-02 0.  1.
       -2   -1    0    0    0  501  0.00000000000E+00  0.00000000000E+00 -0.40223960722E+03  0.40223960722E+03  0.25500000920E-02 0. -1.
    10030    2    1    2    0    0  0.00000000000E+00  0.00000000000E+00  0.16108212952E+04  0.24153005096E+04  0.17997031163E+04 0.  0.
        4    1    3    3  502    0  0.27870882770E+03 -0.71794402401E+03  0.14300200745E+04  0.16242171218E+04  0.12699999809E+01 0.  1.
       -4    1    3    3    0  502 -0.27870882770E+03  0.71794402401E+03  0.18080122068E+03  0.79108338786E+03  0.12699999809E+01 0. -1.
</event>
<event>
 5   0  0.3083469E-05  0.1909344E+04  0.7818609E-02  0.8650219E-01
        1   -1    0    0  501    0  0.00000000000E+00  0.00000000000E+00  0.20805637693E+04  0.20805637693E+04  0.50400001928E-02 0.  1.
       -1   -1    0    0    0  501  0.00000000000E+00  0.00000000000E+00 -0.43805355782E+03  0.43805355785E+03  0.50400001928E-02 0. -1.
    10030    2    1    2    0    0  0.00000000000E+00  0.00000000000E+00  0.16425102115E+04  0.25186173272E+04  0.19093437212E+04 0.  0.
        3    1    3    3  502    0  0.60893140166E+03  0.64074137202E+03  0.12969577598E+04  0.15695370014E+04  0.10100000352E+00 0.  1.
       -3    1    3    3    0  502 -0.60893140166E+03 -0.64074137202E+03  0.34555245166E+03  0.94908032578E+03  0.10100000352E+00 0. -1.
</event>
<event>
 5   0  0.6098377E-05  0.1898009E+04  0.7818609E-02  0.8655848E-01
       -2   -1    0    0    0  501  0.00000000000E+00  0.00000000000E+00  0.90983104777E+03  0.90983104777E+03  0.25500000920E-02 0. -1.
        2   -1    0    0  501    0  0.00000000000E+00  0.00000000000E+00 -0.98986452511E+03  0.98986452512E+03  0.25500000920E-02 0.  1.
    10030    2    1    2    0    0  0.00000000000E+00  0.00000000000E+00 -0.80033477345E+02  0.18996955729E+04  0.18980089336E+04 0.  0.
        5    1    3    3  502    0 -0.28149553700E+02 -0.47332467552E+03 -0.86279270032E+03  0.98451103577E+03  0.46999998093E+01 0.  1.
       -5    1    3    3    0  502  0.28149553700E+02  0.47332467552E+03  0.78275922297E+03  0.91518453712E+03  0.46999998093E+01 0. -1.
</event>
<event>
 5   0  0.3083469E-05  0.1859268E+04  0.7818609E-02  0.8675401E-01
        1   -1    0    0  501    0  0.00000000000E+00  0.00000000000E+00  0.17669493822E+04  0.17669493822E+04  0.50400001928E-02 0. -1.
       -1   -1    0    0    0  501  0.00000000000E+00  0.00000000000E+00 -0.48910244270E+03  0.48910244273E+03  0.50400001928E-02 0.  1.
    10030    2    1    2    0    0  0.00000000000E+00  0.00000000000E+00  0.12778469395E+04  0.22560518250E+04  0.18592678764E+04 0.  0.
        3    1    3    3  502    0  0.49699125465E+03  0.40253698485E+03 -0.17972995607E+03  0.66433365011E+03  0.10100000352E+00 0.  1.
       -3    1    3    3    0  502 -0.49699125465E+03 -0.40253698485E+03  0.14575768956E+04  0.15917181748E+04  0.10100000352E+00 0. -1.
</event>
<event>
 5   0  0.6361762E-05  0.1905051E+04  0.7818609E-02  0.8652346E-01
       -2   -1    0    0    0  501  0.00000000000E+00  0.00000000000E+00  0.15447323562E+04  0.15447323562E+04  0.25500000920E-02 0. -1.
        2   -1    0    0  501    0  0.00000000000E+00  0.00000000000E+00 -0.58735390425E+03  0.58735390426E+03  0.25500000920E-02 0.  1.
    10030    2    1    2    0    0  0.00000000000E+00  0.00000000000E+00  0.95737845197E+03  0.21320862605E+04  0.19050507400E+04 0.  0.
        1    1    3    3  502    0 -0.75646413016E+03 -0.22458889806E+03 -0.11839532549E+03  0.79793208137E+03  0.50400001928E-02 0. -1.
       -1    1    3    3    0  502  0.75646413016E+03  0.22458889806E+03  0.10757737775E+04  0.13341541791E+04  0.50400001928E-02 0.  1.
</event>
<event>
 5   0  0.3083469E-05  0.1897059E+04  0.7818609E-02  0.8656322E-01
        1   -1    0    0  501    0  0.00000000000E+00  0.00000000000E+00  0.12498619592E+04  0.12498619592E+04  0.50400001928E-02 0. -1.
       -1   -1    0    0    0  501  0.00000000000E+00  0.00000000000E+00 -0.71984630192E+03  0.71984630194E+03  0.50400001928E-02 0.  1.
    10030    2    1    2    0    0  0.00000000000E+00  0.00000000000E+00  0.53001565731E+03  0.19697082612E+04  0.18970593130E+04 0.  0.
        3    1    3    3  502    0 -0.91721373700E+03  0.23679844418E+03  0.31538342734E+03  0.99840936442E+03  0.10100000352E+00 0.  1.
       -3    1    3    3    0  502  0.91721373700E+03 -0.23679844418E+03  0.21463222997E+03  0.97129889677E+03  0.10100000352E+00 0. -1.
</event>
<event>
 5   0  0.6098377E-05  0.1896926E+04  0.7818609E-02  0.8656388E-01
        2   -1    0    0  501    0  0.00000000000E+00  0.00000000000E+00  0.13125401232E+04  0.13125401232E+04  0.25500000920E-02 0. -1.
       -2   -1    0    0    0  501  0.00000000000E+00  0.00000000000E+00 -0.68537459931E+03  0.68537459932E+03  0.25500000920E-02 0.  1.
    10030    2    1    2    0    0  0.00000000000E+00  0.00000000000E+00  0.62716552385E+03  0.19979147225E+04  0.18969255768E+04 0.  0.
        5    1    3    3  502    0  0.35320261185E+03  0.82278158292E+03  0.64302579921E+03  0.11023728438E+04  0.46999998093E+01 0. -1.
       -5    1    3    3    0  502 -0.35320261185E+03 -0.82278158292E+03 -0.15860275363E+02  0.89554187872E+03  0.46999998093E+01 0.  1.
</event>
<event>
 5   0  0.6452182E-05  0.1896987E+04  0.7818609E-02  0.8656358E-01
       -2   -1    0    0    0  501  0.00000000000E+00  0.00000000000E+00  0.73774089150E+03  0.73774089150E+03  0.25500000920E-02 0.  1.
        2   -1    0    0  501    0  0.00000000000E+00  0.00000000000E+00 -0.12194521244E+04  0.12194521244E+04  0.25500000920E-02 0. -1.
    10030    2    1    2    0    0  0.00000000000E+00  0.00000000000E+00 -0.48171123289E+03  0.19571930159E+04  0.18969867658E+04 0.  0.
        3    1    3    3  502    0  0.24217312694E+02  0.50491909359E+03  0.58718063280E+03  0.77479731223E+03  0.10100000352E+00 0.  1.
       -3    1    3    3    0  502 -0.24217312694E+02 -0.50491909359E+03 -0.10688918657E+04  0.11823957037E+04  0.10100000352E+00 0. -1.
</event>
<event>
 5   0  0.6452182E-05  0.1898537E+04  0.7818609E-02  0.8655585E-01
       -2   -1    0    0    0  501  0.00000000000E+00  0.00000000000E+00  0.17657537195E+04  0.17657537195E+04  0.25500000920E-02 0. -1.
        2   -1    0    0  501    0  0.00000000000E+00  0.00000000000E+00 -0.51032650899E+03  0.51032650900E+03  0.25500000920E-02 0.  1.
    10030    2    1    2    0    0  0.00000000000E+00  0.00000000000E+00  0.12554272105E+04  0.22760802285E+04  0.18985372595E+04 0.  0.
        3    1    3    3  502    0  0.52195769488E+03  0.77583529643E+03  0.82379475507E+03  0.12461934244E+04  0.10100000352E+00 0. -1.
       -3    1    3    3    0  502 -0.52195769488E+03 -0.77583529643E+03  0.43163245547E+03  0.10298868041E+04  0.10100000352E+00 0.  1.
</event>
<event>
 5   0  0.3203527E-05  0.1893243E+04  0.7818609E-02  0.8658227E-01
       -1   -1    0    0    0  501  0.00000000000E+00  0.00000000000E+00  0.84494407399E+03  0.84494407401E+03  0.50400001928E-02 0.  1.
        1   -1    0    0  501    0  0.00000000000E+00  0.00000000000E+00 -0.10605340740E+04  0.10605340740E+04  0.50400001928E-02 0. -1.
    10030    2    1    2    0    0  0.00000000000E+00  0.00000000000E+00 -0.21559000002E+03  0.19054781480E+04  0.18932427009E+04 0.  0.
        1    1    3    3  502    0 -0.57064655489E+03 -0.23808050908E+03 -0.82920634178E+03  0.10343611442E+04  0.50400001928E-02 0. -1.
       -1    1    3    3    0  502  0.57064655489E+03  0.23808050908E+03  0.61361634176E+03  0.87111700380E+03  0.50400001928E-02 0.  1.
</event>
<event>
 5   0  0.3144958E-05  0.1900116E+04  0.7818609E-02  0.8654798E-01
       -1   -1    0    0    0  501  0.00000000000E+00  0.00000000000E+00  0.11449665133E+04  0.11449665133E+04  0.50400001928E-02 0. -1.
        1   -1    0    0  501    0  0.00000000000E+00  0.00000000000E+00 -0.78832931508E+03  0.78832931509E+03  0.50400001928E-02 0.  1.
    10030    2    1    2    0    0  0.00000000000E+00  0.00000000000E+00  0.35663719821E+03  0.19332958284E+04  0.19001164882E+04 0.  0.
        4    1    3    3  502    0  0.24893528489E+03 -0.50179501525E+02 -0.75315764698E+03  0.79481747121E+03  0.12699999809E+01 0.  1.
       -4    1    3    3    0  502 -0.24893528489E+03  0.50179501525E+02  0.11097948452E+04  0.11384783572E+04  0.12699999809E+01 0. -1.
</event>
<event>
 5   0  0.3203527E-05  0.1902602E+04  0.7818609E-02  0.8653562E-01
       -1   -1    0    0    0  501  0.00000000000E+00  0.00000000000E+00  0.15548025004E+04  0.15548025004E+04  0.50400001928E-02 0. -1.
        1   -1    0    0  501    0  0.00000000000E+00  0.00000000000E+00 -0.58205041746E+03  0.58205041749E+03  0.50400001928E-02 0.  1.
    10030    2    1    2    0    0  0.00000000000E+00  0.00000000000E+00  0.97275208293E+03  0.21368529179E+04  0.19026018443E+04 0.  0.
        1    1    3    3  502    0 -0.20810553549E+03 -0.21118015875E+03 -0.52883408939E+03  0.60627590046E+03  0.50400001928E-02 0.  1.
       -1    1    3    3    0  502  0.20810553549E+03  0.21118015875E+03  0.15015861723E+04  0.15305770174E+04  0.50400001928E-02 0. -1.
</event>
<event>
 5   0  0.2279625E-05  0.1895280E+04  0.7818609E-02  0.8657210E-01
        3   -1    0    0  501    0  0.00000000000E+00  0.00000000000E+00  0.17222703219E+04  0.17222703249E+04  0.10100000352E+00 0.  1.
       -3   -1    0    0    0  501  0.00000000000E+00  0.00000000000E+00 -0.52141716990E+03  0.52141717968E+03  0.10100000352E+00 0. -1.
    10030    2    1    2    0    0  0.00000000000E+00  0.00000000000E+00  0.12008531520E+04  0.22436875046E+04  0.18952797486E+04 0.  0.
        1    1    3    3  502    0  0.63206815440E+03  0.70385536648E+03  0.66632666552E+03  0.11571144083E+04  0.50400001928E-02 0. -1.
       -1    1    3    3    0  502 -0.63206815440E+03 -0.70385536648E+03  0.53452648653E+03  0.10865730963E+04  0.50400001928E-02 0.  1.
</event>
<event>
 5   0  0.3147063E-05  0.1899879E+04  0.7818609E-02  0.8654916E-01
        1   -1    0    0  501    0  0.00000000000E+00  0.00000000000E+00  0.67544107851E+03  0.67544107853E+03  0.50400001928E-02 0. -1.
       -1   -1    0    0    0  501  0.00000000000E+00  0.00000000000E+00 -0.13359941241E+04  0.13359941241E+04  0.50400001928E-02 0.  1.
    10030    2    1    2    0    0  0.00000000000E+00  0.00000000000E+00 -0.66055304560E+03  0.20114352026E+04  0.18998792721E+04 0.  0.
        5    1    3    3  502    0 -0.60713818433E+03  0.72835449760E+03 -0.39059715379E+03  0.10255268283E+04  0.46999998093E+01 0.  1.
       -5    1    3    3    0  502  0.60713818433E+03 -0.72835449760E+03 -0.26995589180E+03  0.98590837433E+03  0.46999998093E+01 0. -1.
</event>
<event>
 5   0  0.3144958E-05  0.1902868E+04  0.7818609E-02  0.8653430E-01
       -1   -1    0    0    0  501  0.00000000000E+00  0.00000000000E+00  0.19543750010E+04  0.19543750010E+04  0.50400001928E-02 0. -1.
        1   -1    0    0  501    0  0.00000000000E+00  0.00000000000E+00 -0.46317956403E+03  0.46317956405E+03  0.50400001928E-02 0.  1.
    10030    2    1    2    0    0  0.00000000000E+00  0.00000000000E+00  0.14911954370E+04  0.24175545651E+04  0.19028678997E+04 0.  0.
        4    1    3    3  502    0 -0.73904597852E+03 -0.32599842570E+03  0.10685981062E+03  0.81479111676E+03  0.12699999809E+01 0.  1.
       -4    1    3    3    0  502  0.73904597852E+03  0.32599842570E+03  0.13843356264E+04  0.16027634483E+04  0.12699999809E+01 0. -1.
</event>
<event>
 5   0  0.3086139E-05  0.1899429E+04  0.7818609E-02  0.8655141E-01
        1   -1    0    0  501    0  0.00000000000E+00  0.00000000000E+00  0.15624124217E+04  0.15624124217E+04  0.50400001928E-02 0.  1.
       -1   -1    0    0    0  501  0.00000000000E+00  0.00000000000E+00 -0.57728520953E+03  0.57728520955E+03  0.50400001928E-02 0. -1.
    10030    2    1    2    0    0  0.00000000000E+00  0.00000000000E+00  0.98512721216E+03  0.21396976312E+04  0.18994289481E+04 0.  0.
        2    1    3    3  502    0 -0.53116163192E+02 -0.93449375453E+03  0.31141953809E+03  0.98644920434E+03  0.25500000920E-02 0.  1.
       -2    1    3    3    0  502  0.53116163192E+02  0.93449375453E+03  0.67370767407E+03  0.11532484269E+04  0.25500000920E-02 0. -1.
</event>
<event>
 5   0  0.6423388E-05  0.1895410E+04  0.7818609E-02  0.8657144E-01
        2   -1    0    0  501    0  0.00000000000E+00  0.00000000000E+00  0.10843059258E+04  0.10843059258E+04  0.25500000920E-02 0. -1.
       -2   -1    0    0    0  501  0.00000000000E+00  0.00000000000E+00 -0.82831337724E+03  0.82831337724E+03  0.25500000920E-02 0.  1.
    10030    2    1    2    0    0  0.00000000000E+00  0.00000000000E+00  0.25599254851E+03  0.19126193030E+04  0.18954103549E+04 0.  0.
        2    1    3    3  502    0  0.68323320907E+03  0.42321850774E+03  0.63477471219E+03  0.10241388863E+04  0.25500000920E-02 0. -1.
       -2    1    3    3    0  502 -0.68323320907E+03 -0.42321850774E+03 -0.37878216368E+03  0.88848041666E+03  0.25500000920E-02 0.  1.
</event>
<event>
 5   0  0.3147063E-05  0.1905083E+04  0.7818609E-02  0.8652330E-01
        1   -1    0    0  501    0  0.00000000000E+00  0.00000000000E+00  0.12546973417E+04  0.12546973417E+04  0.50400001928E-02 0. -1.
       -1   -1    0    0    0  501  0.00000000000E+00  0.00000000000E+00 -0.72315101727E+03  0.72315101729E+03  0.50400001928E-02 0.  1.
    10030    2    1    2    0    0  0.00000000000E+00  0.00000000000E+00  0.53154632444E+03  0.19778483590E+04  0.19050833673E+04 0.  0.
        5    1    3    3  502    0  0.84900239693E+02 -0.30014885259E+03 -0.66861182973E+03  0.73780841230E+03  0.46999998093E+01 0.  1.
       -5    1    3    3    0  502 -0.84900239693E+02  0.30014885259E+03  0.12001581542E+04  0.12400399467E+04  0.46999998093E+01 0. -1.
</event>
<event>
 5   0  0.3083469E-05  0.1886780E+04  0.7818609E-02  0.8661465E-01
        1   -1    0    0  501    0  0.00000000000E+00  0.00000000000E+00  0.13310908082E+04  0.13310908082E+04  0.50400001928E-02 0. -1.
       -1   -1    0    0    0  501  0.00000000000E+00  0.00000000000E+00 -0.66861298018E+03  0.66861298020E+03  0.50400001928E-02 0.  1.
    10030    2    1    2    0    0  0.00000000000E+00  0.00000000000E+00  0.66247782801E+03  0.19997037884E+04  0.18867798941E+04 0.  0.
        3    1    3    3  502    0 -0.21084433663E+03 -0.74193689557E+02  0.13026217324E+04  0.13216593456E+04  0.10100000352E+00 0. -1.
       -3    1    3    3    0  502  0.21084433663E+03  0.74193689557E+02 -0.64014390440E+03  0.67804444280E+03  0.10100000352E+00 0.  1.
</event>
<event>
 5   0  0.6423388E-05  0.1901265E+04  0.7818609E-02  0.8654227E-01
       -2   -1    0    0    0  501  0.00000000000E+00  0.00000000000E+00  0.75477660670E+03  0.75477660670E+03  0.25500000920E-02 0.  1.
        2   -1    0    0  501    0  0.00000000000E+00  0.00000000000E+00 -0.11973104358E+04  0.11973104358E+04  0.25500000920E-02 0. -1.
    10030    2    1    2    0    0  0.00000000000E+00  0.00000000000E+00 -0.44253382910E+03  0.19520870425E+04  0.19012647453E+04 0.  0.
        2    1    3    3  502    0 -0.85710099230E+03  0.31751019488E+03 -0.48953080890E+03  0.10368583547E+04  0.25500000920E-02 0. -1.
       -2    1    3    3    0  502  0.85710099230E+03 -0.31751019488E+03  0.46996979795E+02  0.91522868780E+03  0.25500000920E-02 0.  1.
</event>
<event>
 5   0  0.3086139E-05  0.1899631E+04  0.7818609E-02  0.8655040E-01
        1   -1    0    0  501    0  0.00000000000E+00  0.00000000000E+00  0.14081448644E+04  0.14081448644E+04  0.50400001928E-02 0. -1.
       -1   -1    0    0    0  501  0.00000000000E+00  0.00000000000E+00 -0.64066542849E+03  0.64066542851E+03  0.50400001928E-02 0.  1.
    10030    2    1    2    0    0  0.00000000000E+00  0.00000000000E+00  0.76747943594E+03  0.20488102929E+04  0.18996312621E+04 0.  0.
        2    1    3    3  502    0 -0.29952838024E+03 -0.28691420892E+03  0.13053077395E+04  0.13696223234E+04  0.25500000920E-02 0. -1.
       -2    1    3    3    0  502  0.29952838024E+03  0.28691420892E+03 -0.53782830359E+03  0.67918796956E+03  0.25500000920E-02 0.  1.
</event>
<event>
 5   0  0.3147063E-05  0.1896691E+04  0.7818609E-02  0.8656505E-01
       -1   -1    0    0    0  501  0.00000000000E+00  0.00000000000E+00  0.90062021042E+03  0.90062021043E+03  0.50400001928E-02 0. -1.
        1   -1    0    0  501    0  0.00000000000E+00  0.00000000000E+00 -0.99859986229E+03  0.99859986231E+03  0.50400001928E-02 0.  1.
    10030    2    1    2    0    0  0.00000000000E+00  0.00000000000E+00 -0.97979651877E+02  0.18992200727E+04  0.18966910324E+04 0.  0.
        5    1    3    3  502    0  0.54717255270E+03  0.76731936546E+03  0.56793439187E+02  0.94415273964E+03  0.46999998093E+01 0. -1.
       -5    1    3    3    0  502 -0.54717255270E+03 -0.76731936546E+03 -0.15477309106E+03  0.95506733310E+03  0.46999998093E+01 0.  1.
</event>
<event>
 5   0  0.6361762E-05  0.1901734E+04  0.7818609E-02  0.8653994E-01
       -2   -1    0    0    0  501  0.00000000000E+00  0.00000000000E+00  0.80719854657E+03  0.80719854657E+03  0.25500000920E-02 0. -1.
        2   -1    0    0  501    0  0.00000000000E+00  0.00000000000E+00 -0.11201061427E+04  0.11201061427E+04  0.25500000920E-02 0.  1.
    10030    2    1    2    0    0  0.00000000000E+00  0.00000000000E+00 -0.31290759615E+03  0.19273046893E+04  0.19017339987E+04 0.  0.
        1    1    3    3  502    0  0.24675446043E+03  0.76381896481E+03  0.36014613179E+03  0.87977975142E+03  0.50400001928E-02 0. -1.
       -1    1    3    3    0  502 -0.24675446043E+03 -0.76381896481E+03 -0.67305372794E+03  0.10475249379E+04  0.50400001928E-02 0.  1.
</event>
<event>
 5   0  0.6423388E-05  0.1902000E+04  0.7818609E-02  0.8653862E-01
        2   -1    0    0  501    0  0.00000000000E+00  0.00000000000E+00  0.12219189186E+04  0.12219189186E+04  0.25500000920E-02 0.  1.
       -2   -1    0    0    0  501  0.00000000000E+00  0.00000000000E+00 -0.74014809161E+03  0.74014809161E+03  0.25500000920E-02 0. -1.
    10030    2    1    2    0    0  0.00000000000E+00  0.00000000000E+00  0.48177082695E+03  0.19620670102E+04  0.19019999534E+04 0.  0.
        2    1    3    3  502    0 -0.90821308236E+03 -0.11921029906E+03  0.50457264539E+03  0.10457799256E+04  0.25500000920E-02 0.  1.
       -2    1    3    3    0  502  0.90821308236E+03  0.11921029906E+03 -0.22801818444E+02  0.91628708454E+03  0.25500000920E-02 0. -1.
</event>
<event>
 5   0  0.6395992E-05  0.1910136E+04  0.7818609E-02  0.8649827E-01
        2   -1    0    0  501    0  0.00000000000E+00  0.00000000000E+00  0.60537256600E+03  0.60537256601E+03  0.25500000920E-02 0. -1.
       -2   -1    0    0    0  501  0.00000000000E+00  0.00000000000E+00 -0.15067666359E+04  0.15067666359E+04  0.25500000920E-02 0.  1.
    10030    2    1    2    0    0  0.00000000000E+00  0.00000000000E+00 -0.90139406992E+03  0.21121392019E+04  0.19101363143E+04 0.  0.
        4    1    3    3  502    0 -0.92177874826E+03  0.20973490431E+03 -0.60105011029E+03  0.11202355283E+04  0.12699999809E+01 0.  1.
       -4    1    3    3    0  502  0.92177874826E+03 -0.20973490431E+03 -0.30034395963E+03  0.99190367366E+03  0.12699999809E+01 0. -1.
</event>
<event>
 5   0  0.6098377E-05  0.1899967E+04  0.7818609E-02  0.8654873E-01
       -2   -1    0    0    0  501  0.00000000000E+00  0.00000000000E+00  0.46996760225E+03  0.46996760226E+03  0.25500000920E-02 0. -1.
        2   -1    0    0  501    0  0.00000000000E+00  0.00000000000E+00 -0.19202774477E+04  0.19202774477E+04  0.25500000920E-02 0.  1.
    10030    2    1    2    0    0  0.00000000000E+00  0.00000000000E+00 -0.14503098455E+04  0.23902450500E+04  0.18999665131E+04 0.  0.
        5    1    3    3  502    0  0.99845569029E+02 -0.58882831426E+03 -0.16545419504E+04  0.17590392483E+04  0.46999998093E+01 0.  1.
       -5    1    3    3    0  502 -0.99845569029E+02  0.58882831426E+03  0.20423210499E+03  0.63120580165E+03  0.46999998093E+01 0. -1.
</event>
<event>
 5   0  0.6395992E-05  0.1894182E+04  0.7818609E-02  0.8657758E-01
       -2   -1    0    0    0  501  0.00000000000E+00  0.00000000000E+00  0.66001251761E+03  0.66001251762E+03  0.25500000920E-02 0. -1.
        2   -1    0    0  501    0  0.00000000000E+00  0.00000000000E+00 -0.13590373938E+04  0.13590373938E+04  0.25500000920E-02 0.  1.
    10030    2    1    2    0    0  0.00000000000E+00  0.00000000000E+00 -0.69902487619E+03  0.20190499114E+04  0.18941823479E+04 0.  0.
        4    1    3    3  502    0  0.18839476875E+03 -0.24865589663E+03  0.60367287310E+03  0.67951813400E+03  0.12699999809E+01 0. -1.
       -4    1    3    3    0  502 -0.18839476875E+03  0.24865589663E+03 -0.13026977493E+04  0.13395317774E+04  0.12699999809E+01 0.  1.
</event>
<event>
 5   0  0.6361762E-05  0.1884947E+04  0.7818609E-02  0.8662386E-01
       -2   -1    0    0    0  501  0.00000000000E+00  0.00000000000E+00  0.75734905685E+03  0.75734905685E+03  0.25500000920E-02 0. -1.
        2   -1    0    0  501    0  0.00000000000E+00  0.00000000000E+00 -0.11728495172E+04  0.11728495172E+04  0.25500000920E-02 0.  1.
    10030    2    1    2    0    0  0.00000000000E+00  0.00000000000E+00 -0.41550046036E+03  0.19301985741E+04  0.18849471883E+04 0.  0.
        1    1    3    3  502    0 -0.37081516683E+03  0.62659703337E+02 -0.10926877722E+04  0.11555936543E+04  0.50400001928E-02 0.  1.
       -1    1    3    3    0  502  0.37081516683E+03 -0.62659703337E+02  0.67718731183E+03  0.77460491975E+03  0.50400001928E-02 0. -1.
</event>
<event>
 5   0  0.3086139E-05  0.1904468E+04  0.7818609E-02  0.8652636E-01
        1   -1    0    0  501    0  0.00000000000E+00  0.00000000000E+00  0.18677460586E+04  0.18677460586E+04  0.50400001928E-02 0.  1.
       -1   -1    0    0    0  501  0.00000000000E+00  0.00000000000E+00 -0.48547772907E+03  0.48547772909E+03  0.50400001928E-02 0. -1.
    10030    2    1    2    0    0  0.00000000000E+00  0.00000000000E+00  0.13822683295E+04  0.23532237877E+04  0.19044675004E+04 0.  0.
        2    1    3    3  502    0 -0.88495951803E+03  0.16117254208E+02  0.25718925868E+03  0.92171548171E+03  0.25500000920E-02 0. -1.
       -2    1    3    3    0  502  0.88495951803E+03 -0.16117254208E+02  0.11250790708E+04  0.14315083060E+04  0.25500000920E-02 0.  1.
</event>
<event>
 5   0  0.6423388E-05  0.1901165E+04  0.7818609E-02  0.8654277E-01
       -2   -1    0    0    0  501  0.00000000000E+00  0.00000000000E+00  0.56057301198E+03  0.56057301198E+03  0.25500000920E-02 0. -1.
        2   -1    0    0  501    0  0.00000000000E+00  0.00000000000E+00 -0.16119343864E+04  0.16119343864E+04  0.25500000920E-02 0.  1.
    10030    2    1    2    0    0  0.00000000000E+00  0.00000000000E+00 -0.10513613744E+04  0.21725073983E+04  0.19011648157E+04 0.  0.
        2    1    3    3  502    0 -0.45328904915E+03  0.30356726140E+03 -0.14152333612E+04  0.15167430603E+04  0.25500000920E-02 0.  1.
       -2    1    3    3    0  502  0.45328904915E+03 -0.30356726140E+03  0.36387198682E+03  0.65576433806E+03  0.25500000920E-02 0. -1.
</event>
<event>
 5   0  0.6452182E-05  0.1895354E+04  0.7818609E-02  0.8657172E-01
       -2   -1    0    0    0  501  0.00000000000E+00  0.00000000000E+00  0.46519899439E+03  0.46519899440E+03  0.25500000920E-02 0.  1.
        2   -1    0    0  501    0  0.00000000000E+00  0.00000000000E+00 -0.19305537791E+04  0.19305537791E+04  0.25500000920E-02 0. -1.
    10030    2    1    2    0    0  0.00000000000E+00  0.00000000000E+00 -0.14653547848E+04  0.23957527736E+04  0.18953539793E+04 0.  0.
        3    1    3    3  502    0  0.71040400533E+03 -0.61373735267E+03 -0.89624032046E+03  0.12979191466E+04  0.10100000352E+00 0.  1.
       -3    1    3    3    0  502 -0.71040400533E+03  0.61373735267E+03 -0.56911446429E+03  0.10978336270E+04  0.10100000352E+00 0. -1.
</event>
<event>
 5   0  0.2279625E-05  0.1901269E+04  0.7818609E-02  0.8654225E-01
        4   -1    0    0  501    0  0.00000000000E+00  0.00000000000E+00  0.67186144601E+03  0.67186264633E+03  0.12699999809E+01 0.  1.
       -4   -1    0    0    0  501  0.00000000000E+00  0.00000000000E+00 -0.13450745539E+04  0.13450751535E+04  0.12699999809E+01 0. -1.
    10030    2    1    2    0    0  0.00000000000E+00  0.00000000000E+00 -0.67321310793E+03  0.20169377998E+04  0.19012685764E+04 0.  0.
        2    1    3    3  502    0  0.14381772342E+03 -0.51981756163E+03 -0.11670547851E+04  0.12856557496E+04  0.25500000920E-02 0. -1.
       -2    1    3    3    0  502 -0.14381772342E+03  0.51981756163E+03  0.49384167717E+03  0.73128205028E+03  0.25500000920E-02 0.  1.
</event>
<event>
 5   0  0.6361762E-05  0.1898185E+04  0.7818609E-02  0.8655760E-01
       -2   -1    0    0    0  501  0.00000000000E+00  0.00000000000E+00  0.11613507162E+04  0.11613507162E+04  0.25500000920E-02 0.  1.
        2   -1    0    0  501    0  0.00000000000E+00  0.00000000000E+00 -0.77562868984E+03  0.77562868985E+03  0.25500000920E-02 0. -1.
    10030    2    1    2    0    0  0.00000000000E+00  0.00000000000E+00  0.38572202640E+03  0.19369794061E+04  0.18981853803E+04 0.  0.
        1    1    3    3  502    0  0.67121330547E+03  0.52315026118E+03  0.62164323135E+03  0.10538756114E+04  0.50400001928E-02 0.  1.
       -1    1    3    3    0  502 -0.67121330547E+03 -0.52315026118E+03 -0.23592120496E+03  0.88310379468E+03  0.50400001928E-02 0. -1.
</event>
<event>
 5   0  0.3203527E-05  0.1899523E+04  0.7818609E-02  0.8655094E-01
        1   -1    0    0  501    0  0.00000000000E+00  0.00000000000E+00  0.27255364813E+04  0.27255364813E+04  0.50400001928E-02 0. -1.
       -1   -1    0    0    0  501  0.00000000000E+00  0.00000000000E+00 -0.33096132732E+03  0.33096132736E+03  0.50400001928E-02 0.  1.
    10030    2    1    2    0    0  0.00000000000E+00  0.00000000000E+00  0.23945751540E+04  0.30564978086E+04  0.18995232787E+04 0.  0.
        1    1    3    3  502    0 -0.66835973380E+03 -0.65241533240E+03  0.14745770347E+04  0.17454878777E+04  0.50400001928E-02 0. -1.
       -1    1    3    3    0  502  0.66835973380E+03  0.65241533240E+03  0.91999811924E+03  0.13110099310E+04  0.50400001928E-02 0.  1.
</event>
<event>
 5   0  0.6423388E-05  0.1898336E+04  0.7818609E-02  0.8655685E-01
       -2   -1    0    0    0  501  0.00000000000E+00  0.00000000000E+00  0.88884457645E+03  0.88884457646E+03  0.25500000920E-02 0.  1.
        2   -1    0    0  501    0  0.00000000000E+00  0.00000000000E+00 -0.10135858495E+04  0.10135858495E+04  0.25500000920E-02 0. -1.
    10030    2    1    2    0    0  0.00000000000E+00  0.00000000000E+00 -0.12474127301E+03  0.19024304259E+04  0.18983364139E+04 0.  0.
        2    1    3    3  502    0 -0.57587768897E+03 -0.12847427084E+03  0.68272424915E+03  0.90235976822E+03  0.25500000920E-02 0.  1.
       -2    1    3    3    0  502  0.57587768897E+03  0.12847427084E+03 -0.80746552215E+03  0.10000706577E+04  0.25500000920E-02 0. -1.
</event>
<event>
 5   0  0.3147063E-05  0.1903054E+04  0.7818609E-02  0.8653338E-01
        1   -1    0    0  501    0  0.00000000000E+00  0.00000000000E+00  0.82473824117E+03  0.82473824118E+03  0.50400001928E-02 0. -1.
       -1   -1    0    0    0  501  0.00000000000E+00  0.00000000000E+00 -0.10978067089E+04  0.10978067089E+04  0.50400001928E-02 0.  1.
    10030    2    1    2    0    0  0.00000000000E+00  0.00000000000E+00 -0.27306846768E+03  0.19225449500E+04  0.19030535192E+04 0.  0.
        5    1    3    3  502    0  0.87712366930E+02  0.29112836774E+03 -0.10473962314E+04  0.10906466621E+04  0.46999998093E+01 0.  1.
       -5    1    3    3    0  502 -0.87712366930E+02 -0.29112836774E+03  0.77432776376E+03  0.83189828798E+03  0.46999998093E+01 0. -1.
</event>
<event>
 5   0  0.6098377E-05  0.1897952E+04  0.7818609E-02  0.8655876E-01
        2   -1    0    0  501    0  0.00000000000E+00  0.00000000000E+00  0.95520910903E+03  0.95520910903E+03  0.25500000920E-02 0.  1.
       -2   -1    0    0    0  501  0.00000000000E+00  0.00000000000E+00 -0.94278374971E+03  0.94278374972E+03  0.25500000920E-02 0. -1.
    10030    2    1    2    0    0  0.00000000000E+00  0.00000000000E+00  0.12425359315E+02  0.18979928587E+04  0.18979521865E+04 0.  0.
        5    1    3    3  502    0 -0.37498772452E+02 -0.26879465435E+02 -0.94164985109E+03  0.94279117287E+03  0.46999998093E+01 0. -1.
       -5    1    3    3    0  502  0.37498772452E+02  0.26879465435E+02  0.95407521040E+03  0.95520168588E+03  0.46999998093E+01 0.  1.
</event>
<event>
 5   0  0.3144958E-05  0.1980461E+04  0.7818609E-02  0.8615811E-01
        1   -1    0    0  501    0  0.00000000000E+00  0.00000000000E+00  0.13927839098E+04  0.13927839099E+04  0.50400001928E-02 0. -1.
       -1   -1    0    0    0  501  0.00000000000E+00  0.00000000000E+00 -0.70402601218E+03  0.70402601220E+03  0.50400001928E-02 0.  1.
    10030    2    1    2    0    0  0.00000000000E+00  0.00000000000E+00  0.68875789767E+03  0.20968099221E+04  0.19804606554E+04 0.  0.
        4    1    3    3  502    0 -0.26230290867E+02  0.90689107527E+03  0.76444342315E+03  0.11863872937E+04  0.12699999809E+01 0.  1.
       -4    1    3    3    0  502  0.26230290867E+02 -0.90689107527E+03 -0.75685525485E+02  0.91042262836E+03  0.12699999809E+01 0. -1.
</event>
<event>
 5   0  0.6395992E-05  0.1870065E+04  0.7818609E-02  0.8669902E-01
       -2   -1    0    0    0  501  0.00000000000E+00  0.00000000000E+00  0.91383730449E+03  0.91383730449E+03  0.25500000920E-02 0. -1.
        2   -1    0    0  501    0  0.00000000000E+00  0.00000000000E+00 -0.95671923450E+03  0.95671923450E+03  0.25500000920E-02 0.  1.
    10030    2    1    2    0    0  0.00000000000E+00  0.00000000000E+00 -0.42881930008E+02  0.18705565390E+04  0.18700649469E+04 0.  0.
        4    1    3    3  502    0  0.14881818669E+03  0.20549017516E+03  0.87874619019E+03  0.91464175743E+03  0.12699999809E+01 0. -1.
       -4    1    3    3    0  502 -0.14881818669E+03 -0.20549017516E+03 -0.92162812020E+03  0.95591478156E+03  0.12699999809E+01 0.  1.
</event>
<event>
 5   0  0.3203527E-05  0.1902469E+04  0.7818609E-02  0.8653628E-01
        1   -1    0    0  501    0  0.00000000000E+00  0.00000000000E+00  0.16648335022E+04  0.16648335022E+04  0.50400001928E-02 0.  1.
       -1   -1    0    0    0  501  0.00000000000E+00  0.00000000000E+00 -0.54350596226E+03  0.54350596229E+03  0.50400001928E-02 0. -1.
    10030    2    1    2    0    0  0.00000000000E+00  0.00000000000E+00  0.11213275400E+04  0.22083394645E+04  0.19024688535E+04 0.  0.
        1    1    3    3  502    0  0.22833223104E+03  0.91847095791E+03  0.67153106760E+03  0.11604647703E+04  0.50400001928E-02 0.  1.
       -1    1    3    3    0  502 -0.22833223104E+03 -0.91847095791E+03  0.44979647236E+03  0.10478746942E+04  0.50400001928E-02 0. -1.
</event>
<event>
 5   0  0.6361762E-05  0.1901328E+04  0.7818609E-02  0.8654196E-01
       -2   -1    0    0    0  501  0.00000000000E+00  0.00000000000E+00  0.85796124072E+03  0.85796124072E+03  0.25500000920E-02 0. -1.
        2   -1    0    0  501    0  0.00000000000E+00  0.00000000000E+00 -0.10533828336E+04  0.10533828336E+04  0.25500000920E-02 0.  1.
    10030    2    1    2    0    0  0.00000000000E+00  0.00000000000E+00 -0.19542159285E+03  0.19113440743E+04  0.19013275813E+04 0.  0.
        1    1    3    3  502    0 -0.82959119617E+03 -0.26670765563E+02  0.36822721020E+03  0.90803312762E+03  0.50400001928E-02 0. -1.
       -1    1    3    3    0  502  0.82959119617E+03  0.26670765563E+02 -0.56364880305E+03  0.10033109467E+04  0.50400001928E-02 0.  1.
</event>
<event>
 5   0  0.3144958E-05  0.1895330E+04  0.7818609E-02  0.8657185E-01
        1   -1    0    0  501    0  0.00000000000E+00  0.00000000000E+00  0.19945687626E+04  0.19945687626E+04  0.50400001928E-02 0. -1.
       -1   -1    0    0    0  501  0.00000000000E+00  0.00000000000E+00 -0.45025707741E+03  0.45025707744E+03  0.50400001928E-02 0.  1.
    10030    2    1    2    0    0  0.00000000000E+00  0.00000000000E+00  0.15443116852E+04  0.24448258401E+04  0.18953297357E+04 0.  0.
        4    1    3    3  502    0 -0.64474355080E+03 -0.89808569848E+02  0.16605241128E+04  0.17835643436E+04  0.12699999809E+01 0. -1.
       -4    1    3    3    0  502  0.64474355080E+03  0.89808569848E+02 -0.11621242760E+03  0.66126149649E+03  0.12699999809E+01 0.  1.
</event>
<event>
 5   0  0.6452182E-05  0.1896774E+04  0.7818609E-02  0.8656464E-01
       -2   -1    0    0    0  501  0.00000000000E+00  0.00000000000E+00  0.99720998564E+03  0.99720998565E+03  0.25500000920E-02 0.  1.
        2   -1    0    0  501    0  0.00000000000E+00  0.00000000000E+00 -0.90195481039E+03  0.90195481039E+03  0.25500000920E-02 0. -1.
    10030    2    1    2    0    0  0.00000000000E+00  0.00000000000E+00  0.95255175251E+02  0.18991647960E+04  0.18967744658E+04 0.  0.
        3    1    3    3  502    0  0.76005295595E+02 -0.92040639696E+03  0.26356947858E+03  0.96041325520E+03  0.10100000352E+00 0.  1.
       -3    1    3    3    0  502 -0.76005295595E+02  0.92040639696E+03 -0.16831430333E+03  0.93875154084E+03  0.10100000352E+00 0. -1.
</event>
<event>
 5   0  0.3083469E-05  0.1907562E+04  0.7818609E-02  0.8651102E-01
        1   -1    0    0  501    0  0.00000000000E+00  0.00000000000E+00  0.94637035640E+03  0.94637035641E+03  0.50400001928E-02 0. -1.
       -1   -1    0    0    0  501  0.00000000000E+00  0.00000000000E+00 -0.96124935758E+03  0.96124935759E+03  0.50400001928E-02 0.  1.
    10030    2    1    2    0    0  0.00000000000E+00  0.00000000000E+00 -0.14879001179E+02  0.19076197140E+04  0.19075616867E+04 0.  0.
        3    1    3    3  502    0  0.78544867828E+03 -0.36259394024E+03  0.39418682871E+03  0.95067726271E+03  0.10100000352E+00 0. -1.
       -3    1    3    3    0  502 -0.78544867828E+03  0.36259394024E+03 -0.40906582989E+03  0.95694245130E+03  0.10100000352E+00 0.  1.
</event>
<event>
 5   0  0.6361762E-05  0.1895295E+04  0.7818609E-02  0.8657202E-01
       -2   -1    0    0    0  501  0.00000000000E+00  0.00000000000E+00  0.79532010600E+03  0.79532010600E+03  0.25500000920E-02 0. -1.
        2   -1    0    0  501    0  0.00000000000E+00  0.00000000000E+00 -0.11291496687E+04  0.11291496687E+04  0.25500000920E-02 0.  1.
    10030    2    1    2    0    0  0.00000000000E+00  0.00000000000E+00 -0.33382956268E+03  0.19244697747E+04  0.18952946306E+04 0.  0.
        1    1    3    3  502    0 -0.66559178541E+03  0.30013060764E+03 -0.78032054127E+03  0.10686397679E+04  0.50400001928E-02 0.  1.
       -1    1    3    3    0  502  0.66559178541E+03 -0.30013060764E+03  0.44649097860E+03  0.85583000674E+03  0.50400001928E-02 0. -1.
</event>
<event>
 5   0  0.3144958E-05  0.1895680E+04  0.7818609E-02  0.8657010E-01
        1   -1    0    0  501    0  0.00000000000E+00  0.00000000000E+00  0.83047157633E+03  0.83047157635E+03  0.50400001928E-02 0.  1.
       -1   -1    0    0    0  501  0.00000000000E+00  0.00000000000E+00 -0.10817961087E+04  0.10817961087E+04  0.50400001928E-02 0. -1.
    10030    2    1    2    0    0  0.00000000000E+00  0.00000000000E+00 -0.25132453233E+03  0.19122676850E+04  0.18956802680E+04 0.  0.
        4    1    3    3  502    0  0.83217698817E+03  0.42789631727E+02 -0.58133359011E+03  0.10160215786E+04  0.12699999809E+01 0. -1.
       -4    1    3    3    0  502 -0.83217698817E+03 -0.42789631727E+02  0.33000905778E+03  0.89624610646E+03  0.12699999809E+01 0.  1.
</event>
<event>
 5   0  0.6452182E-05  0.1897036E+04  0.7818609E-02  0.8656333E-01
        2   -1    0    0  501    0  0.00000000000E+00  0.00000000000E+00  0.15744726517E+04  0.15744726517E+04  0.25500000920E-02 0.  1.
       -2   -1    0    0    0  501  0.00000000000E+00  0.00000000000E+00 -0.57142093734E+03  0.57142093735E+03  0.25500000920E-02 0. -1.
    10030    2    1    2    0    0  0.00000000000E+00  0.00000000000E+00  0.10030517143E+04  0.21458935890E+04  0.18970362553E+04 0.  0.
        3    1    3    3  502    0  0.72666408308E+03 -0.36139661788E+03 -0.53835541524E+02  0.81335507670E+03  0.10100000352E+00 0. -1.
       -3    1    3    3    0  502 -0.72666408308E+03  0.36139661788E+03  0.10568872559E+04  0.13325385123E+04  0.10100000352E+00 0.  1.
</event>
<event>
 5   0  0.3144958E-05  0.1905606E+04  0.7818609E-02  0.8652071E-01
       -1   -1    0    0    0  501  0.00000000000E+00  0.00000000000E+00  0.98285796134E+03  0.98285796135E+03  0.50400001928E-02 0.  1.
        1   -1    0    0  501    0  0.00000000000E+00  0.00000000000E+00 -0.92366744848E+03  0.92366744849E+03  0.50400001928E-02 0. -1.
    10030    2    1    2    0    0  0.00000000000E+00  0.00000000000E+00  0.59190512866E+02  0.19065254098E+04  0.19056063659E+04 0.  0.
        4    1    3    3  502    0  0.58250791596E+02  0.80099964436E+03  0.54252048938E+03  0.96918712295E+03  0.12699999809E+01 0.  1.
       -4    1    3    3    0  502 -0.58250791596E+02 -0.80099964436E+03 -0.48332997652E+03  0.93733828690E+03  0.12699999809E+01 0. -1.
</event>
<event>
 5   0  0.2279625E-05  0.1888080E+04  0.7818609E-02  0.8660813E-01
        3   -1    0    0  501    0  0.00000000000E+00  0.00000000000E+00  0.16550772624E+04  0.16550772655E+04  0.10100000352E+00 0.  1.
       -3   -1    0    0    0  501  0.00000000000E+00  0.00000000000E+00 -0.53847117340E+03  0.53847118287E+03  0.10100000352E+00 0. -1.
    10030    2    1    2    0    0  0.00000000000E+00  0.00000000000E+00  0.11166060890E+04  0.21935484483E+04  0.18880798810E+04 0.  0.
        1    1    3    3  502    0  0.11781061701E+03  0.90766712761E+03  0.82695618466E+03  0.12335296865E+04  0.50400001928E-02 0. -1.
       -1    1    3    3    0  502 -0.11781061701E+03 -0.90766712761E+03  0.28964990432E+03  0.96001876186E+03  0.50400001928E-02 0.  1.
</event>
<event>
 5   0  0.3144958E-05  0.1884766E+04  0.7818609E-02  0.8662477E-01
        1   -1    0    0  501    0  0.00000000000E+00  0.00000000000E+00  0.57633388744E+03  0.57633388746E+03  0.50400001928E-02 0.  1.
       -1   -1    0    0    0  501  0.00000000000E+00  0.00000000000E+00 -0.15409225243E+04  0.15409225243E+04  0.50400001928E-02 0. -1.
    10030    2    1    2    0    0  0.00000000000E+00  0.00000000000E+00 -0.96458863681E+03  0.21172564117E+04  0.18847661592E+04 0.  0.
        4    1    3    3  502    0 -0.22023815832E+03 -0.45382534822E+03  0.41189832483E+03  0.65124813701E+03  0.12699999809E+01 0.  1.
       -4    1    3    3    0  502  0.22023815832E+03  0.45382534822E+03 -0.13764869616E+04  0.14660082747E+04  0.12699999809E+01 0. -1.
</event>
<event>
 5   0  0.3147063E-05  0.1898037E+04  0.7818609E-02  0.8655834E-01
       -1   -1    0    0    0  501  0.00000000000E+00  0.00000000000E+00  0.33137533744E+03  0.33137533747E+03  0.50400001928E-02 0. -1.
        1   -1    0    0  501    0  0.00000000000E+00  0.00000000000E+00 -0.27178724622E+04  0.27178724622E+04  0.50400001928E-02 0.  1.
    10030    2    1    2    0    0  0.00000000000E+00  0.00000000000E+00 -0.23864971248E+04  0.30492477997E+04  0.18980367798E+04 0.  0.
        5    1    3    3  502    0  0.63837377944E+03  0.50774976267E+03 -0.19725101828E+04  0.21345138592E+04  0.46999998093E+01 0.  1.
       -5    1    3    3    0  502 -0.63837377944E+03 -0.50774976267E+03 -0.41398694194E+03  0.91473394048E+03  0.46999998093E+01 0. -1.
</event>
<event>
 5   0  0.6423388E-05  0.1888917E+04  0.7818609E-02  0.8660393E-01
       -2   -1    0    0    0  501  0.00000000000E+00  0.00000000000E+00  0.62049799410E+03  0.62049799410E+03  0.25500000920E-02 0.  1.
        2   -1    0    0  501    0  0.00000000000E+00  0.00000000000E+00 -0.14375581255E+04  0.14375581255E+04  0.25500000920E-02 0. -1.
    10030    2    1    2    0    0  0.00000000000E+00  0.00000000000E+00 -0.81706013140E+03  0.20580561196E+04  0.18889170795E+04 0.  0.
        2    1    3    3  502    0 -0.21925906771E+03 -0.21581879718E+03  0.56437109417E+03  0.64278069660E+03  0.25500000920E-02 0.  1.
       -2    1    3    3    0  502  0.21925906771E+03  0.21581879718E+03 -0.13814312256E+04  0.14152754230E+04  0.25500000920E-02 0. -1.
</event>
<event>
 5   0  0.6395992E-05  0.1901541E+04  0.7818609E-02  0.8654090E-01
       -2   -1    0    0    0  501  0.00000000000E+00  0.00000000000E+00  0.46981041506E+03  0.46981041507E+03  0.25500000920E-02 0. -1.
        2   -1    0    0  501    0  0.00000000000E+00  0.00000000000E+00 -0.19241044757E+04  0.19241044757E+04  0.25500000920E-02 0.  1.
    10030    2    1    2    0    0  0.00000000000E+00  0.00000000000E+00 -0.14542940606E+04  0.23939148907E+04  0.19015407672E+04 0.  0.
        4    1    3    3  502    0 -0.17239637763E+03 -0.42409108992E+03  0.32192296236E+03  0.55965147205E+03  0.12699999809E+01 0. -1.
       -4    1    3    3    0  502  0.17239637763E+03  0.42409108992E+03 -0.17762170230E+04  0.18342634187E+04  0.12699999809E+01 0.  1.
</event>
<event>
 5   0  0.6098377E-05  0.1898911E+04  0.7818609E-02  0.8655398E-01
        2   -1    0    0  501    0  0.00000000000E+00  0.00000000000E+00  0.14857865844E+04  0.14857865844E+04  0.25500000920E-02 0.  1.
       -2   -1    0    0    0  501  0.00000000000E+00  0.00000000000E+00 -0.60672658173E+03  0.60672658173E+03  0.25500000920E-02 0. -1.
    10030    2    1    2    0    0  0.00000000000E+00  0.00000000000E+00  0.87906000272E+03  0.20925131662E+04  0.18989114941E+04 0.  0.
        5    1    3    3  502    0  0.38426310089E+03 -0.51217190176E+03 -0.33299080965E+03  0.72172235449E+03  0.46999998093E+01 0. -1.
       -5    1    3    3    0  502 -0.38426310089E+03  0.51217190176E+03  0.12120508124E+04  0.13707908117E+04  0.46999998093E+01 0.  1.
</event>
<event>
 5   0  0.6098377E-05  0.1895286E+04  0.7818609E-02  0.8657206E-01
        2   -1    0    0  501    0  0.00000000000E+00  0.00000000000E+00  0.15464453326E+04  0.15464453326E+04  0.25500000920E-02 0.  1.
       -2   -1    0    0    0  501  0.00000000000E+00  0.00000000000E+00 -0.58070430744E+03  0.58070430745E+03  0.25500000920E-02 0. -1.
    10030    2    1    2    0    0  0.00000000000E+00  0.00000000000E+00  0.96574102514E+03  0.21271496400E+04  0.18952862220E+04 0.  0.
        5    1    3    3  502    0 -0.10412639820E+03 -0.90384875572E+02  0.15351136555E+04  0.15413006708E+04  0.46999998093E+01 0.  1.
       -5    1    3    3    0  502  0.10412639820E+03  0.90384875572E+02 -0.56937263036E+03  0.58584896922E+03  0.46999998093E+01 0. -1.
</event>
<event>
 5   0  0.3144958E-05  0.1897201E+04  0.7818609E-02  0.8656251E-01
        1   -1    0    0  501    0  0.00000000000E+00  0.00000000000E+00  0.94289827618E+03  0.94289827619E+03  0.50400001928E-02 0.  1.
       -1   -1    0    0    0  501  0.00000000000E+00  0.00000000000E+00 -0.95433747895E+03  0.95433747896E+03  0.50400001928E-02 0. -1.
    10030    2    1    2    0    0  0.00000000000E+00  0.00000000000E+00 -0.11439202773E+02  0.18972357552E+04  0.18972012690E+04 0.  0.
        4    1    3    3  502    0 -0.77307459177E+03  0.53000657055E+03 -0.15163408201E+03  0.94949765508E+03  0.12699999809E+01 0. -1.
       -4    1    3    3    0  502  0.77307459177E+03 -0.53000657055E+03  0.14019487923E+03  0.94773810008E+03  0.12699999809E+01 0.  1.
</event>
<event>
 5   0  0.3203527E-05  0.1901312E+04  0.7818609E-02  0.8654203E-01
        1   -1    0    0  501    0  0.00000000000E+00  0.00000000000E+00  0.22489823806E+04  0.22489823806E+04  0.50400001928E-02 0.  1.
       -1   -1    0    0    0  501  0.00000000000E+00  0.00000000000E+00 -0.40184715527E+03  0.40184715531E+03  0.50400001928E-02 0. -1.
    10030    2    1    2    0    0  0.00000000000E+00  0.00000000000E+00  0.18471352253E+04  0.26508295359E+04  0.19013123593E+04 0.  0.
        1    1    3    3  502    0  0.64680257025E+03 -0.82938225987E+02 -0.40874227719E+02  0.65337815752E+03  0.50400001928E-02 0. -1.
       -1    1    3    3    0  502 -0.64680257025E+03  0.82938225987E+02  0.18880094530E+04  0.19974513783E+04  0.50400001928E-02 0.  1.
</event>
<event>
 5   0  0.6452182E-05  0.1895404E+04  0.7818609E-02  0.8657147E-01
        2   -1    0    0  501    0  0.00000000000E+00  0.00000000000E+00  0.72173611306E+03  0.72173611307E+03  0.25500000920E-02 0. -1.
       -2   -1    0    0    0  501  0.00000000000E+00  0.00000000000E+00 -0.12444149091E+04  0.12444149091E+04  0.25500000920E-02 0.  1.
    10030    2    1    2    0    0  0.00000000000E+00  0.00000000000E+00 -0.52267879600E+03  0.19661510221E+04  0.18954041041E+04 0.  0.
        3    1    3    3  502    0  0.93039690200E+03  0.18110982600E+01 -0.74340092885E+02  0.93336388131E+03  0.10100000352E+00 0.  1.
       -3    1    3    3    0  502 -0.93039690200E+03 -0.18110982600E+01 -0.44833870311E+03  0.10327871408E+04  0.10100000352E+00 0. -1.
</event>
<event>
 5   0  0.6361762E-05  0.1902569E+04  0.7818609E-02  0.8653579E-01
        2   -1    0    0  501    0  0.00000000000E+00  0.00000000000E+00  0.11885690342E+04  0.11885690342E+04  0.25500000920E-02 0. -1.
       -2   -1    0    0    0  501  0.00000000000E+00  0.00000000000E+00 -0.76137112773E+03  0.76137112773E+03  0.25500000920E-02 0.  1.
    10030    2    1    2    0    0  0.00000000000E+00  0.00000000000E+00  0.42719790645E+03  0.19499401619E+04  0.19025689432E+04 0.  0.
        1    1    3    3  502    0 -0.36329249256E+03  0.16879112086E+03 -0.67071109565E+03  0.78123316076E+03  0.50400001928E-02 0.  1.
       -1    1    3    3    0  502  0.36329249256E+03 -0.16879112086E+03  0.10979090021E+04  0.11687070012E+04  0.50400001928E-02 0. -1.
</event>
<event>
 5   0  0.6098377E-05  0.1897612E+04  0.7818609E-02  0.8656046E-01
        2   -1    0    0  501    0  0.00000000000E+00  0.00000000000E+00  0.14382147758E+04  0.14382147758E+04  0.25500000920E-02 0. -1.
       -2   -1    0    0    0  501  0.00000000000E+00  0.00000000000E+00 -0.62593765578E+03  0.62593765578E+03  0.25500000920E-02 0.  1.
    10030    2    1    2    0    0  0.00000000000E+00  0.00000000000E+00  0.81227712001E+03  0.20641524316E+04  0.18976119575E+04 0.  0.
        5    1    3    3  502    0  0.43231620406E+03  0.23738611886E+03  0.12878048297E+04  0.13790260473E+04  0.46999998093E+01 0. -1.
       -5    1    3    3    0  502 -0.43231620406E+03 -0.23738611886E+03 -0.47552770971E+03  0.68512638426E+03  0.46999998093E+01 0.  1.
</event>
<event>
 5   0  0.3083469E-05  0.1903731E+04  0.7818609E-02  0.8653002E-01
       -1   -1    0    0    0  501  0.00000000000E+00  0.00000000000E+00  0.51073456070E+03  0.51073456073E+03  0.50400001928E-02 0. -1.
        1   -1    0    0  501    0  0.00000000000E+00  0.00000000000E+00 -0.17740086122E+04  0.17740086122E+04  0.50400001928E-02 0.  1.
    10030    2    1    2    0    0  0.00000000000E+00  0.00000000000E+00 -0.12632740515E+04  0.22847431729E+04  0.19037305579E+04 0.  0.
        3    1    3    3  502    0  0.29427613103E+03 -0.30770365491E+03 -0.16533555513E+04  0.17072974462E+04  0.10100000352E+00 0.  1.
       -3    1    3    3    0  502 -0.29427613103E+03  0.30770365491E+03  0.39008149986E+03  0.57744572669E+03  0.10100000352E+00 0. -1.
</event>
<event>
 5   0  0.6423388E-05  0.1907220E+04  0.7818609E-02  0.8651271E-01
       -2   -1    0    0    0  501  0.00000000000E+00  0.00000000000E+00  0.51617201757E+03  0.51617201758E+03  0.25500000920E-02 0. -1.
        2   -1    0    0  501    0  0.00000000000E+00  0.00000000000E+00 -0.17617624218E+04  0.17617624218E+04  0.25500000920E-02 0.  1.
    10030    2    1    2    0    0  0.00000000000E+00  0.00000000000E+00 -0.12455904042E+04  0.22779344394E+04  0.19072204527E+04 0.  0.
        2    1    3    3  502    0  0.65760568333E+03 -0.67501094404E+03 -0.79705700019E+03  0.12342547836E+04  0.25500000920E-02 0.  1.
       -2    1    3    3    0  502 -0.65760568333E+03  0.67501094404E+03 -0.44853340404E+03  0.10436796558E+04  0.25500000920E-02 0. -1.
</event>
<event>
 5   0  0.3203527E-05  0.1898352E+04  0.7818609E-02  0.8655677E-01
       -1   -1    0    0    0  501  0.00000000000E+00  0.00000000000E+00  0.42744739845E+03  0.42744739848E+03  0.50400001928E-02 0. -1.
        1   -1    0    0  501    0  0.00000000000E+00  0.00000000000E+00 -0.21077100628E+04  0.21077100628E+04  0.50400001928E-02 0.  1.
    10030    2    1    2    0    0  0.00000000000E+00  0.00000000000E+00 -0.16802626644E+04  0.25351574613E+04  0.18983521097E+04 0.  0.
        1    1    3    3  502    0  0.47464848918E+03 -0.19846818194E+03 -0.19053617536E+04  0.19735967723E+04  0.50400001928E-02 0.  1.
       -1    1    3    3    0  502 -0.47464848918E+03  0.19846818194E+03  0.22509908918E+03  0.56156068906E+03  0.50400001928E-02 0. -1.
</event>
<event>
 5   0  0.6452182E-05  0.1901523E+04  0.7818609E-02  0.8654098E-01
       -2   -1    0    0    0  501  0.00000000000E+00  0.00000000000E+00  0.48783144749E+03  0.48783144749E+03  0.25500000920E-02 0. -1.
        2   -1    0    0  501    0  0.00000000000E+00  0.00000000000E+00 -0.18529920009E+04  0.18529920009E+04  0.25500000920E-02 0.  1.
    10030    2    1    2    0    0  0.00000000000E+00  0.00000000000E+00 -0.13651605534E+04  0.23408234484E+04  0.19015233577E+04 0.  0.
        3    1    3    3  502    0  0.50062461151E+03 -0.74729928657E+03 -0.10617411479E+04  0.13915371000E+04  0.10100000352E+00 0.  1.
       -3    1    3    3    0  502 -0.50062461151E+03  0.74729928657E+03 -0.30341940550E+03  0.94928634837E+03  0.10100000352E+00 0. -1.
</event>
<event>
 5   0  0.6423388E-05  0.1905878E+04  0.7818609E-02  0.8651936E-01
        2   -1    0    0  501    0  0.00000000000E+00  0.00000000000E+00  0.76436330373E+03  0.76436330374E+03  0.25500000920E-02 0.  1.
       -2   -1    0    0    0  501  0.00000000000E+00  0.00000000000E+00 -0.11880378771E+04  0.11880378771E+04  0.25500000920E-02 0. -1.
    10030    2    1    2    0    0  0.00000000000E+00  0.00000000000E+00 -0.42367457337E+03  0.19524011808E+04  0.19058778100E+04 0.  0.
        2    1    3    3  502    0  0.26316233647E+03 -0.57108611436E+03  0.52167121999E+03  0.81702792310E+03  0.25500000920E-02 0.  1.
       -2    1    3    3    0  502 -0.26316233647E+03  0.57108611436E+03 -0.94534579336E+03  0.11353732577E+04  0.25500000920E-02 0. -1.
</event>
<event>
 5   0  0.3203527E-05  0.1926332E+04  0.7818609E-02  0.8641859E-01
       -1   -1    0    0    0  501  0.00000000000E+00  0.00000000000E+00  0.12901414366E+04  0.12901414366E+04  0.50400001928E-02 0.  1.
        1   -1    0    0  501    0  0.00000000000E+00  0.00000000000E+00 -0.71905994085E+03  0.71905994087E+03  0.50400001928E-02 0. -1.
    10030    2    1    2    0    0  0.00000000000E+00  0.00000000000E+00  0.57108149572E+03  0.20092013774E+04  0.19263322923E+04 0.  0.
        1    1    3    3  502    0  0.22402425293E+03 -0.77746356556E+03 -0.25948295652E+03  0.84968692259E+03  0.50400001928E-02 0. -1.
       -1    1    3    3    0  502 -0.22402425293E+03  0.77746356556E+03  0.83056445224E+03  0.11595144549E+04  0.50400001928E-02 0.  1.
</event>
<event>
 5   0  0.6098377E-05  0.1899220E+04  0.7818609E-02  0.8655245E-01
        2   -1    0    0  501    0  0.00000000000E+00  0.00000000000E+00  0.19606455367E+04  0.19606455367E+04  0.25500000920E-02 0.  1.
       -2   -1    0    0    0  501  0.00000000000E+00  0.00000000000E+00 -0.45992960996E+03  0.45992960997E+03  0.25500000920E-02 0. -1.
    10030    2    1    2    0    0  0.00000000000E+00  0.00000000000E+00  0.15007159267E+04  0.24205751466E+04  0.18992197734E+04 0.  0.
        5    1    3    3  502    0 -0.74615182791E+03 -0.13107571929E+03  0.14800787749E+04  0.16627022176E+04  0.46999998093E+01 0.  1.
       -5    1    3    3    0  502  0.74615182791E+03  0.13107571929E+03  0.20637151758E+02  0.75787292900E+03  0.46999998093E+01 0. -1.
</event>
<event>
 5   0  0.6423388E-05  0.1902923E+04  0.7818609E-02  0.8653403E-01
       -2   -1    0    0    0  501  0.00000000000E+00  0.00000000000E+00  0.62530148254E+03  0.62530148254E+03  0.25500000920E-02 0. -1.
        2   -1    0    0  501    0  0.00000000000E+00  0.00000000000E+00 -0.14477478297E+04  0.14477478297E+04  0.25500000920E-02 0.  1.
    10030    2    1    2    0    0  0.00000000000E+00  0.00000000000E+00 -0.82244634717E+03  0.20730493123E+04  0.19029228721E+04 0.  0.
        2    1    3    3  502    0 -0.72745110449E+03  0.87703350224E+02 -0.10724483239E+04  0.12988542622E+04  0.25500000920E-02 0.  1.
       -2    1    3    3    0  502  0.72745110449E+03 -0.87703350224E+02  0.25000197675E+03  0.77419505001E+03  0.25500000920E-02 0. -1.
</event>
<event>
 5   0  0.6098377E-05  0.1901994E+04  0.7818609E-02  0.8653865E-01
        2   -1    0    0  501    0  0.00000000000E+00  0.00000000000E+00  0.19840886234E+04  0.19840886234E+04  0.25500000920E-02 0.  1.
       -2   -1    0    0    0  501  0.00000000000E+00  0.00000000000E+00 -0.45582398179E+03  0.45582398180E+03  0.25500000920E-02 0. -1.
    10030    2    1    2    0    0  0.00000000000E+00  0.00000000000E+00  0.15282646416E+04  0.24399126052E+04  0.19019938765E+04 0.  0.
        5    1    3    3  502    0  0.33106209758E+03  0.78265866295E+03  0.21653807335E+03  0.87696494933E+03  0.46999998093E+01 0. -1.
       -5    1    3    3    0  502 -0.33106209758E+03 -0.78265866295E+03  0.13117265683E+04  0.15629476559E+04  0.46999998093E+01 0.  1.
</event>
<event>
 5   0  0.3203527E-05  0.1882290E+04  0.7818609E-02  0.8663722E-01
        1   -1    0    0  501    0  0.00000000000E+00  0.00000000000E+00  0.93254214985E+03  0.93254214986E+03  0.50400001928E-02 0. -1.
       -1   -1    0    0    0  501  0.00000000000E+00  0.00000000000E+00 -0.94982689077E+03  0.94982689078E+03  0.50400001928E-02 0.  1.
    10030    2    1    2    0    0  0.00000000000E+00  0.00000000000E+00 -0.17284740920E+02  0.18823690406E+04  0.18822896809E+04 0.  0.
        1    1    3    3  502    0 -0.82320696195E+03  0.45482089200E+03  0.26314284419E+02  0.94086353293E+03  0.50400001928E-02 0. -1.
       -1    1    3    3    0  502  0.82320696195E+03 -0.45482089200E+03 -0.43599025339E+02  0.94150550771E+03  0.50400001928E-02 0.  1.
</event>
<event>
 5   0  0.6395992E-05  0.1902169E+04  0.7818609E-02  0.8653778E-01
       -2   -1    0    0    0  501  0.00000000000E+00  0.00000000000E+00  0.58150037844E+03  0.58150037845E+03  0.25500000920E-02 0. -1.
        2   -1    0    0  501    0  0.00000000000E+00  0.00000000000E+00 -0.15555650424E+04  0.15555650425E+04  0.25500000920E-02 0.  1.
    10030    2    1    2    0    0  0.00000000000E+00  0.00000000000E+00 -0.97406466401E+03  0.21370654209E+04  0.19021689314E+04 0.  0.
        4    1    3    3  502    0  0.33503252993E+03  0.88965362737E+03 -0.51939339538E+03  0.10832827354E+04  0.12699999809E+01 0.  1.
       -4    1    3    3    0  502 -0.33503252993E+03 -0.88965362737E+03 -0.45467126862E+03  0.10537826855E+04  0.12699999809E+01 0. -1.
</event>
<event>
 5   0  0.6452182E-05  0.1904521E+04  0.7818609E-02  0.8652609E-01
       -2   -1    0    0    0  501  0.00000000000E+00  0.00000000000E+00  0.79902435983E+03  0.79902435983E+03  0.25500000920E-02 0.  1.
        2   -1    0    0  501    0  0.00000000000E+00  0.00000000000E+00 -0.11348835818E+04  0.11348835818E+04  0.25500000920E-02 0. -1.
    10030    2    1    2    0    0  0.00000000000E+00  0.00000000000E+00 -0.33585922198E+03  0.19339079416E+04  0.19045205459E+04 0.  0.
        3    1    3    3  502    0  0.50393189129E+03  0.26523256122E+03 -0.94292581222E+03  0.11015465311E+04  0.10100000352E+00 0. -1.
       -3    1    3    3    0  502 -0.50393189129E+03 -0.26523256122E+03  0.60706659025E+03  0.83236141056E+03  0.10100000352E+00 0.  1.
</event>
<event>
 5   0  0.6098377E-05  0.1882429E+04  0.7818609E-02  0.8663652E-01
       -2   -1    0    0    0  501  0.00000000000E+00  0.00000000000E+00  0.77630177412E+03  0.77630177412E+03  0.25500000920E-02 0.  1.
        2   -1    0    0  501    0  0.00000000000E+00  0.00000000000E+00 -0.11411600857E+04  0.11411600857E+04  0.25500000920E-02 0. -1.
    10030    2    1    2    0    0  0.00000000000E+00  0.00000000000E+00 -0.36485831162E+03  0.19174618599E+04  0.18824288556E+04 0.  0.
        5    1    3    3  502    0  0.85707452382E+03  0.22591633390E+03  0.14008227429E+03  0.89736283791E+03  0.46999998093E+01 0.  1.
       -5    1    3    3    0  502 -0.85707452382E+03 -0.22591633390E+03 -0.50494058591E+03  0.10200990220E+04  0.46999998093E+01 0. -1.
</event>
<event>
 5   0  0.6452182E-05  0.1907486E+04  0.7818609E-02  0.8651139E-01
       -2   -1    0    0    0  501  0.00000000000E+00  0.00000000000E+00  0.90504033029E+03  0.90504033029E+03  0.25500000920E-02 0.  1.
        2   -1    0    0  501    0  0.00000000000E+00  0.00000000000E+00 -0.10050667270E+04  0.10050667270E+04  0.25500000920E-02 0. -1.
    10030    2    1    2    0    0  0.00000000000E+00  0.00000000000E+00 -0.10002639675E+03  0.19101070573E+04  0.19074862229E+04 0.  0.
        3    1    3    3  502    0 -0.35519566526E+03 -0.88471192532E+03 -0.77377672557E+02  0.95648652151E+03  0.10100000352E+00 0. -1.
       -3    1    3    3    0  502  0.35519566526E+03  0.88471192532E+03 -0.22648724188E+02  0.95362053581E+03  0.10100000352E+00 0.  1.
</event>
<event>
 5   0  0.3083469E-05  0.1932383E+04  0.7818609E-02  0.8638903E-01
        1   -1    0    0  501    0  0.00000000000E+00  0.00000000000E+00  0.14709211160E+04  0.14709211161E+04  0.50400001928E-02 0. -1.
       -1   -1    0    0    0  501  0.00000000000E+00  0.00000000000E+00 -0.63465417518E+03  0.63465417520E+03  0.50400001928E-02 0.  1.
    10030    2    1    2    0    0  0.00000000000E+00  0.00000000000E+00  0.83626694086E+03  0.21055752913E+04  0.19323832205E+04 0.  0.
        3    1    3    3  502    0 -0.96298508625E+02 -0.95651484070E+03  0.31287211999E+03  0.10109812149E+04  0.10100000352E+00 0. -1.
       -3    1    3    3    0  502  0.96298508625E+02  0.95651484070E+03  0.52339482087E+03  0.10945940763E+04  0.10100000352E+00 0.  1.
</event>
<event>
 5   0  0.3083469E-05  0.1898393E+04  0.7818609E-02  0.8655657E-01
       -1   -1    0    0    0  501  0.00000000000E+00  0.00000000000E+00  0.55153681052E+03  0.55153681054E+03  0.50400001928E-02 0. -1.
        1   -1    0    0  501    0  0.00000000000E+00  0.00000000000E+00 -0.16335692205E+04  0.16335692205E+04  0.50400001928E-02 0.  1.
    10030    2    1    2    0    0  0.00000000000E+00  0.00000000000E+00 -0.10820324100E+04  0.21851060311E+04  0.18983925386E+04 0.  0.
        3    1    3    3  502    0  0.27168915298E+03 -0.12608117119E+03 -0.15777496007E+04  0.16059281647E+04  0.10100000352E+00 0.  1.
       -3    1    3    3    0  502 -0.27168915298E+03  0.12608117119E+03  0.49571719066E+03  0.57917786637E+03  0.10100000352E+00 0. -1.
</event>
<event>
 5   0  0.6395992E-05  0.1893493E+04  0.7818609E-02  0.8658102E-01
        2   -1    0    0  501    0  0.00000000000E+00  0.00000000000E+00  0.17015987375E+04  0.17015987375E+04  0.25500000920E-02 0.  1.
       -2   -1    0    0    0  501  0.00000000000E+00  0.00000000000E+00 -0.52675718458E+03  0.52675718458E+03  0.25500000920E-02 0. -1.
    10030    2    1    2    0    0  0.00000000000E+00  0.00000000000E+00  0.11748415530E+04  0.22283559221E+04  0.18934934489E+04 0.  0.
        4    1    3    3  502    0 -0.56904499486E+03 -0.29206148112E+03 -0.23402965031E+03  0.68109001245E+03  0.12699999809E+01 0. -1.
       -4    1    3    3    0  502  0.56904499486E+03  0.29206148112E+03  0.14088712033E+04  0.15472659097E+04  0.12699999809E+01 0.  1.
</event>
<event>
 5   0  0.3147063E-05  0.1884081E+04  0.7818609E-02  0.8662821E-01
       -1   -1    0    0    0  501  0.00000000000E+00  0.00000000000E+00  0.13457531863E+04  0.13457531863E+04  0.50400001928E-02 0. -1.
        1   -1    0    0  501    0  0.00000000000E+00  0.00000000000E+00 -0.65943753533E+03  0.65943753535E+03  0.50400001928E-02 0.  1.
    10030    2    1    2    0    0  0.00000000000E+00  0.00000000000E+00  0.68631565099E+03  0.20051907217E+04  0.18840808522E+04 0.  0.
        5    1    3    3  502    0  0.48253545238E+03  0.42487209630E+03 -0.38962183827E+03  0.75178722248E+03  0.46999998093E+01 0.  1.
       -5    1    3    3    0  502 -0.48253545238E+03 -0.42487209630E+03  0.10759374893E+04  0.12534034992E+04  0.46999998093E+01 0. -1.
</event>
<event>
 5   0  0.3083469E-05  0.1895449E+04  0.7818609E-02  0.8657125E-01
        1   -1    0    0  501    0  0.00000000000E+00  0.00000000000E+00  0.58720375182E+03  0.58720375184E+03  0.50400001928E-02 0. -1.
       -1   -1    0    0    0  501  0.00000000000E+00  0.00000000000E+00 -0.15295917689E+04  0.15295917689E+04  0.50400001928E-02 0.  1.
    10030    2    1    2    0    0  0.00000000000E+00  0.00000000000E+00 -0.94238801710E+03  0.21167955208E+04  0.18954493140E+04 0.  0.
        3    1    3    3  502    0 -0.90479000690E+03  0.19108436196E+03 -0.70283810852E+03  0.11615246906E+04  0.10100000352E+00 0. -1.
       -3    1    3    3    0  502  0.90479000690E+03 -0.19108436196E+03 -0.23954990858E+03  0.95527083012E+03  0.10100000352E+00 0.  1.
</event>
<event>
 5   0  0.2279625E-05  0.1901414E+04  0.7818609E-02  0.8654153E-01
        3   -1    0    0  501    0  0.00000000000E+00  0.00000000000E+00  0.10372338583E+04  0.10372338632E+04  0.10100000352E+00 0.  1.
       -3   -1    0    0    0  501  0.00000000000E+00  0.00000000000E+00 -0.87139792038E+03  0.87139792624E+03  0.10100000352E+00 0. -1.
    10030    2    1    2    0    0  0.00000000000E+00  0.00000000000E+00  0.16583593792E+03  0.19086317895E+04  0.19014136187E+04 0.  0.
        3    1    3    3  502    0  0.56496595871E+03 -0.74047276687E+03  0.27431686069E+03  0.97094603518E+03  0.10100000352E+00 0.  1.
       -3    1    3    3    0  502 -0.56496595871E+03  0.74047276687E+03 -0.10848092276E+03  0.93768575428E+03  0.10100000352E+00 0. -1.
</event>
<event>
 5   0  0.3083469E-05  0.1896498E+04  0.7818609E-02  0.8656601E-01
       -1   -1    0    0    0  501  0.00000000000E+00  0.00000000000E+00  0.62104339475E+03  0.62104339477E+03  0.50400001928E-02 0. -1.
        1   -1    0    0  501    0  0.00000000000E+00  0.00000000000E+00 -0.14478480904E+04  0.14478480904E+04  0.50400001928E-02 0.  1.
    10030    2    1    2    0    0  0.00000000000E+00  0.00000000000E+00 -0.82680469561E+03  0.20688914851E+04  0.18964983450E+04 0.  0.
        3    1    3    3  502    0  0.42751657703E+03  0.51125758789E+02  0.50825851901E+03  0.66611635560E+03  0.10100000352E+00 0. -1.
       -3    1    3    3    0  502 -0.42751657703E+03 -0.51125758789E+02 -0.13350632146E+04  0.14027751295E+04  0.10100000352E+00 0.  1.
</event>
<event>
 5   0  0.6361762E-05  0.1900458E+04  0.7818609E-02  0.8654629E-01
       -2   -1    0    0    0  501  0.00000000000E+00  0.00000000000E+00  0.50614225696E+03  0.50614225696E+03  0.25500000920E-02 0.  1.
        2   -1    0    0  501    0  0.00000000000E+00  0.00000000000E+00 -0.17839549822E+04  0.17839549822E+04  0.25500000920E-02 0. -1.
    10030    2    1    2    0    0  0.00000000000E+00  0.00000000000E+00 -0.12778127253E+04  0.22900972392E+04  0.19004578407E+04 0.  0.
        1    1    3    3  502    0  0.75986893724E+03  0.41271597414E+03 -0.11136303269E+04  0.14099318360E+04  0.50400001928E-02 0. -1.
       -1    1    3    3    0  502 -0.75986893724E+03 -0.41271597414E+03 -0.16418239842E+03  0.88016540325E+03  0.50400001928E-02 0.  1.
</event>
<event>
 5   0  0.3086139E-05  0.1902141E+04  0.7818609E-02  0.8653791E-01
       -1   -1    0    0    0  501  0.00000000000E+00  0.00000000000E+00  0.74846366170E+03  0.74846366171E+03  0.50400001928E-02 0. -1.
        1   -1    0    0  501    0  0.00000000000E+00  0.00000000000E+00 -0.12085229846E+04  0.12085229846E+04  0.50400001928E-02 0.  1.
    10030    2    1    2    0    0  0.00000000000E+00  0.00000000000E+00 -0.46005932293E+03  0.19569866463E+04  0.19021414651E+04 0.  0.
        2    1    3    3  502    0 -0.80251760085E+03  0.29283387118E+03 -0.66011322887E+03  0.10795997641E+04  0.25500000920E-02 0.  1.
       -2    1    3    3    0  502  0.80251760085E+03 -0.29283387118E+03  0.20005390594E+03  0.87738688221E+03  0.25500000920E-02 0. -1.
</event>
<event>
 5   0  0.3083469E-05  0.1918084E+04  0.7818609E-02  0.8645907E-01
        1   -1    0    0  501    0  0.00000000000E+00  0.00000000000E+00  0.13915773476E+04  0.13915773477E+04  0.50400001928E-02 0.  1.
       -1   -1    0    0    0  501  0.00000000000E+00  0.00000000000E+00 -0.66094863477E+03  0.66094863479E+03  0.50400001928E-02 0. -1.
    10030    2    1    2    0    0  0.00000000000E+00  0.00000000000E+00  0.73062871287E+03  0.20525259824E+04  0.19180835729E+04 0.  0.
        3    1    3    3  502    0 -0.60486950727E+03  0.35348212599E+03 -0.33553009696E+03  0.77678645096E+03  0.10100000352E+00 0. -1.
       -3    1    3    3    0  502  0.60486950727E+03 -0.35348212599E+03  0.10661588098E+04  0.12757395315E+04  0.10100000352E+00 0.  1.
</event>
<event>
 5   0  0.3086139E-05  0.1909027E+04  0.7818609E-02  0.8650376E-01
        1   -1    0    0  501    0  0.00000000000E+00  0.00000000000E+00  0.91109172011E+03  0.91109172012E+03  0.50400001928E-02 0.  1.
       -1   -1    0    0    0  501  0.00000000000E+00  0.00000000000E+00 -0.10000047588E+04  0.10000047588E+04  0.50400001928E-02 0. -1.
    10030    2    1    2    0    0  0.00000000000E+00  0.00000000000E+00 -0.88913038712E+02  0.19110964790E+04  0.19090270358E+04 0.  0.
        2    1    3    3  502    0 -0.37515247175E+03 -0.21869934159E+03 -0.89539400752E+03  0.99513778331E+03  0.25500000920E-02 0. -1.
       -2    1    3    3    0  502  0.37515247175E+03  0.21869934159E+03  0.80648096881E+03  0.91595869564E+03  0.25500000920E-02 0.  1.
</event>
<event>
 5   0  0.3083469E-05  0.1893250E+04  0.7818609E-02  0.8658224E-01
       -1   -1    0    0    0  501  0.00000000000E+00  0.00000000000E+00  0.13381313260E+04  0.13381313261E+04  0.50400001928E-02 0.  1.
        1   -1    0    0  501    0  0.00000000000E+00  0.00000000000E+00 -0.66966440455E+03  0.66966440457E+03  0.50400001928E-02 0. -1.
    10030    2    1    2    0    0  0.00000000000E+00  0.00000000000E+00  0.66846692150E+03  0.20077957306E+04  0.18932500286E+04 0.  0.
        3    1    3    3  502    0 -0.60963262693E+03  0.66078216407E+03  0.19970508921E+02  0.89926850250E+03  0.10100000352E+00 0. -1.
       -3    1    3    3    0  502  0.60963262693E+03 -0.66078216407E+03  0.64849641257E+03  0.11085272281E+04  0.10100000352E+00 0.  1.
</event>
<event>
 5   0  0.6098377E-05  0.1901961E+04  0.7818609E-02  0.8653881E-01
        2   -1    0    0  501    0  0.00000000000E+00  0.00000000000E+00  0.13441416576E+04  0.13441416576E+04  0.25500000920E-02 0.  1.
       -2   -1    0    0    0  501  0.00000000000E+00  0.00000000000E+00 -0.67281921562E+03  0.67281921563E+03  0.25500000920E-02 0. -1.
    10030    2    1    2    0    0  0.00000000000E+00  0.00000000000E+00  0.67132244199E+03  0.20169608732E+04  0.19019614463E+04 0.  0.
        5    1    3    3  502    0  0.71144016526E+03 -0.59419498010E+03  0.11038454890E+03  0.93349966350E+03  0.46999998093E+01 0.  1.
       -5    1    3    3    0  502 -0.71144016526E+03  0.59419498010E+03  0.56093789308E+03  0.10834612097E+04  0.46999998093E+01 0. -1.
</event>
<event>
 5   0  0.6361762E-05  0.1899880E+04  0.7818609E-02  0.8654916E-01
       -2   -1    0    0    0  501  0.00000000000E+00  0.00000000000E+00  0.56945987859E+03  0.56945987859E+03  0.25500000920E-02 0.  1.
        2   -1    0    0  501    0  0.00000000000E+00  0.00000000000E+00 -0.15846354820E+04  0.15846354820E+04  0.25500000920E-02 0. -1.
    10030    2    1    2    0    0  0.00000000000E+00  0.00000000000E+00 -0.10151756034E+04  0.21540953605E+04  0.18998803427E+04 0.  0.
        1    1    3    3  502    0 -0.73939962234E+03  0.46636089977E+03 -0.86119930025E+02  0.87841956531E+03  0.50400001928E-02 0. -1.
       -1    1    3    3    0  502  0.73939962234E+03 -0.46636089977E+03 -0.92905567334E+03  0.12756757952E+04  0.50400001928E-02 0.  1.
</event>
<event>
 5   0  0.3203527E-05  0.1909941E+04  0.7818609E-02  0.8649924E-01
        1   -1    0    0  501    0  0.00000000000E+00  0.00000000000E+00  0.84463462723E+03  0.84463462724E+03  0.50400001928E-02 0. -1.
       -1   -1    0    0    0  501  0.00000000000E+00  0.00000000000E+00 -0.10797195656E+04  0.10797195656E+04  0.50400001928E-02 0.  1.
    10030    2    1    2    0    0  0.00000000000E+00  0.00000000000E+00 -0.23508493840E+03  0.19243541929E+04  0.19099408712E+04 0.  0.
        1    1    3    3  502    0 -0.69489755930E+03  0.53659100934E+03 -0.49608507306E+03  0.10084210078E+04  0.50400001928E-02 0.  1.
       -1    1    3    3    0  502  0.69489755930E+03 -0.53659100934E+03  0.26100013466E+03  0.91593318509E+03  0.50400001928E-02 0. -1.
</event>
<event>
 5   0  0.6423388E-05  0.1909754E+04  0.7818609E-02  0.8650017E-01
       -2   -1    0    0    0  501  0.00000000000E+00  0.00000000000E+00  0.64089161673E+03  0.64089161673E+03  0.25500000920E-02 0.  1.
        2   -1    0    0  501    0  0.00000000000E+00  0.00000000000E+00 -0.14226892453E+04  0.14226892453E+04  0.25500000920E-02 0. -1.
    10030    2    1    2    0    0  0.00000000000E+00  0.00000000000E+00 -0.78179762858E+03  0.20635808620E+04  0.19097535030E+04 0.  0.
        2    1    3    3  502    0  0.14890255598E+03 -0.89982498598E+03 -0.85402314821E+02  0.91605159896E+03  0.25500000920E-02 0.  1.
       -2    1    3    3    0  502 -0.14890255598E+03  0.89982498598E+03 -0.69639531376E+03  0.11475292631E+04  0.25500000920E-02 0. -1.
</event>
<event>
 5   0  0.6098377E-05  0.1922786E+04  0.7818609E-02  0.8643597E-01
        2   -1    0    0  501    0  0.00000000000E+00  0.00000000000E+00  0.20268633735E+04  0.20268633735E+04  0.25500000920E-02 0. -1.
       -2   -1    0    0    0  501  0.00000000000E+00  0.00000000000E+00 -0.45601330565E+03  0.45601330566E+03  0.25500000920E-02 0.  1.
    10030    2    1    2    0    0  0.00000000000E+00  0.00000000000E+00  0.15708500678E+04  0.24828766792E+04  0.19227861733E+04 0.  0.
        5    1    3    3  502    0  0.35161274793E+03  0.88395423623E+03  0.60627515387E+03  0.11280949732E+04  0.46999998093E+01 0.  1.
       -5    1    3    3    0  502 -0.35161274793E+03 -0.88395423623E+03  0.96457491398E+03  0.13547817060E+04  0.46999998093E+01 0. -1.
</event>
<event>
 5   0  0.3086139E-05  0.1904662E+04  0.7818609E-02  0.8652539E-01
       -1   -1    0    0    0  501  0.00000000000E+00  0.00000000000E+00  0.11620032839E+04  0.11620032840E+04  0.50400001928E-02 0.  1.
        1   -1    0    0  501    0  0.00000000000E+00  0.00000000000E+00 -0.78049229209E+03  0.78049229211E+03  0.50400001928E-02 0. -1.
    10030    2    1    2    0    0  0.00000000000E+00  0.00000000000E+00  0.38151099186E+03  0.19424955761E+04  0.19046622866E+04 0.  0.
        2    1    3    3  502    0  0.44909660589E+03 -0.46445830754E+03 -0.52280309346E+03  0.83110309553E+03  0.25500000920E-02 0. -1.
       -2    1    3    3    0  502 -0.44909660589E+03  0.46445830754E+03  0.90431408532E+03  0.11113924805E+04  0.25500000920E-02 0.  1.
</event>
<event>
 5   0  0.6423388E-05  0.1911363E+04  0.7818609E-02  0.8649221E-01
       -2   -1    0    0    0  501  0.00000000000E+00  0.00000000000E+00  0.93830119230E+03  0.93830119231E+03  0.25500000920E-02 0.  1.
        2   -1    0    0  501    0  0.00000000000E+00  0.00000000000E+00 -0.97338369958E+03  0.97338369959E+03  0.25500000920E-02 0. -1.
    10030    2    1    2    0    0  0.00000000000E+00  0.00000000000E+00 -0.35082507282E+02  0.19116848919E+04  0.19113629544E+04 0.  0.
        2    1    3    3  502    0 -0.41733908414E+03  0.66049352849E+03  0.53291811844E+03  0.94574062686E+03  0.25500000920E-02 0.  1.
       -2    1    3    3    0  502  0.41733908414E+03 -0.66049352849E+03 -0.56800062572E+03  0.96594426503E+03  0.25500000920E-02 0. -1.
</event>
<event>
 5   0  0.6452182E-05  0.1914581E+04  0.7818609E-02  0.8647632E-01
        2   -1    0    0  501    0  0.00000000000E+00  0.00000000000E+00  0.23429467747E+04  0.23429467747E+04  0.25500000920E-02 0.  1.
       -2   -1    0    0    0  501  0.00000000000E+00  0.00000000000E+00 -0.39113347055E+03  0.39113347056E+03  0.25500000920E-02 0. -1.
    10030    2    1    2    0    0  0.00000000000E+00  0.00000000000E+00  0.19518133041E+04  0.27340802453E+04  0.19145807931E+04 0.  0.
        3    1    3    3  502    0  0.27148670414E+03  0.91163314007E+03  0.82193817710E+03  0.12571246516E+04  0.10100000352E+00 0.  1.
       -3    1    3    3    0  502 -0.27148670414E+03 -0.91163314007E+03  0.11298751270E+04  0.14769555936E+04  0.10100000352E+00 0. -1.
</event>
<event>
 5   0  0.2279625E-05  0.1901275E+04  0.7818609E-02  0.8654222E-01
        3   -1    0    0  501    0  0.00000000000E+00  0.00000000000E+00  0.91046805031E+03  0.91046805591E+03  0.10100000352E+00 0.  1.
       -3   -1    0    0    0  501  0.00000000000E+00  0.00000000000E+00 -0.99257962854E+03  0.99257963368E+03  0.10100000352E+00 0. -1.
    10030    2    1    2    0    0  0.00000000000E+00  0.00000000000E+00 -0.82111578232E+02  0.19030476896E+04  0.19012754134E+04 0.  0.
        4    1    3    3  502    0 -0.87382893827E+03  0.19910688156E+03 -0.35835265908E+03  0.96521438282E+03  0.12699999809E+01 0. -1.
       -4    1    3    3    0  502  0.87382893827E+03 -0.19910688156E+03  0.27624108084E+03  0.93783330677E+03  0.12699999809E+01 0.  1.
</event>
<event>
 5   0  0.3147063E-05  0.1931536E+04  0.7818609E-02  0.8639316E-01
       -1   -1    0    0    0  501  0.00000000000E+00  0.00000000000E+00  0.38642706803E+03  0.38642706806E+03  0.50400001928E-02 0. -1.
        1   -1    0    0  501    0  0.00000000000E+00  0.00000000000E+00 -0.24136701216E+04  0.24136701216E+04  0.50400001928E-02 0.  1.
    10030    2    1    2    0    0  0.00000000000E+00  0.00000000000E+00 -0.20272430536E+04  0.28000971897E+04  0.19315356257E+04 0.  0.
        5    1    3    3  502    0  0.31522990813E+02  0.96147116347E+03 -0.89005960856E+03  0.13105909712E+04  0.46999998093E+01 0. -1.
       -5    1    3    3    0  502 -0.31522990813E+02 -0.96147116347E+03 -0.11371834450E+04  0.14895062184E+04  0.46999998093E+01 0.  1.
</event>
<event>
 5   0  0.6361762E-05  0.1904951E+04  0.7818609E-02  0.8652396E-01
        2   -1    0    0  501    0  0.00000000000E+00  0.00000000000E+00  0.13040871349E+04  0.13040871349E+04  0.25500000920E-02 0. -1.
       -2   -1    0    0    0  501  0.00000000000E+00  0.00000000000E+00 -0.69566634359E+03  0.69566634360E+03  0.25500000920E-02 0.  1.
    10030    2    1    2    0    0  0.00000000000E+00  0.00000000000E+00  0.60842079135E+03  0.19997534785E+04  0.19049509483E+04 0.  0.
        1    1    3    3  502    0 -0.21846561264E+03  0.88448925243E+03  0.12607537283E+02  0.91115718270E+03  0.50400001928E-02 0.  1.
       -1    1    3    3    0  502  0.21846561264E+03 -0.88448925243E+03  0.59581325406E+03  0.10885962958E+04  0.50400001928E-02 0. -1.
</event>
<event>
 5   0  0.3144958E-05  0.1826094E+04  0.7818609E-02  0.8692545E-01
       -1   -1    0    0    0  501  0.00000000000E+00  0.00000000000E+00  0.42190737689E+03  0.42190737692E+03  0.50400001928E-02 0. -1.
        1   -1    0    0  501    0  0.00000000000E+00  0.00000000000E+00 -0.19759191597E+04  0.19759191597E+04  0.50400001928E-02 0.  1.
    10030    2    1    2    0    0  0.00000000000E+00  0.00000000000E+00 -0.15540117828E+04  0.23978265366E+04  0.18260940498E+04 0.  0.
        4    1    3    3  502    0  0.17114901299E+03 -0.62360984032E+03 -0.16233861432E+04  0.17474453927E+04  0.12699999809E+01 0.  1.
       -4    1    3    3    0  502 -0.17114901299E+03  0.62360984032E+03  0.69374360411E+02  0.65038114392E+03  0.12699999809E+01 0. -1.
</event>
<event>
 5   0  0.3086139E-05  0.1860668E+04  0.7818609E-02  0.8674686E-01
       -1   -1    0    0    0  501  0.00000000000E+00  0.00000000000E+00  0.38774565708E+03  0.38774565712E+03  0.50400001928E-02 0.  1.
        1   -1    0    0  501    0  0.00000000000E+00  0.00000000000E+00 -0.22321879842E+04  0.22321879842E+04  0.50400001928E-02 0. -1.
    10030    2    1    2    0    0  0.00000000000E+00  0.00000000000E+00 -0.18444423271E+04  0.26199336413E+04  0.18606678336E+04 0.  0.
        2    1    3    3  502    0 -0.25077223441E+03  0.26736440415E+03 -0.21262167894E+04  0.21575838973E+04  0.25500000920E-02 0. -1.
       -2    1    3    3    0  502  0.25077223441E+03 -0.26736440415E+03  0.28177446234E+03  0.46234974402E+03  0.25500000920E-02 0.  1.
</event>
<event>
 5   0  0.6395992E-05  0.1898378E+04  0.7818609E-02  0.8655664E-01
       -2   -1    0    0    0  501  0.00000000000E+00  0.00000000000E+00  0.49733243012E+03  0.49733243012E+03  0.25500000920E-02 0.  1.
        2   -1    0    0  501    0  0.00000000000E+00  0.00000000000E+00 -0.18115840937E+04  0.18115840937E+04  0.25500000920E-02 0. -1.
    10030    2    1    2    0    0  0.00000000000E+00  0.00000000000E+00 -0.13142516636E+04  0.23089165238E+04  0.18983777492E+04 0.  0.
        4    1    3    3  502    0  0.26909179226E+03  0.86853142752E+03 -0.98843199926E+03  0.13430400825E+04  0.12699999809E+01 0. -1.
       -4    1    3    3    0  502 -0.26909179226E+03 -0.86853142752E+03 -0.32581966432E+03  0.96587644128E+03  0.12699999809E+01 0.  1.
</event>
<event>
 5   0  0.6423388E-05  0.1900707E+04  0.7818609E-02  0.8654505E-01
        2   -1    0    0  501    0  0.00000000000E+00  0.00000000000E+00  0.21437857093E+04  0.21437857093E+04  0.25500000920E-02 0.  1.
       -2   -1    0    0    0  501  0.00000000000E+00  0.00000000000E+00 -0.42129745904E+03  0.42129745904E+03  0.25500000920E-02 0. -1.
    10030    2    1    2    0    0  0.00000000000E+00  0.00000000000E+00  0.17224882503E+04  0.25650831684E+04  0.19007066813E+04 0.  0.
        2    1    3    3  502    0  0.85654195047E+03  0.39210443891E+03  0.10306719298E+04  0.13963146604E+04  0.25500000920E-02 0.  1.
       -2    1    3    3    0  502 -0.85654195047E+03 -0.39210443891E+03  0.69181632047E+03  0.11687685080E+04  0.25500000920E-02 0. -1.
</event>
<event>
 5   0  0.6098377E-05  0.1903568E+04  0.7818609E-02  0.8653083E-01
       -2   -1    0    0    0  501  0.00000000000E+00  0.00000000000E+00  0.95858300793E+03  0.95858300793E+03  0.25500000920E-02 0.  1.
        2   -1    0    0  501    0  0.00000000000E+00  0.00000000000E+00 -0.94503281134E+03  0.94503281134E+03  0.25500000920E-02 0. -1.
    10030    2    1    2    0    0  0.00000000000E+00  0.00000000000E+00  0.13550196587E+02  0.19036158193E+04  0.19035675926E+04 0.  0.
        5    1    3    3  502    0 -0.59480357000E+03 -0.60061761950E+03 -0.43065739742E+03  0.94869420557E+03  0.46999998093E+01 0. -1.
       -5    1    3    3    0  502  0.59480357000E+03  0.60061761950E+03  0.44420759400E+03  0.95492161370E+03  0.46999998093E+01 0.  1.
</event>
<event>
 5   0  0.3086139E-05  0.1958849E+04  0.7818609E-02  0.8626106E-01
        1   -1    0    0  501    0  0.00000000000E+00  0.00000000000E+00  0.13111889280E+04  0.13111889280E+04  0.50400001928E-02 0. -1.
       -1   -1    0    0    0  501  0.00000000000E+00  0.00000000000E+00 -0.73160476909E+03  0.73160476911E+03  0.50400001928E-02 0.  1.
    10030    2    1    2    0    0  0.00000000000E+00  0.00000000000E+00  0.57958415888E+03  0.20427936971E+04  0.19588487159E+04 0.  0.
        2    1    3    3  502    0 -0.67939747852E+03 -0.59573818874E+03 -0.10427320316E+03  0.90959211971E+03  0.25500000920E-02 0.  1.
       -2    1    3    3    0  502  0.67939747852E+03  0.59573818874E+03  0.68385736205E+03  0.11332015774E+04  0.25500000920E-02 0. -1.
</event>
<event>
 5   0  0.6395992E-05  0.1903721E+04  0.7818609E-02  0.8653007E-01
       -2   -1    0    0    0  501  0.00000000000E+00  0.00000000000E+00  0.16787356553E+04  0.16787356553E+04  0.25500000920E-02 0.  1.
        2   -1    0    0  501    0  0.00000000000E+00  0.00000000000E+00 -0.53971451441E+03  0.53971451441E+03  0.25500000920E-02 0. -1.
    10030    2    1    2    0    0  0.00000000000E+00  0.00000000000E+00  0.11390211408E+04  0.22184501697E+04  0.19037205667E+04 0.  0.
        4    1    3    3  502    0 -0.75814640976E+03  0.39960642454E+03  0.10521924182E+04  0.13570489199E+04  0.12699999809E+01 0.  1.
       -4    1    3    3    0  502  0.75814640976E+03 -0.39960642454E+03  0.86828722666E+02  0.86140124979E+03  0.12699999809E+01 0. -1.
</event>
<event>
 5   0  0.6452182E-05  0.1900468E+04  0.7818609E-02  0.8654623E-01
       -2   -1    0    0    0  501  0.00000000000E+00  0.00000000000E+00  0.62167491183E+03  0.62167491184E+03  0.25500000920E-02 0.  1.
        2   -1    0    0  501    0  0.00000000000E+00  0.00000000000E+00 -0.14524393054E+04  0.14524393054E+04  0.25500000920E-02 0. -1.
    10030    2    1    2    0    0  0.00000000000E+00  0.00000000000E+00 -0.83076439356E+03  0.20741142172E+04  0.19004684445E+04 0.  0.
        3    1    3    3  502    0 -0.54957412531E+03 -0.77264838726E+03 -0.34698352803E+03  0.10096607492E+04  0.10100000352E+00 0. -1.
       -3    1    3    3    0  502  0.54957412531E+03  0.77264838726E+03 -0.48378086554E+03  0.10644534680E+04  0.10100000352E+00 0.  1.
</event>
<event>
 5   0  0.3083469E-05  0.1913340E+04  0.7818609E-02  0.8648244E-01
        1   -1    0    0  501    0  0.00000000000E+00  0.00000000000E+00  0.10818543256E+04  0.10818543256E+04  0.50400001928E-02 0.  1.
       -1   -1    0    0    0  501  0.00000000000E+00  0.00000000000E+00 -0.84597142293E+03  0.84597142295E+03  0.50400001928E-02 0. -1.
    10030    2    1    2    0    0  0.00000000000E+00  0.00000000000E+00  0.23588290266E+03  0.19278257485E+04  0.19133403704E+04 0.  0.
        3    1    3    3  502    0 -0.82244234384E+03  0.37145717222E+02 -0.37301191967E+03  0.90384131111E+03  0.10100000352E+00 0. -1.
       -3    1    3    3    0  502  0.82244234384E+03 -0.37145717222E+02  0.60889482233E+03  0.10239844374E+04  0.10100000352E+00 0.  1.
</event>
<event>
 5   0  0.6452182E-05  0.1899803E+04  0.7818609E-02  0.8654955E-01
        2   -1    0    0  501    0  0.00000000000E+00  0.00000000000E+00  0.92671412905E+03  0.92671412906E+03  0.25500000920E-02 0.  1.
       -2   -1    0    0    0  501  0.00000000000E+00  0.00000000000E+00 -0.97366853582E+03  0.97366853582E+03  0.25500000920E-02 0. -1.
    10030    2    1    2    0    0  0.00000000000E+00  0.00000000000E+00 -0.46954406765E+02  0.19003826649E+04  0.18998025046E+04 0.  0.
        3    1    3    3  502    0 -0.75846092909E+01  0.21182204118E+03 -0.94971152116E+03  0.97307660903E+03  0.10100000352E+00 0. -1.
       -3    1    3    3    0  502  0.75846092909E+01 -0.21182204118E+03  0.90275711439E+03  0.92730605585E+03  0.10100000352E+00 0.  1.
</event>
<event>
 5   0  0.3086139E-05  0.1900283E+04  0.7818609E-02  0.8654715E-01
        1   -1    0    0  501    0  0.00000000000E+00  0.00000000000E+00  0.83420938726E+03  0.83420938728E+03  0.50400001928E-02 0.  1.
       -1   -1    0    0    0  501  0.00000000000E+00  0.00000000000E+00 -0.10821855286E+04  0.10821855286E+04  0.50400001928E-02 0. -1.
    10030    2    1    2    0    0  0.00000000000E+00  0.00000000000E+00 -0.24797614135E+03  0.19163949159E+04  0.19002834807E+04 0.  0.
        2    1    3    3  502    0 -0.65909548742E+03 -0.67963891844E+03 -0.20500226231E+03  0.96868046773E+03  0.25500000920E-02 0. -1.
       -2    1    3    3    0  502  0.65909548742E+03  0.67963891844E+03 -0.42973879041E+02  0.94771444818E+03  0.25500000920E-02 0.  1.
</event>
<event>
 5   0  0.3203527E-05  0.1902615E+04  0.7818609E-02  0.8653556E-01
       -1   -1    0    0    0  501  0.00000000000E+00  0.00000000000E+00  0.83814982047E+03  0.83814982049E+03  0.50400001928E-02 0.  1.
        1   -1    0    0  501    0  0.00000000000E+00  0.00000000000E+00 -0.10797421713E+04  0.10797421713E+04  0.50400001928E-02 0. -1.
    10030    2    1    2    0    0  0.00000000000E+00  0.00000000000E+00 -0.24159235086E+03  0.19178919918E+04  0.19026147346E+04 0.  0.
        1    1    3    3  502    0 -0.36939248413E+03  0.85652413455E+03 -0.30911517281E+03  0.98266809783E+03  0.50400001928E-02 0. -1.
       -1    1    3    3    0  502  0.36939248413E+03 -0.85652413455E+03  0.67522821949E+02  0.93522389400E+03  0.50400001928E-02 0.  1.
</event>
<event>
 5   0  0.6395992E-05  0.1935955E+04  0.7818609E-02  0.8637163E-01
        2   -1    0    0  501    0  0.00000000000E+00  0.00000000000E+00  0.59884404071E+03  0.59884404071E+03  0.25500000920E-02 0.  1.
       -2   -1    0    0    0  501  0.00000000000E+00  0.00000000000E+00 -0.15646489682E+04  0.15646489682E+04  0.25500000920E-02 0. -1.
    10030    2    1    2    0    0  0.00000000000E+00  0.00000000000E+00 -0.96580492749E+03  0.21634930089E+04  0.19359552788E+04 0.  0.
        4    1    3    3  502    0 -0.12572834400E+03 -0.21923016580E+03  0.56132367695E+03  0.61559350653E+03  0.12699999809E+01 0.  1.
       -4    1    3    3    0  502  0.12572834400E+03  0.21923016580E+03 -0.15271286044E+04  0.15478995024E+04  0.12699999809E+01 0. -1.
</event>
<event>
 5   0  0.6395992E-05  0.1902287E+04  0.7818609E-02  0.8653719E-01
       -2   -1    0    0    0  501  0.00000000000E+00  0.00000000000E+00  0.12148363042E+04  0.12148363042E+04  0.25500000920E-02 0. -1.
        2   -1    0    0  501    0  0.00000000000E+00  0.00000000000E+00 -0.74468816521E+03  0.74468816522E+03  0.25500000920E-02 0.  1.
    10030    2    1    2    0    0  0.00000000000E+00  0.00000000000E+00  0.47014813900E+03  0.19595244694E+04  0.19022872742E+04 0.  0.
        4    1    3    3  502    0 -0.80745343336E+03  0.17346484928E+03 -0.25092857918E+03  0.86315575983E+03  0.12699999809E+01 0. -1.
       -4    1    3    3    0  502  0.80745343336E+03 -0.17346484928E+03  0.72107671818E+03  0.10963687096E+04  0.12699999809E+01 0.  1.
</event>
<event>
 5   0  0.6395992E-05  0.1898637E+04  0.7818609E-02  0.8655535E-01
        2   -1    0    0  501    0  0.00000000000E+00  0.00000000000E+00  0.13466978374E+04  0.13466978374E+04  0.25500000920E-02 0.  1.
       -2   -1    0    0    0  501  0.00000000000E+00  0.00000000000E+00 -0.66919666754E+03  0.66919666755E+03  0.25500000920E-02 0. -1.
    10030    2    1    2    0    0  0.00000000000E+00  0.00000000000E+00  0.67750116987E+03  0.20158945050E+04  0.18986370954E+04 0.  0.
        4    1    3    3  502    0 -0.74467826556E+03 -0.19583070050E+03  0.92829799527E+03  0.12060821545E+04  0.12699999809E+01 0.  1.
       -4    1    3    3    0  502  0.74467826556E+03  0.19583070050E+03 -0.25079682540E+03  0.80981235048E+03  0.12699999809E+01 0. -1.
</event>
<event>
 5   0  0.3203527E-05  0.1910652E+04  0.7818609E-02  0.8649572E-01
       -1   -1    0    0    0  501  0.00000000000E+00  0.00000000000E+00  0.14502931222E+04  0.14502931222E+04  0.50400001928E-02 0. -1.
        1   -1    0    0  501    0  0.00000000000E+00  0.00000000000E+00 -0.62928501234E+03  0.62928501236E+03  0.50400001928E-02 0.  1.
    10030    2    1    2    0    0  0.00000000000E+00  0.00000000000E+00  0.82100810984E+03  0.20795781345E+04  0.19106519571E+04 0.  0.
        1    1    3    3  502    0  0.37026162485E+03  0.54723991832E+03 -0.34048702712E+03  0.74330116017E+03  0.50400001928E-02 0.  1.
       -1    1    3    3    0  502 -0.37026162485E+03 -0.54723991832E+03  0.11614951370E+04  0.13362769744E+04  0.50400001928E-02 0. -1.
</event>
<event>
 5   0  0.6452182E-05  0.1910032E+04  0.7818609E-02  0.8649879E-01
       -2   -1    0    0    0  501  0.00000000000E+00  0.00000000000E+00  0.99900658961E+03  0.99900658961E+03  0.25500000920E-02 0. -1.
        2   -1    0    0  501    0  0.00000000000E+00  0.00000000000E+00 -0.91296279009E+03  0.91296279010E+03  0.25500000920E-02 0.  1.
    10030    2    1    2    0    0  0.00000000000E+00  0.00000000000E+00  0.86043799515E+02  0.19119693797E+04  0.19100322965E+04 0.  0.
        3    1    3    3  502    0  0.68176843174E+03  0.10975949793E+03 -0.61734441296E+03  0.92626641757E+03  0.10100000352E+00 0.  1.
       -3    1    3    3    0  502 -0.68176843174E+03 -0.10975949793E+03  0.70338821248E+03  0.98570296213E+03  0.10100000352E+00 0. -1.
</event>
<event>
 5   0  0.6361762E-05  0.1897758E+04  0.7818609E-02  0.8655973E-01
       -2   -1    0    0    0  501  0.00000000000E+00  0.00000000000E+00  0.48697887460E+03  0.48697887461E+03  0.25500000920E-02 0. -1.
        2   -1    0    0  501    0  0.00000000000E+00  0.00000000000E+00 -0.18488925030E+04  0.18488925030E+04  0.25500000920E-02 0.  1.
    10030    2    1    2    0    0  0.00000000000E+00  0.00000000000E+00 -0.13619136284E+04  0.23358713776E+04  0.18977582463E+04 0.  0.
        1    1    3    3  502    0 -0.39606161622E+03  0.31691082162E+03  0.30609197628E+03  0.59244372785E+03  0.50400001928E-02 0. -1.
       -1    1    3    3    0  502  0.39606161622E+03 -0.31691082162E+03 -0.16680056047E+04  0.17434276498E+04  0.50400001928E-02 0.  1.
</event>
<event>
 5   0  0.3086139E-05  0.1892283E+04  0.7818609E-02  0.8658707E-01
        1   -1    0    0  501    0  0.00000000000E+00  0.00000000000E+00  0.61282477983E+03  0.61282477985E+03  0.50400001928E-02 0.  1.
       -1   -1    0    0    0  501  0.00000000000E+00  0.00000000000E+00 -0.14607495664E+04  0.14607495665E+04  0.50400001928E-02 0. -1.
    10030    2    1    2    0    0  0.00000000000E+00  0.00000000000E+00 -0.84792478662E+03  0.20735743463E+04  0.18922827817E+04 0.  0.
        2    1    3    3  502    0  0.62258299611E+03  0.21532654506E+03  0.32022479468E+03  0.73247459150E+03  0.25500000920E-02 0.  1.
       -2    1    3    3    0  502 -0.62258299611E+03 -0.21532654506E+03 -0.11681495813E+04  0.13410997548E+04  0.25500000920E-02 0. -1.
</event>
<event>
 5   0  0.3203527E-05  0.1897498E+04  0.7818609E-02  0.8656103E-01
        1   -1    0    0  501    0  0.00000000000E+00  0.00000000000E+00  0.13279422746E+04  0.13279422747E+04  0.50400001928E-02 0. -1.
       -1   -1    0    0    0  501  0.00000000000E+00  0.00000000000E+00 -0.67783400637E+03  0.67783400638E+03  0.50400001928E-02 0.  1.
    10030    2    1    2    0    0  0.00000000000E+00  0.00000000000E+00  0.65010826827E+03  0.20057762810E+04  0.18974977547E+04 0.  0.
        1    1    3    3  502    0 -0.45716097962E+03 -0.80571012888E+02 -0.54958976547E+03  0.71940027783E+03  0.50400001928E-02 0.  1.
       -1    1    3    3    0  502  0.45716097962E+03  0.80571012888E+02  0.11996980337E+04  0.12863760032E+04  0.50400001928E-02 0. -1.
</event>
<event>
 5   0  0.3086139E-05  0.1904704E+04  0.7818609E-02  0.8652518E-01
        1   -1    0    0  501    0  0.00000000000E+00  0.00000000000E+00  0.12119498672E+04  0.12119498672E+04  0.50400001928E-02 0. -1.
       -1   -1    0    0    0  501  0.00000000000E+00  0.00000000000E+00 -0.74835987157E+03  0.74835987159E+03  0.50400001928E-02 0.  1.
    10030    2    1    2    0    0  0.00000000000E+00  0.00000000000E+00  0.46358999561E+03  0.19603097388E+04  0.19047043308E+04 0.  0.
        2    1    3    3  502    0  0.62722060446E+03  0.68225422236E+03  0.60795655585E+01  0.92677584761E+03  0.25500000920E-02 0.  1.
       -2    1    3    3    0  502 -0.62722060446E+03 -0.68225422236E+03  0.45751043005E+03  0.10335338912E+04  0.25500000920E-02 0. -1.
</event>
<event>
 5   0  0.6452182E-05  0.1896112E+04  0.7818609E-02  0.8656794E-01
       -2   -1    0    0    0  501  0.00000000000E+00  0.00000000000E+00  0.16931721431E+04  0.16931721431E+04  0.25500000920E-02 0. -1.
        2   -1    0    0  501    0  0.00000000000E+00  0.00000000000E+00 -0.53084414156E+03  0.53084414156E+03  0.25500000920E-02 0.  1.
    10030    2    1    2    0    0  0.00000000000E+00  0.00000000000E+00  0.11623280015E+04  0.22240162846E+04  0.18961123520E+04 0.  0.
        3    1    3    3  502    0 -0.58071694149E+03 -0.74898507318E+03  0.55244034583E+03  0.10969964229E+04  0.10100000352E+00 0.  1.
       -3    1    3    3    0  502  0.58071694149E+03  0.74898507318E+03  0.60988765569E+03  0.11270198617E+04  0.10100000352E+00 0. -1.
</event>
<event>
 5   0  0.3086139E-05  0.1901378E+04  0.7818609E-02  0.8654171E-01
       -1   -1    0    0    0  501  0.00000000000E+00  0.00000000000E+00  0.74475217666E+03  0.74475217668E+03  0.50400001928E-02 0.  1.
        1   -1    0    0  501    0  0.00000000000E+00  0.00000000000E+00 -0.12135706573E+04  0.12135706574E+04  0.50400001928E-02 0. -1.
    10030    2    1    2    0    0  0.00000000000E+00  0.00000000000E+00 -0.46881848068E+03  0.19583228340E+04  0.19013778042E+04 0.  0.
        2    1    3    3  502    0 -0.50599168679E+03  0.66347554685E+03  0.23484771037E+03  0.86682226289E+03  0.25500000920E-02 0.  1.
       -2    1    3    3    0  502  0.50599168679E+03 -0.66347554685E+03 -0.70366619105E+03  0.10915005711E+04  0.25500000920E-02 0. -1.
</event>
<event>
 5   0  0.6395992E-05  0.1971797E+04  0.7818609E-02  0.8619921E-01
        2   -1    0    0  501    0  0.00000000000E+00  0.00000000000E+00  0.10541878009E+04  0.10541878009E+04  0.25500000920E-02 0.  1.
       -2   -1    0    0    0  501  0.00000000000E+00  0.00000000000E+00 -0.92203308361E+03  0.92203308361E+03  0.25500000920E-02 0. -1.
    10030    2    1    2    0    0  0.00000000000E+00  0.00000000000E+00  0.13215471730E+03  0.19762208845E+04  0.19717971790E+04 0.  0.
        4    1    3    3  502    0  0.87388407731E+03 -0.37314443136E+03 -0.19735118190E+03  0.97049433235E+03  0.12699999809E+01 0. -1.
       -4    1    3    3    0  502 -0.87388407731E+03  0.37314443136E+03  0.32950589920E+03  0.10057265522E+04  0.12699999809E+01 0.  1.
</event>
<event>
 5   0  0.3083469E-05  0.1898007E+04  0.7818609E-02  0.8655849E-01
        1   -1    0    0  501    0  0.00000000000E+00  0.00000000000E+00  0.13852498696E+04  0.13852498696E+04  0.50400001928E-02 0.  1.
       -1   -1    0    0    0  501  0.00000000000E+00  0.00000000000E+00 -0.65014098054E+03  0.65014098056E+03  0.50400001928E-02 0. -1.
    10030    2    1    2    0    0  0.00000000000E+00  0.00000000000E+00  0.73510888903E+03  0.20353908501E+04  0.18980070690E+04 0.  0.
        3    1    3    3  502    0 -0.37577862139E+02  0.19234661409E+03  0.13633119629E+04  0.13773266984E+04  0.10100000352E+00 0.  1.
       -3    1    3    3    0  502  0.37577862139E+02 -0.19234661409E+03 -0.62820307385E+03  0.65806415179E+03  0.10100000352E+00 0. -1.
</event>
<event>
 5   0  0.3203527E-05  0.1802436E+04  0.7818609E-02  0.8705005E-01
        1   -1    0    0  501    0  0.00000000000E+00  0.00000000000E+00  0.10253342225E+04  0.10253342225E+04  0.50400001928E-02 0. -1.
       -1   -1    0    0    0  501  0.00000000000E+00  0.00000000000E+00 -0.79212627606E+03  0.79212627608E+03  0.50400001928E-02 0.  1.
    10030    2    1    2    0    0  0.00000000000E+00  0.00000000000E+00  0.23320794647E+03  0.18174604986E+04  0.18024363284E+04 0.  0.
        1    1    3    3  502    0  0.32957869392E+03 -0.18324786585E+03 -0.70874943476E+03  0.80282479853E+03  0.50400001928E-02 0.  1.
       -1    1    3    3    0  502 -0.32957869392E+03  0.18324786585E+03  0.94195738124E+03  0.10146357001E+04  0.50400001928E-02 0. -1.
</event>
<event>
 5   0  0.6395992E-05  0.1901714E+04  0.7818609E-02  0.8654004E-01
       -2   -1    0    0    0  501  0.00000000000E+00  0.00000000000E+00  0.40381340049E+03  0.40381340050E+03  0.25500000920E-02 0. -1.
        2   -1    0    0  501    0  0.00000000000E+00  0.00000000000E+00 -0.22389773419E+04  0.22389773419E+04  0.25500000920E-02 0.  1.
    10030    2    1    2    0    0  0.00000000000E+00  0.00000000000E+00 -0.18351639414E+04  0.26427907424E+04  0.19017140206E+04 0.  0.
        4    1    3    3  502    0  0.52415708981E+03  0.44524357260E+03 -0.18300742929E+04  0.19550335097E+04  0.12699999809E+01 0.  1.
       -4    1    3    3    0  502 -0.52415708981E+03 -0.44524357260E+03 -0.50896485664E+01  0.68775723273E+03  0.12699999809E+01 0. -1.
</event>
<event>
 5   0  0.6098377E-05  0.1894043E+04  0.7818609E-02  0.8657827E-01
       -2   -1    0    0    0  501  0.00000000000E+00  0.00000000000E+00  0.46842860681E+03  0.46842860682E+03  0.25500000920E-02 0. -1.
        2   -1    0    0  501    0  0.00000000000E+00  0.00000000000E+00 -0.19145914298E+04  0.19145914298E+04  0.25500000920E-02 0.  1.
    10030    2    1    2    0    0  0.00000000000E+00  0.00000000000E+00 -0.14461628229E+04  0.23830200366E+04  0.18940426564E+04 0.  0.
        5    1    3    3  502    0  0.16331505320E+03  0.68904310209E+03  0.68039013628E+02  0.71140958703E+03  0.46999998093E+01 0. -1.
       -5    1    3    3    0  502 -0.16331505320E+03 -0.68904310209E+03 -0.15142018366E+04  0.16716104495E+04  0.46999998093E+01 0.  1.
</event>
<event>
 5   0  0.3086139E-05  0.1897944E+04  0.7818609E-02  0.8655880E-01
        1   -1    0    0  501    0  0.00000000000E+00  0.00000000000E+00  0.16225278753E+04  0.16225278753E+04  0.50400001928E-02 0.  1.
       -1   -1    0    0    0  501  0.00000000000E+00  0.00000000000E+00 -0.55502769985E+03  0.55502769987E+03  0.50400001928E-02 0. -1.
    10030    2    1    2    0    0  0.00000000000E+00  0.00000000000E+00  0.10675001754E+04  0.21775555752E+04  0.18979440609E+04 0.  0.
        2    1    3    3  502    0  0.60377738574E+03  0.18034017929E+03  0.13478471290E+04  0.14878714981E+04  0.25500000920E-02 0.  1.
       -2    1    3    3    0  502 -0.60377738574E+03 -0.18034017929E+03 -0.28034695352E+03  0.68968407707E+03  0.25500000920E-02 0. -1.
</event>
<event>
 5   0  0.3086139E-05  0.1910136E+04  0.7818609E-02  0.8649827E-01
        1   -1    0    0  501    0  0.00000000000E+00  0.00000000000E+00  0.12077576527E+04  0.12077576527E+04  0.50400001928E-02 0.  1.
       -1   -1    0    0    0  501  0.00000000000E+00  0.00000000000E+00 -0.75524684329E+03  0.75524684331E+03  0.50400001928E-02 0. -1.
    10030    2    1    2    0    0  0.00000000000E+00  0.00000000000E+00  0.45251080944E+03  0.19630044960E+04  0.19101362828E+04 0.  0.
        2    1    3    3  502    0 -0.25793412624E+03  0.65357726327E+01  0.11712621624E+04  0.11993447307E+04  0.25500000920E-02 0.  1.
       -2    1    3    3    0  502  0.25793412624E+03 -0.65357726327E+01 -0.71875135301E+03  0.76365976538E+03  0.25500000920E-02 0. -1.
</event>
<event>
 5   0  0.3203527E-05  0.1903414E+04  0.7818609E-02  0.8653159E-01
        1   -1    0    0  501    0  0.00000000000E+00  0.00000000000E+00  0.19681821846E+04  0.19681821846E+04  0.50400001928E-02 0. -1.
       -1   -1    0    0    0  501  0.00000000000E+00  0.00000000000E+00 -0.46019423478E+03  0.46019423481E+03  0.50400001928E-02 0.  1.
    10030    2    1    2    0    0  0.00000000000E+00  0.00000000000E+00  0.15079879498E+04  0.24283764194E+04  0.19034138745E+04 0.  0.
        1    1    3    3  502    0 -0.63842672671E+03 -0.41178662791E+03  0.22670680399E+02  0.76004662493E+03  0.50400001928E-02 0.  1.
       -1    1    3    3    0  502  0.63842672671E+03  0.41178662791E+03  0.14853172694E+04  0.16683297945E+04  0.50400001928E-02 0. -1.
</event>
<event>
 5   0  0.3147063E-05  0.1905608E+04  0.7818609E-02  0.8652070E-01
       -1   -1    0    0    0  501  0.00000000000E+00  0.00000000000E+00  0.64759571652E+03  0.64759571654E+03  0.50400001928E-02 0. -1.
        1   -1    0    0  501    0  0.00000000000E+00  0.00000000000E+00 -0.14018551651E+04  0.14018551651E+04  0.50400001928E-02 0.  1.
    10030    2    1    2    0    0  0.00000000000E+00  0.00000000000E+00 -0.75425944855E+03  0.20494508816E+04  0.19056079346E+04 0.  0.
        5    1    3    3  502    0 -0.16700494331E+03 -0.76740741760E+02  0.62833770182E+03  0.65468324407E+03  0.46999998093E+01 0. -1.
       -5    1    3    3    0  502  0.16700494331E+03  0.76740741760E+02 -0.13825971504E+04  0.13947676375E+04  0.46999998093E+01 0.  1.
</event>
<event>
 5   0  0.3083469E-05  0.1899848E+04  0.7818609E-02  0.8654932E-01
        1   -1    0    0  501    0  0.00000000000E+00  0.00000000000E+00  0.10232315467E+04  0.10232315467E+04  0.50400001928E-02 0.  1.
       -1   -1    0    0    0  501  0.00000000000E+00  0.00000000000E+00 -0.88186859290E+03  0.88186859292E+03  0.50400001928E-02 0. -1.
    10030    2    1    2    0    0  0.00000000000E+00  0.00000000000E+00  0.14136295375E+03  0.19051001396E+04  0.18998481669E+04 0.  0.
        3    1    3    3  502    0 -0.82945353692E+03 -0.42978212392E+02 -0.39158689129E+03  0.91824865928E+03  0.10100000352E+00 0. -1.
       -3    1    3    3    0  502  0.82945353692E+03  0.42978212392E+02  0.53294984504E+03  0.98685148030E+03  0.10100000352E+00 0.  1.
</event>
<event>
 5   0  0.6361762E-05  0.1889012E+04  0.7818609E-02  0.8660345E-01
        2   -1    0    0  501    0  0.00000000000E+00  0.00000000000E+00  0.20164936655E+04  0.20164936655E+04  0.25500000920E-02 0.  1.
       -2   -1    0    0    0  501  0.00000000000E+00  0.00000000000E+00 -0.44239719718E+03  0.44239719719E+03  0.25500000920E-02 0. -1.
    10030    2    1    2    0    0  0.00000000000E+00  0.00000000000E+00  0.15740964683E+04  0.24588908627E+04  0.18890115360E+04 0.  0.
        1    1    3    3  502    0  0.50320101549E+03  0.79626290627E+03  0.87765560674E+03  0.12874491221E+04  0.50400001928E-02 0.  1.
       -1    1    3    3    0  502 -0.50320101549E+03 -0.79626290627E+03  0.69644086157E+03  0.11714417406E+04  0.50400001928E-02 0. -1.
</event>
<event>
 5   0  0.3147063E-05  0.1905356E+04  0.7818609E-02  0.8652195E-01
       -1   -1    0    0    0  501  0.00000000000E+00  0.00000000000E+00  0.61276914565E+03  0.61276914567E+03  0.50400001928E-02 0.  1.
        1   -1    0    0  501    0  0.00000000000E+00  0.00000000000E+00 -0.14811377007E+04  0.14811377007E+04  0.50400001928E-02 0. -1.
    10030    2    1    2    0    0  0.00000000000E+00  0.00000000000E+00 -0.86836855501E+03  0.20939068463E+04  0.19053561173E+04 0.  0.
        5    1    3    3  502    0 -0.80763379783E+03  0.39414837297E+03 -0.86753351217E+02  0.90286960590E+03  0.46999998093E+01 0.  1.
       -5    1    3    3    0  502  0.80763379783E+03 -0.39414837297E+03 -0.78161520379E+03  0.11910372404E+04  0.46999998093E+01 0. -1.
</event>
<event>
 5   0  0.3203527E-05  0.1906427E+04  0.7818609E-02  0.8651664E-01
       -1   -1    0    0    0  501  0.00000000000E+00  0.00000000000E+00  0.57768964384E+03  0.57768964386E+03  0.50400001928E-02 0. -1.
        1   -1    0    0  501    0  0.00000000000E+00  0.00000000000E+00 -0.15728444274E+04  0.15728444274E+04  0.50400001928E-02 0.  1.
    10030    2    1    2    0    0  0.00000000000E+00  0.00000000000E+00 -0.99515478352E+03  0.21505340712E+04  0.19064269586E+04 0.  0.
        1    1    3    3  502    0 -0.71961222956E+03  0.58438288593E+03 -0.24718504738E+03  0.95939854387E+03  0.50400001928E-02 0. -1.
       -1    1    3    3    0  502  0.71961222956E+03 -0.58438288593E+03 -0.74796973614E+03  0.11911355273E+04  0.50400001928E-02 0.  1.
</event>
<event>
 5   0  0.3083469E-05  0.1902642E+04  0.7818609E-02  0.8653542E-01
       -1   -1    0    0    0  501  0.00000000000E+00  0.00000000000E+00  0.88188734033E+03  0.88188734035E+03  0.50400001928E-02 0. -1.
        1   -1    0    0  501    0  0.00000000000E+00  0.00000000000E+00 -0.10262218461E+04  0.10262218461E+04  0.50400001928E-02 0.  1.
    10030    2    1    2    0    0  0.00000000000E+00  0.00000000000E+00 -0.14433450572E+03  0.19081091864E+04  0.19026424303E+04 0.  0.
        3    1    3    3  502    0 -0.20794906262E+03  0.79965569652E+02 -0.99968932894E+03  0.10242148552E+04  0.10100000352E+00 0.  1.
       -3    1    3    3    0  502  0.20794906262E+03 -0.79965569652E+02  0.85535482322E+03  0.88389433123E+03  0.10100000352E+00 0. -1.
</event>
<event>
 5   0  0.3144958E-05  0.1897327E+04  0.7818609E-02  0.8656188E-01
        1   -1    0    0  501    0  0.00000000000E+00  0.00000000000E+00  0.94828627463E+03  0.94828627464E+03  0.50400001928E-02 0. -1.
       -1   -1    0    0    0  501  0.00000000000E+00  0.00000000000E+00 -0.94904084816E+03  0.94904084817E+03  0.50400001928E-02 0.  1.
    10030    2    1    2    0    0  0.00000000000E+00  0.00000000000E+00 -0.75457353000E+00  0.18973271228E+04  0.18973269728E+04 0.  0.
        4    1    3    3  502    0 -0.42867664636E+02 -0.90695714359E+03  0.27448979466E+03  0.94855424582E+03  0.12699999809E+01 0. -1.
       -4    1    3    3    0  502  0.42867664636E+02  0.90695714359E+03 -0.27524436819E+03  0.94877287699E+03  0.12699999809E+01 0.  1.
</event>
<event>
 5   0  0.3083469E-05  0.1914582E+04  0.7818609E-02  0.8647632E-01
        1   -1    0    0  501    0  0.00000000000E+00  0.00000000000E+00  0.16507265522E+04  0.16507265522E+04  0.50400001928E-02 0.  1.
       -1   -1    0    0    0  501  0.00000000000E+00  0.00000000000E+00 -0.55515292997E+03  0.55515292999E+03  0.50400001928E-02 0. -1.
    10030    2    1    2    0    0  0.00000000000E+00  0.00000000000E+00  0.10955736222E+04  0.22058794822E+04  0.19145816066E+04 0.  0.
        3    1    3    3  502    0 -0.60763389883E+03  0.41669825075E+03  0.12519638394E+04  0.14526767887E+04  0.10100000352E+00 0.  1.
       -3    1    3    3    0  502  0.60763389883E+03 -0.41669825075E+03 -0.15639021717E+03  0.75320269345E+03  0.10100000352E+00 0. -1.
</event>
<event>
 5   0  0.6361762E-05  0.1923371E+04  0.7818609E-02  0.8643310E-01
       -2   -1    0    0    0  501  0.00000000000E+00  0.00000000000E+00  0.71835067515E+03  0.71835067516E+03  0.25500000920E-02 0.  1.
        2   -1    0    0  501    0  0.00000000000E+00  0.00000000000E+00 -0.12874477715E+04  0.12874477715E+04  0.25500000920E-02 0. -1.
    10030    2    1    2    0    0  0.00000000000E+00  0.00000000000E+00 -0.56909709639E+03  0.20057984467E+04  0.19233709740E+04 0.  0.
        1    1    3    3  502    0 -0.27853434664E+03 -0.41478566107E+03  0.57237841902E+03  0.75976679414E+03  0.50400001928E-02 0.  1.
       -1    1    3    3    0  502  0.27853434664E+03  0.41478566107E+03 -0.11414755154E+04  0.12460316526E+04  0.50400001928E-02 0. -1.
</event>
<event>
 5   0  0.6098377E-05  0.1900977E+04  0.7818609E-02  0.8654370E-01
       -2   -1    0    0    0  501  0.00000000000E+00  0.00000000000E+00  0.63508371776E+03  0.63508371776E+03  0.25500000920E-02 0.  1.
        2   -1    0    0  501    0  0.00000000000E+00  0.00000000000E+00 -0.14225341243E+04  0.14225341243E+04  0.25500000920E-02 0. -1.
    10030    2    1    2    0    0  0.00000000000E+00  0.00000000000E+00 -0.78745040653E+03  0.20576178421E+04  0.19009768650E+04 0.  0.
        5    1    3    3  502    0 -0.72852045668E+03  0.83648713400E+02 -0.10482570379E+04  0.12792982727E+04  0.46999998093E+01 0. -1.
       -5    1    3    3    0  502  0.72852045668E+03 -0.83648713400E+02  0.26080663137E+03  0.77831956934E+03  0.46999998093E+01 0.  1.
</event>
<event>
 5   0  0.3083469E-05  0.1887689E+04  0.7818609E-02  0.8661009E-01
       -1   -1    0    0    0  501  0.00000000000E+00  0.00000000000E+00  0.11781352159E+04  0.11781352159E+04  0.50400001928E-02 0.  1.
        1   -1    0    0  501    0  0.00000000000E+00  0.00000000000E+00 -0.75614607483E+03  0.75614607485E+03  0.50400001928E-02 0. -1.
    10030    2    1    2    0    0  0.00000000000E+00  0.00000000000E+00  0.42198914106E+03  0.19342812907E+04  0.18876888718E+04 0.  0.
        3    1    3    3  502    0 -0.68450610429E+03  0.51870492846E+03 -0.19012488535E+03  0.87963111123E+03  0.10100000352E+00 0. -1.
       -3    1    3    3    0  502  0.68450610429E+03 -0.51870492846E+03  0.61211402641E+03  0.10546501795E+04  0.10100000352E+00 0.  1.
</event>
<event>
 5   0  0.2279625E-05  0.1899600E+04  0.7818609E-02  0.8655056E-01
       -4   -1    0    0    0  501  0.00000000000E+00  0.00000000000E+00  0.11014647011E+04  0.11014654333E+04  0.12699999809E+01 0.  1.
        4   -1    0    0  501    0  0.00000000000E+00  0.00000000000E+00 -0.81901684071E+03  0.81901782537E+03  0.12699999809E+01 0. -1.
    10030    2    1    2    0    0  0.00000000000E+00  0.00000000000E+00  0.28244786038E+03  0.19204832586E+04  0.18995997349E+04 0.  0.
        4    1    3    3  502    0 -0.43032363153E+03  0.33318632627E+03 -0.64574654909E+03  0.84450090257E+03  0.12699999809E+01 0. -1.
       -4    1    3    3    0  502  0.43032363153E+03 -0.33318632627E+03  0.92819440947E+03  0.10759823561E+04  0.12699999809E+01 0.  1.
</event>
<event>
 5   0  0.3144958E-05  0.1899496E+04  0.7818609E-02  0.8655107E-01
        1   -1    0    0  501    0  0.00000000000E+00  0.00000000000E+00  0.79820144816E+03  0.79820144818E+03  0.50400001928E-02 0. -1.
       -1   -1    0    0    0  501  0.00000000000E+00  0.00000000000E+00 -0.11300668758E+04  0.11300668758E+04  0.50400001928E-02 0.  1.
    10030    2    1    2    0    0  0.00000000000E+00  0.00000000000E+00 -0.33186542761E+03  0.19282683240E+04  0.18994957402E+04 0.  0.
        4    1    3    3  502    0 -0.89648322544E+03 -0.31043475387E+03 -0.12090438278E+03  0.95638454221E+03  0.12699999809E+01 0. -1.
       -4    1    3    3    0  502  0.89648322544E+03  0.31043475387E+03 -0.21096104483E+03  0.97188378176E+03  0.12699999809E+01 0.  1.
</event>
<event>
 5   0  0.3086139E-05  0.1898058E+04  0.7818609E-02  0.8655824E-01
       -1   -1    0    0    0  501  0.00000000000E+00  0.00000000000E+00  0.85422972268E+03  0.85422972269E+03  0.50400001928E-02 0. -1.
        1   -1    0    0  501    0  0.00000000000E+00  0.00000000000E+00 -0.10543486079E+04  0.10543486079E+04  0.50400001928E-02 0.  1.
    10030    2    1    2    0    0  0.00000000000E+00  0.00000000000E+00 -0.20011888525E+03  0.19085783306E+04  0.18980578695E+04 0.  0.
        2    1    3    3  502    0  0.63644498859E+03  0.68993999697E+03  0.40632109181E+02  0.93953732828E+03  0.25500000920E-02 0. -1.
       -2    1    3    3    0  502 -0.63644498859E+03 -0.68993999697E+03 -0.24075099444E+03  0.96904100236E+03  0.25500000920E-02 0.  1.
</event>
<event>
 5   0  0.3203527E-05  0.1905737E+04  0.7818609E-02  0.8652006E-01
        1   -1    0    0  501    0  0.00000000000E+00  0.00000000000E+00  0.17135116367E+04  0.17135116367E+04  0.50400001928E-02 0. -1.
       -1   -1    0    0    0  501  0.00000000000E+00  0.00000000000E+00 -0.52988182475E+03  0.52988182477E+03  0.50400001928E-02 0.  1.
    10030    2    1    2    0    0  0.00000000000E+00  0.00000000000E+00  0.11836298120E+04  0.22433934615E+04  0.19057373091E+04 0.  0.
        1    1    3    3  502    0  0.18136498908E+03 -0.28353703928E+03 -0.45757386549E+03  0.56803200114E+03  0.50400001928E-02 0.  1.
       -1    1    3    3    0  502 -0.18136498908E+03  0.28353703928E+03  0.16412036775E+04  0.16753614603E+04  0.50400001928E-02 0. -1.
</event>
<event>
 5   0  0.3147063E-05  0.1900802E+04  0.7818609E-02  0.8654457E-01
       -1   -1    0    0    0  501  0.00000000000E+00  0.00000000000E+00  0.79347164286E+03  0.79347164287E+03  0.50400001928E-02 0. -1.
        1   -1    0    0  501    0  0.00000000000E+00  0.00000000000E+00 -0.11383668435E+04  0.11383668435E+04  0.50400001928E-02 0.  1.
    10030    2    1    2    0    0  0.00000000000E+00  0.00000000000E+00 -0.34489520065E+03  0.19318384864E+04  0.19008017356E+04 0.  0.
        5    1    3    3  502    0 -0.13454326243E+03  0.26956328382E+03  0.74364333819E+03  0.80236759523E+03  0.46999998093E+01 0. -1.
       -5    1    3    3    0  502  0.13454326243E+03 -0.26956328382E+03 -0.10885385388E+04  0.11294708912E+04  0.46999998093E+01 0.  1.
</event>
<event>
 5   0  0.6098377E-05  0.1901409E+04  0.7818609E-02  0.8654155E-01
       -2   -1    0    0    0  501  0.00000000000E+00  0.00000000000E+00  0.35432513708E+03  0.35432513709E+03  0.25500000920E-02 0. -1.
        2   -1    0    0  501    0  0.00000000000E+00  0.00000000000E+00 -0.25508754297E+04  0.25508754297E+04  0.25500000920E-02 0.  1.
    10030    2    1    2    0    0  0.00000000000E+00  0.00000000000E+00 -0.21965502926E+04  0.29052005668E+04  0.19014092525E+04 0.  0.
        5    1    3    3  502    0  0.26349842261E+03  0.70510056708E+03 -0.19855466115E+04  0.21234442928E+04  0.46999998093E+01 0.  1.
       -5    1    3    3    0  502 -0.26349842261E+03 -0.70510056708E+03 -0.21100368113E+03  0.78175627395E+03  0.46999998093E+01 0. -1.
</event>
<event>
 5   0  0.6395992E-05  0.1890360E+04  0.7818609E-02  0.8659670E-01
        2   -1    0    0  501    0  0.00000000000E+00  0.00000000000E+00  0.14533480344E+04  0.14533480344E+04  0.25500000920E-02 0. -1.
       -2   -1    0    0    0  501  0.00000000000E+00  0.00000000000E+00 -0.61469463626E+03  0.61469463627E+03  0.25500000920E-02 0.  1.
    10030    2    1    2    0    0  0.00000000000E+00  0.00000000000E+00  0.83865339818E+03  0.20680426707E+04  0.18903600095E+04 0.  0.
        4    1    3    3  502    0 -0.20183960983E+03  0.33136676785E+03  0.13622077429E+04  0.14163879096E+04  0.12699999809E+01 0. -1.
       -4    1    3    3    0  502  0.20183960983E+03 -0.33136676785E+03 -0.52355434467E+03  0.65165476109E+03  0.12699999809E+01 0.  1.
</event>
<event>
 5   0  0.3147063E-05  0.1900219E+04  0.7818609E-02  0.8654747E-01
        1   -1    0    0  501    0  0.00000000000E+00  0.00000000000E+00  0.16140003441E+04  0.16140003441E+04  0.50400001928E-02 0.  1.
       -1   -1    0    0    0  501  0.00000000000E+00  0.00000000000E+00 -0.55929881771E+03  0.55929881773E+03  0.50400001928E-02 0. -1.
    10030    2    1    2    0    0  0.00000000000E+00  0.00000000000E+00  0.10547015264E+04  0.21732991619E+04  0.19002194445E+04 0.  0.
        5    1    3    3  502    0  0.18708144042E+03 -0.24439631198E+03 -0.50068915541E+03  0.58774207183E+03  0.46999998093E+01 0. -1.
       -5    1    3    3    0  502 -0.18708144042E+03  0.24439631198E+03  0.15553906818E+04  0.15855570900E+04  0.46999998093E+01 0.  1.
</event>
<event>
 5   0  0.2279625E-05  0.1892118E+04  0.7818609E-02  0.8658790E-01
        3   -1    0    0  501    0  0.00000000000E+00  0.00000000000E+00  0.12569426222E+04  0.12569426263E+04  0.10100000352E+00 0.  1.
       -3   -1    0    0    0  501  0.00000000000E+00  0.00000000000E+00 -0.71206688487E+03  0.71206689203E+03  0.10100000352E+00 0. -1.
    10030    2    1    2    0    0  0.00000000000E+00  0.00000000000E+00  0.54487573734E+03  0.19690095183E+04  0.18921175740E+04 0.  0.
        1    1    3    3  502    0 -0.28888455132E+03 -0.63559357199E+03 -0.39193739941E+03  0.80065498051E+03  0.50400001928E-02 0. -1.
       -1    1    3    3    0  502  0.28888455132E+03  0.63559357199E+03  0.93681313675E+03  0.11683545378E+04  0.50400001928E-02 0.  1.
</event>
<event>
 5   0  0.6452182E-05  0.1899514E+04  0.7818609E-02  0.8655098E-01
        2   -1    0    0  501    0  0.00000000000E+00  0.00000000000E+00  0.14535246756E+04  0.14535246756E+04  0.25500000920E-02 0.  1.
       -2   -1    0    0    0  501  0.00000000000E+00  0.00000000000E+00 -0.62058712074E+03  0.62058712075E+03  0.25500000920E-02 0. -1.
    10030    2    1    2    0    0  0.00000000000E+00  0.00000000000E+00  0.83293755486E+03  0.20741117964E+04  0.18995143520E+04 0.  0.
        3    1    3    3  502    0 -0.53730101126E+03  0.19666985709E+03  0.12442161579E+04  0.13694689727E+04  0.10100000352E+00 0.  1.
       -3    1    3    3    0  502  0.53730101126E+03 -0.19666985709E+03 -0.41127860306E+03  0.70464282365E+03  0.10100000352E+00 0. -1.
</event>
<event>
 5   0  0.6395992E-05  0.1912973E+04  0.7818609E-02  0.8648426E-01
       -2   -1    0    0    0  501  0.00000000000E+00  0.00000000000E+00  0.12425256901E+04  0.12425256901E+04  0.25500000920E-02 0. -1.
        2   -1    0    0  501    0  0.00000000000E+00  0.00000000000E+00 -0.73629557138E+03  0.73629557138E+03  0.25500000920E-02 0.  1.
    10030    2    1    2    0    0  0.00000000000E+00  0.00000000000E+00  0.50623011868E+03  0.19788212614E+04  0.19129727263E+04 0.  0.
        4    1    3    3  502    0  0.59586144553E+03 -0.56459775769E+03  0.76097634240E+03  0.11193337737E+04  0.12699999809E+01 0. -1.
       -4    1    3    3    0  502 -0.59586144553E+03  0.56459775769E+03 -0.25474622373E+03  0.85948748778E+03  0.12699999809E+01 0.  1.
</event>
<event>
 5   0  0.6395992E-05  0.1898666E+04  0.7818609E-02  0.8655521E-01
       -2   -1    0    0    0  501  0.00000000000E+00  0.00000000000E+00  0.79622434325E+03  0.79622434325E+03  0.25500000920E-02 0.  1.
        2   -1    0    0  501    0  0.00000000000E+00  0.00000000000E+00 -0.11318830668E+04  0.11318830668E+04  0.25500000920E-02 0. -1.
    10030    2    1    2    0    0  0.00000000000E+00  0.00000000000E+00 -0.33565872352E+03  0.19281074100E+04  0.18986656909E+04 0.  0.
        4    1    3    3  502    0 -0.14684802997E+03 -0.51920467344E+03  0.62536731321E+03  0.82596835664E+03  0.12699999809E+01 0.  1.
       -4    1    3    3    0  502  0.14684802997E+03  0.51920467344E+03 -0.96102603673E+03  0.11021390534E+04  0.12699999809E+01 0. -1.
</event>
<event>
 5   0  0.3203527E-05  0.1910637E+04  0.7818609E-02  0.8649580E-01
       -1   -1    0    0    0  501  0.00000000000E+00  0.00000000000E+00  0.91489753729E+03  0.91489753730E+03  0.50400001928E-02 0. -1.
        1   -1    0    0  501    0  0.00000000000E+00  0.00000000000E+00 -0.99752504266E+03  0.99752504267E+03  0.50400001928E-02 0.  1.
    10030    2    1    2    0    0  0.00000000000E+00  0.00000000000E+00 -0.82627505374E+02  0.19124225800E+04  0.19106367577E+04 0.  0.
        1    1    3    3  502    0  0.12913245117E+03 -0.84868968155E+03 -0.46085207879E+03  0.97433772588E+03  0.50400001928E-02 0.  1.
       -1    1    3    3    0  502 -0.12913245117E+03  0.84868968155E+03  0.37822457341E+03  0.93808485410E+03  0.50400001928E-02 0. -1.
</event>
<event>
 5   0  0.3083469E-05  0.1895714E+04  0.7818609E-02  0.8656993E-01
        1   -1    0    0  501    0  0.00000000000E+00  0.00000000000E+00  0.81218417807E+03  0.81218417809E+03  0.50400001928E-02 0. -1.
       -1   -1    0    0    0  501  0.00000000000E+00  0.00000000000E+00 -0.11061937858E+04  0.11061937858E+04  0.50400001928E-02 0.  1.
    10030    2    1    2    0    0  0.00000000000E+00  0.00000000000E+00 -0.29400960768E+03  0.19183779639E+04  0.18957142092E+04 0.  0.
        3    1    3    3  502    0  0.11938540070E+03  0.61062011969E+03  0.57661274924E+03  0.84828773259E+03  0.10100000352E+00 0. -1.
       -3    1    3    3    0  502 -0.11938540070E+03 -0.61062011969E+03 -0.87062235692E+03  0.10700902313E+04  0.10100000352E+00 0.  1.
</event>
<event>
 5   0  0.3083469E-05  0.1896450E+04  0.7818609E-02  0.8656626E-01
       -1   -1    0    0    0  501  0.00000000000E+00  0.00000000000E+00  0.41100205997E+03  0.41100206000E+03  0.50400001928E-02 0. -1.
        1   -1    0    0  501    0  0.00000000000E+00  0.00000000000E+00 -0.21876544961E+04  0.21876544961E+04  0.50400001928E-02 0.  1.
    10030    2    1    2    0    0  0.00000000000E+00  0.00000000000E+00 -0.17766524361E+04  0.25986565561E+04  0.18964498458E+04 0.  0.
        3    1    3    3  502    0 -0.41956406331E+03  0.40383311629E+03  0.13710721394E+03  0.59825879630E+03  0.10100000352E+00 0.  1.
       -3    1    3    3    0  502  0.41956406331E+03 -0.40383311629E+03 -0.19137596501E+04  0.20003977598E+04  0.10100000352E+00 0. -1.
</event>
<event>
 5   0  0.6361762E-05  0.1895789E+04  0.7818609E-02  0.8656955E-01
       -2   -1    0    0    0  501  0.00000000000E+00  0.00000000000E+00  0.60949074778E+03  0.60949074779E+03  0.25500000920E-02 0. -1.
        2   -1    0    0  501    0  0.00000000000E+00  0.00000000000E+00 -0.14741883237E+04  0.14741883237E+04  0.25500000920E-02 0.  1.
    10030    2    1    2    0    0  0.00000000000E+00  0.00000000000E+00 -0.86469757591E+03  0.20836790715E+04  0.18957891695E+04 0.  0.
        1    1    3    3  502    0  0.81532404413E+03 -0.45305073026E+03 -0.24681122472E+03  0.96484405051E+03  0.50400001928E-02 0. -1.
       -1    1    3    3    0  502 -0.81532404413E+03  0.45305073026E+03 -0.61788635119E+03  0.11188350210E+04  0.50400001928E-02 0.  1.
</event>
<event>
 5   0  0.3144958E-05  0.1900162E+04  0.7818609E-02  0.8654776E-01
       -1   -1    0    0    0  501  0.00000000000E+00  0.00000000000E+00  0.66728418328E+03  0.66728418330E+03  0.50400001928E-02 0.  1.
        1   -1    0    0  501    0  0.00000000000E+00  0.00000000000E+00 -0.13527276757E+04  0.13527276757E+04  0.50400001928E-02 0. -1.
    10030    2    1    2    0    0  0.00000000000E+00  0.00000000000E+00 -0.68544349238E+03  0.20200118590E+04  0.19001618692E+04 0.  0.
        4    1    3    3  502    0 -0.10227368785E+03  0.48426777665E+03 -0.12048455604E+04  0.13025473596E+04  0.12699999809E+01 0. -1.
       -4    1    3    3    0  502  0.10227368785E+03 -0.48426777665E+03  0.51940206799E+03  0.71746449938E+03  0.12699999809E+01 0.  1.
</event>
<event>
 5   0  0.6452182E-05  0.1891123E+04  0.7818609E-02  0.8659288E-01
       -2   -1    0    0    0  501  0.00000000000E+00  0.00000000000E+00  0.68682162347E+03  0.68682162348E+03  0.25500000920E-02 0.  1.
        2   -1    0    0  501    0  0.00000000000E+00  0.00000000000E+00 -0.13017737576E+04  0.13017737576E+04  0.25500000920E-02 0. -1.
    10030    2    1    2    0    0  0.00000000000E+00  0.00000000000E+00 -0.61495213410E+03  0.19885953811E+04  0.18911228047E+04 0.  0.
        3    1    3    3  502    0  0.15469233531E+03 -0.92925532310E+03 -0.22178227493E+03  0.96779778972E+03  0.10100000352E+00 0. -1.
       -3    1    3    3    0  502 -0.15469233531E+03  0.92925532310E+03 -0.39316985917E+03  0.10207975913E+04  0.10100000352E+00 0.  1.
</event>
<event>
 5   0  0.3147063E-05  0.1900915E+04  0.7818609E-02  0.8654401E-01
       -1   -1    0    0    0  501  0.00000000000E+00  0.00000000000E+00  0.71593914893E+03  0.71593914895E+03  0.50400001928E-02 0.  1.
        1   -1    0    0  501    0  0.00000000000E+00  0.00000000000E+00 -0.12617967326E+04  0.12617967326E+04  0.50400001928E-02 0. -1.
    10030    2    1    2    0    0  0.00000000000E+00  0.00000000000E+00 -0.54585758366E+03  0.19777358815E+04  0.19009152310E+04 0.  0.
        5    1    3    3  502    0  0.69400040646E+03  0.52279344912E+03 -0.67372131998E+03  0.10994871812E+04  0.46999998093E+01 0. -1.
       -5    1    3    3    0  502 -0.69400040646E+03 -0.52279344912E+03  0.12786373633E+03  0.87824870036E+03  0.46999998093E+01 0.  1.
</event>
<event>
 5   0  0.6452182E-05  0.1899752E+04  0.7818609E-02  0.8654980E-01
        2   -1    0    0  501    0  0.00000000000E+00  0.00000000000E+00  0.51084009836E+03  0.51084009836E+03  0.25500000920E-02 0.  1.
       -2   -1    0    0    0  501  0.00000000000E+00  0.00000000000E+00 -0.17662368762E+04  0.17662368762E+04  0.25500000920E-02 0. -1.
    10030    2    1    2    0    0  0.00000000000E+00  0.00000000000E+00 -0.12553967778E+04  0.22770769745E+04  0.18997522150E+04 0.  0.
        3    1    3    3  502    0  0.74498030143E+03 -0.11636784113E+03 -0.13201297674E+04  0.15202893596E+04  0.10100000352E+00 0. -1.
       -3    1    3    3    0  502 -0.74498030143E+03  0.11636784113E+03  0.64732989580E+02  0.75678761493E+03  0.10100000352E+00 0.  1.
</event>
<event>
 5   0  0.6361762E-05  0.1901270E+04  0.7818609E-02  0.8654225E-01
       -2   -1    0    0    0  501  0.00000000000E+00  0.00000000000E+00  0.62366851024E+03  0.62366851025E+03  0.25500000920E-02 0.  1.
        2   -1    0    0  501    0  0.00000000000E+00  0.00000000000E+00 -0.14490173760E+04  0.14490173760E+04  0.25500000920E-02 0. -1.
    10030    2    1    2    0    0  0.00000000000E+00  0.00000000000E+00 -0.82534886577E+03  0.20726858863E+04  0.19012695845E+04 0.  0.
        1    1    3    3  502    0  0.92976759785E+03 -0.54947598480E+02 -0.20520175308E+03  0.95372678692E+03  0.50400001928E-02 0. -1.
       -1    1    3    3    0  502 -0.92976759785E+03  0.54947598480E+02 -0.62014711269E+03  0.11189590993E+04  0.50400001928E-02 0.  1.
</event>
<event>
 5   0  0.3147063E-05  0.1898870E+04  0.7818609E-02  0.8655419E-01
        1   -1    0    0  501    0  0.00000000000E+00  0.00000000000E+00  0.90192057905E+03  0.90192057906E+03  0.50400001928E-02 0. -1.
       -1   -1    0    0    0  501  0.00000000000E+00  0.00000000000E+00 -0.99945242862E+03  0.99945242863E+03  0.50400001928E-02 0.  1.
    10030    2    1    2    0    0  0.00000000000E+00  0.00000000000E+00 -0.97531849570E+02  0.19013730077E+04  0.18988698883E+04 0.  0.
        5    1    3    3  502    0  0.50023486389E+03 -0.78129903517E+03 -0.25087729202E+03  0.96105390434E+03  0.46999998093E+01 0. -1.
       -5    1    3    3    0  502 -0.50023486389E+03  0.78129903517E+03  0.15334544245E+03  0.94031910335E+03  0.46999998093E+01 0.  1.
</event>
<event>
 5   0  0.3086139E-05  0.1902945E+04  0.7818609E-02  0.8653392E-01
        1   -1    0    0  501    0  0.00000000000E+00  0.00000000000E+00  0.47845743077E+03  0.47845743079E+03  0.50400001928E-02 0. -1.
       -1   -1    0    0    0  501  0.00000000000E+00  0.00000000000E+00 -0.18921226969E+04  0.18921226969E+04  0.50400001928E-02 0.  1.
    10030    2    1    2    0    0  0.00000000000E+00  0.00000000000E+00 -0.14136652661E+04  0.23705801277E+04  0.19029452586E+04 0.  0.
        2    1    3    3  502    0  0.62209325232E+03  0.53545594379E+03 -0.13063275560E+04  0.15427912256E+04  0.25500000920E-02 0.  1.
       -2    1    3    3    0  502 -0.62209325232E+03 -0.53545594379E+03 -0.10733771010E+03  0.82778890204E+03  0.25500000920E-02 0. -1.
</event>
<event>
 5   0  0.6423388E-05  0.1912777E+04  0.7818609E-02  0.8648523E-01
       -2   -1    0    0    0  501  0.00000000000E+00  0.00000000000E+00  0.41128445638E+03  0.41128445639E+03  0.25500000920E-02 0.  1.
        2   -1    0    0  501    0  0.00000000000E+00  0.00000000000E+00 -0.22239564472E+04  0.22239564472E+04  0.25500000920E-02 0. -1.
    10030    2    1    2    0    0  0.00000000000E+00  0.00000000000E+00 -0.18126719908E+04  0.26352409036E+04  0.19127767443E+04 0.  0.
        2    1    3    3  502    0  0.72419971407E+03  0.45272613360E+01 -0.45747026542E+02  0.72565729680E+03  0.25500000920E-02 0.  1.
       -2    1    3    3    0  502 -0.72419971407E+03 -0.45272613360E+01 -0.17669249642E+04  0.19095836068E+04  0.25500000920E-02 0. -1.
</event>
<event>
 5   0  0.6423388E-05  0.1903982E+04  0.7818609E-02  0.8652877E-01
        2   -1    0    0  501    0  0.00000000000E+00  0.00000000000E+00  0.94451093686E+03  0.94451093686E+03  0.25500000920E-02 0.  1.
       -2   -1    0    0    0  501  0.00000000000E+00  0.00000000000E+00 -0.95952990355E+03  0.95952990355E+03  0.25500000920E-02 0. -1.
    10030    2    1    2    0    0  0.00000000000E+00  0.00000000000E+00 -0.15018966693E+02  0.19040408404E+04  0.19039816051E+04 0.  0.
        2    1    3    3  502    0  0.19401193613E+03 -0.62849306067E+03  0.68072870302E+03  0.94659163624E+03  0.25500000920E-02 0.  1.
       -2    1    3    3    0  502 -0.19401193613E+03  0.62849306067E+03 -0.69574766971E+03  0.95744920418E+03  0.25500000920E-02 0. -1.
</event>
<event>
 5   0  0.3083469E-05  0.1925355E+04  0.7818609E-02  0.8642338E-01
       -1   -1    0    0    0  501  0.00000000000E+00  0.00000000000E+00  0.76286349960E+03  0.76286349962E+03  0.50400001928E-02 0.  1.
        1   -1    0    0  501    0  0.00000000000E+00  0.00000000000E+00 -0.12148279595E+04  0.12148279595E+04  0.50400001928E-02 0. -1.
    10030    2    1    2    0    0  0.00000000000E+00  0.00000000000E+00 -0.45196445987E+03  0.19776914591E+04  0.19253549373E+04 0.  0.
        3    1    3    3  502    0 -0.32219348486E+03 -0.29403625098E+03 -0.11074953605E+04  0.11902990979E+04  0.10100000352E+00 0. -1.
       -3    1    3    3    0  502  0.32219348486E+03  0.29403625098E+03  0.65553090067E+03  0.78739236122E+03  0.10100000352E+00 0.  1.
</event>
<event>
 5   0  0.3086139E-05  0.1904030E+04  0.7818609E-02  0.8652853E-01
        1   -1    0    0  501    0  0.00000000000E+00  0.00000000000E+00  0.73362812820E+03  0.73362812822E+03  0.50400001928E-02 0.  1.
       -1   -1    0    0    0  501  0.00000000000E+00  0.00000000000E+00 -0.12354117320E+04  0.12354117320E+04  0.50400001928E-02 0. -1.
    10030    2    1    2    0    0  0.00000000000E+00  0.00000000000E+00 -0.50178360377E+03  0.19690398602E+04  0.19040302482E+04 0.  0.
        2    1    3    3  502    0  0.88880482911E+03  0.15183972766E+02  0.10151927256E+03  0.89471265778E+03  0.25500000920E-02 0.  1.
       -2    1    3    3    0  502 -0.88880482911E+03 -0.15183972766E+02 -0.60330287632E+03  0.10743272024E+04  0.25500000920E-02 0. -1.
</event>
<event>
 5   0  0.6361762E-05  0.1925829E+04  0.7818609E-02  0.8642106E-01
       -2   -1    0    0    0  501  0.00000000000E+00  0.00000000000E+00  0.10381967784E+04  0.10381967784E+04  0.25500000920E-02 0.  1.
        2   -1    0    0  501    0  0.00000000000E+00  0.00000000000E+00 -0.89309082037E+03  0.89309082038E+03  0.25500000920E-02 0. -1.
    10030    2    1    2    0    0  0.00000000000E+00  0.00000000000E+00  0.14510595804E+03  0.19312875988E+04  0.19258286658E+04 0.  0.
        1    1    3    3  502    0 -0.80934557286E+03 -0.84194181189E+02  0.58886682145E+03  0.10044366829E+04  0.50400001928E-02 0.  1.
       -1    1    3    3    0  502  0.80934557286E+03  0.84194181189E+02 -0.44376086341E+03  0.92685091593E+03  0.50400001928E-02 0. -1.
</event>
<event>
 5   0  0.3144958E-05  0.1900671E+04  0.7818609E-02  0.8654523E-01
       -1   -1    0    0    0  501  0.00000000000E+00  0.00000000000E+00  0.81911586619E+03  0.81911586621E+03  0.50400001928E-02 0. -1.
        1   -1    0    0  501    0  0.00000000000E+00  0.00000000000E+00 -0.11025755289E+04  0.11025755289E+04  0.50400001928E-02 0.  1.
    10030    2    1    2    0    0  0.00000000000E+00  0.00000000000E+00 -0.28345966269E+03  0.19216913951E+04  0.19006705232E+04 0.  0.
        4    1    3    3  502    0  0.11679979053E+03 -0.37068901112E+03  0.73508862180E+03  0.83151032997E+03  0.12699999809E+01 0. -1.
       -4    1    3    3    0  502 -0.11679979053E+03  0.37068901112E+03 -0.10185482845E+04  0.10901810651E+04  0.12699999809E+01 0.  1.
</event>
<event>
 5   0  0.6361762E-05  0.1900755E+04  0.7818609E-02  0.8654481E-01
        2   -1    0    0  501    0  0.00000000000E+00  0.00000000000E+00  0.17351133929E+04  0.17351133929E+04  0.25500000920E-02 0.  1.
       -2   -1    0    0    0  501  0.00000000000E+00  0.00000000000E+00 -0.52055231099E+03  0.52055231099E+03  0.25500000920E-02 0. -1.
    10030    2    1    2    0    0  0.00000000000E+00  0.00000000000E+00  0.12145610819E+04  0.22556657039E+04  0.19007548884E+04 0.  0.
        1    1    3    3  502    0 -0.83446902009E+03  0.36779314270E+03  0.92484083366E+03  0.12988228936E+04  0.50400001928E-02 0. -1.
       -1    1    3    3    0  502  0.83446902009E+03 -0.36779314270E+03  0.28972024822E+03  0.95684281026E+03  0.50400001928E-02 0.  1.
</event>
<event>
 5   0  0.3203527E-05  0.1890851E+04  0.7818609E-02  0.8659424E-01
        1   -1    0    0  501    0  0.00000000000E+00  0.00000000000E+00  0.30454964414E+03  0.30454964418E+03  0.50400001928E-02 0.  1.
       -1   -1    0    0    0  501  0.00000000000E+00  0.00000000000E+00 -0.29349202590E+04  0.29349202590E+04  0.50400001928E-02 0. -1.
    10030    2    1    2    0    0  0.00000000000E+00  0.00000000000E+00 -0.26303706149E+04  0.32394699032E+04  0.18908505182E+04 0.  0.
        1    1    3    3  502    0  0.27941470242E+03 -0.40707492671E+03  0.66117562316E+02  0.49815068398E+03  0.50400001928E-02 0.  1.
       -1    1    3    3    0  502 -0.27941470242E+03  0.40707492671E+03 -0.26964881772E+04  0.27413192192E+04  0.50400001928E-02 0. -1.
</event>
<event>
 5   0  0.6395992E-05  0.1908933E+04  0.7818609E-02  0.8650422E-01
        2   -1    0    0  501    0  0.00000000000E+00  0.00000000000E+00  0.12453090663E+04  0.12453090663E+04  0.25500000920E-02 0. -1.
       -2   -1    0    0    0  501  0.00000000000E+00  0.00000000000E+00 -0.73155067065E+03  0.73155067066E+03  0.25500000920E-02 0.  1.
    10030    2    1    2    0    0  0.00000000000E+00  0.00000000000E+00  0.51375839566E+03  0.19768597370E+04  0.19089334013E+04 0.  0.
        4    1    3    3  502    0  0.25972677872E+03  0.56402982514E+03  0.10075288982E+04  0.11835133024E+04  0.12699999809E+01 0. -1.
       -4    1    3    3    0  502 -0.25972677872E+03 -0.56402982514E+03 -0.49377050255E+03  0.79334643462E+03  0.12699999809E+01 0.  1.
</event>
<event>
 5   0  0.2279625E-05  0.1897212E+04  0.7818609E-02  0.8656245E-01
       -3   -1    0    0    0  501  0.00000000000E+00  0.00000000000E+00  0.18134787479E+04  0.18134787507E+04  0.10100000352E+00 0.  1.
        3   -1    0    0  501    0  0.00000000000E+00  0.00000000000E+00 -0.49620285109E+03  0.49620286137E+03  0.10100000352E+00 0. -1.
    10030    2    1    2    0    0  0.00000000000E+00  0.00000000000E+00  0.13172758968E+04  0.23096816120E+04  0.18972119968E+04 0.  0.
        1    1    3    3  502    0  0.35963445666E+03  0.74727179601E+03  0.97967224400E+02  0.83507464134E+03  0.50400001928E-02 0. -1.
       -1    1    3    3    0  502 -0.35963445666E+03 -0.74727179601E+03  0.12193086724E+04  0.14746069707E+04  0.50400001928E-02 0.  1.
</event>
<event>
 5   0  0.6452182E-05  0.1868579E+04  0.7818609E-02  0.8670656E-01
        2   -1    0    0  501    0  0.00000000000E+00  0.00000000000E+00  0.16795320837E+04  0.16795320837E+04  0.25500000920E-02 0.  1.
       -2   -1    0    0    0  501  0.00000000000E+00  0.00000000000E+00 -0.51972637317E+03  0.51972637318E+03  0.25500000920E-02 0. -1.
    10030    2    1    2    0    0  0.00000000000E+00  0.00000000000E+00  0.11598057106E+04  0.21992584569E+04  0.18685792662E+04 0.  0.
        3    1    3    3  502    0  0.81987970640E+03  0.43602346191E+03  0.70095285760E+03  0.11634664203E+04  0.10100000352E+00 0. -1.
       -3    1    3    3    0  502 -0.81987970640E+03 -0.43602346191E+03  0.45885285295E+03  0.10357920366E+04  0.10100000352E+00 0.  1.
</event>
<event>
 5   0  0.6423388E-05  0.1898901E+04  0.7818609E-02  0.8655404E-01
        2   -1    0    0  501    0  0.00000000000E+00  0.00000000000E+00  0.11093071857E+04  0.11093071857E+04  0.25500000920E-02 0.  1.
       -2   -1    0    0    0  501  0.00000000000E+00  0.00000000000E+00 -0.81262987601E+03  0.81262987602E+03  0.25500000920E-02 0. -1.
    10030    2    1    2    0    0  0.00000000000E+00  0.00000000000E+00  0.29667730969E+03  0.19219370617E+04  0.18989009040E+04 0.  0.
        2    1    3    3  502    0  0.94125231356E+03  0.46069049461E+02  0.26540460662E+03  0.97903926394E+03  0.25500000920E-02 0. -1.
       -2    1    3    3    0  502 -0.94125231356E+03 -0.46069049461E+02  0.31272703074E+02  0.94289779779E+03  0.25500000920E-02 0.  1.
</event>
<event>
 5   0  0.6361762E-05  0.1951592E+04  0.7818609E-02  0.8629594E-01
        2   -1    0    0  501    0  0.00000000000E+00  0.00000000000E+00  0.24065960975E+04  0.24065960975E+04  0.25500000920E-02 0.  1.
       -2   -1    0    0    0  501  0.00000000000E+00  0.00000000000E+00 -0.39565332677E+03  0.39565332678E+03  0.25500000920E-02 0. -1.
    10030    2    1    2    0    0  0.00000000000E+00  0.00000000000E+00  0.20109427707E+04  0.28022494243E+04  0.19515919165E+04 0.  0.
        1    1    3    3  502    0  0.33164285936E+03 -0.70762937107E+02 -0.30832503770E+03  0.45832162106E+03  0.50400001928E-02 0. -1.
       -1    1    3    3    0  502 -0.33164285936E+03  0.70762937107E+02  0.23192678084E+04  0.23439278032E+04  0.50400001928E-02 0.  1.
</event>
<event>
 5   0  0.3144958E-05  0.1880734E+04  0.7818609E-02  0.8664506E-01
       -1   -1    0    0    0  501  0.00000000000E+00  0.00000000000E+00  0.59681519843E+03  0.59681519845E+03  0.50400001928E-02 0. -1.
        1   -1    0    0  501    0  0.00000000000E+00  0.00000000000E+00 -0.14816809653E+04  0.14816809653E+04  0.50400001928E-02 0.  1.
    10030    2    1    2    0    0  0.00000000000E+00  0.00000000000E+00 -0.88486576684E+03  0.20784961637E+04  0.18807336008E+04 0.  0.
        4    1    3    3  502    0  0.84808578406E+03  0.26587402447E+03 -0.10297022823E+03  0.89473067166E+03  0.12699999809E+01 0. -1.
       -4    1    3    3    0  502 -0.84808578406E+03 -0.26587402447E+03 -0.78189553861E+03  0.11837654921E+04  0.12699999809E+01 0.  1.
</event>
<event>
 5   0  0.6423388E-05  0.1899564E+04  0.7818609E-02  0.8655074E-01
        2   -1    0    0  501    0  0.00000000000E+00  0.00000000000E+00  0.93175403259E+03  0.93175403259E+03  0.25500000920E-02 0. -1.
       -2   -1    0    0    0  501  0.00000000000E+00  0.00000000000E+00 -0.96815860060E+03  0.96815860060E+03  0.25500000920E-02 0.  1.
    10030    2    1    2    0    0  0.00000000000E+00  0.00000000000E+00 -0.36404568015E+02  0.18999126332E+04  0.18995638239E+04 0.  0.
        2    1    3    3  502    0 -0.86450233838E+03 -0.37102633682E+03 -0.14884343689E+03  0.95245955525E+03  0.25500000920E-02 0.  1.
       -2    1    3    3    0  502  0.86450233838E+03  0.37102633682E+03  0.11243886887E+03  0.94745307795E+03  0.25500000920E-02 0. -1.
</event>
<event>
 5   0  0.3083469E-05  0.1894922E+04  0.7818609E-02  0.8657388E-01
       -1   -1    0    0    0  501  0.00000000000E+00  0.00000000000E+00  0.12039279493E+04  0.12039279493E+04  0.50400001928E-02 0.  1.
        1   -1    0    0  501    0  0.00000000000E+00  0.00000000000E+00 -0.74562826577E+03  0.74562826579E+03  0.50400001928E-02 0. -1.
    10030    2    1    2    0    0  0.00000000000E+00  0.00000000000E+00  0.45829968349E+03  0.19495562151E+04  0.18949223825E+04 0.  0.
        3    1    3    3  502    0 -0.24119803188E+03 -0.57415625125E+03  0.96377516111E+03  0.11474730772E+04  0.10100000352E+00 0.  1.
       -3    1    3    3    0  502  0.24119803188E+03  0.57415625125E+03 -0.50547547762E+03  0.80208313790E+03  0.10100000352E+00 0. -1.
</event>
<event>
 5   0  0.3144958E-05  0.1900877E+04  0.7818609E-02  0.8654420E-01
       -1   -1    0    0    0  501  0.00000000000E+00  0.00000000000E+00  0.66988680540E+03  0.66988680542E+03  0.50400001928E-02 0. -1.
        1   -1    0    0  501    0  0.00000000000E+00  0.00000000000E+00 -0.13484858915E+04  0.13484858915E+04  0.50400001928E-02 0.  1.
    10030    2    1    2    0    0  0.00000000000E+00  0.00000000000E+00 -0.67859908613E+03  0.20183726970E+04  0.19008765410E+04 0.  0.
        4    1    3    3  502    0  0.28273892981E+03 -0.89784055388E+03 -0.19975176639E+03  0.96226885209E+03  0.12699999809E+01 0. -1.
       -4    1    3    3    0  502 -0.28273892981E+03  0.89784055388E+03 -0.47884731974E+03  0.10561038449E+04  0.12699999809E+01 0.  1.
</event>
<event>
 5   0  0.3086139E-05  0.1902360E+04  0.7818609E-02  0.8653683E-01
       -1   -1    0    0    0  501  0.00000000000E+00  0.00000000000E+00  0.78579175097E+03  0.78579175098E+03  0.50400001928E-02 0.  1.
        1   -1    0    0  501    0  0.00000000000E+00  0.00000000000E+00 -0.11513776238E+04  0.11513776238E+04  0.50400001928E-02 0. -1.
    10030    2    1    2    0    0  0.00000000000E+00  0.00000000000E+00 -0.36558587281E+03  0.19371693748E+04  0.19023596285E+04 0.  0.
        2    1    3    3  502    0 -0.38978207274E+03 -0.40292521736E+03 -0.96527028726E+03  0.11162551332E+04  0.25500000920E-02 0. -1.
       -2    1    3    3    0  502  0.38978207274E+03  0.40292521736E+03  0.59968441445E+03  0.82091424153E+03  0.25500000920E-02 0.  1.
</event>
<event>
 5   0  0.3147063E-05  0.1897797E+04  0.7818609E-02  0.8655954E-01
        1   -1    0    0  501    0  0.00000000000E+00  0.00000000000E+00  0.95987932018E+03  0.95987932020E+03  0.50400001928E-02 0.  1.
       -1   -1    0    0    0  501  0.00000000000E+00  0.00000000000E+00 -0.93804281377E+03  0.93804281379E+03  0.50400001928E-02 0. -1.
    10030    2    1    2    0    0  0.00000000000E+00  0.00000000000E+00  0.21836506410E+02  0.18979221340E+04  0.18977965101E+04 0.  0.
        5    1    3    3  502    0 -0.82459048133E+03  0.31474467637E+03  0.35932635316E+03  0.95296966965E+03  0.46999998093E+01 0.  1.
       -5    1    3    3    0  502  0.82459048133E+03 -0.31474467637E+03 -0.33748984675E+03  0.94495246434E+03  0.46999998093E+01 0. -1.
</event>
<event>
 5   0  0.6452182E-05  0.1898509E+04  0.7818609E-02  0.8655599E-01
       -2   -1    0    0    0  501  0.00000000000E+00  0.00000000000E+00  0.83556762106E+03  0.83556762106E+03  0.25500000920E-02 0. -1.
        2   -1    0    0  501    0  0.00000000000E+00  0.00000000000E+00 -0.10784100764E+04  0.10784100764E+04  0.25500000920E-02 0.  1.
    10030    2    1    2    0    0  0.00000000000E+00  0.00000000000E+00 -0.24284245531E+03  0.19139776974E+04  0.18985094596E+04 0.  0.
        3    1    3    3  502    0  0.54813355086E+03  0.26687482935E+03  0.61211401571E+03  0.86391906019E+03  0.10100000352E+00 0. -1.
       -3    1    3    3    0  502 -0.54813355086E+03 -0.26687482935E+03 -0.85495647102E+03  0.10500586372E+04  0.10100000352E+00 0.  1.
</event>
<event>
 5   0  0.6395992E-05  0.1905078E+04  0.7818609E-02  0.8652333E-01
        2   -1    0    0  501    0  0.00000000000E+00  0.00000000000E+00  0.88231190638E+03  0.88231190638E+03  0.25500000920E-02 0.  1.
       -2   -1    0    0    0  501  0.00000000000E+00  0.00000000000E+00 -0.10283561111E+04  0.10283561111E+04  0.25500000920E-02 0. -1.
    10030    2    1    2    0    0  0.00000000000E+00  0.00000000000E+00 -0.14604420471E+03  0.19106680175E+04  0.19050783090E+04 0.  0.
        4    1    3    3  502    0  0.26292340200E+03 -0.90458689759E+03  0.68541105068E+02  0.94451345495E+03  0.12699999809E+01 0.  1.
       -4    1    3    3    0  502 -0.26292340200E+03  0.90458689759E+03 -0.21458530978E+03  0.96615456252E+03  0.12699999809E+01 0. -1.
</event>
<event>
 5   0  0.6098377E-05  0.1904264E+04  0.7818609E-02  0.8652737E-01
       -2   -1    0    0    0  501  0.00000000000E+00  0.00000000000E+00  0.54690491130E+03  0.54690491130E+03  0.25500000920E-02 0.  1.
        2   -1    0    0  501    0  0.00000000000E+00  0.00000000000E+00 -0.16576098020E+04  0.16576098020E+04  0.25500000920E-02 0. -1.
    10030    2    1    2    0    0  0.00000000000E+00  0.00000000000E+00 -0.11107048907E+04  0.22045147133E+04  0.19042635760E+04 0.  0.
        5    1    3    3  502    0  0.16119966353E+03  0.44585360246E+03 -0.15112302201E+04  0.15838590955E+04  0.46999998093E+01 0. -1.
       -5    1    3    3    0  502 -0.16119966353E+03 -0.44585360246E+03  0.40052532942E+03  0.62065561775E+03  0.46999998093E+01 0.  1.
</event>
<event>
 5   0  0.3086139E-05  0.1881698E+04  0.7818609E-02  0.8664020E-01
        1   -1    0    0  501    0  0.00000000000E+00  0.00000000000E+00  0.10871674640E+04  0.10871674640E+04  0.50400001928E-02 0.  1.
       -1   -1    0    0    0  501  0.00000000000E+00  0.00000000000E+00 -0.81422300985E+03  0.81422300987E+03  0.50400001928E-02 0. -1.
    10030    2    1    2    0    0  0.00000000000E+00  0.00000000000E+00  0.27294445410E+03  0.19013904738E+04  0.18816979192E+04 0.  0.
        2    1    3    3  502    0  0.34108523506E+03  0.25953298196E+03 -0.70984918114E+03  0.82920586483E+03  0.25500000920E-02 0. -1.
       -2    1    3    3    0  502 -0.34108523506E+03 -0.25953298196E+03  0.98279363524E+03  0.10721846090E+04  0.25500000920E-02 0.  1.
</event>
<event>
 5   0  0.3086139E-05  0.1916180E+04  0.7818609E-02  0.8646844E-01
       -1   -1    0    0    0  501  0.00000000000E+00  0.00000000000E+00  0.52698423890E+03  0.52698423892E+03  0.50400001928E-02 0.  1.
        1   -1    0    0  501    0  0.00000000000E+00  0.00000000000E+00 -0.17418664937E+04  0.17418664937E+04  0.50400001928E-02 0. -1.
    10030    2    1    2    0    0  0.00000000000E+00  0.00000000000E+00 -0.12148822548E+04  0.22688507326E+04  0.19161797290E+04 0.  0.
        2    1    3    3  502    0  0.55790128928E+02 -0.18712779390E+03  0.50317339969E+03  0.53973402700E+03  0.25500000920E-02 0.  1.
       -2    1    3    3    0  502 -0.55790128928E+02  0.18712779390E+03 -0.17180556545E+04  0.17291167056E+04  0.25500000920E-02 0. -1.
</event>
<event>
 5   0  0.2279625E-05  0.1902469E+04  0.7818609E-02  0.8653628E-01
        3   -1    0    0  501    0  0.00000000000E+00  0.00000000000E+00  0.12429092257E+04  0.12429092298E+04  0.10100000352E+00 0.  1.
       -3   -1    0    0    0  501  0.00000000000E+00  0.00000000000E+00 -0.72800761575E+03  0.72800762276E+03  0.10100000352E+00 0. -1.
    10030    2    1    2    0    0  0.00000000000E+00  0.00000000000E+00  0.51490160999E+03  0.19709168526E+04  0.19024693353E+04 0.  0.
        5    1    3    3  502    0  0.48538222795E+02  0.11725838341E+03  0.12340875708E+04  0.12406045744E+04  0.46999998093E+01 0.  1.
       -5    1    3    3    0  502 -0.48538222795E+02 -0.11725838341E+03 -0.71918596080E+03  0.73031227825E+03  0.46999998093E+01 0. -1.
</event>
<event>
 5   0  0.2279625E-05  0.1903420E+04  0.7818609E-02  0.8653156E-01
       -3   -1    0    0    0  501  0.00000000000E+00  0.00000000000E+00  0.11591561901E+04  0.11591561945E+04  0.10100000352E+00 0. -1.
        3   -1    0    0  501    0  0.00000000000E+00  0.00000000000E+00 -0.78138908348E+03  0.78138909001E+03  0.10100000352E+00 0.  1.
    10030    2    1    2    0    0  0.00000000000E+00  0.00000000000E+00  0.37776710666E+03  0.19405452846E+04  0.19034200836E+04 0.  0.
        1    1    3    3  502    0  0.65528000838E+03  0.16105391166E+03  0.87310835468E+03  0.11034710920E+04  0.50400001928E-02 0. -1.
       -1    1    3    3    0  502 -0.65528000838E+03 -0.16105391166E+03 -0.49534124801E+03  0.83707419256E+03  0.50400001928E-02 0.  1.
</event>
<event>
 5   0  0.3144958E-05  0.1883991E+04  0.7818609E-02  0.8662867E-01
       -1   -1    0    0    0  501  0.00000000000E+00  0.00000000000E+00  0.30816598379E+03  0.30816598383E+03  0.50400001928E-02 0. -1.
        1   -1    0    0  501    0  0.00000000000E+00  0.00000000000E+00 -0.28794714300E+04  0.28794714300E+04  0.50400001928E-02 0.  1.
    10030    2    1    2    0    0  0.00000000000E+00  0.00000000000E+00 -0.25713054462E+04  0.31876374138E+04  0.18839906009E+04 0.  0.
        4    1    3    3  502    0  0.35183882150E+03 -0.58505444153E+03 -0.23838305100E+04  0.24796630354E+04  0.12699999809E+01 0.  1.
       -4    1    3    3    0  502 -0.35183882150E+03  0.58505444153E+03 -0.18747493619E+03  0.70797437840E+03  0.12699999809E+01 0. -1.
</event>
<event>
 5   0  0.3083469E-05  0.1899098E+04  0.7818609E-02  0.8655306E-01
        1   -1    0    0  501    0  0.00000000000E+00  0.00000000000E+00  0.76823853196E+03  0.76823853198E+03  0.50400001928E-02 0.  1.
       -1   -1    0    0    0  501  0.00000000000E+00  0.00000000000E+00 -0.11736496258E+04  0.11736496258E+04  0.50400001928E-02 0. -1.
    10030    2    1    2    0    0  0.00000000000E+00  0.00000000000E+00 -0.40541109383E+03  0.19418881578E+04  0.18990975389E+04 0.  0.
        3    1    3    3  502    0  0.32576093021E+03 -0.69193882903E+03  0.37277504350E+03  0.85080007642E+03  0.10100000352E+00 0.  1.
       -3    1    3    3    0  502 -0.32576093021E+03  0.69193882903E+03 -0.77818613733E+03  0.10910880814E+04  0.10100000352E+00 0. -1.
</event>
<event>
 5   0  0.6395992E-05  0.1892868E+04  0.7818609E-02  0.8658415E-01
       -2   -1    0    0    0  501  0.00000000000E+00  0.00000000000E+00  0.49564092090E+03  0.49564092091E+03  0.25500000920E-02 0. -1.
        2   -1    0    0  501    0  0.00000000000E+00  0.00000000000E+00 -0.18072294075E+04  0.18072294075E+04  0.25500000920E-02 0.  1.
    10030    2    1    2    0    0  0.00000000000E+00  0.00000000000E+00 -0.13115884866E+04  0.23028703284E+04  0.18928675050E+04 0.  0.
        4    1    3    3  502    0  0.65327051781E+03 -0.22982396769E+03 -0.14406253458E+04  0.15984318645E+04  0.12699999809E+01 0.  1.
       -4    1    3    3    0  502 -0.65327051781E+03  0.22982396769E+03  0.12903685917E+03  0.70443846395E+03  0.12699999809E+01 0. -1.
</event>
<event>
 5   0  0.6098377E-05  0.1899350E+04  0.7818609E-02  0.8655180E-01
        2   -1    0    0  501    0  0.00000000000E+00  0.00000000000E+00  0.15943303362E+04  0.15943303362E+04  0.25500000920E-02 0. -1.
       -2   -1    0    0    0  501  0.00000000000E+00  0.00000000000E+00 -0.56568092433E+03  0.56568092433E+03  0.25500000920E-02 0.  1.
    10030    2    1    2    0    0  0.00000000000E+00  0.00000000000E+00  0.10286494118E+04  0.21600112605E+04  0.18993496342E+04 0.  0.
        5    1    3    3  502    0  0.52414967668E+03 -0.49581626873E+03  0.12165570127E+04  0.14144255764E+04  0.46999998093E+01 0. -1.
       -5    1    3    3    0  502 -0.52414967668E+03  0.49581626873E+03 -0.18790760089E+03  0.74558568412E+03  0.46999998093E+01 0.  1.
</event>
<event>
 5   0  0.3147063E-05  0.1899555E+04  0.7818609E-02  0.8655078E-01
       -1   -1    0    0    0  501  0.00000000000E+00  0.00000000000E+00  0.65007915236E+03  0.65007915238E+03  0.50400001928E-02 0.  1.
        1   -1    0    0  501    0  0.00000000000E+00  0.00000000000E+00 -0.13876418299E+04  0.13876418299E+04  0.50400001928E-02 0. -1.
    10030    2    1    2    0    0  0.00000000000E+00  0.00000000000E+00 -0.73756267758E+03  0.20377209823E+04  0.18995547106E+04 0.  0.
        5    1    3    3  502    0 -0.46957970057E+01  0.66520497647E+03  0.35841605492E+03  0.75564797999E+03  0.46999998093E+01 0.  1.
       -5    1    3    3    0  502  0.46957970057E+01 -0.66520497647E+03 -0.10959787325E+04  0.12820730023E+04  0.46999998093E+01 0. -1.
</event>
<event>
 5   0  0.6361762E-05  0.1901212E+04  0.7818609E-02  0.8654253E-01
       -2   -1    0    0    0  501  0.00000000000E+00  0.00000000000E+00  0.49284513411E+03  0.49284513411E+03  0.25500000920E-02 0. -1.
        2   -1    0    0  501    0  0.00000000000E+00  0.00000000000E+00 -0.18335406707E+04  0.18335406707E+04  0.25500000920E-02 0.  1.
    10030    2    1    2    0    0  0.00000000000E+00  0.00000000000E+00 -0.13406955366E+04  0.23263858049E+04  0.19012118217E+04 0.  0.
        1    1    3    3  502    0 -0.12731099550E+03 -0.75243726603E+02 -0.18193789663E+04  0.18253792841E+04  0.50400001928E-02 0.  1.
       -1    1    3    3    0  502  0.12731099550E+03  0.75243726603E+02  0.47868342965E+03  0.50100652073E+03  0.50400001928E-02 0. -1.
</event>
<event>
 5   0  0.6423388E-05  0.1916560E+04  0.7818609E-02  0.8646657E-01
        2   -1    0    0  501    0  0.00000000000E+00  0.00000000000E+00  0.15697437332E+04  0.15697437332E+04  0.25500000920E-02 0.  1.
       -2   -1    0    0    0  501  0.00000000000E+00  0.00000000000E+00 -0.58500053429E+03  0.58500053429E+03  0.25500000920E-02 0. -1.
    10030    2    1    2    0    0  0.00000000000E+00  0.00000000000E+00  0.98474319894E+03  0.21547442675E+04  0.19165603801E+04 0.  0.
        2    1    3    3  502    0  0.61808001683E+03  0.24269171917E+03  0.12691636405E+04  0.14323751338E+04  0.25500000920E-02 0.  1.
       -2    1    3    3    0  502 -0.61808001683E+03 -0.24269171917E+03 -0.28442044151E+03  0.72236913369E+03  0.25500000920E-02 0. -1.
</event>
<event>
 5   0  0.6423388E-05  0.1900808E+04  0.7818609E-02  0.8654454E-01
        2   -1    0    0  501    0  0.00000000000E+00  0.00000000000E+00  0.58070754078E+03  0.58070754079E+03  0.25500000920E-02 0.  1.
       -2   -1    0    0    0  501  0.00000000000E+00  0.00000000000E+00 -0.15554608943E+04  0.15554608943E+04  0.25500000920E-02 0. -1.
    10030    2    1    2    0    0  0.00000000000E+00  0.00000000000E+00 -0.97475335350E+03  0.21361684351E+04  0.19008081131E+04 0.  0.
        2    1    3    3  502    0  0.87804211920E+03  0.30030984765E+03 -0.25672239630E+03  0.96283454261E+03  0.25500000920E-02 0. -1.
       -2    1    3    3    0  502 -0.87804211920E+03 -0.30030984765E+03 -0.71803095720E+03  0.11733338925E+04  0.25500000920E-02 0.  1.
</event>
<event>
 5   0  0.3144958E-05  0.1907800E+04  0.7818609E-02  0.8650983E-01
        1   -1    0    0  501    0  0.00000000000E+00  0.00000000000E+00  0.78865806945E+03  0.78865806947E+03  0.50400001928E-02 0.  1.
       -1   -1    0    0    0  501  0.00000000000E+00  0.00000000000E+00 -0.11537642962E+04  0.11537642962E+04  0.50400001928E-02 0. -1.
    10030    2    1    2    0    0  0.00000000000E+00  0.00000000000E+00 -0.36510622670E+03  0.19424223656E+04  0.19078003275E+04 0.  0.
        4    1    3    3  502    0  0.37707305646E+03 -0.78232542854E+03  0.21920482050E+03  0.89569499959E+03  0.12699999809E+01 0.  1.
       -4    1    3    3    0  502 -0.37707305646E+03  0.78232542854E+03 -0.58431104720E+03  0.10467273661E+04  0.12699999809E+01 0. -1.
</event>
<event>
 5   0  0.3203527E-05  0.1905100E+04  0.7818609E-02  0.8652322E-01
       -1   -1    0    0    0  501  0.00000000000E+00  0.00000000000E+00  0.11323619536E+04  0.11323619536E+04  0.50400001928E-02 0. -1.
        1   -1    0    0  501    0  0.00000000000E+00  0.00000000000E+00 -0.80129094920E+03  0.80129094922E+03  0.50400001928E-02 0.  1.
    10030    2    1    2    0    0  0.00000000000E+00  0.00000000000E+00  0.33107100439E+03  0.19336529028E+04  0.19050998763E+04 0.  0.
        1    1    3    3  502    0 -0.52628787918E+03  0.75752733321E+03  0.40684824629E+03  0.10081428906E+04  0.50400001928E-02 0. -1.
       -1    1    3    3    0  502  0.52628787918E+03 -0.75752733321E+03 -0.75777241894E+02  0.92551001223E+03  0.50400001928E-02 0.  1.
</event>
<event>
 5   0  0.6098377E-05  0.1900551E+04  0.7818609E-02  0.8654582E-01
       -2   -1    0    0    0  501  0.00000000000E+00  0.00000000000E+00  0.63149315935E+03  0.63149315935E+03  0.25500000920E-02 0. -1.
        2   -1    0    0  501    0  0.00000000000E+00  0.00000000000E+00 -0.14299807523E+04  0.14299807523E+04  0.25500000920E-02 0.  1.
    10030    2    1    2    0    0  0.00000000000E+00  0.00000000000E+00 -0.79848759298E+03  0.20614739117E+04  0.19005505130E+04 0.  0.
        5    1    3    3  502    0 -0.25505227757E+03  0.77930864019E+03 -0.92014316714E+03  0.12325011801E+04  0.46999998093E+01 0.  1.
       -5    1    3    3    0  502  0.25505227757E+03 -0.77930864019E+03  0.12165557415E+03  0.82897273157E+03  0.46999998093E+01 0. -1.
</event>
<event>
 5   0  0.3147063E-05  0.1870647E+04  0.7818609E-02  0.8669607E-01
        1   -1    0    0  501    0  0.00000000000E+00  0.00000000000E+00  0.14303286115E+04  0.14303286116E+04  0.50400001928E-02 0. -1.
       -1   -1    0    0    0  501  0.00000000000E+00  0.00000000000E+00 -0.61162843054E+03  0.61162843056E+03  0.50400001928E-02 0.  1.
    10030    2    1    2    0    0  0.00000000000E+00  0.00000000000E+00  0.81870018100E+03  0.20419570421E+04  0.18706465662E+04 0.  0.
        5    1    3    3  502    0  0.69639117045E+03  0.57081334601E+03  0.13315919625E+03  0.91024282464E+03  0.46999998093E+01 0. -1.
       -5    1    3    3    0  502 -0.69639117045E+03 -0.57081334601E+03  0.68554098475E+03  0.11317142175E+04  0.46999998093E+01 0.  1.
</event>
<event>
 5   0  0.6423388E-05  0.1892091E+04  0.7818609E-02  0.8658803E-01
        2   -1    0    0  501    0  0.00000000000E+00  0.00000000000E+00  0.92049035342E+03  0.92049035342E+03  0.25500000920E-02 0.  1.
       -2   -1    0    0    0  501  0.00000000000E+00  0.00000000000E+00 -0.97231034010E+03  0.97231034011E+03  0.25500000920E-02 0. -1.
    10030    2    1    2    0    0  0.00000000000E+00  0.00000000000E+00 -0.51819986682E+02  0.18928006935E+04  0.18920912120E+04 0.  0.
        2    1    3    3  502    0 -0.17965886967E+02 -0.60803961109E+03 -0.75072798218E+03  0.96624398834E+03  0.25500000920E-02 0. -1.
       -2    1    3    3    0  502  0.17965886967E+02  0.60803961109E+03  0.69890799550E+03  0.92655670519E+03  0.25500000920E-02 0.  1.
</event>
<event>
 5   0  0.6395992E-05  0.1903609E+04  0.7818609E-02  0.8653062E-01
        2   -1    0    0  501    0  0.00000000000E+00  0.00000000000E+00  0.14376961671E+04  0.14376961671E+04  0.25500000920E-02 0.  1.
       -2   -1    0    0    0  501  0.00000000000E+00  0.00000000000E+00 -0.63012730150E+03  0.63012730151E+03  0.25500000920E-02 0. -1.
    10030    2    1    2    0    0  0.00000000000E+00  0.00000000000E+00  0.80756886559E+03  0.20678234686E+04  0.19036087898E+04 0.  0.
        4    1    3    3  502    0  0.85951224176E+03  0.14901651617E+03  0.81736869946E+03  0.11954331514E+04  0.12699999809E+01 0.  1.
       -4    1    3    3    0  502 -0.85951224176E+03 -0.14901651617E+03 -0.97998338686E+01  0.87239031716E+03  0.12699999809E+01 0. -1.
</event>
<event>
 5   0  0.3144958E-05  0.1892593E+04  0.7818609E-02  0.8658552E-01
        1   -1    0    0  501    0  0.00000000000E+00  0.00000000000E+00  0.10861301975E+04  0.10861301976E+04  0.50400001928E-02 0.  1.
       -1   -1    0    0    0  501  0.00000000000E+00  0.00000000000E+00 -0.82446604257E+03  0.82446604258E+03  0.50400001928E-02 0. -1.
    10030    2    1    2    0    0  0.00000000000E+00  0.00000000000E+00  0.26166415498E+03  0.19105962401E+04  0.18925934225E+04 0.  0.
        4    1    3    3  502    0 -0.86787441811E+03 -0.37673511793E+03  0.14946019428E+03  0.95784931866E+03  0.12699999809E+01 0. -1.
       -4    1    3    3    0  502  0.86787441811E+03  0.37673511793E+03  0.11220396070E+03  0.95274692148E+03  0.12699999809E+01 0.  1.
</event>
<event>
 5   0  0.6098377E-05  0.1899207E+04  0.7818609E-02  0.8655251E-01
       -2   -1    0    0    0  501  0.00000000000E+00  0.00000000000E+00  0.44163690280E+03  0.44163690281E+03  0.25500000920E-02 0. -1.
        2   -1    0    0  501    0  0.00000000000E+00  0.00000000000E+00 -0.20418280126E+04  0.20418280126E+04  0.25500000920E-02 0.  1.
    10030    2    1    2    0    0  0.00000000000E+00  0.00000000000E+00 -0.16001911098E+04  0.24834649154E+04  0.18992067813E+04 0.  0.
        5    1    3    3  502    0  0.50868577393E+02  0.46695411039E+03 -0.18792615937E+04  0.19370802722E+04  0.46999998093E+01 0.  1.
       -5    1    3    3    0  502 -0.50868577393E+02 -0.46695411039E+03  0.27907048389E+03  0.54638464323E+03  0.46999998093E+01 0. -1.
</event>
<event>
 5   0  0.6452182E-05  0.1899171E+04  0.7818609E-02  0.8655269E-01
       -2   -1    0    0    0  501  0.00000000000E+00  0.00000000000E+00  0.12683482654E+04  0.12683482654E+04  0.25500000920E-02 0.  1.
        2   -1    0    0  501    0  0.00000000000E+00  0.00000000000E+00 -0.71093452192E+03  0.71093452193E+03  0.25500000920E-02 0. -1.
    10030    2    1    2    0    0  0.00000000000E+00  0.00000000000E+00  0.55741374344E+03  0.19792827873E+04  0.18991709430E+04 0.  0.
        3    1    3    3  502    0  0.79106124800E+02 -0.33050958871E+03  0.12027991359E+04  0.12498880504E+04  0.10100000352E+00 0.  1.
       -3    1    3    3    0  502 -0.79106124800E+02  0.33050958871E+03 -0.64538539241E+03  0.72939473685E+03  0.10100000352E+00 0. -1.
</event>
<event>
 5   0  0.6395992E-05  0.1884157E+04  0.7818609E-02  0.8662783E-01
       -2   -1    0    0    0  501  0.00000000000E+00  0.00000000000E+00  0.59087901709E+03  0.59087901710E+03  0.25500000920E-02 0. -1.
        2   -1    0    0  501    0  0.00000000000E+00  0.00000000000E+00 -0.15020203213E+04  0.15020203213E+04  0.25500000920E-02 0.  1.
    10030    2    1    2    0    0  0.00000000000E+00  0.00000000000E+00 -0.91114130417E+03  0.20928993384E+04  0.18841574150E+04 0.  0.
        4    1    3    3  502    0 -0.44430438667E+03 -0.54507317643E+03  0.24077868781E+03  0.74329479016E+03  0.12699999809E+01 0. -1.
       -4    1    3    3    0  502  0.44430438667E+03  0.54507317643E+03 -0.11519199920E+04  0.13496045482E+04  0.12699999809E+01 0.  1.
</event>
<event>
 5   0  0.3086139E-05  0.1897483E+04  0.7818609E-02  0.8656110E-01
       -1   -1    0    0    0  501  0.00000000000E+00  0.00000000000E+00  0.44407541327E+03  0.44407541330E+03  0.50400001928E-02 0.  1.
        1   -1    0    0  501    0  0.00000000000E+00  0.00000000000E+00 -0.20269308685E+04  0.20269308685E+04  0.50400001928E-02 0. -1.
    10030    2    1    2    0    0  0.00000000000E+00  0.00000000000E+00 -0.15828554552E+04  0.24710062818E+04  0.18974827147E+04 0.  0.
        2    1    3    3  502    0  0.64256547636E+02  0.66561376381E+03 -0.16678555504E+04  0.17969175616E+04  0.25500000920E-02 0. -1.
       -2    1    3    3    0  502 -0.64256547636E+02 -0.66561376381E+03  0.85000095117E+02  0.67408872017E+03  0.25500000920E-02 0.  1.
</event>
<event>
 5   0  0.6098377E-05  0.1900496E+04  0.7818609E-02  0.8654609E-01
       -2   -1    0    0    0  501  0.00000000000E+00  0.00000000000E+00  0.94701605550E+03  0.94701605550E+03  0.25500000920E-02 0. -1.
        2   -1    0    0  501    0  0.00000000000E+00  0.00000000000E+00 -0.95349145378E+03  0.95349145378E+03  0.25500000920E-02 0.  1.
    10030    2    1    2    0    0  0.00000000000E+00  0.00000000000E+00 -0.64753982795E+01  0.19005075093E+04  0.19004964778E+04 0.  0.
        5    1    3    3  502    0  0.34192766800E+03 -0.13255937637E+03  0.87338766456E+03  0.94726692173E+03  0.46999998093E+01 0. -1.
       -5    1    3    3    0  502 -0.34192766800E+03  0.13255937637E+03 -0.87986306284E+03  0.95324058755E+03  0.46999998093E+01 0.  1.
</event>
<event>
 5   0  0.3147063E-05  0.1909080E+04  0.7818609E-02  0.8650350E-01
       -1   -1    0    0    0  501  0.00000000000E+00  0.00000000000E+00  0.12982063488E+04  0.12982063488E+04  0.50400001928E-02 0.  1.
        1   -1    0    0  501    0  0.00000000000E+00  0.00000000000E+00 -0.70185065092E+03  0.70185065094E+03  0.50400001928E-02 0. -1.
    10030    2    1    2    0    0  0.00000000000E+00  0.00000000000E+00  0.59635569788E+03  0.20000569998E+04  0.19090803765E+04 0.  0.
        5    1    3    3  502    0 -0.78143489697E+03 -0.25915047130E+02  0.87182288453E+03  0.11710718679E+04  0.46999998093E+01 0.  1.
       -5    1    3    3    0  502  0.78143489697E+03  0.25915047130E+02 -0.27546718665E+03  0.82898513183E+03  0.46999998093E+01 0. -1.
</event>
<event>
 5   0  0.6395992E-05  0.1899187E+04  0.7818609E-02  0.8655261E-01
        2   -1    0    0  501    0  0.00000000000E+00  0.00000000000E+00  0.23266842540E+04  0.23266842540E+04  0.25500000920E-02 0.  1.
       -2   -1    0    0    0  501  0.00000000000E+00  0.00000000000E+00 -0.38755918484E+03  0.38755918485E+03  0.25500000920E-02 0. -1.
    10030    2    1    2    0    0  0.00000000000E+00  0.00000000000E+00  0.19391250692E+04  0.27142434389E+04  0.18991870396E+04 0.  0.
        4    1    3    3  502    0 -0.20451726181E+03 -0.24385150920E+03  0.22481904876E+04  0.22706062958E+04  0.12699999809E+01 0.  1.
       -4    1    3    3    0  502  0.20451726181E+03  0.24385150920E+03 -0.30906541846E+03  0.44363714307E+03  0.12699999809E+01 0. -1.
</event>
<event>
 5   0  0.3203527E-05  0.1912046E+04  0.7818609E-02  0.8648884E-01
       -1   -1    0    0    0  501  0.00000000000E+00  0.00000000000E+00  0.75000018565E+03  0.75000018567E+03  0.50400001928E-02 0. -1.
        1   -1    0    0  501    0  0.00000000000E+00  0.00000000000E+00 -0.12186392355E+04  0.12186392355E+04  0.50400001928E-02 0.  1.
    10030    2    1    2    0    0  0.00000000000E+00  0.00000000000E+00 -0.46863904985E+03  0.19686394212E+04  0.19120456615E+04 0.  0.
        1    1    3    3  502    0  0.93725835653E+03 -0.32703835203E+02 -0.43199617815E+02  0.93882318608E+03  0.50400001928E-02 0. -1.
       -1    1    3    3    0  502 -0.93725835653E+03  0.32703835203E+02 -0.42543943204E+03  0.10298162351E+04  0.50400001928E-02 0.  1.
</event>
<event>
 5   0  0.6098377E-05  0.1900388E+04  0.7818609E-02  0.8654664E-01
       -2   -1    0    0    0  501  0.00000000000E+00  0.00000000000E+00  0.93429941534E+03  0.93429941535E+03  0.25500000920E-02 0.  1.
        2   -1    0    0  501    0  0.00000000000E+00  0.00000000000E+00 -0.96635849094E+03  0.96635849094E+03  0.25500000920E-02 0. -1.
    10030    2    1    2    0    0  0.00000000000E+00  0.00000000000E+00 -0.32059075594E+02  0.19006579063E+04  0.19003875111E+04 0.  0.
        5    1    3    3  502    0 -0.65427824193E+03  0.11514206666E+03  0.66341119530E+03  0.93886858368E+03  0.46999998093E+01 0.  1.
       -5    1    3    3    0  502  0.65427824193E+03 -0.11514206666E+03 -0.69547027090E+03  0.96178932260E+03  0.46999998093E+01 0. -1.
</event>
<event>
 5   0  0.3147063E-05  0.1892816E+04  0.7818609E-02  0.8658441E-01
        1   -1    0    0  501    0  0.00000000000E+00  0.00000000000E+00  0.70307442234E+03  0.70307442236E+03  0.50400001928E-02 0.  1.
       -1   -1    0    0    0  501  0.00000000000E+00  0.00000000000E+00 -0.12739593009E+04  0.12739593009E+04  0.50400001928E-02 0. -1.
    10030    2    1    2    0    0  0.00000000000E+00  0.00000000000E+00 -0.57088487856E+03  0.19770337233E+04  0.18928161026E+04 0.  0.
        5    1    3    3  502    0  0.48398158439E+03  0.98682408218E+02  0.55774880831E+03  0.74503839826E+03  0.46999998093E+01 0.  1.
       -5    1    3    3    0  502 -0.48398158439E+03 -0.98682408218E+02 -0.11286336869E+04  0.12319953250E+04  0.46999998093E+01 0. -1.
</event>
<event>
 5   0  0.3147063E-05  0.1895758E+04  0.7818609E-02  0.8656971E-01
        1   -1    0    0  501    0  0.00000000000E+00  0.00000000000E+00  0.11085513696E+04  0.11085513696E+04  0.50400001928E-02 0. -1.
       -1   -1    0    0    0  501  0.00000000000E+00  0.00000000000E+00 -0.81049473693E+03  0.81049473695E+03  0.50400001928E-02 0.  1.
    10030    2    1    2    0    0  0.00000000000E+00  0.00000000000E+00  0.29805663267E+03  0.19190461066E+04  0.18957584769E+04 0.  0.
        5    1    3    3  502    0  0.10547717871E+03  0.33972710599E+03  0.10384067320E+04  0.10976568557E+04  0.46999998093E+01 0. -1.
       -5    1    3    3    0  502 -0.10547717871E+03 -0.33972710599E+03 -0.74035009936E+03  0.82138925084E+03  0.46999998093E+01 0.  1.
</event>
<event>
 5   0  0.6098377E-05  0.1907383E+04  0.7818609E-02  0.8651190E-01
       -2   -1    0    0    0  501  0.00000000000E+00  0.00000000000E+00  0.76978912187E+03  0.76978912187E+03  0.25500000920E-02 0.  1.
        2   -1    0    0  501    0  0.00000000000E+00  0.00000000000E+00 -0.11815286265E+04  0.11815286265E+04  0.25500000920E-02 0. -1.
    10030    2    1    2    0    0  0.00000000000E+00  0.00000000000E+00 -0.41173950461E+03  0.19513177484E+04  0.19073834264E+04 0.  0.
        5    1    3    3  502    0 -0.24441150877E+03  0.26863112978E+03  0.69626170363E+03  0.78530383894E+03  0.46999998093E+01 0.  1.
       -5    1    3    3    0  502  0.24441150877E+03 -0.26863112978E+03 -0.11080012082E+04  0.11660139094E+04  0.46999998093E+01 0. -1.
</event>
<event>
 5   0  0.3144958E-05  0.1902242E+04  0.7818609E-02  0.8653741E-01
        1   -1    0    0  501    0  0.00000000000E+00  0.00000000000E+00  0.16147881835E+04  0.16147881835E+04  0.50400001928E-02 0.  1.
       -1   -1    0    0    0  501  0.00000000000E+00  0.00000000000E+00 -0.56021667433E+03  0.56021667435E+03  0.50400001928E-02 0. -1.
    10030    2    1    2    0    0  0.00000000000E+00  0.00000000000E+00  0.10545715092E+04  0.21750048578E+04  0.19022421149E+04 0.  0.
        4    1    3    3  502    0  0.85273251482E+03  0.41676893567E+03  0.59758858649E+03  0.11215894165E+04  0.12699999809E+01 0.  1.
       -4    1    3    3    0  502 -0.85273251482E+03 -0.41676893567E+03  0.45698292266E+03  0.10534154414E+04  0.12699999809E+01 0. -1.
</event>
<event>
 5   0  0.3144958E-05  0.1778251E+04  0.7818609E-02  0.8717951E-01
       -1   -1    0    0    0  501  0.00000000000E+00  0.00000000000E+00  0.90422859310E+03  0.90422859312E+03  0.50400001928E-02 0.  1.
        1   -1    0    0  501    0  0.00000000000E+00  0.00000000000E+00 -0.87427509990E+03  0.87427509991E+03  0.50400001928E-02 0. -1.
    10030    2    1    2    0    0  0.00000000000E+00  0.00000000000E+00  0.29953493208E+02  0.17785036930E+04  0.17782514373E+04 0.  0.
        4    1    3    3  502    0 -0.39640295002E+03  0.66608512245E+03 -0.42067457775E+03  0.88191462307E+03  0.12699999809E+01 0. -1.
       -4    1    3    3    0  502  0.39640295002E+03 -0.66608512245E+03  0.45062807095E+03  0.89658906995E+03  0.12699999809E+01 0.  1.
</event>
<event>
 5   0  0.3147063E-05  0.1905231E+04  0.7818609E-02  0.8652257E-01
       -1   -1    0    0    0  501  0.00000000000E+00  0.00000000000E+00  0.61846103623E+03  0.61846103625E+03  0.50400001928E-02 0. -1.
        1   -1    0    0  501    0  0.00000000000E+00  0.00000000000E+00 -0.14673131597E+04  0.14673131597E+04  0.50400001928E-02 0.  1.
    10030    2    1    2    0    0  0.00000000000E+00  0.00000000000E+00 -0.84885212347E+03  0.20857741960E+04  0.19052307128E+04 0.  0.
        5    1    3    3  502    0 -0.63392147073E+03 -0.15101573355E+02  0.35383303214E+03  0.72615727855E+03  0.46999998093E+01 0. -1.
       -5    1    3    3    0  502  0.63392147073E+03  0.15101573355E+02 -0.12026851556E+04  0.13596169174E+04  0.46999998093E+01 0.  1.
</event>
<event>
 5   0  0.3144958E-05  0.1899029E+04  0.7818609E-02  0.8655340E-01
        1   -1    0    0  501    0  0.00000000000E+00  0.00000000000E+00  0.67596590648E+03  0.67596590650E+03  0.50400001928E-02 0.  1.
       -1   -1    0    0    0  501  0.00000000000E+00  0.00000000000E+00 -0.13337622944E+04  0.13337622944E+04  0.50400001928E-02 0. -1.
    10030    2    1    2    0    0  0.00000000000E+00  0.00000000000E+00 -0.65779638795E+03  0.20097282009E+04  0.18990290555E+04 0.  0.
        4    1    3    3  502    0  0.19755536809E+02 -0.91494474367E+03 -0.59675714765E+03  0.10925359817E+04  0.12699999809E+01 0.  1.
       -4    1    3    3    0  502 -0.19755536809E+02  0.91494474367E+03 -0.61039240298E+02  0.91719221920E+03  0.12699999809E+01 0. -1.
</event>
<event>
 5   0  0.3144958E-05  0.1904991E+04  0.7818609E-02  0.8652376E-01
       -1   -1    0    0    0  501  0.00000000000E+00  0.00000000000E+00  0.47651786924E+03  0.47651786927E+03  0.50400001928E-02 0.  1.
        1   -1    0    0  501    0  0.00000000000E+00  0.00000000000E+00 -0.19039105457E+04  0.19039105457E+04  0.50400001928E-02 0. -1.
    10030    2    1    2    0    0  0.00000000000E+00  0.00000000000E+00 -0.14273926764E+04  0.23804284150E+04  0.19049907050E+04 0.  0.
        4    1    3    3  502    0 -0.68500909587E+03 -0.65008414636E+01 -0.15406525115E+04  0.16860876301E+04  0.12699999809E+01 0. -1.
       -4    1    3    3    0  502  0.68500909587E+03  0.65008414636E+01  0.11325983505E+03  0.69434078484E+03  0.12699999809E+01 0.  1.
</event>
<event>
 5   0  0.3144958E-05  0.1864826E+04  0.7818609E-02  0.8672566E-01
        1   -1    0    0  501    0  0.00000000000E+00  0.00000000000E+00  0.98822256367E+03  0.98822256369E+03  0.50400001928E-02 0.  1.
       -1   -1    0    0    0  501  0.00000000000E+00  0.00000000000E+00 -0.87975492423E+03  0.87975492424E+03  0.50400001928E-02 0. -1.
    10030    2    1    2    0    0  0.00000000000E+00  0.00000000000E+00  0.10846763945E+03  0.18679774879E+04  0.18648256397E+04 0.  0.
        4    1    3    3  502    0 -0.59625148913E+03 -0.43683337822E+03 -0.51510418003E+03  0.90092905814E+03  0.12699999809E+01 0.  1.
       -4    1    3    3    0  502  0.59625148913E+03  0.43683337822E+03  0.62357181947E+03  0.96704842979E+03  0.12699999809E+01 0. -1.
</event>
<event>
 5   0  0.3203527E-05  0.1904502E+04  0.7818609E-02  0.8652619E-01
        1   -1    0    0  501    0  0.00000000000E+00  0.00000000000E+00  0.14433524012E+04  0.14433524013E+04  0.50400001928E-02 0. -1.
       -1   -1    0    0    0  501  0.00000000000E+00  0.00000000000E+00 -0.62824715370E+03  0.62824715372E+03  0.50400001928E-02 0.  1.
    10030    2    1    2    0    0  0.00000000000E+00  0.00000000000E+00  0.81510524754E+03  0.20715995550E+04  0.19045020745E+04 0.  0.
        1    1    3    3  502    0 -0.23649108615E+03 -0.19903798254E+03 -0.57215947475E+03  0.65031578244E+03  0.50400001928E-02 0.  1.
       -1    1    3    3    0  502  0.23649108615E+03  0.19903798254E+03  0.13872647223E+04  0.14212837725E+04  0.50400001928E-02 0. -1.
</event>
<event>
 5   0  0.6423388E-05  0.1980156E+04  0.7818609E-02  0.8615955E-01
        2   -1    0    0  501    0  0.00000000000E+00  0.00000000000E+00  0.45498411525E+03  0.45498411525E+03  0.25500000920E-02 0. -1.
       -2   -1    0    0    0  501  0.00000000000E+00  0.00000000000E+00 -0.21544803875E+04  0.21544803875E+04  0.25500000920E-02 0.  1.
    10030    2    1    2    0    0  0.00000000000E+00  0.00000000000E+00 -0.16994962723E+04  0.26094645028E+04  0.19801559059E+04 0.  0.
        2    1    3    3  502    0  0.55701691767E+03  0.20621907106E+03 -0.18936149723E+04  0.19845835369E+04  0.25500000920E-02 0.  1.
       -2    1    3    3    0  502 -0.55701691767E+03 -0.20621907106E+03  0.19411869996E+03  0.62488096588E+03  0.25500000920E-02 0. -1.
</event>
<event>
 5   0  0.3203527E-05  0.1902631E+04  0.7818609E-02  0.8653548E-01
       -1   -1    0    0    0  501  0.00000000000E+00  0.00000000000E+00  0.89471324992E+03  0.89471324993E+03  0.50400001928E-02 0.  1.
        1   -1    0    0  501    0  0.00000000000E+00  0.00000000000E+00 -0.10114981585E+04  0.10114981585E+04  0.50400001928E-02 0. -1.
    10030    2    1    2    0    0  0.00000000000E+00  0.00000000000E+00 -0.11678490857E+03  0.19062114084E+04  0.19026306049E+04 0.  0.
        1    1    3    3  502    0  0.57880119318E+03  0.37855038252E+03 -0.71283663521E+03  0.99320052450E+03  0.50400001928E-02 0. -1.
       -1    1    3    3    0  502 -0.57880119318E+03 -0.37855038252E+03  0.59605172664E+03  0.91301088394E+03  0.50400001928E-02 0.  1.
</event>
<event>
 5   0  0.3203527E-05  0.1901226E+04  0.7818609E-02  0.8654247E-01
       -1   -1    0    0    0  501  0.00000000000E+00  0.00000000000E+00  0.69732928716E+03  0.69732928717E+03  0.50400001928E-02 0. -1.
        1   -1    0    0  501    0  0.00000000000E+00  0.00000000000E+00 -0.12958938703E+04  0.12958938703E+04  0.50400001928E-02 0.  1.
    10030    2    1    2    0    0  0.00000000000E+00  0.00000000000E+00 -0.59856458312E+03  0.19932231575E+04  0.19012256561E+04 0.  0.
        1    1    3    3  502    0  0.10980103077E+03  0.93495320747E+03 -0.43785602554E+03  0.10382252480E+04  0.50400001928E-02 0.  1.
       -1    1    3    3    0  502 -0.10980103077E+03 -0.93495320747E+03 -0.16070855758E+03  0.95499790943E+03  0.50400001928E-02 0. -1.
</event>
<event>
 5   0  0.6098377E-05  0.1905245E+04  0.7818609E-02  0.8652250E-01
       -2   -1    0    0    0  501  0.00000000000E+00  0.00000000000E+00  0.49342186282E+03  0.49342186282E+03  0.25500000920E-02 0.  1.
        2   -1    0    0  501    0  0.00000000000E+00  0.00000000000E+00 -0.18391762079E+04  0.18391762079E+04  0.25500000920E-02 0. -1.
    10030    2    1    2    0    0  0.00000000000E+00  0.00000000000E+00 -0.13457543451E+04  0.23325980707E+04  0.19052451292E+04 0.  0.
        5    1    3    3  502    0  0.85164168780E+03  0.24545334054E+03 -0.11003795730E+04  0.14129395604E+04  0.46999998093E+01 0. -1.
       -5    1    3    3    0  502 -0.85164168780E+03 -0.24545334054E+03 -0.24537477209E+03  0.91965851030E+03  0.46999998093E+01 0.  1.
</event>
<event>
 5   0  0.2279625E-05  0.1925126E+04  0.7818609E-02  0.8642450E-01
        4   -1    0    0  501    0  0.00000000000E+00  0.00000000000E+00  0.16453005258E+04  0.16453010159E+04  0.12699999809E+01 0.  1.
       -4   -1    0    0    0  501  0.00000000000E+00  0.00000000000E+00 -0.56313445837E+03  0.56313589044E+03  0.12699999809E+01 0. -1.
    10030    2    1    2    0    0  0.00000000000E+00  0.00000000000E+00  0.10821660674E+04  0.22084369064E+04  0.19251260146E+04 0.  0.
        1    1    3    3  502    0 -0.25979232878E+03  0.44855114256E+03 -0.38934995746E+03  0.64829281269E+03  0.50400001928E-02 0. -1.
       -1    1    3    3    0  502  0.25979232878E+03 -0.44855114256E+03  0.14715160249E+04  0.15601440937E+04  0.50400001928E-02 0.  1.
</event>
<event>
 5   0  0.3083469E-05  0.1924406E+04  0.7818609E-02  0.8642802E-01
        1   -1    0    0  501    0  0.00000000000E+00  0.00000000000E+00  0.89471637595E+03  0.89471637596E+03  0.50400001928E-02 0. -1.
       -1   -1    0    0    0  501  0.00000000000E+00  0.00000000000E+00 -0.10347801120E+04  0.10347801120E+04  0.50400001928E-02 0.  1.
    10030    2    1    2    0    0  0.00000000000E+00  0.00000000000E+00 -0.14006373601E+03  0.19294964879E+04  0.19244061024E+04 0.  0.
        3    1    3    3  502    0  0.57446302095E+03 -0.18027768769E+03  0.68250452929E+03  0.91012100834E+03  0.10100000352E+00 0. -1.
       -3    1    3    3    0  502 -0.57446302095E+03  0.18027768769E+03 -0.82256826530E+03  0.10193754796E+04  0.10100000352E+00 0.  1.
</event>
<event>
 5   0  0.3144958E-05  0.1903004E+04  0.7818609E-02  0.8653362E-01
       -1   -1    0    0    0  501  0.00000000000E+00  0.00000000000E+00  0.32084853710E+03  0.32084853714E+03  0.50400001928E-02 0.  1.
        1   -1    0    0  501    0  0.00000000000E+00  0.00000000000E+00 -0.28217565448E+04  0.28217565449E+04  0.50400001928E-02 0. -1.
    10030    2    1    2    0    0  0.00000000000E+00  0.00000000000E+00 -0.25009080077E+04  0.31426050820E+04  0.19030044241E+04 0.  0.
        4    1    3    3  502    0 -0.13726915918E+03 -0.70651192912E+03 -0.22266627818E+03  0.75338158485E+03  0.12699999809E+01 0.  1.
       -4    1    3    3    0  502  0.13726915918E+03  0.70651192912E+03 -0.22782417296E+04  0.23892234971E+04  0.12699999809E+01 0. -1.
</event>
<event>
 5   0  0.3144958E-05  0.1903654E+04  0.7818609E-02  0.8653040E-01
        1   -1    0    0  501    0  0.00000000000E+00  0.00000000000E+00  0.89527931197E+03  0.89527931198E+03  0.50400001928E-02 0.  1.
       -1   -1    0    0    0  501  0.00000000000E+00  0.00000000000E+00 -0.10119465155E+04  0.10119465155E+04  0.50400001928E-02 0. -1.
    10030    2    1    2    0    0  0.00000000000E+00  0.00000000000E+00 -0.11666720354E+03  0.19072258275E+04  0.19036541494E+04 0.  0.
        4    1    3    3  502    0  0.64152608933E+02  0.28815960518E+03 -0.96491901806E+03  0.10090697893E+04  0.12699999809E+01 0. -1.
       -4    1    3    3    0  502 -0.64152608933E+02 -0.28815960518E+03  0.84825181452E+03  0.89815603824E+03  0.12699999809E+01 0.  1.
</event>
<event>
 5   0  0.6395992E-05  0.1899658E+04  0.7818609E-02  0.8655026E-01
        2   -1    0    0  501    0  0.00000000000E+00  0.00000000000E+00  0.30039403510E+04  0.30039403510E+04  0.25500000920E-02 0. -1.
       -2   -1    0    0    0  501  0.00000000000E+00  0.00000000000E+00 -0.30033067896E+03  0.30033067897E+03  0.25500000920E-02 0.  1.
    10030    2    1    2    0    0  0.00000000000E+00  0.00000000000E+00  0.27036096721E+04  0.33042710300E+04  0.18996583326E+04 0.  0.
        4    1    3    3  502    0 -0.43251868282E+03 -0.16765064096E+03  0.27935113277E+04  0.28317638142E+04  0.12699999809E+01 0. -1.
       -4    1    3    3    0  502  0.43251868282E+03  0.16765064096E+03 -0.89901655644E+02  0.47250721581E+03  0.12699999809E+01 0.  1.
</event>
<event>
 5   0  0.2279625E-05  0.1892932E+04  0.7818609E-02  0.8658383E-01
        3   -1    0    0  501    0  0.00000000000E+00  0.00000000000E+00  0.97430848193E+03  0.97430848717E+03  0.10100000352E+00 0.  1.
       -3   -1    0    0    0  501  0.00000000000E+00  0.00000000000E+00 -0.91941926626E+03  0.91941927181E+03  0.10100000352E+00 0. -1.
    10030    2    1    2    0    0  0.00000000000E+00  0.00000000000E+00  0.54889215667E+02  0.18937277590E+04  0.18929321169E+04 0.  0.
        3    1    3    3  502    0 -0.45152435413E+03 -0.78704264669E+03 -0.24190380717E+03  0.93905688444E+03  0.10100000352E+00 0. -1.
       -3    1    3    3    0  502  0.45152435413E+03  0.78704264669E+03  0.29679302284E+03  0.95467087454E+03  0.10100000352E+00 0.  1.
</event>
<event>
 5   0  0.3083469E-05  0.1933826E+04  0.7818609E-02  0.8638200E-01
       -1   -1    0    0    0  501  0.00000000000E+00  0.00000000000E+00  0.49013504343E+03  0.49013504345E+03  0.50400001928E-02 0. -1.
        1   -1    0    0  501    0  0.00000000000E+00  0.00000000000E+00 -0.19074764265E+04  0.19074764265E+04  0.50400001928E-02 0.  1.
    10030    2    1    2    0    0  0.00000000000E+00  0.00000000000E+00 -0.14173413831E+04  0.23976114699E+04  0.19338263016E+04 0.  0.
        3    1    3    3  502    0 -0.31435654180E+03  0.91267555268E+03 -0.77797175087E+03  0.12397728644E+04  0.10100000352E+00 0. -1.
       -3    1    3    3    0  502  0.31435654180E+03 -0.91267555268E+03 -0.63936963219E+03  0.11578386056E+04  0.10100000352E+00 0.  1.
</event>
<event>
 5   0  0.6423388E-05  0.1897045E+04  0.7818609E-02  0.8656329E-01
        2   -1    0    0  501    0  0.00000000000E+00  0.00000000000E+00  0.10474351850E+04  0.10474351850E+04  0.25500000920E-02 0. -1.
       -2   -1    0    0    0  501  0.00000000000E+00  0.00000000000E+00 -0.85895065468E+03  0.85895065468E+03  0.25500000920E-02 0.  1.
    10030    2    1    2    0    0  0.00000000000E+00  0.00000000000E+00  0.18848453033E+03  0.19063858397E+04  0.18970452160E+04 0.  0.
        2    1    3    3  502    0  0.66874646102E+01  0.60010553150E+03 -0.64389717555E+03  0.88021301048E+03  0.25500000920E-02 0.  1.
       -2    1    3    3    0  502 -0.66874646102E+01 -0.60010553150E+03  0.83238170588E+03  0.10261728292E+04  0.25500000920E-02 0. -1.
</event>
<event>
 5   0  0.6098377E-05  0.1935131E+04  0.7818609E-02  0.8637565E-01
        2   -1    0    0  501    0  0.00000000000E+00  0.00000000000E+00  0.10713019229E+04  0.10713019229E+04  0.25500000920E-02 0.  1.
       -2   -1    0    0    0  501  0.00000000000E+00  0.00000000000E+00 -0.87387365841E+03  0.87387365841E+03  0.25500000920E-02 0. -1.
    10030    2    1    2    0    0  0.00000000000E+00  0.00000000000E+00  0.19742826448E+03  0.19451755813E+04  0.19351305182E+04 0.  0.
        5    1    3    3  502    0  0.84452092245E+03 -0.58830196356E+02 -0.37220880247E+03  0.92479082127E+03  0.46999998093E+01 0. -1.
       -5    1    3    3    0  502 -0.84452092245E+03  0.58830196356E+02  0.56963706695E+03  0.10203847600E+04  0.46999998093E+01 0.  1.
</event>
<event>
 5   0  0.6452182E-05  0.1886217E+04  0.7818609E-02  0.8661748E-01
       -2   -1    0    0    0  501  0.00000000000E+00  0.00000000000E+00  0.54243931410E+03  0.54243931410E+03  0.25500000920E-02 0.  1.
        2   -1    0    0  501    0  0.00000000000E+00  0.00000000000E+00 -0.16397286519E+04  0.16397286519E+04  0.25500000920E-02 0. -1.
    10030    2    1    2    0    0  0.00000000000E+00  0.00000000000E+00 -0.10972893378E+04  0.21821679660E+04  0.18862166209E+04 0.  0.
        3    1    3    3  502    0  0.20059002643E+03  0.41509343201E+03 -0.15004836177E+04  0.15697101686E+04  0.10100000352E+00 0. -1.
       -3    1    3    3    0  502 -0.20059002643E+03 -0.41509343201E+03  0.40319427997E+03  0.61245779740E+03  0.10100000352E+00 0.  1.
</event>
<event>
 5   0  0.3086139E-05  0.1901721E+04  0.7818609E-02  0.8654000E-01
       -1   -1    0    0    0  501  0.00000000000E+00  0.00000000000E+00  0.17788358475E+04  0.17788358475E+04  0.50400001928E-02 0.  1.
        1   -1    0    0  501    0  0.00000000000E+00  0.00000000000E+00 -0.50827359870E+03  0.50827359872E+03  0.50400001928E-02 0. -1.
    10030    2    1    2    0    0  0.00000000000E+00  0.00000000000E+00  0.12705622488E+04  0.22871094462E+04  0.19017205870E+04 0.  0.
        2    1    3    3  502    0 -0.62169251974E+03  0.61645308009E+03  0.10814301262E+04  0.13914047243E+04  0.25500000920E-02 0.  1.
       -2    1    3    3    0  502  0.62169251974E+03 -0.61645308009E+03  0.18913212265E+03  0.89570472193E+03  0.25500000920E-02 0. -1.
</event>
<event>
 5   0  0.6452182E-05  0.1898926E+04  0.7818609E-02  0.8655391E-01
        2   -1    0    0  501    0  0.00000000000E+00  0.00000000000E+00  0.22888073715E+04  0.22888073715E+04  0.25500000920E-02 0. -1.
       -2   -1    0    0    0  501  0.00000000000E+00  0.00000000000E+00 -0.39386430586E+03  0.39386430587E+03  0.25500000920E-02 0.  1.
    10030    2    1    2    0    0  0.00000000000E+00  0.00000000000E+00  0.18949430656E+04  0.26826716774E+04  0.18989255137E+04 0.  0.
        3    1    3    3  502    0  0.98492746845E+02  0.83076476008E+03  0.15817998960E+04  0.17894026459E+04  0.10100000352E+00 0. -1.
       -3    1    3    3    0  502 -0.98492746845E+02 -0.83076476008E+03  0.31314316962E+03  0.89326903151E+03  0.10100000352E+00 0.  1.
</event>
<event>
 5   0  0.3147063E-05  0.1900786E+04  0.7818609E-02  0.8654465E-01
       -1   -1    0    0    0  501  0.00000000000E+00  0.00000000000E+00  0.64350384212E+03  0.64350384214E+03  0.50400001928E-02 0. -1.
        1   -1    0    0  501    0  0.00000000000E+00  0.00000000000E+00 -0.14036379817E+04  0.14036379817E+04  0.50400001928E-02 0.  1.
    10030    2    1    2    0    0  0.00000000000E+00  0.00000000000E+00 -0.76013413954E+03  0.20471418238E+04  0.19007855578E+04 0.  0.
        5    1    3    3  502    0  0.11905090485E+03  0.79715074562E+03 -0.92243134065E+03  0.12249588146E+04  0.46999998093E+01 0.  1.
       -5    1    3    3    0  502 -0.11905090485E+03 -0.79715074562E+03  0.16229720111E+03  0.82218300923E+03  0.46999998093E+01 0. -1.
</event>
<event>
 5   0  0.3083469E-05  0.1904123E+04  0.7818609E-02  0.8652807E-01
       -1   -1    0    0    0  501  0.00000000000E+00  0.00000000000E+00  0.63187293295E+03  0.63187293297E+03  0.50400001928E-02 0.  1.
        1   -1    0    0  501    0  0.00000000000E+00  0.00000000000E+00 -0.14344988022E+04  0.14344988022E+04  0.50400001928E-02 0. -1.
    10030    2    1    2    0    0  0.00000000000E+00  0.00000000000E+00 -0.80262586929E+03  0.20663717352E+04  0.19041228590E+04 0.  0.
        3    1    3    3  502    0 -0.84024291171E+02  0.25774916502E+03  0.58910103742E+03  0.64848651186E+03  0.10100000352E+00 0.  1.
       -3    1    3    3    0  502  0.84024291171E+02 -0.25774916502E+03 -0.13917269067E+04  0.14178852234E+04  0.10100000352E+00 0. -1.
</event>
<event>
 5   0  0.3144958E-05  0.1884255E+04  0.7818609E-02  0.8662734E-01
       -1   -1    0    0    0  501  0.00000000000E+00  0.00000000000E+00  0.86330584481E+03  0.86330584482E+03  0.50400001928E-02 0.  1.
        1   -1    0    0  501    0  0.00000000000E+00  0.00000000000E+00 -0.10281456121E+04  0.10281456121E+04  0.50400001928E-02 0. -1.
    10030    2    1    2    0    0  0.00000000000E+00  0.00000000000E+00 -0.16483976731E+03  0.18914514570E+04  0.18842548833E+04 0.  0.
        4    1    3    3  502    0 -0.49805394974E+03 -0.79135226935E+03 -0.19821361784E+03  0.95581713851E+03  0.12699999809E+01 0.  1.
       -4    1    3    3    0  502  0.49805394974E+03  0.79135226935E+03  0.33373850531E+02  0.93563431845E+03  0.12699999809E+01 0. -1.
</event>
<event>
 5   0  0.6395992E-05  0.1890370E+04  0.7818609E-02  0.8659665E-01
       -2   -1    0    0    0  501  0.00000000000E+00  0.00000000000E+00  0.51377601831E+03  0.51377601831E+03  0.25500000920E-02 0.  1.
        2   -1    0    0  501    0  0.00000000000E+00  0.00000000000E+00 -0.17388406386E+04  0.17388406386E+04  0.25500000920E-02 0. -1.
    10030    2    1    2    0    0  0.00000000000E+00  0.00000000000E+00 -0.12250646203E+04  0.22526166569E+04  0.18903699318E+04 0.  0.
        4    1    3    3  502    0 -0.43001673745E+03 -0.64554250246E+03 -0.12561583909E+04  0.14763383870E+04  0.12699999809E+01 0. -1.
       -4    1    3    3    0  502  0.43001673745E+03  0.64554250246E+03  0.31093770554E+02  0.77627826997E+03  0.12699999809E+01 0.  1.
</event>
<event>
 5   0  0.3144958E-05  0.1904360E+04  0.7818609E-02  0.8652689E-01
       -1   -1    0    0    0  501  0.00000000000E+00  0.00000000000E+00  0.73231086376E+03  0.73231086377E+03  0.50400001928E-02 0. -1.
        1   -1    0    0  501    0  0.00000000000E+00  0.00000000000E+00 -0.12380628892E+04  0.12380628892E+04  0.50400001928E-02 0.  1.
    10030    2    1    2    0    0  0.00000000000E+00  0.00000000000E+00 -0.50575202543E+03  0.19703737530E+04  0.19043601590E+04 0.  0.
        4    1    3    3  502    0  0.38407049622E+03  0.25771034785E+03 -0.11140255121E+04  0.12062251962E+04  0.12699999809E+01 0.  1.
       -4    1    3    3    0  502 -0.38407049622E+03 -0.25771034785E+03  0.60827348662E+03  0.76414855681E+03  0.12699999809E+01 0. -1.
</event>
<event>
 5   0  0.6098377E-05  0.1898851E+04  0.7818609E-02  0.8655429E-01
        2   -1    0    0  501    0  0.00000000000E+00  0.00000000000E+00  0.12801494641E+04  0.12801494641E+04  0.25500000920E-02 0.  1.
       -2   -1    0    0    0  501  0.00000000000E+00  0.00000000000E+00 -0.70414303950E+03  0.70414303950E+03  0.25500000920E-02 0. -1.
    10030    2    1    2    0    0  0.00000000000E+00  0.00000000000E+00  0.57600642461E+03  0.19842925036E+04  0.18988505309E+04 0.  0.
        5    1    3    3  502    0 -0.89081179009E+02 -0.56546892982E+03  0.10795119258E+04  0.12219077931E+04  0.46999998093E+01 0.  1.
       -5    1    3    3    0  502  0.89081179009E+02  0.56546892982E+03 -0.50350550117E+03  0.76238471047E+03  0.46999998093E+01 0. -1.
</event>
<event>
 5   0  0.3083469E-05  0.1899550E+04  0.7818609E-02  0.8655080E-01
       -1   -1    0    0    0  501  0.00000000000E+00  0.00000000000E+00  0.85311122638E+03  0.85311122640E+03  0.50400001928E-02 0.  1.
        1   -1    0    0  501    0  0.00000000000E+00  0.00000000000E+00 -0.10573919547E+04  0.10573919547E+04  0.50400001928E-02 0. -1.
    10030    2    1    2    0    0  0.00000000000E+00  0.00000000000E+00 -0.20428072828E+03  0.19105031811E+04  0.18995504176E+04 0.  0.
        3    1    3    3  502    0  0.74797334421E+03  0.56711389454E+03 -0.24785723000E+03  0.97083237982E+03  0.10100000352E+00 0.  1.
       -3    1    3    3    0  502 -0.74797334421E+03 -0.56711389454E+03  0.43576501715E+02  0.93967080126E+03  0.10100000352E+00 0. -1.
</event>
<event>
 5   0  0.6423388E-05  0.1906052E+04  0.7818609E-02  0.8651850E-01
        2   -1    0    0  501    0  0.00000000000E+00  0.00000000000E+00  0.91846411514E+03  0.91846411515E+03  0.25500000920E-02 0. -1.
       -2   -1    0    0    0  501  0.00000000000E+00  0.00000000000E+00 -0.98888847539E+03  0.98888847540E+03  0.25500000920E-02 0.  1.
    10030    2    1    2    0    0  0.00000000000E+00  0.00000000000E+00 -0.70424360248E+02  0.19073525905E+04  0.19060520229E+04 0.  0.
        2    1    3    3  502    0  0.20938405792E+03  0.92858666641E+03  0.11119496036E+02  0.95196561070E+03  0.25500000920E-02 0.  1.
       -2    1    3    3    0  502 -0.20938405792E+03 -0.92858666641E+03 -0.81543856283E+02  0.95538697984E+03  0.25500000920E-02 0. -1.
</event>
<event>
 5   0  0.6395992E-05  0.1914691E+04  0.7818609E-02  0.8647578E-01
       -2   -1    0    0    0  501  0.00000000000E+00  0.00000000000E+00  0.77531248279E+03  0.77531248279E+03  0.25500000920E-02 0. -1.
        2   -1    0    0  501    0  0.00000000000E+00  0.00000000000E+00 -0.11821171666E+04  0.11821171666E+04  0.25500000920E-02 0.  1.
    10030    2    1    2    0    0  0.00000000000E+00  0.00000000000E+00 -0.40680468381E+03  0.19574296494E+04  0.19146907796E+04 0.  0.
        4    1    3    3  502    0  0.74739632655E+03 -0.59066070653E+03 -0.10626972479E+03  0.95852814590E+03  0.12699999809E+01 0. -1.
       -4    1    3    3    0  502 -0.74739632655E+03  0.59066070653E+03 -0.30053495901E+03  0.99890150349E+03  0.12699999809E+01 0.  1.
</event>
<event>
 5   0  0.6423388E-05  0.1900081E+04  0.7818609E-02  0.8654816E-01
        2   -1    0    0  501    0  0.00000000000E+00  0.00000000000E+00  0.71918948648E+03  0.71918948648E+03  0.25500000920E-02 0.  1.
       -2   -1    0    0    0  501  0.00000000000E+00  0.00000000000E+00 -0.12549923786E+04  0.12549923786E+04  0.25500000920E-02 0. -1.
    10030    2    1    2    0    0  0.00000000000E+00  0.00000000000E+00 -0.53580289207E+03  0.19741818650E+04  0.19000813922E+04 0.  0.
        2    1    3    3  502    0 -0.48252797036E+03 -0.44843383687E+03 -0.97918015484E+03  0.11801355532E+04  0.25500000920E-02 0. -1.
       -2    1    3    3    0  502  0.48252797036E+03  0.44843383687E+03  0.44337726277E+03  0.79404631186E+03  0.25500000920E-02 0.  1.
</event>
<event>
 5   0  0.3144958E-05  0.1896279E+04  0.7818609E-02  0.8656711E-01
       -1   -1    0    0    0  501  0.00000000000E+00  0.00000000000E+00  0.11257171763E+04  0.11257171763E+04  0.50400001928E-02 0. -1.
        1   -1    0    0  501    0  0.00000000000E+00  0.00000000000E+00 -0.79857364779E+03  0.79857364780E+03  0.50400001928E-02 0.  1.
    10030    2    1    2    0    0  0.00000000000E+00  0.00000000000E+00  0.32714352855E+03  0.19242908241E+04  0.18962785364E+04 0.  0.
        4    1    3    3  502    0 -0.25145688729E+03  0.85230372526E+03  0.49908292754E+03  0.10191847662E+04  0.12699999809E+01 0. -1.
       -4    1    3    3    0  502  0.25145688729E+03 -0.85230372526E+03 -0.17193939899E+03  0.90510605792E+03  0.12699999809E+01 0.  1.
</event>
<event>
 5   0  0.6098377E-05  0.1891681E+04  0.7818609E-02  0.8659008E-01
        2   -1    0    0  501    0  0.00000000000E+00  0.00000000000E+00  0.98971604809E+03  0.98971604810E+03  0.25500000920E-02 0. -1.
       -2   -1    0    0    0  501  0.00000000000E+00  0.00000000000E+00 -0.90390994085E+03  0.90390994086E+03  0.25500000920E-02 0.  1.
    10030    2    1    2    0    0  0.00000000000E+00  0.00000000000E+00  0.85806107240E+02  0.18936259890E+04  0.18916809187E+04 0.  0.
        5    1    3    3  502    0 -0.78475886422E+03  0.19958892483E+03  0.53218970638E+03  0.96898410073E+03  0.46999998093E+01 0. -1.
       -5    1    3    3    0  502  0.78475886422E+03 -0.19958892483E+03 -0.44638359914E+03  0.92464188823E+03  0.46999998093E+01 0.  1.
</event>
<event>
 5   0  0.3086139E-05  0.1785815E+04  0.7818609E-02  0.8713880E-01
        1   -1    0    0  501    0  0.00000000000E+00  0.00000000000E+00  0.12176587016E+04  0.12176587017E+04  0.50400001928E-02 0. -1.
       -1   -1    0    0    0  501  0.00000000000E+00  0.00000000000E+00 -0.65476760549E+03  0.65476760551E+03  0.50400001928E-02 0.  1.
    10030    2    1    2    0    0  0.00000000000E+00  0.00000000000E+00  0.56289109615E+03  0.18724263072E+04  0.17858146291E+04 0.  0.
        2    1    3    3  502    0 -0.89219137729E+03  0.30263632463E+02  0.30139823384E+03  0.94221135449E+03  0.25500000920E-02 0. -1.
       -2    1    3    3    0  502  0.89219137729E+03 -0.30263632463E+02  0.26149286231E+03  0.93021495268E+03  0.25500000920E-02 0.  1.
</event>
<event>
 5   0  0.3203527E-05  0.1905194E+04  0.7818609E-02  0.8652276E-01
        1   -1    0    0  501    0  0.00000000000E+00  0.00000000000E+00  0.93380717768E+03  0.93380717770E+03  0.50400001928E-02 0.  1.
       -1   -1    0    0    0  501  0.00000000000E+00  0.00000000000E+00 -0.97176450821E+03  0.97176450822E+03  0.50400001928E-02 0. -1.
    10030    2    1    2    0    0  0.00000000000E+00  0.00000000000E+00 -0.37957330523E+02  0.19055716859E+04  0.19051936099E+04 0.  0.
        1    1    3    3  502    0 -0.26992071611E+03 -0.59223541448E+02  0.89283597068E+03  0.93462328851E+03  0.50400001928E-02 0.  1.
       -1    1    3    3    0  502  0.26992071611E+03  0.59223541448E+02 -0.93079330120E+03  0.97094839741E+03  0.50400001928E-02 0. -1.
</event>
<event>
 5   0  0.3147063E-05  0.1892309E+04  0.7818609E-02  0.8658694E-01
        1   -1    0    0  501    0  0.00000000000E+00  0.00000000000E+00  0.11677930974E+04  0.11677930974E+04  0.50400001928E-02 0.  1.
       -1   -1    0    0    0  501  0.00000000000E+00  0.00000000000E+00 -0.76658131456E+03  0.76658131458E+03  0.50400001928E-02 0. -1.
    10030    2    1    2    0    0  0.00000000000E+00  0.00000000000E+00  0.40121178287E+03  0.19343744120E+04  0.18923090316E+04 0.  0.
        5    1    3    3  502    0 -0.85719755973E+02 -0.23472918882E+03 -0.73222592097E+03  0.77370702335E+03  0.46999998093E+01 0. -1.
       -5    1    3    3    0  502  0.85719755973E+02  0.23472918882E+03  0.11334377038E+04  0.11606673887E+04  0.46999998093E+01 0.  1.
</event>
<event>
 5   0  0.3144958E-05  0.1891728E+04  0.7818609E-02  0.8658985E-01
       -1   -1    0    0    0  501  0.00000000000E+00  0.00000000000E+00  0.12053029680E+04  0.12053029681E+04  0.50400001928E-02 0. -1.
        1   -1    0    0  501    0  0.00000000000E+00  0.00000000000E+00 -0.74226884217E+03  0.74226884219E+03  0.50400001928E-02 0.  1.
    10030    2    1    2    0    0  0.00000000000E+00  0.00000000000E+00  0.46303412587E+03  0.19475718102E+04  0.18917281396E+04 0.  0.
        4    1    3    3  502    0  0.92543980078E+03 -0.13275781267E+03  0.83775523024E+02  0.93866043533E+03  0.12699999809E+01 0.  1.
       -4    1    3    3    0  502 -0.92543980078E+03  0.13275781267E+03  0.37925860285E+03  0.10089113749E+04  0.12699999809E+01 0. -1.
</event>
<event>
 5   0  0.6361762E-05  0.1897397E+04  0.7818609E-02  0.8656153E-01
       -2   -1    0    0    0  501  0.00000000000E+00  0.00000000000E+00  0.12301300468E+04  0.12301300468E+04  0.25500000920E-02 0.  1.
        2   -1    0    0  501    0  0.00000000000E+00  0.00000000000E+00 -0.73165324939E+03  0.73165324939E+03  0.25500000920E-02 0. -1.
    10030    2    1    2    0    0  0.00000000000E+00  0.00000000000E+00  0.49847679741E+03  0.19617832962E+04  0.18973967913E+04 0.  0.
        1    1    3    3  502    0  0.17058128025E+03 -0.60039784709E+02 -0.71366789986E+03  0.73622321359E+03  0.50400001928E-02 0. -1.
       -1    1    3    3    0  502 -0.17058128025E+03  0.60039784709E+02  0.12121446973E+04  0.12255600826E+04  0.50400001928E-02 0.  1.
</event>
<event>
 5   0  0.3203527E-05  0.1900261E+04  0.7818609E-02  0.8654727E-01
       -1   -1    0    0    0  501  0.00000000000E+00  0.00000000000E+00  0.70250244668E+03  0.70250244670E+03  0.50400001928E-02 0. -1.
        1   -1    0    0  501    0  0.00000000000E+00  0.00000000000E+00 -0.12850458656E+04  0.12850458656E+04  0.50400001928E-02 0.  1.
    10030    2    1    2    0    0  0.00000000000E+00  0.00000000000E+00 -0.58254341894E+03  0.19875483123E+04  0.19002608923E+04 0.  0.
        1    1    3    3  502    0  0.79272021763E+03  0.75146104975E+02  0.25089734804E+03  0.83486631254E+03  0.50400001928E-02 0. -1.
       -1    1    3    3    0  502 -0.79272021763E+03 -0.75146104975E+02 -0.83344076699E+03  0.11526819998E+04  0.50400001928E-02 0.  1.
</event>
<event>
 5   0  0.6452182E-05  0.1901377E+04  0.7818609E-02  0.8654171E-01
       -2   -1    0    0    0  501  0.00000000000E+00  0.00000000000E+00  0.41077053015E+03  0.41077053015E+03  0.25500000920E-02 0. -1.
        2   -1    0    0  501    0  0.00000000000E+00  0.00000000000E+00 -0.22002760133E+04  0.22002760133E+04  0.25500000920E-02 0.  1.
    10030    2    1    2    0    0  0.00000000000E+00  0.00000000000E+00 -0.17895054831E+04  0.26110465434E+04  0.19013769163E+04 0.  0.
        3    1    3    3  502    0  0.85448462585E+03  0.39990196105E+03 -0.73376720726E+03  0.11951903108E+04  0.10100000352E+00 0. -1.
       -3    1    3    3    0  502 -0.85448462585E+03 -0.39990196105E+03 -0.10557382758E+04  0.14158562327E+04  0.10100000352E+00 0.  1.
</event>
<event>
 5   0  0.6361762E-05  0.1881288E+04  0.7818609E-02  0.8664227E-01
       -2   -1    0    0    0  501  0.00000000000E+00  0.00000000000E+00  0.75539828251E+03  0.75539828251E+03  0.25500000920E-02 0.  1.
        2   -1    0    0  501    0  0.00000000000E+00  0.00000000000E+00 -0.11713173521E+04  0.11713173521E+04  0.25500000920E-02 0. -1.
    10030    2    1    2    0    0  0.00000000000E+00  0.00000000000E+00 -0.41591906959E+03  0.19267156346E+04  0.18812879801E+04 0.  0.
        1    1    3    3  502    0  0.19915284772E+03  0.63592081944E+03 -0.88788366999E+03  0.11101326753E+04  0.50400001928E-02 0. -1.
       -1    1    3    3    0  502 -0.19915284772E+03 -0.63592081944E+03  0.47196460040E+03  0.81658295929E+03  0.50400001928E-02 0.  1.
</event>
<event>
 5   0  0.6361762E-05  0.1915714E+04  0.7818609E-02  0.8647074E-01
       -2   -1    0    0    0  501  0.00000000000E+00  0.00000000000E+00  0.15210418752E+04  0.15210418752E+04  0.25500000920E-02 0. -1.
        2   -1    0    0  501    0  0.00000000000E+00  0.00000000000E+00 -0.60319844291E+03  0.60319844292E+03  0.25500000920E-02 0.  1.
    10030    2    1    2    0    0  0.00000000000E+00  0.00000000000E+00  0.91784343226E+03  0.21242403181E+04  0.19157140608E+04 0.  0.
        1    1    3    3  502    0  0.66240958879E+03 -0.13748865005E+02  0.12259662076E+04  0.13935453480E+04  0.50400001928E-02 0. -1.
       -1    1    3    3    0  502 -0.66240958879E+03  0.13748865005E+02 -0.30812277538E+03  0.73069497011E+03  0.50400001928E-02 0.  1.
</event>
<event>
 5   0  0.6098377E-05  0.1766951E+04  0.7818609E-02  0.8724074E-01
       -2   -1    0    0    0  501  0.00000000000E+00  0.00000000000E+00  0.68315812102E+03  0.68315812102E+03  0.25500000920E-02 0. -1.
        2   -1    0    0  501    0  0.00000000000E+00  0.00000000000E+00 -0.11425309202E+04  0.11425309202E+04  0.25500000920E-02 0.  1.
    10030    2    1    2    0    0  0.00000000000E+00  0.00000000000E+00 -0.45937279922E+03  0.18256890413E+04  0.17669513595E+04 0.  0.
        5    1    3    3  502    0 -0.10717111844E+03 -0.73676293431E+03  0.26173080204E+03  0.78919602935E+03  0.46999998093E+01 0. -1.
       -5    1    3    3    0  502  0.10717111844E+03  0.73676293431E+03 -0.72110360126E+03  0.10364930119E+04  0.46999998093E+01 0.  1.
</event>
<event>
 5   0  0.3147063E-05  0.1905025E+04  0.7818609E-02  0.8652359E-01
       -1   -1    0    0    0  501  0.00000000000E+00  0.00000000000E+00  0.10937575370E+04  0.10937575370E+04  0.50400001928E-02 0.  1.
        1   -1    0    0  501    0  0.00000000000E+00  0.00000000000E+00 -0.82950769790E+03  0.82950769792E+03  0.50400001928E-02 0. -1.
    10030    2    1    2    0    0  0.00000000000E+00  0.00000000000E+00  0.26424983911E+03  0.19232652349E+04  0.19050252456E+04 0.  0.
        5    1    3    3  502    0 -0.65992620369E+03  0.36349633424E+03 -0.45622937591E+03  0.88079481877E+03  0.46999998093E+01 0. -1.
       -5    1    3    3    0  502  0.65992620369E+03 -0.36349633424E+03  0.72047921502E+03  0.10424704162E+04  0.46999998093E+01 0.  1.
</event>
<event>
 5   0  0.6452182E-05  0.1935959E+04  0.7818609E-02  0.8637162E-01
       -2   -1    0    0    0  501  0.00000000000E+00  0.00000000000E+00  0.95953566063E+03  0.95953566063E+03  0.25500000920E-02 0. -1.
        2   -1    0    0  501    0  0.00000000000E+00  0.00000000000E+00 -0.97649730873E+03  0.97649730874E+03  0.25500000920E-02 0.  1.
    10030    2    1    2    0    0  0.00000000000E+00  0.00000000000E+00 -0.16961648105E+02  0.19360329694E+04  0.19359586672E+04 0.  0.
        3    1    3    3  502    0  0.10210010944E+03  0.94053004020E+03  0.19637525301E+03  0.96622173390E+03  0.10100000352E+00 0. -1.
       -3    1    3    3    0  502 -0.10210010944E+03 -0.94053004020E+03 -0.21333690112E+03  0.96981123547E+03  0.10100000352E+00 0.  1.
</event>
<event>
 5   0  0.3086139E-05  0.1817311E+04  0.7818609E-02  0.8697147E-01
       -1   -1    0    0    0  501  0.00000000000E+00  0.00000000000E+00  0.50469229057E+03  0.50469229060E+03  0.50400001928E-02 0. -1.
        1   -1    0    0  501    0  0.00000000000E+00  0.00000000000E+00 -0.16359568168E+04  0.16359568168E+04  0.50400001928E-02 0.  1.
    10030    2    1    2    0    0  0.00000000000E+00  0.00000000000E+00 -0.11312645262E+04  0.21406491074E+04  0.18173109730E+04 0.  0.
        2    1    3    3  502    0 -0.21129775696E+03  0.67386476020E+03  0.10786094154E+03  0.71440495509E+03  0.25500000920E-02 0.  1.
       -2    1    3    3    0  502  0.21129775696E+03 -0.67386476020E+03 -0.12391254678E+04  0.14262441523E+04  0.25500000920E-02 0. -1.
</event>
<event>
 5   0  0.3203527E-05  0.1885728E+04  0.7818609E-02  0.8661993E-01
       -1   -1    0    0    0  501  0.00000000000E+00  0.00000000000E+00  0.93922692484E+03  0.93922692485E+03  0.50400001928E-02 0. -1.
        1   -1    0    0  501    0  0.00000000000E+00  0.00000000000E+00 -0.94651536444E+03  0.94651536445E+03  0.50400001928E-02 0.  1.
    10030    2    1    2    0    0  0.00000000000E+00  0.00000000000E+00 -0.72884395960E+01  0.18857422893E+04  0.18857282043E+04 0.  0.
        1    1    3    3  502    0  0.46320205184E+03 -0.80808826875E+03 -0.15003494445E+03  0.94343694835E+03  0.50400001928E-02 0. -1.
       -1    1    3    3    0  502 -0.46320205184E+03  0.80808826875E+03  0.14274650486E+03  0.94230534096E+03  0.50400001928E-02 0.  1.
</event>
<event>
 5   0  0.3083469E-05  0.1903379E+04  0.7818609E-02  0.8653176E-01
       -1   -1    0    0    0  501  0.00000000000E+00  0.00000000000E+00  0.13762075251E+04  0.13762075251E+04  0.50400001928E-02 0. -1.
        1   -1    0    0  501    0  0.00000000000E+00  0.00000000000E+00 -0.65812256283E+03  0.65812256285E+03  0.50400001928E-02 0.  1.
    10030    2    1    2    0    0  0.00000000000E+00  0.00000000000E+00  0.71808496222E+03  0.20343300879E+04  0.19033793352E+04 0.  0.
        3    1    3    3  502    0  0.24752381020E+03 -0.40078803069E+03  0.12428650923E+04  0.13291398460E+04  0.10100000352E+00 0. -1.
       -3    1    3    3    0  502 -0.24752381020E+03  0.40078803069E+03 -0.52478013012E+03  0.70519024194E+03  0.10100000352E+00 0.  1.
</event>
<event>
 5   0  0.3083469E-05  0.1904134E+04  0.7818609E-02  0.8652802E-01
        1   -1    0    0  501    0  0.00000000000E+00  0.00000000000E+00  0.11111896202E+04  0.11111896202E+04  0.50400001928E-02 0. -1.
       -1   -1    0    0    0  501  0.00000000000E+00  0.00000000000E+00 -0.81573047232E+03  0.81573047233E+03  0.50400001928E-02 0.  1.
    10030    2    1    2    0    0  0.00000000000E+00  0.00000000000E+00  0.29545914785E+03  0.19269200925E+04  0.19041336442E+04 0.  0.
        3    1    3    3  502    0 -0.52435597605E+03  0.58578547981E+03 -0.39566684471E+03  0.88013980718E+03  0.10100000352E+00 0.  1.
       -3    1    3    3    0  502  0.52435597605E+03 -0.58578547981E+03  0.69112599255E+03  0.10467802853E+04  0.10100000352E+00 0. -1.
</event>
<event>
 5   0  0.6423388E-05  0.1898869E+04  0.7818609E-02  0.8655420E-01
       -2   -1    0    0    0  501  0.00000000000E+00  0.00000000000E+00  0.41974064548E+03  0.41974064549E+03  0.25500000920E-02 0.  1.
        2   -1    0    0  501    0  0.00000000000E+00  0.00000000000E+00 -0.21475779031E+04  0.21475779031E+04  0.25500000920E-02 0. -1.
    10030    2    1    2    0    0  0.00000000000E+00  0.00000000000E+00 -0.17278372576E+04  0.25673185485E+04  0.18988688583E+04 0.  0.
        2    1    3    3  502    0 -0.76193150152E+03  0.53260702839E+03 -0.60309381440E+03  0.11081209359E+04  0.25500000920E-02 0.  1.
       -2    1    3    3    0  502  0.76193150152E+03 -0.53260702839E+03 -0.11247434432E+04  0.14591976126E+04  0.25500000920E-02 0. -1.
</event>
<event>
 5   0  0.3147063E-05  0.1899276E+04  0.7818609E-02  0.8655217E-01
        1   -1    0    0  501    0  0.00000000000E+00  0.00000000000E+00  0.90509509744E+03  0.90509509745E+03  0.50400001928E-02 0. -1.
       -1   -1    0    0    0  501  0.00000000000E+00  0.00000000000E+00 -0.99637309714E+03  0.99637309715E+03  0.50400001928E-02 0.  1.
    10030    2    1    2    0    0  0.00000000000E+00  0.00000000000E+00 -0.91277999698E+02  0.19014681946E+04  0.18992760784E+04 0.  0.
        5    1    3    3  502    0  0.65791430075E+03  0.42342739800E+03  0.49317203234E+03  0.92486903504E+03  0.46999998093E+01 0.  1.
       -5    1    3    3    0  502 -0.65791430075E+03 -0.42342739800E+03 -0.58445003204E+03  0.97659915956E+03  0.46999998093E+01 0. -1.
</event>
<event>
 5   0  0.6098377E-05  0.1896791E+04  0.7818609E-02  0.8656455E-01
        2   -1    0    0  501    0  0.00000000000E+00  0.00000000000E+00  0.19755725764E+04  0.19755725764E+04  0.25500000920E-02 0. -1.
       -2   -1    0    0    0  501  0.00000000000E+00  0.00000000000E+00 -0.45528778178E+03  0.45528778178E+03  0.25500000920E-02 0.  1.
    10030    2    1    2    0    0  0.00000000000E+00  0.00000000000E+00  0.15202847946E+04  0.24308603582E+04  0.18967910334E+04 0.  0.
        5    1    3    3  502    0 -0.56019402666E+03  0.30470263416E+03  0.16597705968E+04  0.17780668060E+04  0.46999998093E+01 0. -1.
       -5    1    3    3    0  502  0.56019402666E+03 -0.30470263416E+03 -0.13948580214E+03  0.65279355218E+03  0.46999998093E+01 0.  1.
</event>
<event>
 5   0  0.3086139E-05  0.1898431E+04  0.7818609E-02  0.8655638E-01
       -1   -1    0    0    0  501  0.00000000000E+00  0.00000000000E+00  0.81768088655E+03  0.81768088656E+03  0.50400001928E-02 0.  1.
        1   -1    0    0  501    0  0.00000000000E+00  0.00000000000E+00 -0.11019096189E+04  0.11019096190E+04  0.50400001928E-02 0. -1.
    10030    2    1    2    0    0  0.00000000000E+00  0.00000000000E+00 -0.28422873239E+03  0.19195905055E+04  0.18984313884E+04 0.  0.
        2    1    3    3  502    0 -0.10211476977E+03 -0.83242264484E+03 -0.59165421192E+03  0.10263574389E+04  0.25500000920E-02 0. -1.
       -2    1    3    3    0  502  0.10211476977E+03  0.83242264484E+03  0.30742547953E+03  0.89323306663E+03  0.25500000920E-02 0.  1.
</event>
<event>
 5   0  0.2279625E-05  0.1900132E+04  0.7818609E-02  0.8654791E-01
       -4   -1    0    0    0  501  0.00000000000E+00  0.00000000000E+00  0.51073694336E+03  0.51073852235E+03  0.12699999809E+01 0.  1.
        4   -1    0    0  501    0  0.00000000000E+00  0.00000000000E+00 -0.17672955561E+04  0.17672960124E+04  0.12699999809E+01 0. -1.
    10030    2    1    2    0    0  0.00000000000E+00  0.00000000000E+00 -0.12565586127E+04  0.22780345347E+04  0.19001320465E+04 0.  0.
        3    1    3    3  502    0 -0.35726895578E+03 -0.58430030899E+02  0.42480771816E+03  0.55813688543E+03  0.10100000352E+00 0.  1.
       -3    1    3    3    0  502  0.35726895578E+03  0.58430030899E+02 -0.16813663309E+04  0.17198976493E+04  0.10100000352E+00 0. -1.
</event>
<event>
 5   0  0.3203527E-05  0.1899460E+04  0.7818609E-02  0.8655125E-01
       -1   -1    0    0    0  501  0.00000000000E+00  0.00000000000E+00  0.83081414121E+03  0.83081414122E+03  0.50400001928E-02 0. -1.
        1   -1    0    0  501    0  0.00000000000E+00  0.00000000000E+00 -0.10856664195E+04  0.10856664195E+04  0.50400001928E-02 0.  1.
    10030    2    1    2    0    0  0.00000000000E+00  0.00000000000E+00 -0.25485227826E+03  0.19164805607E+04  0.18994599379E+04 0.  0.
        1    1    3    3  502    0 -0.10970874346E+03  0.68918941152E+03  0.52252706159E+03  0.87180994687E+03  0.50400001928E-02 0. -1.
       -1    1    3    3    0  502  0.10970874346E+03 -0.68918941152E+03 -0.77737933984E+03  0.10446706138E+04  0.50400001928E-02 0.  1.
</event>
<event>
 5   0  0.3086139E-05  0.1889894E+04  0.7818609E-02  0.8659903E-01
        1   -1    0    0  501    0  0.00000000000E+00  0.00000000000E+00  0.90663352565E+03  0.90663352566E+03  0.50400001928E-02 0. -1.
       -1   -1    0    0    0  501  0.00000000000E+00  0.00000000000E+00 -0.98487933466E+03  0.98487933468E+03  0.50400001928E-02 0.  1.
    10030    2    1    2    0    0  0.00000000000E+00  0.00000000000E+00 -0.78245809015E+02  0.18915128603E+04  0.18898937786E+04 0.  0.
        2    1    3    3  502    0 -0.35900091128E+03 -0.17739110114E+03 -0.89576233062E+03  0.98119285058E+03  0.25500000920E-02 0.  1.
       -2    1    3    3    0  502  0.35900091128E+03  0.17739110114E+03  0.81751652161E+03  0.91032000976E+03  0.25500000920E-02 0. -1.
</event>
<event>
 5   0  0.6361762E-05  0.1898189E+04  0.7818609E-02  0.8655759E-01
       -2   -1    0    0    0  501  0.00000000000E+00  0.00000000000E+00  0.75313562469E+03  0.75313562469E+03  0.25500000920E-02 0. -1.
        2   -1    0    0  501    0  0.00000000000E+00  0.00000000000E+00 -0.11960396084E+04  0.11960396084E+04  0.25500000920E-02 0.  1.
    10030    2    1    2    0    0  0.00000000000E+00  0.00000000000E+00 -0.44290398375E+03  0.19491752331E+04  0.18981886499E+04 0.  0.
        1    1    3    3  502    0 -0.13691720560E+03 -0.47927058850E+03 -0.10508181808E+04  0.11630414728E+04  0.50400001928E-02 0.  1.
       -1    1    3    3    0  502  0.13691720560E+03  0.47927058850E+03  0.60791419707E+03  0.78613376038E+03  0.50400001928E-02 0. -1.
</event>
<event>
 5   0  0.6361762E-05  0.1903221E+04  0.7818609E-02  0.8653255E-01
        2   -1    0    0  501    0  0.00000000000E+00  0.00000000000E+00  0.24957500019E+04  0.24957500019E+04  0.25500000920E-02 0.  1.
       -2   -1    0    0    0  501  0.00000000000E+00  0.00000000000E+00 -0.36284202022E+03  0.36284202023E+03  0.25500000920E-02 0. -1.
    10030    2    1    2    0    0  0.00000000000E+00  0.00000000000E+00  0.21329079817E+04  0.28585920221E+04  0.19032214508E+04 0.  0.
        1    1    3    3  502    0  0.25063884623E+03 -0.31947515274E+03  0.23590946173E+04  0.23937860426E+04  0.50400001928E-02 0.  1.
       -1    1    3    3    0  502 -0.25063884623E+03  0.31947515274E+03 -0.22618663560E+03  0.46480597953E+03  0.50400001928E-02 0. -1.
</event>
<event>
 5   0  0.2279625E-05  0.1901018E+04  0.7818609E-02  0.8654350E-01
       -3   -1    0    0    0  501  0.00000000000E+00  0.00000000000E+00  0.10000342244E+04  0.10000342295E+04  0.10100000352E+00 0. -1.
        3   -1    0    0  501    0  0.00000000000E+00  0.00000000000E+00 -0.90343649007E+03  0.90343649571E+03  0.10100000352E+00 0.  1.
    10030    2    1    2    0    0  0.00000000000E+00  0.00000000000E+00  0.96597734350E+02  0.19034707252E+04  0.19010180640E+04 0.  0.
        5    1    3    3  502    0  0.17684884003E+03 -0.57591917879E+03  0.78442553491E+03  0.98909247421E+03  0.46999998093E+01 0. -1.
       -5    1    3    3    0  502 -0.17684884003E+03  0.57591917879E+03 -0.68782780056E+03  0.91437825102E+03  0.46999998093E+01 0.  1.
</event>
<event>
 5   0  0.3144958E-05  0.1905304E+04  0.7818609E-02  0.8652221E-01
       -1   -1    0    0    0  501  0.00000000000E+00  0.00000000000E+00  0.76607206842E+03  0.76607206843E+03  0.50400001928E-02 0.  1.
        1   -1    0    0  501    0  0.00000000000E+00  0.00000000000E+00 -0.11846745993E+04  0.11846745993E+04  0.50400001928E-02 0. -1.
    10030    2    1    2    0    0  0.00000000000E+00  0.00000000000E+00 -0.41860253085E+03  0.19507466677E+04  0.19053043019E+04 0.  0.
        4    1    3    3  502    0 -0.16983624728E+03  0.92531232995E+03 -0.55733087055E+02  0.94241978372E+03  0.12699999809E+01 0. -1.
       -4    1    3    3    0  502  0.16983624728E+03 -0.92531232995E+03 -0.36286944380E+03  0.10083268840E+04  0.12699999809E+01 0.  1.
</event>
<event>
 5   0  0.6098377E-05  0.1793885E+04  0.7818609E-02  0.8709558E-01
        2   -1    0    0  501    0  0.00000000000E+00  0.00000000000E+00  0.19428729198E+04  0.19428729198E+04  0.25500000920E-02 0. -1.
       -2   -1    0    0    0  501  0.00000000000E+00  0.00000000000E+00 -0.41408036616E+03  0.41408036616E+03  0.25500000920E-02 0.  1.
    10030    2    1    2    0    0  0.00000000000E+00  0.00000000000E+00  0.15287925536E+04  0.23569532860E+04  0.17938846452E+04 0.  0.
        5    1    3    3  502    0 -0.79110977431E+03  0.20804299021E+03  0.28102528286E+03  0.86494731654E+03  0.46999998093E+01 0.  1.
       -5    1    3    3    0  502  0.79110977431E+03 -0.20804299021E+03  0.12477672708E+04  0.14920059694E+04  0.46999998093E+01 0. -1.
</event>
<event>
 5   0  0.3147063E-05  0.1902418E+04  0.7818609E-02  0.8653654E-01
       -1   -1    0    0    0  501  0.00000000000E+00  0.00000000000E+00  0.90030620608E+03  0.90030620609E+03  0.50400001928E-02 0. -1.
        1   -1    0    0  501    0  0.00000000000E+00  0.00000000000E+00 -0.10049892951E+04  0.10049892952E+04  0.50400001928E-02 0.  1.
    10030    2    1    2    0    0  0.00000000000E+00  0.00000000000E+00 -0.10468308906E+03  0.19052955012E+04  0.19024175141E+04 0.  0.
        5    1    3    3  502    0  0.12089002212E+03  0.72306422422E+03 -0.65934402174E+03  0.98599842738E+03  0.46999998093E+01 0.  1.
       -5    1    3    3    0  502 -0.12089002212E+03 -0.72306422422E+03  0.55466093267E+03  0.91929707387E+03  0.46999998093E+01 0. -1.
</event>
<event>
 5   0  0.3086139E-05  0.1829546E+04  0.7818609E-02  0.8690743E-01
       -1   -1    0    0    0  501  0.00000000000E+00  0.00000000000E+00  0.42106890270E+03  0.42106890273E+03  0.50400001928E-02 0.  1.
        1   -1    0    0  501    0  0.00000000000E+00  0.00000000000E+00 -0.19873461571E+04  0.19873461571E+04  0.50400001928E-02 0. -1.
    10030    2    1    2    0    0  0.00000000000E+00  0.00000000000E+00 -0.15662772544E+04  0.24084150599E+04  0.18295460264E+04 0.  0.
        2    1    3    3  502    0  0.56001509838E+03 -0.64943687511E+03 -0.36390179243E+03  0.93156303045E+03  0.25500000920E-02 0. -1.
       -2    1    3    3    0  502 -0.56001509838E+03  0.64943687511E+03 -0.12023754620E+04  0.14768520294E+04  0.25500000920E-02 0.  1.
</event>
<event>
 5   0  0.6098377E-05  0.1898807E+04  0.7818609E-02  0.8655450E-01
       -2   -1    0    0    0  501  0.00000000000E+00  0.00000000000E+00  0.69936183109E+03  0.69936183110E+03  0.25500000920E-02 0. -1.
        2   -1    0    0  501    0  0.00000000000E+00  0.00000000000E+00 -0.12888423143E+04  0.12888423143E+04  0.25500000920E-02 0.  1.
    10030    2    1    2    0    0  0.00000000000E+00  0.00000000000E+00 -0.58948048318E+03  0.19882041454E+04  0.18988071212E+04 0.  0.
        5    1    3    3  502    0  0.67697819215E+03 -0.66520312903E+03 -0.27017609189E+03  0.98681907468E+03  0.46999998093E+01 0.  1.
       -5    1    3    3    0  502 -0.67697819215E+03  0.66520312903E+03 -0.31930439129E+03  0.10013850707E+04  0.46999998093E+01 0. -1.
</event>
<event>
 5   0  0.6361762E-05  0.1907241E+04  0.7818609E-02  0.8651260E-01
        2   -1    0    0  501    0  0.00000000000E+00  0.00000000000E+00  0.86805869012E+03  0.86805869012E+03  0.25500000920E-02 0. -1.
       -2   -1    0    0    0  501  0.00000000000E+00  0.00000000000E+00 -0.10476159598E+04  0.10476159598E+04  0.25500000920E-02 0.  1.
    10030    2    1    2    0    0  0.00000000000E+00  0.00000000000E+00 -0.17955726964E+03  0.19156746499E+04  0.19072410836E+04 0.  0.
        1    1    3    3  502    0  0.63544921996E+03 -0.39183035748E+02  0.62333338619E+03  0.89099693143E+03  0.50400001928E-02 0. -1.
       -1    1    3    3    0  502 -0.63544921996E+03  0.39183035748E+02 -0.80289065584E+03  0.10246777185E+04  0.50400001928E-02 0.  1.
</event>
<event>
 5   0  0.3086139E-05  0.1900284E+04  0.7818609E-02  0.8654715E-01
       -1   -1    0    0    0  501  0.00000000000E+00  0.00000000000E+00  0.98603532528E+03  0.98603532529E+03  0.50400001928E-02 0. -1.
        1   -1    0    0  501    0  0.00000000000E+00  0.00000000000E+00 -0.91555534881E+03  0.91555534883E+03  0.50400001928E-02 0.  1.
    10030    2    1    2    0    0  0.00000000000E+00  0.00000000000E+00  0.70479976463E+02  0.19015906741E+04  0.19002841011E+04 0.  0.
        2    1    3    3  502    0  0.48147999874E+02 -0.46766751359E+02 -0.91317986417E+03  0.91564339307E+03  0.25500000920E-02 0.  1.
       -2    1    3    3    0  502 -0.48147999874E+02  0.46766751359E+02  0.98365984064E+03  0.98594728105E+03  0.25500000920E-02 0. -1.
</event>
<event>
 5   0  0.2279625E-05  0.1906464E+04  0.7818609E-02  0.8651645E-01
       -3   -1    0    0    0  501  0.00000000000E+00  0.00000000000E+00  0.41439108674E+03  0.41439109904E+03  0.10100000352E+00 0. -1.
        3   -1    0    0  501    0  0.00000000000E+00  0.00000000000E+00 -0.21927388740E+04  0.21927388763E+04  0.10100000352E+00 0.  1.
    10030    2    1    2    0    0  0.00000000000E+00  0.00000000000E+00 -0.17783477873E+04  0.26071299754E+04  0.19064642289E+04 0.  0.
        2    1    3    3  502    0 -0.43621872829E+03 -0.36890820047E+03 -0.19326842429E+04  0.20153531755E+04  0.25500000920E-02 0.  1.
       -2    1    3    3    0  502  0.43621872829E+03  0.36890820047E+03  0.15433645566E+03  0.59177679984E+03  0.25500000920E-02 0. -1.
</event>
<event>
 5   0  0.3083469E-05  0.1905089E+04  0.7818609E-02  0.8652327E-01
       -1   -1    0    0    0  501  0.00000000000E+00  0.00000000000E+00  0.79767087353E+03  0.79767087355E+03  0.50400001928E-02 0. -1.
        1   -1    0    0  501    0  0.00000000000E+00  0.00000000000E+00 -0.11374881312E+04  0.11374881312E+04  0.50400001928E-02 0.  1.
    10030    2    1    2    0    0  0.00000000000E+00  0.00000000000E+00 -0.33981725764E+03  0.19351590047E+04  0.19050891331E+04 0.  0.
        3    1    3    3  502    0  0.68638328464E+03 -0.32243810870E+03 -0.75542046131E+03  0.10703963896E+04  0.10100000352E+00 0.  1.
       -3    1    3    3    0  502 -0.68638328464E+03  0.32243810870E+03  0.41560320367E+03  0.86476261510E+03  0.10100000352E+00 0. -1.
</event>
<event>
 5   0  0.3083469E-05  0.1904685E+04  0.7818609E-02  0.8652528E-01
        1   -1    0    0  501    0  0.00000000000E+00  0.00000000000E+00  0.20448925054E+04  0.20448925054E+04  0.50400001928E-02 0.  1.
       -1   -1    0    0    0  501  0.00000000000E+00  0.00000000000E+00 -0.44352282671E+03  0.44352282673E+03  0.50400001928E-02 0. -1.
    10030    2    1    2    0    0  0.00000000000E+00  0.00000000000E+00  0.16013696787E+04  0.24884153322E+04  0.19046852804E+04 0.  0.
        3    1    3    3  502    0 -0.51840093576E+03 -0.75754777370E+03  0.11320711395E+04  0.14574646599E+04  0.10100000352E+00 0.  1.
       -3    1    3    3    0  502  0.51840093576E+03  0.75754777370E+03  0.46929853922E+03  0.10309506723E+04  0.10100000352E+00 0. -1.
</event>
<event>
 5   0  0.3147063E-05  0.1909095E+04  0.7818609E-02  0.8650342E-01
       -1   -1    0    0    0  501  0.00000000000E+00  0.00000000000E+00  0.58634582147E+03  0.58634582149E+03  0.50400001928E-02 0. -1.
        1   -1    0    0  501    0  0.00000000000E+00  0.00000000000E+00 -0.15539658419E+04  0.15539658419E+04  0.50400001928E-02 0.  1.
    10030    2    1    2    0    0  0.00000000000E+00  0.00000000000E+00 -0.96762002041E+03  0.21403116634E+04  0.19090954697E+04 0.  0.
        5    1    3    3  502    0 -0.45170071735E+02 -0.53978412923E+03 -0.13649591816E+04  0.14685172450E+04  0.46999998093E+01 0.  1.
       -5    1    3    3    0  502  0.45170071735E+02  0.53978412923E+03  0.39733916116E+03  0.67179441836E+03  0.46999998093E+01 0. -1.
</event>
<event>
 5   0  0.3144958E-05  0.1903863E+04  0.7818609E-02  0.8652936E-01
       -1   -1    0    0    0  501  0.00000000000E+00  0.00000000000E+00  0.70496508186E+03  0.70496508187E+03  0.50400001928E-02 0.  1.
        1   -1    0    0  501    0  0.00000000000E+00  0.00000000000E+00 -0.12854166684E+04  0.12854166684E+04  0.50400001928E-02 0. -1.
    10030    2    1    2    0    0  0.00000000000E+00  0.00000000000E+00 -0.58045158650E+03  0.19903817502E+04  0.19038633006E+04 0.  0.
        4    1    3    3  502    0 -0.44334658843E+03 -0.42017345016E+03  0.47307000795E+03  0.77259224110E+03  0.12699999809E+01 0.  1.
       -4    1    3    3    0  502  0.44334658843E+03  0.42017345016E+03 -0.10535215944E+04  0.12177895091E+04  0.12699999809E+01 0. -1.
</event>
<event>
 5   0  0.3147063E-05  0.1897741E+04  0.7818609E-02  0.8655981E-01
       -1   -1    0    0    0  501  0.00000000000E+00  0.00000000000E+00  0.77196485714E+03  0.77196485716E+03  0.50400001928E-02 0.  1.
        1   -1    0    0  501    0  0.00000000000E+00  0.00000000000E+00 -0.11663167632E+04  0.11663167632E+04  0.50400001928E-02 0. -1.
    10030    2    1    2    0    0  0.00000000000E+00  0.00000000000E+00 -0.39435190606E+03  0.19382816204E+04  0.18977413454E+04 0.  0.
        5    1    3    3  502    0  0.49645597810E+03 -0.22607049126E+02 -0.10227462977E+04  0.11371067216E+04  0.46999998093E+01 0. -1.
       -5    1    3    3    0  502 -0.49645597810E+03  0.22607049126E+02  0.62839439168E+03  0.80117489873E+03  0.46999998093E+01 0.  1.
</event>
<event>
 5   0  0.6395992E-05  0.1891154E+04  0.7818609E-02  0.8659272E-01
       -2   -1    0    0    0  501  0.00000000000E+00  0.00000000000E+00  0.14954493718E+04  0.14954493718E+04  0.25500000920E-02 0.  1.
        2   -1    0    0  501    0  0.00000000000E+00  0.00000000000E+00 -0.59789140242E+03  0.59789140243E+03  0.25500000920E-02 0. -1.
    10030    2    1    2    0    0  0.00000000000E+00  0.00000000000E+00  0.89755796939E+03  0.20933407742E+04  0.18911544857E+04 0.  0.
        4    1    3    3  502    0 -0.14956751448E+03 -0.39915340387E+03  0.13830679715E+04  0.14472638003E+04  0.12699999809E+01 0.  1.
       -4    1    3    3    0  502  0.14956751448E+03  0.39915340387E+03 -0.48551000206E+03  0.64607697391E+03  0.12699999809E+01 0. -1.
</event>
<event>
 5   0  0.3147063E-05  0.1899756E+04  0.7818609E-02  0.8654978E-01
        1   -1    0    0  501    0  0.00000000000E+00  0.00000000000E+00  0.13707765205E+04  0.13707765205E+04  0.50400001928E-02 0.  1.
       -1   -1    0    0    0  501  0.00000000000E+00  0.00000000000E+00 -0.65821700493E+03  0.65821700495E+03  0.50400001928E-02 0. -1.
    10030    2    1    2    0    0  0.00000000000E+00  0.00000000000E+00  0.71255951552E+03  0.20289935254E+04  0.18997562115E+04 0.  0.
        5    1    3    3  502    0  0.46548689954E+03  0.44771032301E+01  0.12405841747E+04  0.13250544451E+04  0.46999998093E+01 0.  1.
       -5    1    3    3    0  502 -0.46548689954E+03 -0.44771032301E+01 -0.52802465915E+03  0.70393908029E+03  0.46999998093E+01 0. -1.
</event>
<event>
 5   0  0.6452182E-05  0.1900455E+04  0.7818609E-02  0.8654630E-01
        2   -1    0    0  501    0  0.00000000000E+00  0.00000000000E+00  0.21280107434E+04  0.21280107434E+04  0.25500000920E-02 0. -1.
       -2   -1    0    0    0  501  0.00000000000E+00  0.00000000000E+00 -0.42430823825E+03  0.42430823826E+03  0.25500000920E-02 0.  1.
    10030    2    1    2    0    0  0.00000000000E+00  0.00000000000E+00  0.17037025051E+04  0.25523189817E+04  0.19004551976E+04 0.  0.
        3    1    3    3  502    0 -0.48869698797E+03  0.55654354743E+03  0.16513245422E+04  0.18098171787E+04  0.10100000352E+00 0. -1.
       -3    1    3    3    0  502  0.48869698797E+03 -0.55654354743E+03  0.52377962912E+02  0.74250180298E+03  0.10100000352E+00 0.  1.
</event>
<event>
 5   0  0.6452182E-05  0.1897985E+04  0.7818609E-02  0.8655860E-01
        2   -1    0    0  501    0  0.00000000000E+00  0.00000000000E+00  0.17520171008E+04  0.17520171008E+04  0.25500000920E-02 0. -1.
       -2   -1    0    0    0  501  0.00000000000E+00  0.00000000000E+00 -0.51402844310E+03  0.51402844310E+03  0.25500000920E-02 0.  1.
    10030    2    1    2    0    0  0.00000000000E+00  0.00000000000E+00  0.12379886577E+04  0.22660455439E+04  0.18979848499E+04 0.  0.
        3    1    3    3  502    0 -0.27598058532E+03 -0.65207199536E+03 -0.13537480453E+03  0.72089494277E+03  0.10100000352E+00 0.  1.
       -3    1    3    3    0  502  0.27598058532E+03  0.65207199536E+03  0.13733634623E+04  0.15451506012E+04  0.10100000352E+00 0. -1.
</event>
<event>
 5   0  0.2279625E-05  0.1906971E+04  0.7818609E-02  0.8651394E-01
        4   -1    0    0  501    0  0.00000000000E+00  0.00000000000E+00  0.14184666470E+04  0.14184672156E+04  0.12699999809E+01 0. -1.
       -4   -1    0    0    0  501  0.00000000000E+00  0.00000000000E+00 -0.64092657931E+03  0.64092783756E+03  0.12699999809E+01 0.  1.
    10030    2    1    2    0    0  0.00000000000E+00  0.00000000000E+00  0.77754006771E+03  0.20593950531E+04  0.19069712709E+04 0.  0.
        5    1    3    3  502    0  0.64969222816E+03 -0.49527448384E+03  0.91971337630E+03  0.12301591727E+04  0.46999998093E+01 0. -1.
       -5    1    3    3    0  502 -0.64969222816E+03  0.49527448384E+03 -0.14217330859E+03  0.82923588040E+03  0.46999998093E+01 0.  1.
</event>
<event>
 5   0  0.6098377E-05  0.1906631E+04  0.7818609E-02  0.8651563E-01
       -2   -1    0    0    0  501  0.00000000000E+00  0.00000000000E+00  0.13950741344E+04  0.13950741344E+04  0.25500000920E-02 0.  1.
        2   -1    0    0  501    0  0.00000000000E+00  0.00000000000E+00 -0.65144262023E+03  0.65144262023E+03  0.25500000920E-02 0. -1.
    10030    2    1    2    0    0  0.00000000000E+00  0.00000000000E+00  0.74363151421E+03  0.20465167547E+04  0.19066313221E+04 0.  0.
        5    1    3    3  502    0 -0.61282764568E+03 -0.28374667466E+03 -0.35039312837E+03  0.76083331492E+03  0.46999998093E+01 0. -1.
       -5    1    3    3    0  502  0.61282764568E+03  0.28374667466E+03  0.10940246426E+04  0.12856834398E+04  0.46999998093E+01 0.  1.
</event>
<event>
 5   0  0.3147063E-05  0.1917975E+04  0.7818609E-02  0.8645960E-01
       -1   -1    0    0    0  501  0.00000000000E+00  0.00000000000E+00  0.63374946675E+03  0.63374946677E+03  0.50400001928E-02 0.  1.
        1   -1    0    0  501    0  0.00000000000E+00  0.00000000000E+00 -0.14511371565E+04  0.14511371565E+04  0.50400001928E-02 0. -1.
    10030    2    1    2    0    0  0.00000000000E+00  0.00000000000E+00 -0.81738768973E+03  0.20848866233E+04  0.19179753900E+04 0.  0.
        5    1    3    3  502    0  0.81606911056E+03 -0.20953033467E+03 -0.90655062919E+03  0.12376299478E+04  0.46999998093E+01 0. -1.
       -5    1    3    3    0  502 -0.81606911056E+03  0.20953033467E+03  0.89162939458E+02  0.84725667547E+03  0.46999998093E+01 0.  1.
</event>
<event>
 5   0  0.3086139E-05  0.1893562E+04  0.7818609E-02  0.8658067E-01
       -1   -1    0    0    0  501  0.00000000000E+00  0.00000000000E+00  0.47019470382E+03  0.47019470385E+03  0.50400001928E-02 0.  1.
        1   -1    0    0  501    0  0.00000000000E+00  0.00000000000E+00 -0.19064328538E+04  0.19064328538E+04  0.50400001928E-02 0. -1.
    10030    2    1    2    0    0  0.00000000000E+00  0.00000000000E+00 -0.14362381499E+04  0.23766275576E+04  0.18935623899E+04 0.  0.
        2    1    3    3  502    0 -0.24119947271E+02 -0.44174955752E+03 -0.17687213315E+04  0.18232113404E+04  0.25500000920E-02 0. -1.
       -2    1    3    3    0  502  0.24119947271E+02  0.44174955752E+03  0.33248318154E+03  0.55341621718E+03  0.25500000920E-02 0.  1.
</event>
<event>
 5   0  0.6098377E-05  0.1888237E+04  0.7818609E-02  0.8660734E-01
        2   -1    0    0  501    0  0.00000000000E+00  0.00000000000E+00  0.12565447266E+04  0.12565447266E+04  0.25500000920E-02 0. -1.
       -2   -1    0    0    0  501  0.00000000000E+00  0.00000000000E+00 -0.70937393205E+03  0.70937393206E+03  0.25500000920E-02 0.  1.
    10030    2    1    2    0    0  0.00000000000E+00  0.00000000000E+00  0.54717079455E+03  0.19659186587E+04  0.18882373511E+04 0.  0.
        5    1    3    3  502    0  0.42735482375E+03  0.14411056355E+03  0.11371276754E+04  0.12233075820E+04  0.46999998093E+01 0. -1.
       -5    1    3    3    0  502 -0.42735482375E+03 -0.14411056355E+03 -0.58995688088E+03  0.74261107668E+03  0.46999998093E+01 0.  1.
</event>
<event>
 5   0  0.6361762E-05  0.1903385E+04  0.7818609E-02  0.8653173E-01
       -2   -1    0    0    0  501  0.00000000000E+00  0.00000000000E+00  0.61781619503E+03  0.61781619504E+03  0.25500000920E-02 0. -1.
        2   -1    0    0  501    0  0.00000000000E+00  0.00000000000E+00 -0.14660001760E+04  0.14660001760E+04  0.25500000920E-02 0.  1.
    10030    2    1    2    0    0  0.00000000000E+00  0.00000000000E+00 -0.84818398101E+03  0.20838163711E+04  0.19033850380E+04 0.  0.
        1    1    3    3  502    0  0.84691233984E+03 -0.42680491670E+03 -0.33722497740E+03  0.10065503632E+04  0.50400001928E-02 0.  1.
       -1    1    3    3    0  502 -0.84691233984E+03  0.42680491670E+03 -0.51095900360E+03  0.10772660079E+04  0.50400001928E-02 0. -1.
</event>
<event>
 5   0  0.3086139E-05  0.1899736E+04  0.7818609E-02  0.8654988E-01
        1   -1    0    0  501    0  0.00000000000E+00  0.00000000000E+00  0.89036681699E+03  0.89036681700E+03  0.50400001928E-02 0. -1.
       -1   -1    0    0    0  501  0.00000000000E+00  0.00000000000E+00 -0.10133456193E+04  0.10133456193E+04  0.50400001928E-02 0.  1.
    10030    2    1    2    0    0  0.00000000000E+00  0.00000000000E+00 -0.12297880229E+03  0.19037124363E+04  0.18997361012E+04 0.  0.
        2    1    3    3  502    0 -0.22103592844E+03  0.79162105939E+03  0.41566744300E+03  0.92103214195E+03  0.25500000920E-02 0. -1.
       -2    1    3    3    0  502  0.22103592844E+03 -0.79162105939E+03 -0.53864624529E+03  0.98268029435E+03  0.25500000920E-02 0.  1.
</event>
<event>
 5   0  0.6361762E-05  0.1933865E+04  0.7818609E-02  0.8638181E-01
        2   -1    0    0  501    0  0.00000000000E+00  0.00000000000E+00  0.13588525019E+04  0.13588525019E+04  0.25500000920E-02 0.  1.
       -2   -1    0    0    0  501  0.00000000000E+00  0.00000000000E+00 -0.68804974252E+03  0.68804974252E+03  0.25500000920E-02 0. -1.
    10030    2    1    2    0    0  0.00000000000E+00  0.00000000000E+00  0.67080275941E+03  0.20469022445E+04  0.19338646427E+04 0.  0.
        1    1    3    3  502    0  0.79349864673E+03 -0.54499805243E+03  0.23900011173E+03  0.99185887754E+03  0.50400001928E-02 0. -1.
       -1    1    3    3    0  502 -0.79349864673E+03  0.54499805243E+03  0.43180264768E+03  0.10550433669E+04  0.50400001928E-02 0.  1.
</event>
<event>
 5   0  0.3144958E-05  0.1920485E+04  0.7818609E-02  0.8644726E-01
       -1   -1    0    0    0  501  0.00000000000E+00  0.00000000000E+00  0.78351647616E+03  0.78351647617E+03  0.50400001928E-02 0. -1.
        1   -1    0    0  501    0  0.00000000000E+00  0.00000000000E+00 -0.11768302596E+04  0.11768302596E+04  0.50400001928E-02 0.  1.
    10030    2    1    2    0    0  0.00000000000E+00  0.00000000000E+00 -0.39331378346E+03  0.19603467358E+04  0.19204852492E+04 0.  0.
        4    1    3    3  502    0  0.78653169966E+03 -0.16893941986E+03  0.33852657275E+03  0.87279693830E+03  0.12699999809E+01 0. -1.
       -4    1    3    3    0  502 -0.78653169966E+03  0.16893941986E+03 -0.73184035621E+03  0.10875497975E+04  0.12699999809E+01 0.  1.
</event>
<event>
 5   0  0.6452182E-05  0.1901119E+04  0.7818609E-02  0.8654300E-01
        2   -1    0    0  501    0  0.00000000000E+00  0.00000000000E+00  0.65108169038E+03  0.65108169039E+03  0.25500000920E-02 0.  1.
       -2   -1    0    0    0  501  0.00000000000E+00  0.00000000000E+00 -0.13877878604E+04  0.13877878604E+04  0.25500000920E-02 0. -1.
    10030    2    1    2    0    0  0.00000000000E+00  0.00000000000E+00 -0.73670616998E+03  0.20388695508E+04  0.19011188979E+04 0.  0.
        3    1    3    3  502    0  0.35124723711E+03  0.82547110820E+03 -0.31276919010E+02  0.89763880705E+03  0.10100000352E+00 0.  1.
       -3    1    3    3    0  502 -0.35124723711E+03 -0.82547110820E+03 -0.70542925097E+03  0.11412307437E+04  0.10100000352E+00 0. -1.
</event>
<event>
 5   0  0.3144958E-05  0.1898107E+04  0.7818609E-02  0.8655799E-01
        1   -1    0    0  501    0  0.00000000000E+00  0.00000000000E+00  0.10624081602E+04  0.10624081602E+04  0.50400001928E-02 0. -1.
       -1   -1    0    0    0  501  0.00000000000E+00  0.00000000000E+00 -0.84779290311E+03  0.84779290313E+03  0.50400001928E-02 0.  1.
    10030    2    1    2    0    0  0.00000000000E+00  0.00000000000E+00  0.21461525711E+03  0.19102010634E+04  0.18981065286E+04 0.  0.
        4    1    3    3  502    0  0.38655709069E+03 -0.81297092796E+03 -0.19519439042E+03  0.92111376986E+03  0.12699999809E+01 0. -1.
       -4    1    3    3    0  502 -0.38655709069E+03  0.81297092796E+03  0.40980964754E+03  0.98908729351E+03  0.12699999809E+01 0.  1.
</event>
<event>
 5   0  0.6452182E-05  0.1893979E+04  0.7818609E-02  0.8657859E-01
       -2   -1    0    0    0  501  0.00000000000E+00  0.00000000000E+00  0.62111008533E+03  0.62111008534E+03  0.25500000920E-02 0.  1.
        2   -1    0    0  501    0  0.00000000000E+00  0.00000000000E+00 -0.14438489419E+04  0.14438489419E+04  0.25500000920E-02 0. -1.
    10030    2    1    2    0    0  0.00000000000E+00  0.00000000000E+00 -0.82273885655E+03  0.20649590272E+04  0.18939790279E+04 0.  0.
        3    1    3    3  502    0 -0.62191419601E+03  0.80647649998E+02  0.36227140231E+03  0.72423883477E+03  0.10100000352E+00 0.  1.
       -3    1    3    3    0  502  0.62191419601E+03 -0.80647649998E+02 -0.11850102589E+04  0.13407201925E+04  0.10100000352E+00 0. -1.
</event>
<event>
 5   0  0.6395992E-05  0.1906431E+04  0.7818609E-02  0.8651662E-01
       -2   -1    0    0    0  501  0.00000000000E+00  0.00000000000E+00  0.44959407587E+03  0.44959407588E+03  0.25500000920E-02 0.  1.
        2   -1    0    0  501    0  0.00000000000E+00  0.00000000000E+00 -0.20209785047E+04  0.20209785047E+04  0.25500000920E-02 0. -1.
    10030    2    1    2    0    0  0.00000000000E+00  0.00000000000E+00 -0.15713844288E+04  0.24705725805E+04  0.19064311823E+04 0.  0.
        4    1    3    3  502    0 -0.82451949908E+02 -0.87663637767E+03 -0.31249924176E+03  0.93431635526E+03  0.12699999809E+01 0.  1.
       -4    1    3    3    0  502  0.82451949908E+02  0.87663637767E+03 -0.12588851870E+04  0.15362562253E+04  0.12699999809E+01 0. -1.
</event>
<event>
 5   0  0.6423388E-05  0.1897552E+04  0.7818609E-02  0.8656076E-01
       -2   -1    0    0    0  501  0.00000000000E+00  0.00000000000E+00  0.11249474372E+04  0.11249474372E+04  0.25500000920E-02 0. -1.
        2   -1    0    0  501    0  0.00000000000E+00  0.00000000000E+00 -0.80019367643E+03  0.80019367644E+03  0.25500000920E-02 0.  1.
    10030    2    1    2    0    0  0.00000000000E+00  0.00000000000E+00  0.32475376078E+03  0.19251411137E+04  0.18975519235E+04 0.  0.
        2    1    3    3  502    0  0.23843171244E+03  0.28827802905E+03  0.10469609113E+04  0.11117918210E+04  0.25500000920E-02 0. -1.
       -2    1    3    3    0  502 -0.23843171244E+03 -0.28827802905E+03 -0.72220715052E+03  0.81334929262E+03  0.25500000920E-02 0.  1.
</event>
<event>
 5   0  0.6423388E-05  0.1897969E+04  0.7818609E-02  0.8655868E-01
        2   -1    0    0  501    0  0.00000000000E+00  0.00000000000E+00  0.77968532788E+03  0.77968532789E+03  0.25500000920E-02 0.  1.
       -2   -1    0    0    0  501  0.00000000000E+00  0.00000000000E+00 -0.11550445773E+04  0.11550445773E+04  0.25500000920E-02 0. -1.
    10030    2    1    2    0    0  0.00000000000E+00  0.00000000000E+00 -0.37535924945E+03  0.19347299052E+04  0.18979687142E+04 0.  0.
        2    1    3    3  502    0  0.28287472238E+03  0.39184216000E+03 -0.10202068016E+04  0.11288845401E+04  0.25500000920E-02 0. -1.
       -2    1    3    3    0  502 -0.28287472238E+03 -0.39184216000E+03  0.64484755215E+03  0.80584536509E+03  0.25500000920E-02 0.  1.
</event>
<event>
 5   0  0.3144958E-05  0.1900582E+04  0.7818609E-02  0.8654567E-01
        1   -1    0    0  501    0  0.00000000000E+00  0.00000000000E+00  0.92154670672E+03  0.92154670673E+03  0.50400001928E-02 0.  1.
       -1   -1    0    0    0  501  0.00000000000E+00  0.00000000000E+00 -0.97993193805E+03  0.97993193806E+03  0.50400001928E-02 0. -1.
    10030    2    1    2    0    0  0.00000000000E+00  0.00000000000E+00 -0.58385231332E+02  0.19014786448E+04  0.19005820691E+04 0.  0.
        4    1    3    3  502    0 -0.78673566106E+03  0.57975589607E+02  0.50090378981E+03  0.93446262040E+03  0.12699999809E+01 0.  1.
       -4    1    3    3    0  502  0.78673566106E+03 -0.57975589607E+02 -0.55928902115E+03  0.96701602440E+03  0.12699999809E+01 0. -1.
</event>
<event>
 5   0  0.6423388E-05  0.1901226E+04  0.7818609E-02  0.8654246E-01
       -2   -1    0    0    0  501  0.00000000000E+00  0.00000000000E+00  0.62884337357E+03  0.62884337358E+03  0.25500000920E-02 0. -1.
        2   -1    0    0  501    0  0.00000000000E+00  0.00000000000E+00 -0.14370271838E+04  0.14370271838E+04  0.25500000920E-02 0.  1.
    10030    2    1    2    0    0  0.00000000000E+00  0.00000000000E+00 -0.80818381023E+03  0.20658705574E+04  0.19012259436E+04 0.  0.
        2    1    3    3  502    0 -0.46467000060E+02 -0.26980635961E+03 -0.13932615045E+04  0.14199057270E+04  0.25500000920E-02 0.  1.
       -2    1    3    3    0  502  0.46467000060E+02  0.26980635961E+03  0.58507769423E+03  0.64596483037E+03  0.25500000920E-02 0. -1.
</event>
<event>
 5   0  0.6098377E-05  0.1896291E+04  0.7818609E-02  0.8656705E-01
        2   -1    0    0  501    0  0.00000000000E+00  0.00000000000E+00  0.94353153571E+03  0.94353153571E+03  0.25500000920E-02 0.  1.
       -2   -1    0    0    0  501  0.00000000000E+00  0.00000000000E+00 -0.95278228889E+03  0.95278228889E+03  0.25500000920E-02 0. -1.
    10030    2    1    2    0    0  0.00000000000E+00  0.00000000000E+00 -0.92507531797E+01  0.18963138246E+04  0.18962912606E+04 0.  0.
        5    1    3    3  502    0  0.53793848272E+03 -0.54266344677E+03  0.55671597885E+03  0.94541853099E+03  0.46999998093E+01 0.  1.
       -5    1    3    3    0  502 -0.53793848272E+03  0.54266344677E+03 -0.56596673203E+03  0.95089529361E+03  0.46999998093E+01 0. -1.
</event>
<event>
 5   0  0.6098377E-05  0.1903491E+04  0.7818609E-02  0.8653121E-01
        2   -1    0    0  501    0  0.00000000000E+00  0.00000000000E+00  0.59706835454E+03  0.59706835454E+03  0.25500000920E-02 0. -1.
       -2   -1    0    0    0  501  0.00000000000E+00  0.00000000000E+00 -0.15171118457E+04  0.15171118457E+04  0.25500000920E-02 0.  1.
    10030    2    1    2    0    0  0.00000000000E+00  0.00000000000E+00 -0.92004349116E+03  0.21141802002E+04  0.19034909754E+04 0.  0.
        5    1    3    3  502    0 -0.96840461655E+02 -0.67919750507E+03 -0.11926619378E+04  0.13759185709E+04  0.46999998093E+01 0.  1.
       -5    1    3    3    0  502  0.96840461655E+02  0.67919750507E+03  0.27261844664E+03  0.73826162934E+03  0.46999998093E+01 0. -1.
</event>
<event>
 5   0  0.6452182E-05  0.1907326E+04  0.7818609E-02  0.8651218E-01
        2   -1    0    0  501    0  0.00000000000E+00  0.00000000000E+00  0.16949170906E+04  0.16949170906E+04  0.25500000920E-02 0.  1.
       -2   -1    0    0    0  501  0.00000000000E+00  0.00000000000E+00 -0.53658859301E+03  0.53658859302E+03  0.25500000920E-02 0. -1.
    10030    2    1    2    0    0  0.00000000000E+00  0.00000000000E+00  0.11583284976E+04  0.22315056837E+04  0.19073260623E+04 0.  0.
        3    1    3    3  502    0 -0.21781358426E+03  0.29288624011E+03  0.16099616572E+04  0.16508184803E+04  0.10100000352E+00 0.  1.
       -3    1    3    3    0  502  0.21781358426E+03 -0.29288624011E+03 -0.45163315955E+03  0.58068720336E+03  0.10100000352E+00 0. -1.
</event>
<event>
 5   0  0.3147063E-05  0.1862608E+04  0.7818609E-02  0.8673696E-01
        1   -1    0    0  501    0  0.00000000000E+00  0.00000000000E+00  0.73629122618E+03  0.73629122620E+03  0.50400001928E-02 0.  1.
       -1   -1    0    0    0  501  0.00000000000E+00  0.00000000000E+00 -0.11779677904E+04  0.11779677904E+04  0.50400001928E-02 0. -1.
    10030    2    1    2    0    0  0.00000000000E+00  0.00000000000E+00 -0.44167656423E+03  0.19142590166E+04  0.18626082238E+04 0.  0.
        5    1    3    3  502    0 -0.32902543228E+03  0.55146081538E+03 -0.91403345138E+03  0.11170702781E+04  0.46999998093E+01 0. -1.
       -5    1    3    3    0  502  0.32902543228E+03 -0.55146081538E+03  0.47235688714E+03  0.79718873852E+03  0.46999998093E+01 0.  1.
</event>
<event>
 5   0  0.3203527E-05  0.1898734E+04  0.7818609E-02  0.8655487E-01
       -1   -1    0    0    0  501  0.00000000000E+00  0.00000000000E+00  0.11276981220E+04  0.11276981221E+04  0.50400001928E-02 0. -1.
        1   -1    0    0  501    0  0.00000000000E+00  0.00000000000E+00 -0.79923664485E+03  0.79923664487E+03  0.50400001928E-02 0.  1.
    10030    2    1    2    0    0  0.00000000000E+00  0.00000000000E+00  0.32846147719E+03  0.19269347669E+04  0.18987339608E+04 0.  0.
        1    1    3    3  502    0 -0.93260968588E+03  0.15042022333E+03  0.68432788828E+02  0.94713785501E+03  0.50400001928E-02 0.  1.
       -1    1    3    3    0  502  0.93260968588E+03 -0.15042022333E+03  0.26002868836E+03  0.97979691191E+03  0.50400001928E-02 0. -1.
</event>
<event>
 5   0  0.6452182E-05  0.1903757E+04  0.7818609E-02  0.8652988E-01
        2   -1    0    0  501    0  0.00000000000E+00  0.00000000000E+00  0.14629306738E+04  0.14629306738E+04  0.25500000920E-02 0. -1.
       -2   -1    0    0    0  501  0.00000000000E+00  0.00000000000E+00 -0.61935464852E+03  0.61935464852E+03  0.25500000920E-02 0.  1.
    10030    2    1    2    0    0  0.00000000000E+00  0.00000000000E+00  0.84357602530E+03  0.20822853223E+04  0.19037572464E+04 0.  0.
        3    1    3    3  502    0  0.16070746279E+03 -0.88791227225E+03  0.75329044171E+03  0.11754410200E+04  0.10100000352E+00 0. -1.
       -3    1    3    3    0  502 -0.16070746279E+03  0.88791227225E+03  0.90285583588E+02  0.90684430230E+03  0.10100000352E+00 0.  1.
</event>
<event>
 5   0  0.3086139E-05  0.1897265E+04  0.7818609E-02  0.8656219E-01
       -1   -1    0    0    0  501  0.00000000000E+00  0.00000000000E+00  0.49042952291E+03  0.49042952294E+03  0.50400001928E-02 0. -1.
        1   -1    0    0  501    0  0.00000000000E+00  0.00000000000E+00 -0.18349303059E+04  0.18349303059E+04  0.50400001928E-02 0.  1.
    10030    2    1    2    0    0  0.00000000000E+00  0.00000000000E+00 -0.13445007830E+04  0.23253598288E+04  0.18972653948E+04 0.  0.
        2    1    3    3  502    0 -0.14580162470E+03 -0.11840852664E+03  0.46741156269E+03  0.50373828710E+03  0.25500000920E-02 0. -1.
       -2    1    3    3    0  502  0.14580162470E+03  0.11840852664E+03 -0.18119123457E+04  0.18216215417E+04  0.25500000920E-02 0.  1.
</event>
<event>
 5   0  0.6395992E-05  0.1905719E+04  0.7818609E-02  0.8652015E-01
        2   -1    0    0  501    0  0.00000000000E+00  0.00000000000E+00  0.11375559926E+04  0.11375559926E+04  0.25500000920E-02 0.  1.
       -2   -1    0    0    0  501  0.00000000000E+00  0.00000000000E+00 -0.79815039678E+03  0.79815039678E+03  0.25500000920E-02 0. -1.
    10030    2    1    2    0    0  0.00000000000E+00  0.00000000000E+00  0.33940559579E+03  0.19357063893E+04  0.19057185173E+04 0.  0.
        4    1    3    3  502    0 -0.45874380902E+03  0.75367318789E+03  0.53518421438E+03  0.10319364867E+04  0.12699999809E+01 0.  1.
       -4    1    3    3    0  502  0.45874380902E+03 -0.75367318789E+03 -0.19577861859E+03  0.90376990260E+03  0.12699999809E+01 0. -1.
</event>
<event>
 5   0  0.3144958E-05  0.1895834E+04  0.7818609E-02  0.8656933E-01
        1   -1    0    0  501    0  0.00000000000E+00  0.00000000000E+00  0.83617552769E+03  0.83617552770E+03  0.50400001928E-02 0.  1.
       -1   -1    0    0    0  501  0.00000000000E+00  0.00000000000E+00 -0.10745910971E+04  0.10745910971E+04  0.50400001928E-02 0. -1.
    10030    2    1    2    0    0  0.00000000000E+00  0.00000000000E+00 -0.23841556942E+03  0.19107666248E+04  0.18958341464E+04 0.  0.
        4    1    3    3  502    0 -0.56352092026E+03 -0.15337219861E+03  0.63330973821E+03  0.86148807089E+03  0.12699999809E+01 0.  1.
       -4    1    3    3    0  502  0.56352092026E+03  0.15337219861E+03 -0.87172530763E+03  0.10492785539E+04  0.12699999809E+01 0. -1.
</event>
<event>
 5   0  0.6395992E-05  0.1897613E+04  0.7818609E-02  0.8656046E-01
        2   -1    0    0  501    0  0.00000000000E+00  0.00000000000E+00  0.94855297099E+03  0.94855297100E+03  0.25500000920E-02 0. -1.
       -2   -1    0    0    0  501  0.00000000000E+00  0.00000000000E+00 -0.94905968306E+03  0.94905968306E+03  0.25500000920E-02 0.  1.
    10030    2    1    2    0    0  0.00000000000E+00  0.00000000000E+00 -0.50671206721E+00  0.18976126541E+04  0.18976125864E+04 0.  0.
        4    1    3    3  502    0  0.33419194679E+03 -0.79417070240E+03 -0.39754470823E+03  0.94891241418E+03  0.12699999809E+01 0. -1.
       -4    1    3    3    0  502 -0.33419194679E+03  0.79417070240E+03  0.39703799617E+03  0.94870023988E+03  0.12699999809E+01 0.  1.
</event>
<event>
 5   0  0.6361762E-05  0.1900344E+04  0.7818609E-02  0.8654685E-01
        2   -1    0    0  501    0  0.00000000000E+00  0.00000000000E+00  0.95612102503E+03  0.95612102504E+03  0.25500000920E-02 0.  1.
       -2   -1    0    0    0  501  0.00000000000E+00  0.00000000000E+00 -0.94425960420E+03  0.94425960421E+03  0.25500000920E-02 0. -1.
    10030    2    1    2    0    0  0.00000000000E+00  0.00000000000E+00  0.11861420830E+02  0.19003806292E+04  0.19003436117E+04 0.  0.
        1    1    3    3  502    0 -0.28371144147E+03  0.41083499139E+03  0.81437016404E+03  0.95523627248E+03  0.50400001928E-02 0.  1.
       -1    1    3    3    0  502  0.28371144147E+03 -0.41083499139E+03 -0.80250874321E+03  0.94514435676E+03  0.50400001928E-02 0. -1.
</event>
<event>
 5   0  0.6423388E-05  0.1900806E+04  0.7818609E-02  0.8654455E-01
       -2   -1    0    0    0  501  0.00000000000E+00  0.00000000000E+00  0.68326761143E+03  0.68326761144E+03  0.25500000920E-02 0. -1.
        2   -1    0    0  501    0  0.00000000000E+00  0.00000000000E+00 -0.13219791141E+04  0.13219791141E+04  0.25500000920E-02 0.  1.
    10030    2    1    2    0    0  0.00000000000E+00  0.00000000000E+00 -0.63871150264E+03  0.20052467255E+04  0.19008056309E+04 0.  0.
        2    1    3    3  502    0  0.26884066442E+03  0.30059226012E+03  0.58853183030E+03  0.71344286735E+03  0.25500000920E-02 0. -1.
       -2    1    3    3    0  502 -0.26884066442E+03 -0.30059226012E+03 -0.12272433329E+04  0.12918038582E+04  0.25500000920E-02 0.  1.
</event>
<event>
 5   0  0.3083469E-05  0.1893984E+04  0.7818609E-02  0.8657856E-01
        1   -1    0    0  501    0  0.00000000000E+00  0.00000000000E+00  0.30901682118E+03  0.30901682122E+03  0.50400001928E-02 0.  1.
       -1   -1    0    0    0  501  0.00000000000E+00  0.00000000000E+00 -0.29020889536E+04  0.29020889536E+04  0.50400001928E-02 0. -1.
    10030    2    1    2    0    0  0.00000000000E+00  0.00000000000E+00 -0.25930721324E+04  0.32111057749E+04  0.18939844807E+04 0.  0.
        3    1    3    3  502    0 -0.70324570558E+03 -0.63360596513E+03 -0.12490868709E+04  0.15672361222E+04  0.10100000352E+00 0.  1.
       -3    1    3    3    0  502  0.70324570558E+03  0.63360596513E+03 -0.13439852616E+04  0.16438696527E+04  0.10100000352E+00 0. -1.
</event>
<event>
 5   0  0.3203527E-05  0.1904873E+04  0.7818609E-02  0.8652434E-01
       -1   -1    0    0    0  501  0.00000000000E+00  0.00000000000E+00  0.70023890057E+03  0.70023890058E+03  0.50400001928E-02 0.  1.
        1   -1    0    0  501    0  0.00000000000E+00  0.00000000000E+00 -0.12954656688E+04  0.12954656688E+04  0.50400001928E-02 0. -1.
    10030    2    1    2    0    0  0.00000000000E+00  0.00000000000E+00 -0.59522676819E+03  0.19957045694E+04  0.19048731776E+04 0.  0.
        1    1    3    3  502    0  0.94058308704E+03 -0.49347428692E+02 -0.14943467015E+03  0.95365739813E+03  0.50400001928E-02 0. -1.
       -1    1    3    3    0  502 -0.94058308704E+03  0.49347428692E+02 -0.44579209805E+03  0.10420471712E+04  0.50400001928E-02 0.  1.
</event>
<event>
 5   0  0.3086139E-05  0.1894949E+04  0.7818609E-02  0.8657375E-01
       -1   -1    0    0    0  501  0.00000000000E+00  0.00000000000E+00  0.59034319297E+03  0.59034319299E+03  0.50400001928E-02 0. -1.
        1   -1    0    0  501    0  0.00000000000E+00  0.00000000000E+00 -0.15206539451E+04  0.15206539451E+04  0.50400001928E-02 0.  1.
    10030    2    1    2    0    0  0.00000000000E+00  0.00000000000E+00 -0.93031075214E+03  0.21109971381E+04  0.18949487649E+04 0.  0.
        2    1    3    3  502    0  0.74388832446E+03  0.11061357471E+03 -0.11071423954E+04  0.13384205191E+04  0.25500000920E-02 0.  1.
       -2    1    3    3    0  502 -0.74388832446E+03 -0.11061357471E+03  0.17683164328E+03  0.77257661902E+03  0.25500000920E-02 0. -1.
</event>
<event>
 5   0  0.6423388E-05  0.1924778E+04  0.7818609E-02  0.8642620E-01
        2   -1    0    0  501    0  0.00000000000E+00  0.00000000000E+00  0.11940548662E+04  0.11940548662E+04  0.25500000920E-02 0.  1.
       -2   -1    0    0    0  501  0.00000000000E+00  0.00000000000E+00 -0.77566987032E+03  0.77566987033E+03  0.25500000920E-02 0. -1.
    10030    2    1    2    0    0  0.00000000000E+00  0.00000000000E+00  0.41838499588E+03  0.19697247365E+04  0.19247777879E+04 0.  0.
        2    1    3    3  502    0 -0.91788845065E+03  0.11916162281E+03  0.47892613113E+03  0.10421559093E+04  0.25500000920E-02 0. -1.
       -2    1    3    3    0  502  0.91788845065E+03 -0.11916162281E+03 -0.60541135253E+02  0.92756882724E+03  0.25500000920E-02 0.  1.
</event>
<event>
 5   0  0.6098377E-05  0.1887558E+04  0.7818609E-02  0.8661074E-01
       -2   -1    0    0    0  501  0.00000000000E+00  0.00000000000E+00  0.61715200728E+03  0.61715200728E+03  0.25500000920E-02 0.  1.
        2   -1    0    0  501    0  0.00000000000E+00  0.00000000000E+00 -0.14432735723E+04  0.14432735723E+04  0.25500000920E-02 0. -1.
    10030    2    1    2    0    0  0.00000000000E+00  0.00000000000E+00 -0.82612156506E+03  0.20604255796E+04  0.18875584041E+04 0.  0.
        5    1    3    3  502    0 -0.49818303094E+03  0.68005611114E+03 -0.87622429357E+03  0.12159168348E+04  0.46999998093E+01 0. -1.
       -5    1    3    3    0  502  0.49818303094E+03 -0.68005611114E+03  0.50102728510E+02  0.84450874478E+03  0.46999998093E+01 0.  1.
</event>
<event>
 5   0  0.3203527E-05  0.1899723E+04  0.7818609E-02  0.8654994E-01
       -1   -1    0    0    0  501  0.00000000000E+00  0.00000000000E+00  0.12495255701E+04  0.12495255701E+04  0.50400001928E-02 0.  1.
        1   -1    0    0  501    0  0.00000000000E+00  0.00000000000E+00 -0.72206330049E+03  0.72206330051E+03  0.50400001928E-02 0. -1.
    10030    2    1    2    0    0  0.00000000000E+00  0.00000000000E+00  0.52746226960E+03  0.19715888706E+04  0.18997226716E+04 0.  0.
        1    1    3    3  502    0  0.50136628020E+03 -0.62175681474E+03 -0.26980513607E+03  0.84305663812E+03  0.50400001928E-02 0. -1.
       -1    1    3    3    0  502 -0.50136628020E+03  0.62175681474E+03  0.79726740568E+03  0.11285322325E+04  0.50400001928E-02 0.  1.
</event>
<event>
 5   0  0.6361762E-05  0.1957851E+04  0.7818609E-02  0.8626584E-01
        2   -1    0    0  501    0  0.00000000000E+00  0.00000000000E+00  0.18520960739E+04  0.18520960739E+04  0.25500000920E-02 0.  1.
       -2   -1    0    0    0  501  0.00000000000E+00  0.00000000000E+00 -0.51741128387E+03  0.51741128387E+03  0.25500000920E-02 0. -1.
    10030    2    1    2    0    0  0.00000000000E+00  0.00000000000E+00  0.13346847900E+04  0.23695073577E+04  0.19578512788E+04 0.  0.
        1    1    3    3  502    0  0.73349650513E+03 -0.38865558192E+03  0.12953084300E+04  0.15384713885E+04  0.50400001928E-02 0. -1.
       -1    1    3    3    0  502 -0.73349650513E+03  0.38865558192E+03  0.39376359989E+02  0.83103596923E+03  0.50400001928E-02 0.  1.
</event>
<event>
 5   0  0.3203527E-05  0.1898605E+04  0.7818609E-02  0.8655551E-01
        1   -1    0    0  501    0  0.00000000000E+00  0.00000000000E+00  0.86920318447E+03  0.86920318448E+03  0.50400001928E-02 0.  1.
       -1   -1    0    0    0  501  0.00000000000E+00  0.00000000000E+00 -0.10367830412E+04  0.10367830413E+04  0.50400001928E-02 0. -1.
    10030    2    1    2    0    0  0.00000000000E+00  0.00000000000E+00 -0.16757985677E+03  0.19059862257E+04  0.18986048784E+04 0.  0.
        1    1    3    3  502    0 -0.84948825651E+03 -0.27496168738E+02  0.34068818301E+03  0.91567176178E+03  0.50400001928E-02 0.  1.
       -1    1    3    3    0  502  0.84948825651E+03  0.27496168738E+02 -0.50826803978E+03  0.99031446396E+03  0.50400001928E-02 0. -1.
</event>
<event>
 5   0  0.6098377E-05  0.1948632E+04  0.7818609E-02  0.8631021E-01
       -2   -1    0    0    0  501  0.00000000000E+00  0.00000000000E+00  0.63123700953E+03  0.63123700953E+03  0.25500000920E-02 0.  1.
        2   -1    0    0  501    0  0.00000000000E+00  0.00000000000E+00 -0.15038590780E+04  0.15038590780E+04  0.25500000920E-02 0. -1.
    10030    2    1    2    0    0  0.00000000000E+00  0.00000000000E+00 -0.87262206848E+03  0.21350960875E+04  0.19486318351E+04 0.  0.
        5    1    3    3  502    0 -0.20471434797E+03 -0.74815596956E+03 -0.10823259848E+04  0.13315768646E+04  0.46999998093E+01 0. -1.
       -5    1    3    3    0  502  0.20471434797E+03  0.74815596956E+03  0.20970391632E+03  0.80351922290E+03  0.46999998093E+01 0.  1.
</event>
<event>
 5   0  0.6361762E-05  0.1907376E+04  0.7818609E-02  0.8651193E-01
        2   -1    0    0  501    0  0.00000000000E+00  0.00000000000E+00  0.14061753123E+04  0.14061753123E+04  0.25500000920E-02 0. -1.
       -2   -1    0    0    0  501  0.00000000000E+00  0.00000000000E+00 -0.64680503261E+03  0.64680503261E+03  0.25500000920E-02 0.  1.
    10030    2    1    2    0    0  0.00000000000E+00  0.00000000000E+00  0.75937027966E+03  0.20529803449E+04  0.19073764901E+04 0.  0.
        1    1    3    3  502    0 -0.36625589592E+03 -0.28443043507E+03  0.12766540020E+04  0.13582670925E+04  0.50400001928E-02 0. -1.
       -1    1    3    3    0  502  0.36625589592E+03  0.28443043507E+03 -0.51728372232E+03  0.69471325242E+03  0.50400001928E-02 0.  1.
</event>
<event>
 5   0  0.6098377E-05  0.1893477E+04  0.7818609E-02  0.8658110E-01
       -2   -1    0    0    0  501  0.00000000000E+00  0.00000000000E+00  0.63336145924E+03  0.63336145925E+03  0.25500000920E-02 0.  1.
        2   -1    0    0  501    0  0.00000000000E+00  0.00000000000E+00 -0.14151693324E+04  0.14151693324E+04  0.25500000920E-02 0. -1.
    10030    2    1    2    0    0  0.00000000000E+00  0.00000000000E+00 -0.78180787318E+03  0.20485307917E+04  0.18934769219E+04 0.  0.
        5    1    3    3  502    0  0.85416097825E+03  0.25513921278E+03 -0.73576108031E+03  0.11558777842E+04  0.46999998093E+01 0. -1.
       -5    1    3    3    0  502 -0.85416097825E+03 -0.25513921278E+03 -0.46046792866E+02  0.89265300749E+03  0.46999998093E+01 0.  1.
</event>
<event>
 5   0  0.6098377E-05  0.1902277E+04  0.7818609E-02  0.8653724E-01
        2   -1    0    0  501    0  0.00000000000E+00  0.00000000000E+00  0.97038498415E+03  0.97038498415E+03  0.25500000920E-02 0. -1.
       -2   -1    0    0    0  501  0.00000000000E+00  0.00000000000E+00 -0.93227344041E+03  0.93227344041E+03  0.25500000920E-02 0.  1.
    10030    2    1    2    0    0  0.00000000000E+00  0.00000000000E+00  0.38111543737E+02  0.19026584246E+04  0.19022766862E+04 0.  0.
        5    1    3    3  502    0 -0.56974027709E+03 -0.46080091422E+03 -0.58744911918E+03  0.93918050635E+03  0.46999998093E+01 0.  1.
       -5    1    3    3    0  502  0.56974027709E+03  0.46080091422E+03  0.62556066292E+03  0.96347791821E+03  0.46999998093E+01 0. -1.
</event>
<event>
 5   0  0.2279625E-05  0.1905857E+04  0.7818609E-02  0.8651947E-01
        4   -1    0    0  501    0  0.00000000000E+00  0.00000000000E+00  0.66520924885E+03  0.66521046118E+03  0.12699999809E+01 0.  1.
       -4   -1    0    0    0  501  0.00000000000E+00  0.00000000000E+00 -0.13650899812E+04  0.13650905719E+04  0.12699999809E+01 0. -1.
    10030    2    1    2    0    0  0.00000000000E+00  0.00000000000E+00 -0.69988073230E+03  0.20303010331E+04  0.19058565648E+04 0.  0.
        5    1    3    3  502    0  0.88682428298E+03  0.20295845102E+03 -0.65200532889E+03  0.11192776602E+04  0.46999998093E+01 0. -1.
       -5    1    3    3    0  502 -0.88682428298E+03 -0.20295845102E+03 -0.47875403415E+02  0.91102337290E+03  0.46999998093E+01 0.  1.
</event>
<event>
 5   0  0.6452182E-05  0.1878761E+04  0.7818609E-02  0.8665501E-01
       -2   -1    0    0    0  501  0.00000000000E+00  0.00000000000E+00  0.90898734084E+03  0.90898734085E+03  0.25500000920E-02 0. -1.
        2   -1    0    0  501    0  0.00000000000E+00  0.00000000000E+00 -0.97079019569E+03  0.97079019569E+03  0.25500000920E-02 0.  1.
    10030    2    1    2    0    0  0.00000000000E+00  0.00000000000E+00 -0.61802854844E+02  0.18797775365E+04  0.18787612924E+04 0.  0.
        3    1    3    3  502    0  0.28955528214E+03  0.17676611823E+03  0.84555611598E+03  0.91107281676E+03  0.10100000352E+00 0. -1.
       -3    1    3    3    0  502 -0.28955528214E+03 -0.17676611823E+03 -0.90735897083E+03  0.96870471977E+03  0.10100000352E+00 0.  1.
</event>
<event>
 5   0  0.3086139E-05  0.1908046E+04  0.7818609E-02  0.8650862E-01
        1   -1    0    0  501    0  0.00000000000E+00  0.00000000000E+00  0.72420136006E+03  0.72420136008E+03  0.50400001928E-02 0.  1.
       -1   -1    0    0    0  501  0.00000000000E+00  0.00000000000E+00 -0.12567771936E+04  0.12567771936E+04  0.50400001928E-02 0. -1.
    10030    2    1    2    0    0  0.00000000000E+00  0.00000000000E+00 -0.53257583351E+03  0.19809785537E+04  0.19080458620E+04 0.  0.
        2    1    3    3  502    0 -0.46293068038E+03  0.76420627331E+03  0.80925698466E+02  0.89714269305E+03  0.25500000920E-02 0.  1.
       -2    1    3    3    0  502  0.46293068038E+03 -0.76420627331E+03 -0.61350153197E+03  0.10838358606E+04  0.25500000920E-02 0. -1.
</event>
<event>
 5   0  0.6395992E-05  0.1900836E+04  0.7818609E-02  0.8654440E-01
       -2   -1    0    0    0  501  0.00000000000E+00  0.00000000000E+00  0.11035505159E+04  0.11035505159E+04  0.25500000920E-02 0. -1.
        2   -1    0    0  501    0  0.00000000000E+00  0.00000000000E+00 -0.81853505748E+03  0.81853505748E+03  0.25500000920E-02 0.  1.
    10030    2    1    2    0    0  0.00000000000E+00  0.00000000000E+00  0.28501545837E+03  0.19220855733E+04  0.19008364316E+04 0.  0.
        4    1    3    3  502    0 -0.22496390326E+03  0.31202073094E+03 -0.73630353307E+03  0.83072871626E+03  0.12699999809E+01 0.  1.
       -4    1    3    3    0  502  0.22496390326E+03 -0.31202073094E+03  0.10213189914E+04  0.10913568571E+04  0.12699999809E+01 0. -1.
</event>
<event>
 5   0  0.3083469E-05  0.1901434E+04  0.7818609E-02  0.8654143E-01
       -1   -1    0    0    0  501  0.00000000000E+00  0.00000000000E+00  0.11015720194E+04  0.11015720194E+04  0.50400001928E-02 0.  1.
        1   -1    0    0  501    0  0.00000000000E+00  0.00000000000E+00 -0.82052058458E+03  0.82052058460E+03  0.50400001928E-02 0. -1.
    10030    2    1    2    0    0  0.00000000000E+00  0.00000000000E+00  0.28105143484E+03  0.19220926040E+04  0.19014336879E+04 0.  0.
        3    1    3    3  502    0  0.50771134503E+03 -0.75264017316E+03 -0.14471820035E+03  0.91933748310E+03  0.10100000352E+00 0. -1.
       -3    1    3    3    0  502 -0.50771134503E+03  0.75264017316E+03  0.42576963519E+03  0.10027551209E+04  0.10100000352E+00 0.  1.
</event>
<event>
 5   0  0.6452182E-05  0.1902409E+04  0.7818609E-02  0.8653658E-01
        2   -1    0    0  501    0  0.00000000000E+00  0.00000000000E+00  0.14223356404E+04  0.14223356404E+04  0.25500000920E-02 0.  1.
       -2   -1    0    0    0  501  0.00000000000E+00  0.00000000000E+00 -0.63612957298E+03  0.63612957299E+03  0.25500000920E-02 0. -1.
    10030    2    1    2    0    0  0.00000000000E+00  0.00000000000E+00  0.78620606742E+03  0.20584652134E+04  0.19024087506E+04 0.  0.
        3    1    3    3  502    0 -0.38697607860E+03  0.29887334422E+03  0.12759461595E+04  0.13664239362E+04  0.10100000352E+00 0.  1.
       -3    1    3    3    0  502  0.38697607860E+03 -0.29887334422E+03 -0.48974009210E+03  0.69204127717E+03  0.10100000352E+00 0. -1.
</event>
<event>
 5   0  0.3144958E-05  0.1910264E+04  0.7818609E-02  0.8649764E-01
        1   -1    0    0  501    0  0.00000000000E+00  0.00000000000E+00  0.15704031350E+04  0.15704031350E+04  0.50400001928E-02 0.  1.
       -1   -1    0    0    0  501  0.00000000000E+00  0.00000000000E+00 -0.58091878404E+03  0.58091878406E+03  0.50400001928E-02 0. -1.
    10030    2    1    2    0    0  0.00000000000E+00  0.00000000000E+00  0.98948435096E+03  0.21513219191E+04  0.19102635207E+04 0.  0.
        4    1    3    3  502    0 -0.35571542492E+03 -0.39307923584E+03 -0.40001676100E+03  0.66412331020E+03  0.12699999809E+01 0. -1.
       -4    1    3    3    0  502  0.35571542492E+03  0.39307923584E+03  0.13895011120E+04  0.14871986089E+04  0.12699999809E+01 0.  1.
</event>
<event>
 5   0  0.6361762E-05  0.1917496E+04  0.7818609E-02  0.8646196E-01
       -2   -1    0    0    0  501  0.00000000000E+00  0.00000000000E+00  0.16426779406E+04  0.16426779406E+04  0.25500000920E-02 0.  1.
        2   -1    0    0  501    0  0.00000000000E+00  0.00000000000E+00 -0.55957281705E+03  0.55957281705E+03  0.25500000920E-02 0. -1.
    10030    2    1    2    0    0  0.00000000000E+00  0.00000000000E+00  0.10831051235E+04  0.22022507576E+04  0.19174962036E+04 0.  0.
        1    1    3    3  502    0 -0.40869612986E+03  0.28231906061E+02  0.15370925417E+04  0.15907492099E+04  0.50400001928E-02 0.  1.
       -1    1    3    3    0  502  0.40869612986E+03 -0.28231906061E+02 -0.45398741812E+03  0.61150154776E+03  0.50400001928E-02 0. -1.
</event>
<event>
 5   0  0.3147063E-05  0.1890627E+04  0.7818609E-02  0.8659536E-01
        1   -1    0    0  501    0  0.00000000000E+00  0.00000000000E+00  0.10973759438E+04  0.10973759438E+04  0.50400001928E-02 0. -1.
       -1   -1    0    0    0  501  0.00000000000E+00  0.00000000000E+00 -0.81432220565E+03  0.81432220567E+03  0.50400001928E-02 0.  1.
    10030    2    1    2    0    0  0.00000000000E+00  0.00000000000E+00  0.28305373814E+03  0.19116981495E+04  0.18906269849E+04 0.  0.
        5    1    3    3  502    0 -0.43134691647E+03 -0.16761711740E+03 -0.69194121606E+03  0.83244242856E+03  0.46999998093E+01 0.  1.
       -5    1    3    3    0  502  0.43134691647E+03  0.16761711740E+03  0.97499495420E+03  0.10792557209E+04  0.46999998093E+01 0. -1.
</event>
<event>
 5   0  0.3144958E-05  0.1896388E+04  0.7818609E-02  0.8656656E-01
        1   -1    0    0  501    0  0.00000000000E+00  0.00000000000E+00  0.98021503454E+03  0.98021503455E+03  0.50400001928E-02 0. -1.
       -1   -1    0    0    0  501  0.00000000000E+00  0.00000000000E+00 -0.91721938632E+03  0.91721938634E+03  0.50400001928E-02 0.  1.
    10030    2    1    2    0    0  0.00000000000E+00  0.00000000000E+00  0.62995648213E+02  0.18974344209E+04  0.18963883911E+04 0.  0.
        4    1    3    3  502    0 -0.73212213745E+03 -0.59969900118E+03  0.90086962669E+02  0.95066239533E+03  0.12699999809E+01 0.  1.
       -4    1    3    3    0  502  0.73212213745E+03  0.59969900118E+03 -0.27091314456E+02  0.94677202556E+03  0.12699999809E+01 0. -1.
</event>
<event>
 5   0  0.6452182E-05  0.1901816E+04  0.7818609E-02  0.8653953E-01
        2   -1    0    0  501    0  0.00000000000E+00  0.00000000000E+00  0.19097658622E+04  0.19097658622E+04  0.25500000920E-02 0. -1.
       -2   -1    0    0    0  501  0.00000000000E+00  0.00000000000E+00 -0.47347496025E+03  0.47347496026E+03  0.25500000920E-02 0.  1.
    10030    2    1    2    0    0  0.00000000000E+00  0.00000000000E+00  0.14362909019E+04  0.23832408224E+04  0.19018163063E+04 0.  0.
        3    1    3    3  502    0  0.21847679244E+03  0.80219868408E+03  0.13983628641E+03  0.84309491445E+03  0.10100000352E+00 0.  1.
       -3    1    3    3    0  502 -0.21847679244E+03 -0.80219868408E+03  0.12964546155E+04  0.15401459080E+04  0.10100000352E+00 0. -1.
</event>
<event>
 5   0  0.3147063E-05  0.1895869E+04  0.7818609E-02  0.8656915E-01
       -1   -1    0    0    0  501  0.00000000000E+00  0.00000000000E+00  0.40541755653E+03  0.40541755656E+03  0.50400001928E-02 0.  1.
        1   -1    0    0  501    0  0.00000000000E+00  0.00000000000E+00 -0.22164307523E+04  0.22164307523E+04  0.50400001928E-02 0. -1.
    10030    2    1    2    0    0  0.00000000000E+00  0.00000000000E+00 -0.18110131957E+04  0.26218483088E+04  0.18958691303E+04 0.  0.
        5    1    3    3  502    0  0.72004141122E+03  0.23004123230E+03 -0.16965350062E+04  0.18573184217E+04  0.46999998093E+01 0. -1.
       -5    1    3    3    0  502 -0.72004141122E+03 -0.23004123230E+03 -0.11447818956E+03  0.76452988713E+03  0.46999998093E+01 0.  1.
</event>
<event>
 5   0  0.3083469E-05  0.1903861E+04  0.7818609E-02  0.8652937E-01
       -1   -1    0    0    0  501  0.00000000000E+00  0.00000000000E+00  0.82565463816E+03  0.82565463818E+03  0.50400001928E-02 0.  1.
        1   -1    0    0  501    0  0.00000000000E+00  0.00000000000E+00 -0.10975187944E+04  0.10975187944E+04  0.50400001928E-02 0. -1.
    10030    2    1    2    0    0  0.00000000000E+00  0.00000000000E+00 -0.27186415624E+03  0.19231734326E+04  0.19038607965E+04 0.  0.
        3    1    3    3  502    0  0.53720670858E+03  0.50812476398E+03  0.46964027867E+03  0.87598163511E+03  0.10100000352E+00 0.  1.
       -3    1    3    3    0  502 -0.53720670858E+03 -0.50812476398E+03 -0.74150443491E+03  0.10471917975E+04  0.10100000352E+00 0. -1.
</event>
<event>
 5   0  0.3086139E-05  0.1895505E+04  0.7818609E-02  0.8657097E-01
        1   -1    0    0  501    0  0.00000000000E+00  0.00000000000E+00  0.14659388122E+04  0.14659388122E+04  0.50400001928E-02 0.  1.
       -1   -1    0    0    0  501  0.00000000000E+00  0.00000000000E+00 -0.61273657811E+03  0.61273657813E+03  0.50400001928E-02 0. -1.
    10030    2    1    2    0    0  0.00000000000E+00  0.00000000000E+00  0.85320223407E+03  0.20786753903E+04  0.18955045044E+04 0.  0.
        2    1    3    3  502    0  0.18173861174E+03 -0.40167591195E+03 -0.49343647618E+03  0.66170387430E+03  0.25500000920E-02 0. -1.
       -2    1    3    3    0  502 -0.18173861174E+03  0.40167591195E+03  0.13466387103E+04  0.14169715160E+04  0.25500000920E-02 0.  1.
</event>
<event>
 5   0  0.6423388E-05  0.1897988E+04  0.7818609E-02  0.8655859E-01
       -2   -1    0    0    0  501  0.00000000000E+00  0.00000000000E+00  0.64446207680E+03  0.64446207680E+03  0.25500000920E-02 0.  1.
        2   -1    0    0  501    0  0.00000000000E+00  0.00000000000E+00 -0.13974284507E+04  0.13974284507E+04  0.25500000920E-02 0. -1.
    10030    2    1    2    0    0  0.00000000000E+00  0.00000000000E+00 -0.75296637388E+03  0.20418905275E+04  0.18979880311E+04 0.  0.
        2    1    3    3  502    0  0.32573890111E+01  0.43833116578E+02  0.64336641857E+03  0.64486611110E+03  0.25500000920E-02 0.  1.
       -2    1    3    3    0  502 -0.32573890111E+01 -0.43833116578E+02 -0.13963327924E+04  0.13970244164E+04  0.25500000920E-02 0. -1.
</event>
<event>
 5   0  0.3086139E-05  0.1899519E+04  0.7818609E-02  0.8655096E-01
        1   -1    0    0  501    0  0.00000000000E+00  0.00000000000E+00  0.82189055068E+03  0.82189055069E+03  0.50400001928E-02 0. -1.
       -1   -1    0    0    0  501  0.00000000000E+00  0.00000000000E+00 -0.10975221624E+04  0.10975221624E+04  0.50400001928E-02 0.  1.
    10030    2    1    2    0    0  0.00000000000E+00  0.00000000000E+00 -0.27563161172E+03  0.19194127131E+04  0.18995189859E+04 0.  0.
        2    1    3    3  502    0  0.32080158726E+03 -0.18557345754E+03  0.74580916667E+03  0.83281599385E+03  0.25500000920E-02 0. -1.
       -2    1    3    3    0  502 -0.32080158726E+03  0.18557345754E+03 -0.10214407784E+04  0.10865967193E+04  0.25500000920E-02 0.  1.
</event>
<event>
 5   0  0.3086139E-05  0.1897796E+04  0.7818609E-02  0.8655954E-01
       -1   -1    0    0    0  501  0.00000000000E+00  0.00000000000E+00  0.66104456037E+03  0.66104456039E+03  0.50400001928E-02 0. -1.
        1   -1    0    0  501    0  0.00000000000E+00  0.00000000000E+00 -0.13620983644E+04  0.13620983644E+04  0.50400001928E-02 0.  1.
    10030    2    1    2    0    0  0.00000000000E+00  0.00000000000E+00 -0.70105380400E+03  0.20231429248E+04  0.18977963162E+04 0.  0.
        2    1    3    3  502    0  0.26233281081E+03 -0.47904118397E+03 -0.11777343504E+04  0.12982130641E+04  0.25500000920E-02 0.  1.
       -2    1    3    3    0  502 -0.26233281081E+03  0.47904118397E+03  0.47668054642E+03  0.72492986069E+03  0.25500000920E-02 0. -1.
</event>
<event>
 5   0  0.3083469E-05  0.1901274E+04  0.7818609E-02  0.8654223E-01
        1   -1    0    0  501    0  0.00000000000E+00  0.00000000000E+00  0.19890276057E+04  0.19890276057E+04  0.50400001928E-02 0. -1.
       -1   -1    0    0    0  501  0.00000000000E+00  0.00000000000E+00 -0.45434783528E+03  0.45434783530E+03  0.50400001928E-02 0.  1.
    10030    2    1    2    0    0  0.00000000000E+00  0.00000000000E+00  0.15346797704E+04  0.24433754410E+04  0.19012736647E+04 0.  0.
        3    1    3    3  502    0  0.29166705407E+03 -0.50124537471E+03  0.17353677468E+04  0.18297042993E+04  0.10100000352E+00 0. -1.
       -3    1    3    3    0  502 -0.29166705407E+03  0.50124537471E+03 -0.20068797637E+03  0.61367114170E+03  0.10100000352E+00 0.  1.
</event>
<event>
 5   0  0.6361762E-05  0.1886935E+04  0.7818609E-02  0.8661387E-01
       -2   -1    0    0    0  501  0.00000000000E+00  0.00000000000E+00  0.10955262862E+04  0.10955262862E+04  0.25500000920E-02 0.  1.
        2   -1    0    0  501    0  0.00000000000E+00  0.00000000000E+00 -0.81251463076E+03  0.81251463077E+03  0.25500000920E-02 0. -1.
    10030    2    1    2    0    0  0.00000000000E+00  0.00000000000E+00  0.28301165548E+03  0.19080409170E+04  0.18869352251E+04 0.  0.
        1    1    3    3  502    0 -0.50887207616E+03 -0.44998430978E+03  0.80357692767E+03  0.10522226702E+04  0.50400001928E-02 0.  1.
       -1    1    3    3    0  502  0.50887207616E+03  0.44998430978E+03 -0.52056527220E+03  0.85581824682E+03  0.50400001928E-02 0. -1.
</event>
<event>
 5   0  0.6395992E-05  0.1902531E+04  0.7818609E-02  0.8653598E-01
        2   -1    0    0  501    0  0.00000000000E+00  0.00000000000E+00  0.12703133423E+04  0.12703133423E+04  0.25500000920E-02 0.  1.
       -2   -1    0    0    0  501  0.00000000000E+00  0.00000000000E+00 -0.71234848815E+03  0.71234848815E+03  0.25500000920E-02 0. -1.
    10030    2    1    2    0    0  0.00000000000E+00  0.00000000000E+00  0.55796485412E+03  0.19826618304E+04  0.19025307239E+04 0.  0.
        4    1    3    3  502    0 -0.30724299519E+03  0.82615211580E+03 -0.93825933590E+02  0.88641440380E+03  0.12699999809E+01 0. -1.
       -4    1    3    3    0  502  0.30724299519E+03 -0.82615211580E+03  0.65179078771E+03  0.10962474266E+04  0.12699999809E+01 0.  1.
</event>
<event>
 5   0  0.3203527E-05  0.1898201E+04  0.7818609E-02  0.8655753E-01
        1   -1    0    0  501    0  0.00000000000E+00  0.00000000000E+00  0.97264634510E+03  0.97264634511E+03  0.50400001928E-02 0.  1.
       -1   -1    0    0    0  501  0.00000000000E+00  0.00000000000E+00 -0.92612432520E+03  0.92612432521E+03  0.50400001928E-02 0. -1.
    10030    2    1    2    0    0  0.00000000000E+00  0.00000000000E+00  0.46522019900E+02  0.18987706703E+04  0.18982006638E+04 0.  0.
        1    1    3    3  502    0 -0.69030262302E+03 -0.59333585202E+03 -0.24556919526E+03  0.94279869237E+03  0.50400001928E-02 0.  1.
       -1    1    3    3    0  502  0.69030262302E+03  0.59333585202E+03  0.29209121516E+03  0.95597197796E+03  0.50400001928E-02 0. -1.
</event>
<event>
 5   0  0.6361762E-05  0.1900658E+04  0.7818609E-02  0.8654529E-01
        2   -1    0    0  501    0  0.00000000000E+00  0.00000000000E+00  0.67950184604E+03  0.67950184605E+03  0.25500000920E-02 0. -1.
       -2   -1    0    0    0  501  0.00000000000E+00  0.00000000000E+00 -0.13290992126E+04  0.13290992126E+04  0.25500000920E-02 0.  1.
    10030    2    1    2    0    0  0.00000000000E+00  0.00000000000E+00 -0.64959736660E+03  0.20086010587E+04  0.19006581687E+04 0.  0.
        1    1    3    3  502    0  0.17179547138E+03 -0.22895091451E+03  0.63286348942E+03  0.69458505707E+03  0.50400001928E-02 0. -1.
       -1    1    3    3    0  502 -0.17179547138E+03  0.22895091451E+03 -0.12824608560E+04  0.13140160016E+04  0.50400001928E-02 0.  1.
</event>
<event>
 5   0  0.6395992E-05  0.1900884E+04  0.7818609E-02  0.8654416E-01
       -2   -1    0    0    0  501  0.00000000000E+00  0.00000000000E+00  0.74778855271E+03  0.74778855272E+03  0.25500000920E-02 0.  1.
        2   -1    0    0  501    0  0.00000000000E+00  0.00000000000E+00 -0.12080155780E+04  0.12080155780E+04  0.25500000920E-02 0. -1.
    10030    2    1    2    0    0  0.00000000000E+00  0.00000000000E+00 -0.46022702526E+03  0.19558041307E+04  0.19008842371E+04 0.  0.
        4    1    3    3  502    0 -0.13680354461E+03 -0.21030773682E+03  0.71310252199E+03  0.75595064241E+03  0.12699999809E+01 0.  1.
       -4    1    3    3    0  502  0.13680354461E+03  0.21030773682E+03 -0.11733295472E+04  0.11998534883E+04  0.12699999809E+01 0. -1.
</event>
<event>
 5   0  0.6098377E-05  0.1885812E+04  0.7818609E-02  0.8661951E-01
        2   -1    0    0  501    0  0.00000000000E+00  0.00000000000E+00  0.73554696870E+03  0.73554696870E+03  0.25500000920E-02 0.  1.
       -2   -1    0    0    0  501  0.00000000000E+00  0.00000000000E+00 -0.12087215761E+04  0.12087215761E+04  0.25500000920E-02 0. -1.
    10030    2    1    2    0    0  0.00000000000E+00  0.00000000000E+00 -0.47317460738E+03  0.19442685448E+04  0.18858117523E+04 0.  0.
        5    1    3    3  502    0  0.76097853013E+03 -0.53244381884E+02 -0.80795579136E+03  0.11111876252E+04  0.46999998093E+01 0. -1.
       -5    1    3    3    0  502 -0.76097853013E+03  0.53244381884E+02  0.33478118397E+03  0.83308091964E+03  0.46999998093E+01 0.  1.
</event>
<event>
 5   0  0.6361762E-05  0.1840643E+04  0.7818609E-02  0.8684980E-01
       -2   -1    0    0    0  501  0.00000000000E+00  0.00000000000E+00  0.53090571223E+03  0.53090571224E+03  0.25500000920E-02 0. -1.
        2   -1    0    0  501    0  0.00000000000E+00  0.00000000000E+00 -0.15953707914E+04  0.15953707914E+04  0.25500000920E-02 0.  1.
    10030    2    1    2    0    0  0.00000000000E+00  0.00000000000E+00 -0.10644650792E+04  0.21262765036E+04  0.18406427859E+04 0.  0.
        1    1    3    3  502    0 -0.40933969100E+03 -0.81499108655E+03 -0.38970911017E+03  0.99178760042E+03  0.50400001928E-02 0.  1.
       -1    1    3    3    0  502  0.40933969100E+03  0.81499108655E+03 -0.67475596898E+03  0.11344889032E+04  0.50400001928E-02 0. -1.
</event>
<event>
 5   0  0.6098377E-05  0.1897393E+04  0.7818609E-02  0.8656155E-01
        2   -1    0    0  501    0  0.00000000000E+00  0.00000000000E+00  0.19360512440E+04  0.19360512440E+04  0.25500000920E-02 0. -1.
       -2   -1    0    0    0  501  0.00000000000E+00  0.00000000000E+00 -0.46487647640E+03  0.46487647641E+03  0.25500000920E-02 0.  1.
    10030    2    1    2    0    0  0.00000000000E+00  0.00000000000E+00  0.14711747676E+04  0.24009277204E+04  0.18973926114E+04 0.  0.
        5    1    3    3  502    0  0.75513839533E+03  0.25853470109E+03  0.13844318908E+04  0.15980450363E+04  0.46999998093E+01 0. -1.
       -5    1    3    3    0  502 -0.75513839533E+03 -0.25853470109E+03  0.86742876806E+02  0.80288268411E+03  0.46999998093E+01 0.  1.
</event>
<event>
 5   0  0.6361762E-05  0.1903340E+04  0.7818609E-02  0.8653195E-01
        2   -1    0    0  501    0  0.00000000000E+00  0.00000000000E+00  0.12282732892E+04  0.12282732892E+04  0.25500000920E-02 0. -1.
       -2   -1    0    0    0  501  0.00000000000E+00  0.00000000000E+00 -0.73735726030E+03  0.73735726030E+03  0.25500000920E-02 0.  1.
    10030    2    1    2    0    0  0.00000000000E+00  0.00000000000E+00  0.49091602893E+03  0.19656305495E+04  0.19033404608E+04 0.  0.
        1    1    3    3  502    0  0.12853392196E+03 -0.93939219453E+03  0.32997496582E+03  0.10039233747E+04  0.50400001928E-02 0. -1.
       -1    1    3    3    0  502 -0.12853392196E+03  0.93939219453E+03  0.16094106311E+03  0.96170717480E+03  0.50400001928E-02 0.  1.
</event>
<event>
 5   0  0.3144958E-05  0.1883378E+04  0.7818609E-02  0.8663175E-01
       -1   -1    0    0    0  501  0.00000000000E+00  0.00000000000E+00  0.33204684585E+03  0.33204684589E+03  0.50400001928E-02 0.  1.
        1   -1    0    0  501    0  0.00000000000E+00  0.00000000000E+00 -0.26706416206E+04  0.26706416206E+04  0.50400001928E-02 0. -1.
    10030    2    1    2    0    0  0.00000000000E+00  0.00000000000E+00 -0.23385947747E+04  0.30026884665E+04  0.18833779510E+04 0.  0.
        4    1    3    3  502    0  0.41123195785E+03  0.45003356647E+03 -0.25015177607E+02  0.61013875973E+03  0.12699999809E+01 0.  1.
       -4    1    3    3    0  502 -0.41123195785E+03 -0.45003356647E+03 -0.23135795971E+04  0.23925497067E+04  0.12699999809E+01 0. -1.
</event>
<event>
 5   0  0.3083469E-05  0.1896454E+04  0.7818609E-02  0.8656623E-01
       -1   -1    0    0    0  501  0.00000000000E+00  0.00000000000E+00  0.87119693174E+03  0.87119693176E+03  0.50400001928E-02 0.  1.
        1   -1    0    0  501    0  0.00000000000E+00  0.00000000000E+00 -0.10320681742E+04  0.10320681742E+04  0.50400001928E-02 0. -1.
    10030    2    1    2    0    0  0.00000000000E+00  0.00000000000E+00 -0.16087124244E+03  0.19032651059E+04  0.18964541932E+04 0.  0.
        3    1    3    3  502    0  0.26217646252E+03 -0.10400770899E+03  0.82812255433E+03  0.87483774280E+03  0.10100000352E+00 0.  1.
       -3    1    3    3    0  502 -0.26217646252E+03  0.10400770899E+03 -0.98899379677E+03  0.10284273632E+04  0.10100000352E+00 0. -1.
</event>
<event>
 5   0  0.6361762E-05  0.1881194E+04  0.7818609E-02  0.8664274E-01
       -2   -1    0    0    0  501  0.00000000000E+00  0.00000000000E+00  0.45739106268E+03  0.45739106268E+03  0.25500000920E-02 0.  1.
        2   -1    0    0  501    0  0.00000000000E+00  0.00000000000E+00 -0.19342806755E+04  0.19342806755E+04  0.25500000920E-02 0. -1.
    10030    2    1    2    0    0  0.00000000000E+00  0.00000000000E+00 -0.14768896128E+04  0.23916717381E+04  0.18811939758E+04 0.  0.
        1    1    3    3  502    0 -0.28428698688E+03 -0.62096592925E+03  0.83825253607E+02  0.68807299712E+03  0.50400001928E-02 0.  1.
       -1    1    3    3    0  502  0.28428698688E+03  0.62096592925E+03 -0.15607148664E+04  0.17035987410E+04  0.50400001928E-02 0. -1.
</event>
<event>
 5   0  0.3086139E-05  0.1898145E+04  0.7818609E-02  0.8655780E-01
        1   -1    0    0  501    0  0.00000000000E+00  0.00000000000E+00  0.18530647294E+04  0.18530647294E+04  0.50400001928E-02 0.  1.
       -1   -1    0    0    0  501  0.00000000000E+00  0.00000000000E+00 -0.48608038511E+03  0.48608038514E+03  0.50400001928E-02 0. -1.
    10030    2    1    2    0    0  0.00000000000E+00  0.00000000000E+00  0.13669843442E+04  0.23391451145E+04  0.18981447967E+04 0.  0.
        2    1    3    3  502    0  0.59508252413E+03  0.15610793035E+03 -0.20707193659E+03  0.64913148389E+03  0.25500000920E-02 0. -1.
       -2    1    3    3    0  502 -0.59508252413E+03 -0.15610793035E+03  0.15740562808E+04  0.16900136306E+04  0.25500000920E-02 0.  1.
</event>
<event>
 5   0  0.6423388E-05  0.1904041E+04  0.7818609E-02  0.8652848E-01
        2   -1    0    0  501    0  0.00000000000E+00  0.00000000000E+00  0.24673794797E+04  0.24673794797E+04  0.25500000920E-02 0. -1.
       -2   -1    0    0    0  501  0.00000000000E+00  0.00000000000E+00 -0.36733020481E+03  0.36733020481E+03  0.25500000920E-02 0.  1.
    10030    2    1    2    0    0  0.00000000000E+00  0.00000000000E+00  0.21000492749E+04  0.28347096845E+04  0.19040409761E+04 0.  0.
        2    1    3    3  502    0  0.27942365545E+03  0.56337264986E+03 -0.14094710774E+02  0.62901906387E+03  0.25500000920E-02 0.  1.
       -2    1    3    3    0  502 -0.27942365545E+03 -0.56337264986E+03  0.21141439857E+04  0.22056906206E+04  0.25500000920E-02 0. -1.
</event>
<event>
 5   0  0.3144958E-05  0.1899749E+04  0.7818609E-02  0.8654981E-01
        1   -1    0    0  501    0  0.00000000000E+00  0.00000000000E+00  0.68157545798E+03  0.68157545800E+03  0.50400001928E-02 0.  1.
       -1   -1    0    0    0  501  0.00000000000E+00  0.00000000000E+00 -0.13237881599E+04  0.13237881599E+04  0.50400001928E-02 0. -1.
    10030    2    1    2    0    0  0.00000000000E+00  0.00000000000E+00 -0.64221270189E+03  0.20053636179E+04  0.18997489533E+04 0.  0.
        4    1    3    3  502    0 -0.28056445856E+03 -0.39932417727E+03  0.53911125337E+03  0.72719926455E+03  0.12699999809E+01 0.  1.
       -4    1    3    3    0  502  0.28056445856E+03  0.39932417727E+03 -0.11813239553E+04  0.12781643533E+04  0.12699999809E+01 0. -1.
</event>
<event>
 5   0  0.6098377E-05  0.1907776E+04  0.7818609E-02  0.8650996E-01
        2   -1    0    0  501    0  0.00000000000E+00  0.00000000000E+00  0.11833458064E+04  0.11833458064E+04  0.25500000920E-02 0. -1.
       -2   -1    0    0    0  501  0.00000000000E+00  0.00000000000E+00 -0.76892308683E+03  0.76892308684E+03  0.25500000920E-02 0.  1.
    10030    2    1    2    0    0  0.00000000000E+00  0.00000000000E+00  0.41442271952E+03  0.19522688932E+04  0.19077755740E+04 0.  0.
        5    1    3    3  502    0  0.86983619323E+03 -0.10043114704E+03 -0.18000268887E+03  0.89393762441E+03  0.46999998093E+01 0.  1.
       -5    1    3    3    0  502 -0.86983619323E+03  0.10043114704E+03  0.59442540839E+03  0.10583312688E+04  0.46999998093E+01 0. -1.
</event>
<event>
 5   0  0.3144958E-05  0.1857454E+04  0.7818609E-02  0.8676329E-01
       -1   -1    0    0    0  501  0.00000000000E+00  0.00000000000E+00  0.71383206640E+03  0.71383206642E+03  0.50400001928E-02 0.  1.
        1   -1    0    0  501    0  0.00000000000E+00  0.00000000000E+00 -0.12083142182E+04  0.12083142182E+04  0.50400001928E-02 0. -1.
    10030    2    1    2    0    0  0.00000000000E+00  0.00000000000E+00 -0.49448215176E+03  0.19221462846E+04  0.18574535636E+04 0.  0.
        4    1    3    3  502    0  0.49147764292E+03 -0.47409563708E+03 -0.89862023585E+03  0.11286438268E+04  0.12699999809E+01 0. -1.
       -4    1    3    3    0  502 -0.49147764292E+03  0.47409563708E+03  0.40413808409E+03  0.79350245778E+03  0.12699999809E+01 0.  1.
</event>
<event>
 5   0  0.6361762E-05  0.1899255E+04  0.7818609E-02  0.8655227E-01
       -2   -1    0    0    0  501  0.00000000000E+00  0.00000000000E+00  0.53432472794E+03  0.53432472794E+03  0.25500000920E-02 0.  1.
        2   -1    0    0  501    0  0.00000000000E+00  0.00000000000E+00 -0.16877229743E+04  0.16877229743E+04  0.25500000920E-02 0. -1.
    10030    2    1    2    0    0  0.00000000000E+00  0.00000000000E+00 -0.11533982464E+04  0.22220477023E+04  0.18992547161E+04 0.  0.
        1    1    3    3  502    0  0.16126788750E+02  0.26305815051E+03 -0.16440779393E+04  0.16650681471E+04  0.50400001928E-02 0. -1.
       -1    1    3    3    0  502 -0.16126788750E+02 -0.26305815051E+03  0.49067969291E+03  0.55697955521E+03  0.50400001928E-02 0.  1.
</event>
<event>
 5   0  0.3086139E-05  0.1899483E+04  0.7818609E-02  0.8655114E-01
        1   -1    0    0  501    0  0.00000000000E+00  0.00000000000E+00  0.11722852297E+04  0.11722852297E+04  0.50400001928E-02 0. -1.
       -1   -1    0    0    0  501  0.00000000000E+00  0.00000000000E+00 -0.76944507851E+03  0.76944507852E+03  0.50400001928E-02 0.  1.
    10030    2    1    2    0    0  0.00000000000E+00  0.00000000000E+00  0.40284015121E+03  0.19417303083E+04  0.18994831935E+04 0.  0.
        2    1    3    3  502    0 -0.11128281176E+03 -0.47973979226E+03  0.10315625057E+04  0.11430902570E+04  0.25500000920E-02 0. -1.
       -2    1    3    3    0  502  0.11128281176E+03  0.47973979226E+03 -0.62872235447E+03  0.79864005127E+03  0.25500000920E-02 0.  1.
</event>
<event>
 5   0  0.3086139E-05  0.1897345E+04  0.7818609E-02  0.8656179E-01
        1   -1    0    0  501    0  0.00000000000E+00  0.00000000000E+00  0.13079147781E+04  0.13079147781E+04  0.50400001928E-02 0. -1.
       -1   -1    0    0    0  501  0.00000000000E+00  0.00000000000E+00 -0.68810291009E+03  0.68810291010E+03  0.50400001928E-02 0.  1.
    10030    2    1    2    0    0  0.00000000000E+00  0.00000000000E+00  0.61981186802E+03  0.19960176882E+04  0.18973454772E+04 0.  0.
        2    1    3    3  502    0 -0.23458546278E+03  0.99843445226E+02 -0.65138809101E+03  0.69950375125E+03  0.25500000920E-02 0.  1.
       -2    1    3    3    0  502  0.23458546278E+03 -0.99843445226E+02  0.12711999590E+04  0.12965139370E+04  0.25500000920E-02 0. -1.
</event>
<event>
 5   0  0.3147063E-05  0.1879444E+04  0.7818609E-02  0.8665157E-01
       -1   -1    0    0    0  501  0.00000000000E+00  0.00000000000E+00  0.59031571596E+03  0.59031571598E+03  0.50400001928E-02 0.  1.
        1   -1    0    0  501    0  0.00000000000E+00  0.00000000000E+00 -0.14959408689E+04  0.14959408689E+04  0.50400001928E-02 0. -1.
    10030    2    1    2    0    0  0.00000000000E+00  0.00000000000E+00 -0.90562515290E+03  0.20862565848E+04  0.18794439657E+04 0.  0.
        5    1    3    3  502    0  0.67879267510E+03 -0.29974265157E+03 -0.10928444656E+04  0.13209603586E+04  0.46999998093E+01 0. -1.
       -5    1    3    3    0  502 -0.67879267510E+03  0.29974265157E+03  0.18721931267E+03  0.76529622629E+03  0.46999998093E+01 0.  1.
</event>
<event>
 5   0  0.3147063E-05  0.1934136E+04  0.7818609E-02  0.8638049E-01
       -1   -1    0    0    0  501  0.00000000000E+00  0.00000000000E+00  0.10970532707E+04  0.10970532707E+04  0.50400001928E-02 0.  1.
        1   -1    0    0  501    0  0.00000000000E+00  0.00000000000E+00 -0.85248421987E+03  0.85248421989E+03  0.50400001928E-02 0. -1.
    10030    2    1    2    0    0  0.00000000000E+00  0.00000000000E+00  0.24456905085E+03  0.19495374906E+04  0.19341360880E+04 0.  0.
        5    1    3    3  502    0 -0.39472211353E+03 -0.29561042853E+03  0.96077849728E+03  0.10799576303E+04  0.46999998093E+01 0.  1.
       -5    1    3    3    0  502  0.39472211353E+03  0.29561042853E+03 -0.71620944643E+03  0.86957986034E+03  0.46999998093E+01 0. -1.
</event>
<event>
 5   0  0.3144958E-05  0.1907246E+04  0.7818609E-02  0.8651258E-01
        1   -1    0    0  501    0  0.00000000000E+00  0.00000000000E+00  0.16854929881E+04  0.16854929881E+04  0.50400001928E-02 0.  1.
       -1   -1    0    0    0  501  0.00000000000E+00  0.00000000000E+00 -0.53954337419E+03  0.53954337422E+03  0.50400001928E-02 0. -1.
    10030    2    1    2    0    0  0.00000000000E+00  0.00000000000E+00  0.11459496139E+04  0.22250363623E+04  0.19072457356E+04 0.  0.
        4    1    3    3  502    0 -0.30777608983E+03 -0.45795591985E+03  0.14803533040E+04  0.15798408982E+04  0.12699999809E+01 0.  1.
       -4    1    3    3    0  502  0.30777608983E+03  0.45795591985E+03 -0.33440369015E+03  0.64519546409E+03  0.12699999809E+01 0. -1.
</event>
<event>
 5   0  0.6395992E-05  0.1898248E+04  0.7818609E-02  0.8655729E-01
        2   -1    0    0  501    0  0.00000000000E+00  0.00000000000E+00  0.25636060070E+04  0.25636060070E+04  0.25500000920E-02 0.  1.
       -2   -1    0    0    0  501  0.00000000000E+00  0.00000000000E+00 -0.35139430572E+03  0.35139430573E+03  0.25500000920E-02 0. -1.
    10030    2    1    2    0    0  0.00000000000E+00  0.00000000000E+00  0.22122117013E+04  0.29150003128E+04  0.18982481956E+04 0.  0.
        4    1    3    3  502    0  0.57463982794E+03  0.28129984735E+03  0.29529342850E+02  0.64047961011E+03  0.12699999809E+01 0. -1.
       -4    1    3    3    0  502 -0.57463982794E+03 -0.28129984735E+03  0.21826823585E+04  0.22745207027E+04  0.12699999809E+01 0.  1.
</event>
<event>
 5   0  0.6361762E-05  0.1896323E+04  0.7818609E-02  0.8656689E-01
        2   -1    0    0  501    0  0.00000000000E+00  0.00000000000E+00  0.15414592688E+04  0.15414592688E+04  0.25500000920E-02 0. -1.
       -2   -1    0    0    0  501  0.00000000000E+00  0.00000000000E+00 -0.58322048938E+03  0.58322048938E+03  0.25500000920E-02 0.  1.
    10030    2    1    2    0    0  0.00000000000E+00  0.00000000000E+00  0.95823877944E+03  0.21246797582E+04  0.18963234209E+04 0.  0.
        1    1    3    3  502    0  0.36950840012E+03 -0.84772383815E+03  0.71370898379E+03  0.11681406923E+04  0.50400001928E-02 0. -1.
       -1    1    3    3    0  502 -0.36950840012E+03  0.84772383815E+03  0.24452979565E+03  0.95653906586E+03  0.50400001928E-02 0.  1.
</event>
<event>
 5   0  0.6098377E-05  0.1902961E+04  0.7818609E-02  0.8653384E-01
       -2   -1    0    0    0  501  0.00000000000E+00  0.00000000000E+00  0.68858676864E+03  0.68858676864E+03  0.25500000920E-02 0. -1.
        2   -1    0    0  501    0  0.00000000000E+00  0.00000000000E+00 -0.13147432887E+04  0.13147432887E+04  0.25500000920E-02 0.  1.
    10030    2    1    2    0    0  0.00000000000E+00  0.00000000000E+00 -0.62615652008E+03  0.20033300574E+04  0.19029606751E+04 0.  0.
        5    1    3    3  502    0  0.29907708181E+02  0.92654583993E+03 -0.87508207955E+02  0.93116133992E+03  0.46999998093E+01 0. -1.
       -5    1    3    3    0  502 -0.29907708181E+02 -0.92654583993E+03 -0.53864831213E+03  0.10721687174E+04  0.46999998093E+01 0.  1.
</event>
<event>
 5   0  0.6423388E-05  0.1845064E+04  0.7818609E-02  0.8682695E-01
        2   -1    0    0  501    0  0.00000000000E+00  0.00000000000E+00  0.67799997003E+03  0.67799997004E+03  0.25500000920E-02 0. -1.
       -2   -1    0    0    0  501  0.00000000000E+00  0.00000000000E+00 -0.12552592351E+04  0.12552592351E+04  0.25500000920E-02 0.  1.
    10030    2    1    2    0    0  0.00000000000E+00  0.00000000000E+00 -0.57725926503E+03  0.19332592051E+04  0.18450644691E+04 0.  0.
        2    1    3    3  502    0 -0.14378839683E+03 -0.48049078254E+03 -0.10999270613E+04  0.12088780068E+04  0.25500000920E-02 0.  1.
       -2    1    3    3    0  502  0.14378839683E+03  0.48049078254E+03  0.52266779628E+03  0.72438119829E+03  0.25500000920E-02 0. -1.
</event>
<event>
 5   0  0.3086139E-05  0.1898918E+04  0.7818609E-02  0.8655395E-01
        1   -1    0    0  501    0  0.00000000000E+00  0.00000000000E+00  0.22251404443E+04  0.22251404443E+04  0.50400001928E-02 0. -1.
       -1   -1    0    0    0  501  0.00000000000E+00  0.00000000000E+00 -0.40513039714E+03  0.40513039718E+03  0.50400001928E-02 0.  1.
    10030    2    1    2    0    0  0.00000000000E+00  0.00000000000E+00  0.18200100472E+04  0.26302708415E+04  0.18989176201E+04 0.  0.
        2    1    3    3  502    0  0.17159332428E+03 -0.91551269549E+03  0.11649022962E+04  0.14915110205E+04  0.25500000920E-02 0. -1.
       -2    1    3    3    0  502 -0.17159332428E+03  0.91551269549E+03  0.65510775094E+03  0.11387598210E+04  0.25500000920E-02 0.  1.
</event>
<event>
 5   0  0.3203527E-05  0.1901065E+04  0.7818609E-02  0.8654327E-01
       -1   -1    0    0    0  501  0.00000000000E+00  0.00000000000E+00  0.54785718934E+03  0.54785718936E+03  0.50400001928E-02 0. -1.
        1   -1    0    0  501    0  0.00000000000E+00  0.00000000000E+00 -0.16491736441E+04  0.16491736441E+04  0.50400001928E-02 0.  1.
    10030    2    1    2    0    0  0.00000000000E+00  0.00000000000E+00 -0.11013164548E+04  0.21970308335E+04  0.19010645833E+04 0.  0.
        1    1    3    3  502    0 -0.18080415500E+03  0.55281850963E+03 -0.14195094670E+04  0.15340487522E+04  0.50400001928E-02 0.  1.
       -1    1    3    3    0  502  0.18080415500E+03 -0.55281850963E+03  0.31819301225E+03  0.66298208130E+03  0.50400001928E-02 0. -1.
</event>
<event>
 5   0  0.6098377E-05  0.1895488E+04  0.7818609E-02  0.8657105E-01
        2   -1    0    0  501    0  0.00000000000E+00  0.00000000000E+00  0.10457912636E+04  0.10457912636E+04  0.25500000920E-02 0. -1.
       -2   -1    0    0    0  501  0.00000000000E+00  0.00000000000E+00 -0.85888919395E+03  0.85888919395E+03  0.25500000920E-02 0.  1.
    10030    2    1    2    0    0  0.00000000000E+00  0.00000000000E+00  0.18690206966E+03  0.19046804576E+04  0.18954881328E+04 0.  0.
        5    1    3    3  502    0  0.16100717238E+03 -0.59603311525E+02 -0.84312099007E+03  0.86043649283E+03  0.46999998093E+01 0.  1.
       -5    1    3    3    0  502 -0.16100717238E+03  0.59603311525E+02  0.10300230597E+04  0.10442439647E+04  0.46999998093E+01 0. -1.
</event>
<event>
 5   0  0.6361762E-05  0.1927622E+04  0.7818609E-02  0.8641228E-01
       -2   -1    0    0    0  501  0.00000000000E+00  0.00000000000E+00  0.68048273605E+03  0.68048273605E+03  0.25500000920E-02 0. -1.
        2   -1    0    0  501    0  0.00000000000E+00  0.00000000000E+00 -0.13651072851E+04  0.13651072851E+04  0.25500000920E-02 0.  1.
    10030    2    1    2    0    0  0.00000000000E+00  0.00000000000E+00 -0.68462454908E+03  0.20455900212E+04  0.19276223078E+04 0.  0.
        1    1    3    3  502    0  0.46427894615E+03 -0.25720368442E+03  0.51142395728E+03  0.73706386374E+03  0.50400001928E-02 0. -1.
       -1    1    3    3    0  502 -0.46427894615E+03  0.25720368442E+03 -0.11960485064E+04  0.13085261574E+04  0.50400001928E-02 0.  1.
</event>
<event>
 5   0  0.3147063E-05  0.1895184E+04  0.7818609E-02  0.8657257E-01
       -1   -1    0    0    0  501  0.00000000000E+00  0.00000000000E+00  0.94756809071E+03  0.94756809073E+03  0.50400001928E-02 0. -1.
        1   -1    0    0  501    0  0.00000000000E+00  0.00000000000E+00 -0.94761575318E+03  0.94761575319E+03  0.50400001928E-02 0.  1.
    10030    2    1    2    0    0  0.00000000000E+00  0.00000000000E+00 -0.47662464843E-01  0.18951838439E+04  0.18951838433E+04 0.  0.
        5    1    3    3  502    0 -0.49608638034E+03 -0.46447121309E+03  0.66033452279E+03  0.94757531444E+03  0.46999998093E+01 0. -1.
       -5    1    3    3    0  502  0.49608638034E+03  0.46447121309E+03 -0.66038218525E+03  0.94760852948E+03  0.46999998093E+01 0.  1.
</event>
<event>
 5   0  0.3083469E-05  0.1901554E+04  0.7818609E-02  0.8654083E-01
       -1   -1    0    0    0  501  0.00000000000E+00  0.00000000000E+00  0.11062374216E+04  0.11062374216E+04  0.50400001928E-02 0.  1.
        1   -1    0    0  501    0  0.00000000000E+00  0.00000000000E+00 -0.81716342569E+03  0.81716342571E+03  0.50400001928E-02 0. -1.
    10030    2    1    2    0    0  0.00000000000E+00  0.00000000000E+00  0.28907399587E+03  0.19234008473E+04  0.19015538499E+04 0.  0.
        3    1    3    3  502    0 -0.93520547491E+03  0.80642081090E+02 -0.84097931330E+01  0.93871356673E+03  0.10100000352E+00 0.  1.
       -3    1    3    3    0  502  0.93520547491E+03 -0.80642081090E+02  0.29748378900E+03  0.98468728054E+03  0.10100000352E+00 0. -1.
</event>
<event>
 5   0  0.6098377E-05  0.1901219E+04  0.7818609E-02  0.8654250E-01
       -2   -1    0    0    0  501  0.00000000000E+00  0.00000000000E+00  0.91830188340E+03  0.91830188340E+03  0.25500000920E-02 0.  1.
        2   -1    0    0  501    0  0.00000000000E+00  0.00000000000E+00 -0.98405417398E+03  0.98405417399E+03  0.25500000920E-02 0. -1.
    10030    2    1    2    0    0  0.00000000000E+00  0.00000000000E+00 -0.65752290587E+02  0.19023560574E+04  0.19012193996E+04 0.  0.
        5    1    3    3  502    0 -0.73002606369E+03 -0.19349305199E+03 -0.61050725453E+03  0.97114304439E+03  0.46999998093E+01 0. -1.
       -5    1    3    3    0  502  0.73002606369E+03  0.19349305199E+03  0.54475496394E+03  0.93121301300E+03  0.46999998093E+01 0.  1.
</event>
<event>
 5   0  0.3083469E-05  0.1902061E+04  0.7818609E-02  0.8653831E-01
       -1   -1    0    0    0  501  0.00000000000E+00  0.00000000000E+00  0.73565866465E+03  0.73565866466E+03  0.50400001928E-02 0.  1.
        1   -1    0    0  501    0  0.00000000000E+00  0.00000000000E+00 -0.12294553231E+04  0.12294553231E+04  0.50400001928E-02 0. -1.
    10030    2    1    2    0    0  0.00000000000E+00  0.00000000000E+00 -0.49379665848E+03  0.19651139878E+04  0.19020614725E+04 0.  0.
        3    1    3    3  502    0 -0.71212223644E+03 -0.48610683257E+03  0.16770437180E+03  0.87837503314E+03  0.10100000352E+00 0.  1.
       -3    1    3    3    0  502  0.71212223644E+03  0.48610683257E+03 -0.66150103028E+03  0.10867389547E+04  0.10100000352E+00 0. -1.
</event>
<event>
 5   0  0.6098377E-05  0.1956535E+04  0.7818609E-02  0.8627216E-01
        2   -1    0    0  501    0  0.00000000000E+00  0.00000000000E+00  0.16401997554E+04  0.16401997554E+04  0.25500000920E-02 0.  1.
       -2   -1    0    0    0  501  0.00000000000E+00  0.00000000000E+00 -0.58347010480E+03  0.58347010480E+03  0.25500000920E-02 0. -1.
    10030    2    1    2    0    0  0.00000000000E+00  0.00000000000E+00  0.10567296506E+04  0.22236698602E+04  0.19565352265E+04 0.  0.
        5    1    3    3  502    0 -0.22825185596E+03  0.68726134736E+03 -0.21912449999E+03  0.75661397411E+03  0.46999998093E+01 0. -1.
       -5    1    3    3    0  502  0.22825185596E+03 -0.68726134736E+03  0.12758541505E+04  0.14670558860E+04  0.46999998093E+01 0.  1.
</event>
<event>
 5   0  0.3086139E-05  0.1903385E+04  0.7818609E-02  0.8653173E-01
       -1   -1    0    0    0  501  0.00000000000E+00  0.00000000000E+00  0.34141281147E+03  0.34141281151E+03  0.50400001928E-02 0. -1.
        1   -1    0    0  501    0  0.00000000000E+00  0.00000000000E+00 -0.26528561733E+04  0.26528561733E+04  0.50400001928E-02 0.  1.
    10030    2    1    2    0    0  0.00000000000E+00  0.00000000000E+00 -0.23114433618E+04  0.29942689848E+04  0.19033854939E+04 0.  0.
        2    1    3    3  502    0 -0.69034225692E+03 -0.65466270287E+03 -0.11183818917E+04  0.14683098249E+04  0.25500000920E-02 0. -1.
       -2    1    3    3    0  502  0.69034225692E+03  0.65466270287E+03 -0.11930614701E+04  0.15259591599E+04  0.25500000920E-02 0.  1.
</event>
<event>
 5   0  0.6361762E-05  0.1934617E+04  0.7818609E-02  0.8637814E-01
       -2   -1    0    0    0  501  0.00000000000E+00  0.00000000000E+00  0.76221428069E+03  0.76221428070E+03  0.25500000920E-02 0. -1.
        2   -1    0    0  501    0  0.00000000000E+00  0.00000000000E+00 -0.12275892633E+04  0.12275892633E+04  0.25500000920E-02 0.  1.
    10030    2    1    2    0    0  0.00000000000E+00  0.00000000000E+00 -0.46537498259E+03  0.19898035440E+04  0.19346173444E+04 0.  0.
        1    1    3    3  502    0 -0.85993602513E+03  0.26970197129E+03  0.12869981080E+03  0.91038055887E+03  0.50400001928E-02 0. -1.
       -1    1    3    3    0  502  0.85993602513E+03 -0.26970197129E+03 -0.59407479339E+03  0.10794229851E+04  0.50400001928E-02 0.  1.
</event>
<event>
 5   0  0.3086139E-05  0.1900798E+04  0.7818609E-02  0.8654459E-01
       -1   -1    0    0    0  501  0.00000000000E+00  0.00000000000E+00  0.43467545686E+03  0.43467545689E+03  0.50400001928E-02 0.  1.
        1   -1    0    0  501    0  0.00000000000E+00  0.00000000000E+00 -0.20780052683E+04  0.20780052683E+04  0.50400001928E-02 0. -1.
    10030    2    1    2    0    0  0.00000000000E+00  0.00000000000E+00 -0.16433298114E+04  0.25126807252E+04  0.19007976109E+04 0.  0.
        2    1    3    3  502    0 -0.10371579041E+03 -0.10808073106E+03  0.41897254295E+03  0.44494539143E+03  0.25500000920E-02 0.  1.
       -2    1    3    3    0  502  0.10371579041E+03  0.10808073106E+03 -0.20623023544E+04  0.20677353338E+04  0.25500000920E-02 0. -1.
</event>
<event>
 5   0  0.6395992E-05  0.1896435E+04  0.7818609E-02  0.8656633E-01
        2   -1    0    0  501    0  0.00000000000E+00  0.00000000000E+00  0.11045225941E+04  0.11045225941E+04  0.25500000920E-02 0.  1.
       -2   -1    0    0    0  501  0.00000000000E+00  0.00000000000E+00 -0.81403212012E+03  0.81403212012E+03  0.25500000920E-02 0. -1.
    10030    2    1    2    0    0  0.00000000000E+00  0.00000000000E+00  0.29049047394E+03  0.19185547142E+04  0.18964354658E+04 0.  0.
        4    1    3    3  502    0  0.45170054211E+03 -0.27184625964E+03  0.94258858001E+03  0.10800039874E+04  0.12699999809E+01 0.  1.
       -4    1    3    3    0  502 -0.45170054211E+03  0.27184625964E+03 -0.65209810608E+03  0.83855072683E+03  0.12699999809E+01 0. -1.
</event>
<event>
 5   0  0.3144958E-05  0.1892291E+04  0.7818609E-02  0.8658703E-01
        1   -1    0    0  501    0  0.00000000000E+00  0.00000000000E+00  0.90780787117E+03  0.90780787119E+03  0.50400001928E-02 0.  1.
       -1   -1    0    0    0  501  0.00000000000E+00  0.00000000000E+00 -0.98610200943E+03  0.98610200945E+03  0.50400001928E-02 0. -1.
    10030    2    1    2    0    0  0.00000000000E+00  0.00000000000E+00 -0.78294138260E+02  0.18939098806E+04  0.18922908508E+04 0.  0.
        4    1    3    3  502    0 -0.98509334167E+02 -0.93420498809E+03 -0.15214408382E+03  0.95162623116E+03  0.12699999809E+01 0.  1.
       -4    1    3    3    0  502  0.98509334167E+02  0.93420498809E+03  0.73849945558E+02  0.94228364947E+03  0.12699999809E+01 0. -1.
</event>
<event>
 5   0  0.3086139E-05  0.1865667E+04  0.7818609E-02  0.8672137E-01
        1   -1    0    0  501    0  0.00000000000E+00  0.00000000000E+00  0.69110689147E+03  0.69110689148E+03  0.50400001928E-02 0.  1.
       -1   -1    0    0    0  501  0.00000000000E+00  0.00000000000E+00 -0.12591084786E+04  0.12591084786E+04  0.50400001928E-02 0. -1.
    10030    2    1    2    0    0  0.00000000000E+00  0.00000000000E+00 -0.56800158714E+03  0.19502153701E+04  0.18656672229E+04 0.  0.
        2    1    3    3  502    0 -0.29226471107E+02 -0.79061193729E+02  0.68711793879E+03  0.69226867673E+03  0.25500000920E-02 0.  1.
       -2    1    3    3    0  502  0.29226471107E+02  0.79061193729E+02 -0.12551195259E+04  0.12579466934E+04  0.25500000920E-02 0. -1.
</event>
<event>
 5   0  0.3147063E-05  0.1897382E+04  0.7818609E-02  0.8656160E-01
        1   -1    0    0  501    0  0.00000000000E+00  0.00000000000E+00  0.41813180487E+03  0.41813180490E+03  0.50400001928E-02 0.  1.
       -1   -1    0    0    0  501  0.00000000000E+00  0.00000000000E+00 -0.21524671001E+04  0.21524671001E+04  0.50400001928E-02 0. -1.
    10030    2    1    2    0    0  0.00000000000E+00  0.00000000000E+00 -0.17343352952E+04  0.25705989050E+04  0.18973823584E+04 0.  0.
        5    1    3    3  502    0 -0.65558427086E+03 -0.65330815367E+03 -0.11493807714E+04  0.14757034010E+04  0.46999998093E+01 0. -1.
       -5    1    3    3    0  502  0.65558427086E+03  0.65330815367E+03 -0.58495452378E+03  0.10948955040E+04  0.46999998093E+01 0.  1.
</event>
<event>
 5   0  0.3086139E-05  0.1891716E+04  0.7818609E-02  0.8658991E-01
       -1   -1    0    0    0  501  0.00000000000E+00  0.00000000000E+00  0.13111160054E+04  0.13111160054E+04  0.50400001928E-02 0.  1.
        1   -1    0    0  501    0  0.00000000000E+00  0.00000000000E+00 -0.68235528458E+03  0.68235528460E+03  0.50400001928E-02 0. -1.
    10030    2    1    2    0    0  0.00000000000E+00  0.00000000000E+00  0.62876072085E+03  0.19934712900E+04  0.18917155548E+04 0.  0.
        2    1    3    3  502    0 -0.91993665577E+03 -0.13157171363E+03  0.12868480184E+03  0.93816541436E+03  0.25500000920E-02 0. -1.
       -2    1    3    3    0  502  0.91993665577E+03  0.13157171363E+03  0.50007591901E+03  0.10553058757E+04  0.25500000920E-02 0.  1.
</event>
<event>
 5   0  0.3083469E-05  0.1904967E+04  0.7818609E-02  0.8652388E-01
       -1   -1    0    0    0  501  0.00000000000E+00  0.00000000000E+00  0.85174258242E+03  0.85174258244E+03  0.50400001928E-02 0. -1.
        1   -1    0    0  501    0  0.00000000000E+00  0.00000000000E+00 -0.10651394781E+04  0.10651394781E+04  0.50400001928E-02 0.  1.
    10030    2    1    2    0    0  0.00000000000E+00  0.00000000000E+00 -0.21339689569E+03  0.19168820606E+04  0.19049668236E+04 0.  0.
        3    1    3    3  502    0  0.45932821952E+02 -0.42781753948E+03  0.74837364025E+03  0.86325012994E+03  0.10100000352E+00 0. -1.
       -3    1    3    3    0  502 -0.45932821952E+02  0.42781753948E+03 -0.96177053594E+03  0.10536319306E+04  0.10100000352E+00 0.  1.
</event>
<event>
 5   0  0.3147063E-05  0.1905069E+04  0.7818609E-02  0.8652337E-01
       -1   -1    0    0    0  501  0.00000000000E+00  0.00000000000E+00  0.62732503802E+03  0.62732503804E+03  0.50400001928E-02 0. -1.
        1   -1    0    0  501    0  0.00000000000E+00  0.00000000000E+00 -0.14463349932E+04  0.14463349932E+04  0.50400001928E-02 0.  1.
    10030    2    1    2    0    0  0.00000000000E+00  0.00000000000E+00 -0.81900995522E+03  0.20736600313E+04  0.19050691900E+04 0.  0.
        5    1    3    3  502    0  0.12672170933E+03  0.64902405805E+02 -0.14346747652E+04  0.14417296854E+04  0.46999998093E+01 0.  1.
       -5    1    3    3    0  502 -0.12672170933E+03 -0.64902405805E+02  0.61566480994E+03  0.63193034592E+03  0.46999998093E+01 0. -1.
</event>
<event>
 5   0  0.3147063E-05  0.1878138E+04  0.7818609E-02  0.8665815E-01
       -1   -1    0    0    0  501  0.00000000000E+00  0.00000000000E+00  0.69063469524E+03  0.69063469526E+03  0.50400001928E-02 0.  1.
        1   -1    0    0  501    0  0.00000000000E+00  0.00000000000E+00 -0.12768702256E+04  0.12768702257E+04  0.50400001928E-02 0. -1.
    10030    2    1    2    0    0  0.00000000000E+00  0.00000000000E+00 -0.58623553040E+03  0.19675049209E+04  0.18781383114E+04 0.  0.
        5    1    3    3  502    0 -0.84644806361E+02 -0.89574057690E+02  0.68211381072E+03  0.69317356833E+03  0.46999998093E+01 0.  1.
       -5    1    3    3    0  502  0.84644806361E+02  0.89574057690E+02 -0.12683493411E+04  0.12743313526E+04  0.46999998093E+01 0. -1.
</event>
<event>
 5   0  0.3147063E-05  0.1881380E+04  0.7818609E-02  0.8664180E-01
        1   -1    0    0  501    0  0.00000000000E+00  0.00000000000E+00  0.14140899021E+04  0.14140899021E+04  0.50400001928E-02 0.  1.
       -1   -1    0    0    0  501  0.00000000000E+00  0.00000000000E+00 -0.62577213719E+03  0.62577213721E+03  0.50400001928E-02 0. -1.
    10030    2    1    2    0    0  0.00000000000E+00  0.00000000000E+00  0.78831776490E+03  0.20398620393E+04  0.18813804084E+04 0.  0.
        5    1    3    3  502    0 -0.12450838263E+03  0.69798484516E+03 -0.27613350453E+03  0.76089222873E+03  0.46999998093E+01 0. -1.
       -5    1    3    3    0  502  0.12450838263E+03 -0.69798484516E+03  0.10644512694E+04  0.12789698106E+04  0.46999998093E+01 0.  1.
</event>
<event>
 5   0  0.6395992E-05  0.1862649E+04  0.7818609E-02  0.8673675E-01
        2   -1    0    0  501    0  0.00000000000E+00  0.00000000000E+00  0.17202034776E+04  0.17202034776E+04  0.25500000920E-02 0. -1.
       -2   -1    0    0    0  501  0.00000000000E+00  0.00000000000E+00 -0.50422246737E+03  0.50422246738E+03  0.25500000920E-02 0.  1.
    10030    2    1    2    0    0  0.00000000000E+00  0.00000000000E+00  0.12159810103E+04  0.22244259450E+04  0.18626489115E+04 0.  0.
        4    1    3    3  502    0 -0.89674367483E+03 -0.19080253480E+03  0.80352602640E+03  0.12191023393E+04  0.12699999809E+01 0. -1.
       -4    1    3    3    0  502  0.89674367483E+03  0.19080253480E+03  0.41245498387E+03  0.10053236057E+04  0.12699999809E+01 0.  1.
</event>
<event>
 5   0  0.3144958E-05  0.1916580E+04  0.7818609E-02  0.8646647E-01
        1   -1    0    0  501    0  0.00000000000E+00  0.00000000000E+00  0.15818259251E+04  0.15818259251E+04  0.50400001928E-02 0. -1.
       -1   -1    0    0    0  501  0.00000000000E+00  0.00000000000E+00 -0.58054427246E+03  0.58054427248E+03  0.50400001928E-02 0.  1.
    10030    2    1    2    0    0  0.00000000000E+00  0.00000000000E+00  0.10012816527E+04  0.21623701976E+04  0.19165802680E+04 0.  0.
        4    1    3    3  502    0  0.50555876471E+02 -0.31885733371E+03  0.15186223696E+04  0.15525596318E+04  0.12699999809E+01 0. -1.
       -4    1    3    3    0  502 -0.50555876471E+02  0.31885733371E+03 -0.51734071693E+03  0.60981056583E+03  0.12699999809E+01 0.  1.
</event>
<event>
 5   0  0.6452182E-05  0.1902454E+04  0.7818609E-02  0.8653636E-01
       -2   -1    0    0    0  501  0.00000000000E+00  0.00000000000E+00  0.12614566801E+04  0.12614566801E+04  0.25500000920E-02 0. -1.
        2   -1    0    0  501    0  0.00000000000E+00  0.00000000000E+00 -0.71729177835E+03  0.71729177836E+03  0.25500000920E-02 0.  1.
    10030    2    1    2    0    0  0.00000000000E+00  0.00000000000E+00  0.54416490176E+03  0.19787484585E+04  0.19024536845E+04 0.  0.
        3    1    3    3  502    0  0.22392338452E+03 -0.27547623805E+03 -0.64580723020E+03  0.73695035697E+03  0.10100000352E+00 0.  1.
       -3    1    3    3    0  502 -0.22392338452E+03  0.27547623805E+03  0.11899721320E+04  0.12417981015E+04  0.10100000352E+00 0. -1.
</event>
<event>
 5   0  0.6361762E-05  0.1897861E+04  0.7818609E-02  0.8655922E-01
       -2   -1    0    0    0  501  0.00000000000E+00  0.00000000000E+00  0.65279391094E+03  0.65279391094E+03  0.25500000920E-02 0. -1.
        2   -1    0    0  501    0  0.00000000000E+00  0.00000000000E+00 -0.13794077059E+04  0.13794077059E+04  0.25500000920E-02 0.  1.
    10030    2    1    2    0    0  0.00000000000E+00  0.00000000000E+00 -0.72661379497E+03  0.20322016169E+04  0.18978608496E+04 0.  0.
        1    1    3    3  502    0 -0.57274606451E+03  0.10953068698E+03 -0.11649196805E+04  0.13027175011E+04  0.50400001928E-02 0.  1.
       -1    1    3    3    0  502  0.57274606451E+03 -0.10953068698E+03  0.43830588550E+03  0.72948411572E+03  0.50400001928E-02 0. -1.
</event>
<event>
 5   0  0.3144958E-05  0.1809951E+04  0.7818609E-02  0.8701025E-01
        1   -1    0    0  501    0  0.00000000000E+00  0.00000000000E+00  0.17245776219E+04  0.17245776219E+04  0.50400001928E-02 0. -1.
       -1   -1    0    0    0  501  0.00000000000E+00  0.00000000000E+00 -0.47488777921E+03  0.47488777924E+03  0.50400001928E-02 0.  1.
    10030    2    1    2    0    0  0.00000000000E+00  0.00000000000E+00  0.12496898427E+04  0.21994654012E+04  0.18099512004E+04 0.  0.
        4    1    3    3  502    0  0.44023826477E+03  0.78837211395E+03  0.55153958617E+03  0.10580821555E+04  0.12699999809E+01 0.  1.
       -4    1    3    3    0  502 -0.44023826477E+03 -0.78837211395E+03  0.69815025653E+03  0.11413832456E+04  0.12699999809E+01 0. -1.
</event>
<event>
 5   0  0.6361762E-05  0.1894619E+04  0.7818609E-02  0.8657540E-01
        2   -1    0    0  501    0  0.00000000000E+00  0.00000000000E+00  0.10092543757E+04  0.10092543757E+04  0.25500000920E-02 0. -1.
       -2   -1    0    0    0  501  0.00000000000E+00  0.00000000000E+00 -0.88916626864E+03  0.88916626865E+03  0.25500000920E-02 0.  1.
    10030    2    1    2    0    0  0.00000000000E+00  0.00000000000E+00  0.12008810702E+03  0.18984206443E+04  0.18946186395E+04 0.  0.
        1    1    3    3  502    0 -0.22211494987E+03 -0.26962413914E+03 -0.82226980406E+03  0.89339792817E+03  0.50400001928E-02 0.  1.
       -1    1    3    3    0  502  0.22211494987E+03  0.26962413914E+03  0.94235791108E+03  0.10050227161E+04  0.50400001928E-02 0. -1.
</event>
<event>
 5   0  0.6452182E-05  0.1874164E+04  0.7818609E-02  0.8667824E-01
        2   -1    0    0  501    0  0.00000000000E+00  0.00000000000E+00  0.15677898210E+04  0.15677898210E+04  0.25500000920E-02 0. -1.
       -2   -1    0    0    0  501  0.00000000000E+00  0.00000000000E+00 -0.56010247596E+03  0.56010247596E+03  0.25500000920E-02 0.  1.
    10030    2    1    2    0    0  0.00000000000E+00  0.00000000000E+00  0.10076873450E+04  0.21278922969E+04  0.18741643050E+04 0.  0.
        3    1    3    3  502    0  0.18431184212E+03 -0.55410969783E+03 -0.32825615891E+03  0.66989590866E+03  0.10100000352E+00 0.  1.
       -3    1    3    3    0  502 -0.18431184212E+03  0.55410969783E+03  0.13359435039E+04  0.14579963883E+04  0.10100000352E+00 0. -1.
</event>
<event>
 5   0  0.3086139E-05  0.1913168E+04  0.7818609E-02  0.8648329E-01
        1   -1    0    0  501    0  0.00000000000E+00  0.00000000000E+00  0.13520344778E+04  0.13520344778E+04  0.50400001928E-02 0.  1.
       -1   -1    0    0    0  501  0.00000000000E+00  0.00000000000E+00 -0.67679729385E+03  0.67679729387E+03  0.50400001928E-02 0. -1.
    10030    2    1    2    0    0  0.00000000000E+00  0.00000000000E+00  0.67523718390E+03  0.20288317716E+04  0.19131683415E+04 0.  0.
        2    1    3    3  502    0 -0.39021049167E+03 -0.45033235984E+03  0.11311843413E+04  0.12785309836E+04  0.25500000920E-02 0.  1.
       -2    1    3    3    0  502  0.39021049167E+03  0.45033235984E+03 -0.45594715739E+03  0.75030078799E+03  0.25500000920E-02 0. -1.
</event>
<event>
 5   0  0.6452182E-05  0.1899845E+04  0.7818609E-02  0.8654934E-01
       -2   -1    0    0    0  501  0.00000000000E+00  0.00000000000E+00  0.45721855064E+03  0.45721855065E+03  0.25500000920E-02 0.  1.
        2   -1    0    0  501    0  0.00000000000E+00  0.00000000000E+00 -0.19735697111E+04  0.19735697111E+04  0.25500000920E-02 0. -1.
    10030    2    1    2    0    0  0.00000000000E+00  0.00000000000E+00 -0.15163511605E+04  0.24307882618E+04  0.18998449231E+04 0.  0.
        3    1    3    3  502    0  0.57309735102E+03  0.26458863115E+03 -0.16664211589E+04  0.17819672293E+04  0.10100000352E+00 0. -1.
       -3    1    3    3    0  502 -0.57309735102E+03 -0.26458863115E+03  0.15006999842E+03  0.64882103242E+03  0.10100000352E+00 0.  1.
</event>
<event>
 5   0  0.3144958E-05  0.1878179E+04  0.7818609E-02  0.8665795E-01
       -1   -1    0    0    0  501  0.00000000000E+00  0.00000000000E+00  0.80538487708E+03  0.80538487710E+03  0.50400001928E-02 0. -1.
        1   -1    0    0  501    0  0.00000000000E+00  0.00000000000E+00 -0.10949909581E+04  0.10949909581E+04  0.50400001928E-02 0.  1.
    10030    2    1    2    0    0  0.00000000000E+00  0.00000000000E+00 -0.28960608099E+03  0.19003758352E+04  0.18781790737E+04 0.  0.
        4    1    3    3  502    0 -0.40755759447E+03 -0.60625846041E+03  0.45228549291E+03  0.85919514292E+03  0.12699999809E+01 0. -1.
       -4    1    3    3    0  502  0.40755759447E+03  0.60625846041E+03 -0.74189157390E+03  0.10411806923E+04  0.12699999809E+01 0.  1.
</event>
<event>
 5   0  0.3086139E-05  0.1904057E+04  0.7818609E-02  0.8652839E-01
        1   -1    0    0  501    0  0.00000000000E+00  0.00000000000E+00  0.70148923957E+03  0.70148923958E+03  0.50400001928E-02 0.  1.
       -1   -1    0    0    0  501  0.00000000000E+00  0.00000000000E+00 -0.12920493225E+04  0.12920493225E+04  0.50400001928E-02 0. -1.
    10030    2    1    2    0    0  0.00000000000E+00  0.00000000000E+00 -0.59056008291E+03  0.19935385621E+04  0.19040574537E+04 0.  0.
        2    1    3    3  502    0 -0.13602813317E+03  0.43025498088E+03  0.58240884456E+03  0.73676527050E+03  0.25500000920E-02 0.  1.
       -2    1    3    3    0  502  0.13602813317E+03 -0.43025498088E+03 -0.11729689275E+04  0.12567732916E+04  0.25500000920E-02 0. -1.
</event>
<event>
 5   0  0.3203527E-05  0.1914539E+04  0.7818609E-02  0.8647653E-01
        1   -1    0    0  501    0  0.00000000000E+00  0.00000000000E+00  0.87495006973E+03  0.87495006975E+03  0.50400001928E-02 0.  1.
       -1   -1    0    0    0  501  0.00000000000E+00  0.00000000000E+00 -0.10473340379E+04  0.10473340379E+04  0.50400001928E-02 0. -1.
    10030    2    1    2    0    0  0.00000000000E+00  0.00000000000E+00 -0.17238396816E+03  0.19222841077E+04  0.19145390981E+04 0.  0.
        1    1    3    3  502    0 -0.19337082996E+03  0.79219772944E+03  0.41722986294E+03  0.91599687716E+03  0.50400001928E-02 0.  1.
       -1    1    3    3    0  502  0.19337082996E+03 -0.79219772944E+03 -0.58961383110E+03  0.10062872305E+04  0.50400001928E-02 0. -1.
</event>
<event>
 5   0  0.6361762E-05  0.1901307E+04  0.7818609E-02  0.8654206E-01
        2   -1    0    0  501    0  0.00000000000E+00  0.00000000000E+00  0.15453843829E+04  0.15453843829E+04  0.25500000920E-02 0. -1.
       -2   -1    0    0    0  501  0.00000000000E+00  0.00000000000E+00 -0.58480078745E+03  0.58480078745E+03  0.25500000920E-02 0.  1.
    10030    2    1    2    0    0  0.00000000000E+00  0.00000000000E+00  0.96058359544E+03  0.21301851703E+04  0.19013069232E+04 0.  0.
        1    1    3    3  502    0 -0.45692681886E+03 -0.20896062544E+03 -0.42388657297E+03  0.65736328430E+03  0.50400001928E-02 0.  1.
       -1    1    3    3    0  502  0.45692681886E+03  0.20896062544E+03  0.13844701684E+04  0.14728218860E+04  0.50400001928E-02 0. -1.
</event>
<event>
 5   0  0.3203527E-05  0.1881906E+04  0.7818609E-02  0.8663916E-01
       -1   -1    0    0    0  501  0.00000000000E+00  0.00000000000E+00  0.14313629331E+04  0.14313629331E+04  0.50400001928E-02 0.  1.
        1   -1    0    0  501    0  0.00000000000E+00  0.00000000000E+00 -0.61856617605E+03  0.61856617607E+03  0.50400001928E-02 0. -1.
    10030    2    1    2    0    0  0.00000000000E+00  0.00000000000E+00  0.81279675707E+03  0.20499291092E+04  0.18819061572E+04 0.  0.
        1    1    3    3  502    0  0.27997599163E+02 -0.81379833913E+03  0.92002881166E+03  0.12286189876E+04  0.50400001928E-02 0.  1.
       -1    1    3    3    0  502 -0.27997599163E+02  0.81379833913E+03 -0.10723205459E+03  0.82131012163E+03  0.50400001928E-02 0. -1.
</event>
<event>
 5   0  0.3144958E-05  0.1901417E+04  0.7818609E-02  0.8654151E-01
       -1   -1    0    0    0  501  0.00000000000E+00  0.00000000000E+00  0.66419008615E+03  0.66419008617E+03  0.50400001928E-02 0.  1.
        1   -1    0    0  501    0  0.00000000000E+00  0.00000000000E+00 -0.13608257775E+04  0.13608257775E+04  0.50400001928E-02 0. -1.
    10030    2    1    2    0    0  0.00000000000E+00  0.00000000000E+00 -0.69663569136E+03  0.20250158637E+04  0.19014173560E+04 0.  0.
        4    1    3    3  502    0 -0.22659109173E+03  0.90634312634E+03 -0.16067165282E+03  0.94795483987E+03  0.12699999809E+01 0.  1.
       -4    1    3    3    0  502  0.22659109173E+03 -0.90634312634E+03 -0.53596403855E+03  0.10770610238E+04  0.12699999809E+01 0. -1.
</event>
<event>
 5   0  0.6423388E-05  0.1899249E+04  0.7818609E-02  0.8655230E-01
        2   -1    0    0  501    0  0.00000000000E+00  0.00000000000E+00  0.12631194478E+04  0.12631194478E+04  0.25500000920E-02 0. -1.
       -2   -1    0    0    0  501  0.00000000000E+00  0.00000000000E+00 -0.71393642453E+03  0.71393642453E+03  0.25500000920E-02 0.  1.
    10030    2    1    2    0    0  0.00000000000E+00  0.00000000000E+00  0.54918302323E+03  0.19770558723E+04  0.18992493067E+04 0.  0.
        2    1    3    3  502    0 -0.84185689068E+02  0.33754149631E+03  0.11943996988E+04  0.12440305995E+04  0.25500000920E-02 0. -1.
       -2    1    3    3    0  502  0.84185689068E+02 -0.33754149631E+03 -0.64521667562E+03  0.73302527275E+03  0.25500000920E-02 0.  1.
</event>
<event>
 5   0  0.6423388E-05  0.1897180E+04  0.7818609E-02  0.8656261E-01
        2   -1    0    0  501    0  0.00000000000E+00  0.00000000000E+00  0.99917456215E+03  0.99917456215E+03  0.25500000920E-02 0. -1.
       -2   -1    0    0    0  501  0.00000000000E+00  0.00000000000E+00 -0.90056611647E+03  0.90056611647E+03  0.25500000920E-02 0.  1.
    10030    2    1    2    0    0  0.00000000000E+00  0.00000000000E+00  0.98608445682E+02  0.18997406786E+04  0.18971797544E+04 0.  0.
        2    1    3    3  502    0  0.55896158975E+03 -0.52672672576E+02  0.81493444261E+03  0.98961134543E+03  0.25500000920E-02 0. -1.
       -2    1    3    3    0  502 -0.55896158975E+03  0.52672672576E+02 -0.71632599693E+03  0.91012933319E+03  0.25500000920E-02 0.  1.
</event>
<event>
 5   0  0.2279625E-05  0.1899595E+04  0.7818609E-02  0.8655058E-01
        4   -1    0    0  501    0  0.00000000000E+00  0.00000000000E+00  0.91345141814E+03  0.91345230100E+03  0.12699999809E+01 0.  1.
       -4   -1    0    0    0  501  0.00000000000E+00  0.00000000000E+00 -0.98758761832E+03  0.98758843491E+03  0.12699999809E+01 0. -1.
    10030    2    1    2    0    0  0.00000000000E+00  0.00000000000E+00 -0.74136200182E+02  0.19010407359E+04  0.18995946155E+04 0.  0.
        2    1    3    3  502    0 -0.49807603490E+03  0.43752571947E+03 -0.71773765780E+03  0.97706490939E+03  0.25500000920E-02 0. -1.
       -2    1    3    3    0  502  0.49807603490E+03 -0.43752571947E+03  0.64360145762E+03  0.92397582652E+03  0.25500000920E-02 0.  1.
</event>
<event>
 5   0  0.6361762E-05  0.1894968E+04  0.7818609E-02  0.8657365E-01
        2   -1    0    0  501    0  0.00000000000E+00  0.00000000000E+00  0.49436680084E+03  0.49436680085E+03  0.25500000920E-02 0. -1.
       -2   -1    0    0    0  501  0.00000000000E+00  0.00000000000E+00 -0.18159104929E+04  0.18159104929E+04  0.25500000920E-02 0.  1.
    10030    2    1    2    0    0  0.00000000000E+00  0.00000000000E+00 -0.13215436921E+04  0.23102772938E+04  0.18949679269E+04 0.  0.
        1    1    3    3  502    0  0.23624986122E+03 -0.38468896056E+02 -0.17784417023E+04  0.17944772892E+04  0.50400001928E-02 0.  1.
       -1    1    3    3    0  502 -0.23624986122E+03  0.38468896056E+02  0.45689801026E+03  0.51580000455E+03  0.50400001928E-02 0. -1.
</event>
<event>
 5   0  0.3083469E-05  0.1905637E+04  0.7818609E-02  0.8652055E-01
       -1   -1    0    0    0  501  0.00000000000E+00  0.00000000000E+00  0.68215190314E+03  0.68215190316E+03  0.50400001928E-02 0. -1.
        1   -1    0    0  501    0  0.00000000000E+00  0.00000000000E+00 -0.13308816708E+04  0.13308816709E+04  0.50400001928E-02 0.  1.
    10030    2    1    2    0    0  0.00000000000E+00  0.00000000000E+00 -0.64872976771E+03  0.20130335740E+04  0.19056373891E+04 0.  0.
        3    1    3    3  502    0  0.37400356343E+03  0.27337430149E+03  0.55517612468E+03  0.72307172106E+03  0.10100000352E+00 0. -1.
       -3    1    3    3    0  502 -0.37400356343E+03 -0.27337430149E+03 -0.12039058924E+04  0.12899618530E+04  0.10100000352E+00 0.  1.
</event>
<event>
 5   0  0.6395992E-05  0.1897860E+04  0.7818609E-02  0.8655922E-01
        2   -1    0    0  501    0  0.00000000000E+00  0.00000000000E+00  0.70495642990E+03  0.70495642991E+03  0.25500000920E-02 0.  1.
       -2   -1    0    0    0  501  0.00000000000E+00  0.00000000000E+00 -0.12773390821E+04  0.12773390821E+04  0.25500000920E-02 0. -1.
    10030    2    1    2    0    0  0.00000000000E+00  0.00000000000E+00 -0.57238265219E+03  0.19822955120E+04  0.18978602679E+04 0.  0.
        4    1    3    3  502    0 -0.57163343516E+03  0.11170656163E+03  0.49628668917E+03  0.76520927259E+03  0.12699999809E+01 0.  1.
       -4    1    3    3    0  502  0.57163343516E+03 -0.11170656163E+03 -0.10686693414E+04  0.12170862394E+04  0.12699999809E+01 0. -1.
</event>
<event>
 5   0  0.6098377E-05  0.1904610E+04  0.7818609E-02  0.8652565E-01
       -2   -1    0    0    0  501  0.00000000000E+00  0.00000000000E+00  0.49722007403E+03  0.49722007404E+03  0.25500000920E-02 0.  1.
        2   -1    0    0  501    0  0.00000000000E+00  0.00000000000E+00 -0.18239108831E+04  0.18239108831E+04  0.25500000920E-02 0. -1.
    10030    2    1    2    0    0  0.00000000000E+00  0.00000000000E+00 -0.13266908091E+04  0.23211309572E+04  0.19046103059E+04 0.  0.
        5    1    3    3  502    0  0.13069591785E+02 -0.93603494519E+03 -0.87628796631E+03  0.12822772410E+04  0.46999998093E+01 0.  1.
       -5    1    3    3    0  502 -0.13069591785E+02  0.93603494519E+03 -0.45040284280E+03  0.10388537162E+04  0.46999998093E+01 0. -1.
</event>
<event>
 5   0  0.6452182E-05  0.1894241E+04  0.7818609E-02  0.8657728E-01
       -2   -1    0    0    0  501  0.00000000000E+00  0.00000000000E+00  0.89438244000E+03  0.89438244001E+03  0.25500000920E-02 0.  1.
        2   -1    0    0  501    0  0.00000000000E+00  0.00000000000E+00 -0.10029686876E+04  0.10029686876E+04  0.25500000920E-02 0. -1.
    10030    2    1    2    0    0  0.00000000000E+00  0.00000000000E+00 -0.10858624763E+03  0.18973511276E+04  0.18942413596E+04 0.  0.
        3    1    3    3  502    0 -0.51499842089E+03  0.35606139243E+03  0.65753134213E+03  0.90793753352E+03  0.10100000352E+00 0.  1.
       -3    1    3    3    0  502  0.51499842089E+03 -0.35606139243E+03 -0.76611758976E+03  0.98941359412E+03  0.10100000352E+00 0. -1.
</event>
<event>
 5   0  0.3203527E-05  0.1896506E+04  0.7818609E-02  0.8656598E-01
       -1   -1    0    0    0  501  0.00000000000E+00  0.00000000000E+00  0.66713376467E+03  0.66713376469E+03  0.50400001928E-02 0.  1.
        1   -1    0    0  501    0  0.00000000000E+00  0.00000000000E+00 -0.13478307667E+04  0.13478307667E+04  0.50400001928E-02 0. -1.
    10030    2    1    2    0    0  0.00000000000E+00  0.00000000000E+00 -0.68069700205E+03  0.20149645314E+04  0.18965056431E+04 0.  0.
        1    1    3    3  502    0 -0.10427381644E+03 -0.16010730690E+03 -0.13271666617E+04  0.13408500015E+04  0.50400001928E-02 0. -1.
       -1    1    3    3    0  502  0.10427381644E+03  0.16010730690E+03  0.64646965968E+03  0.67411452990E+03  0.50400001928E-02 0.  1.
</event>
<event>
 5   0  0.3086139E-05  0.1898981E+04  0.7818609E-02  0.8655364E-01
        1   -1    0    0  501    0  0.00000000000E+00  0.00000000000E+00  0.13332526900E+04  0.13332526900E+04  0.50400001928E-02 0.  1.
       -1   -1    0    0    0  501  0.00000000000E+00  0.00000000000E+00 -0.67619040171E+03  0.67619040173E+03  0.50400001928E-02 0. -1.
    10030    2    1    2    0    0  0.00000000000E+00  0.00000000000E+00  0.65706228826E+03  0.20094430917E+04  0.18989814870E+04 0.  0.
        2    1    3    3  502    0  0.74547340597E+03 -0.40588368194E+03  0.77879475496E+03  0.11519520097E+04  0.25500000920E-02 0. -1.
       -2    1    3    3    0  502 -0.74547340597E+03  0.40588368194E+03 -0.12173246670E+03  0.85749108201E+03  0.25500000920E-02 0.  1.
</event>
<event>
 5   0  0.3086139E-05  0.1898601E+04  0.7818609E-02  0.8655553E-01
        1   -1    0    0  501    0  0.00000000000E+00  0.00000000000E+00  0.12331294622E+04  0.12331294622E+04  0.50400001928E-02 0.  1.
       -1   -1    0    0    0  501  0.00000000000E+00  0.00000000000E+00 -0.73080006032E+03  0.73080006034E+03  0.50400001928E-02 0. -1.
    10030    2    1    2    0    0  0.00000000000E+00  0.00000000000E+00  0.50232940183E+03  0.19639295225E+04  0.18986006272E+04 0.  0.
        2    1    3    3  502    0 -0.65741009317E+01 -0.27234736691E+03 -0.68949634389E+03  0.74136463047E+03  0.25500000920E-02 0. -1.
       -2    1    3    3    0  502  0.65741009317E+01  0.27234736691E+03  0.11918257457E+04  0.12225648920E+04  0.25500000920E-02 0.  1.
</event>
<event>
 5   0  0.6423388E-05  0.1884078E+04  0.7818609E-02  0.8662823E-01
        2   -1    0    0  501    0  0.00000000000E+00  0.00000000000E+00  0.16899387316E+04  0.16899387316E+04  0.25500000920E-02 0.  1.
       -2   -1    0    0    0  501  0.00000000000E+00  0.00000000000E+00 -0.52512976527E+03  0.52512976528E+03  0.25500000920E-02 0. -1.
    10030    2    1    2    0    0  0.00000000000E+00  0.00000000000E+00  0.11648089663E+04  0.22150684969E+04  0.18840776305E+04 0.  0.
        2    1    3    3  502    0  0.10320119567E+03 -0.30987262997E+03  0.16212445734E+04  0.16538154372E+04  0.25500000920E-02 0.  1.
       -2    1    3    3    0  502 -0.10320119567E+03  0.30987262997E+03 -0.45643560706E+03  0.56125305968E+03  0.25500000920E-02 0. -1.
</event>
<event>
 5   0  0.6395992E-05  0.1901158E+04  0.7818609E-02  0.8654280E-01
        2   -1    0    0  501    0  0.00000000000E+00  0.00000000000E+00  0.12358714807E+04  0.12358714807E+04  0.25500000920E-02 0.  1.
       -2   -1    0    0    0  501  0.00000000000E+00  0.00000000000E+00 -0.73114428297E+03  0.73114428298E+03  0.25500000920E-02 0. -1.
    10030    2    1    2    0    0  0.00000000000E+00  0.00000000000E+00  0.50472719772E+03  0.19670157637E+04  0.19011579289E+04 0.  0.
        4    1    3    3  502    0  0.38483910453E+03 -0.47552985863E+03  0.10051450102E+04  0.11766681296E+04  0.12699999809E+01 0.  1.
       -4    1    3    3    0  502 -0.38483910453E+03  0.47552985863E+03 -0.50041781243E+03  0.79034763410E+03  0.12699999809E+01 0. -1.
</event>
<event>
 5   0  0.6098377E-05  0.1884631E+04  0.7818609E-02  0.8662545E-01
        2   -1    0    0  501    0  0.00000000000E+00  0.00000000000E+00  0.86108365711E+03  0.86108365711E+03  0.25500000920E-02 0.  1.
       -2   -1    0    0    0  501  0.00000000000E+00  0.00000000000E+00 -0.10312100246E+04  0.10312100246E+04  0.25500000920E-02 0. -1.
    10030    2    1    2    0    0  0.00000000000E+00  0.00000000000E+00 -0.17012636752E+03  0.18922936817E+04  0.18846305731E+04 0.  0.
        5    1    3    3  502    0 -0.67290752393E+03 -0.43481933464E+03  0.41300180167E+03  0.90136838625E+03  0.46999998093E+01 0.  1.
       -5    1    3    3    0  502  0.67290752393E+03  0.43481933464E+03 -0.58312816919E+03  0.99092529550E+03  0.46999998093E+01 0. -1.
</event>
<event>
 5   0  0.3203527E-05  0.1896709E+04  0.7818609E-02  0.8656496E-01
       -1   -1    0    0    0  501  0.00000000000E+00  0.00000000000E+00  0.67151524719E+03  0.67151524721E+03  0.50400001928E-02 0.  1.
        1   -1    0    0  501    0  0.00000000000E+00  0.00000000000E+00 -0.13393242641E+04  0.13393242641E+04  0.50400001928E-02 0. -1.
    10030    2    1    2    0    0  0.00000000000E+00  0.00000000000E+00 -0.66780901692E+03  0.20108395113E+04  0.18967094288E+04 0.  0.
        1    1    3    3  502    0 -0.84115231908E+03  0.43755843102E+03 -0.31318200103E+03  0.99853771598E+03  0.50400001928E-02 0. -1.
       -1    1    3    3    0  502  0.84115231908E+03 -0.43755843102E+03 -0.35462701589E+03  0.10123017954E+04  0.50400001928E-02 0.  1.
</event>
<event>
 5   0  0.3144958E-05  0.1891671E+04  0.7818609E-02  0.8659013E-01
       -1   -1    0    0    0  501  0.00000000000E+00  0.00000000000E+00  0.85786891816E+03  0.85786891817E+03  0.50400001928E-02 0.  1.
        1   -1    0    0  501    0  0.00000000000E+00  0.00000000000E+00 -0.10428227731E+04  0.10428227731E+04  0.50400001928E-02 0. -1.
    10030    2    1    2    0    0  0.00000000000E+00  0.00000000000E+00 -0.18495385491E+03  0.19006916912E+04  0.18916714770E+04 0.  0.
        4    1    3    3  502    0  0.54399284109E+03 -0.52670761299E+03  0.47701894102E+03  0.89492893781E+03  0.12699999809E+01 0. -1.
       -4    1    3    3    0  502 -0.54399284109E+03  0.52670761299E+03 -0.66197279593E+03  0.10057627534E+04  0.12699999809E+01 0.  1.
</event>
<event>
 5   0  0.6423388E-05  0.1887071E+04  0.7818609E-02  0.8661319E-01
       -2   -1    0    0    0  501  0.00000000000E+00  0.00000000000E+00  0.52804923781E+03  0.52804923781E+03  0.25500000920E-02 0.  1.
        2   -1    0    0  501    0  0.00000000000E+00  0.00000000000E+00 -0.16859399310E+04  0.16859399310E+04  0.25500000920E-02 0. -1.
    10030    2    1    2    0    0  0.00000000000E+00  0.00000000000E+00 -0.11578906932E+04  0.22139891688E+04  0.18870710591E+04 0.  0.
        2    1    3    3  502    0 -0.56731549695E+03  0.64616619932E+03 -0.12321759883E+03  0.86865425049E+03  0.25500000920E-02 0.  1.
       -2    1    3    3    0  502  0.56731549695E+03 -0.64616619932E+03 -0.10346730943E+04  0.13453349183E+04  0.25500000920E-02 0. -1.
</event>
<event>
 5   0  0.6361762E-05  0.1898859E+04  0.7818609E-02  0.8655424E-01
        2   -1    0    0  501    0  0.00000000000E+00  0.00000000000E+00  0.19984758709E+04  0.19984758709E+04  0.25500000920E-02 0. -1.
       -2   -1    0    0    0  501  0.00000000000E+00  0.00000000000E+00 -0.45105207542E+03  0.45105207543E+03  0.25500000920E-02 0.  1.
    10030    2    1    2    0    0  0.00000000000E+00  0.00000000000E+00  0.15474237955E+04  0.24495279463E+04  0.18988593305E+04 0.  0.
        1    1    3    3  502    0  0.25494700120E+03  0.14152119402E+03  0.19392824543E+04  0.19610820124E+04  0.50400001928E-02 0. -1.
       -1    1    3    3    0  502 -0.25494700120E+03 -0.14152119402E+03 -0.39185865886E+03  0.48844593388E+03  0.50400001928E-02 0.  1.
</event>
<event>
 5   0  0.6361762E-05  0.1883926E+04  0.7818609E-02  0.8662899E-01
        2   -1    0    0  501    0  0.00000000000E+00  0.00000000000E+00  0.62965472686E+03  0.62965472686E+03  0.25500000920E-02 0. -1.
       -2   -1    0    0    0  501  0.00000000000E+00  0.00000000000E+00 -0.14091759852E+04  0.14091759852E+04  0.25500000920E-02 0.  1.
    10030    2    1    2    0    0  0.00000000000E+00  0.00000000000E+00 -0.77952125831E+03  0.20388307120E+04  0.18839260283E+04 0.  0.
        1    1    3    3  502    0 -0.48246266002E+03  0.37224999917E+03  0.38760051553E+03  0.72220110763E+03  0.50400001928E-02 0. -1.
       -1    1    3    3    0  502  0.48246266002E+03 -0.37224999917E+03 -0.11671217738E+04  0.13166296044E+04  0.50400001928E-02 0.  1.
</event>
<event>
 5   0  0.3086139E-05  0.1903278E+04  0.7818609E-02  0.8653226E-01
       -1   -1    0    0    0  501  0.00000000000E+00  0.00000000000E+00  0.60586194905E+03  0.60586194907E+03  0.50400001928E-02 0. -1.
        1   -1    0    0  501    0  0.00000000000E+00  0.00000000000E+00 -0.14947583080E+04  0.14947583080E+04  0.50400001928E-02 0.  1.
    10030    2    1    2    0    0  0.00000000000E+00  0.00000000000E+00 -0.88889635892E+03  0.21006202571E+04  0.19032784156E+04 0.  0.
        2    1    3    3  502    0 -0.68054675793E+03 -0.71879354082E+02  0.28540964434E+03  0.74146422460E+03  0.25500000920E-02 0. -1.
       -2    1    3    3    0  502  0.68054675793E+03  0.71879354082E+02 -0.11743060033E+04  0.13591560325E+04  0.25500000920E-02 0.  1.
</event>
<event>
 5   0  0.6098377E-05  0.1889593E+04  0.7818609E-02  0.8660054E-01
       -2   -1    0    0    0  501  0.00000000000E+00  0.00000000000E+00  0.55283412556E+03  0.55283412557E+03  0.25500000920E-02 0. -1.
        2   -1    0    0  501    0  0.00000000000E+00  0.00000000000E+00 -0.16146614701E+04  0.16146614701E+04  0.25500000920E-02 0.  1.
    10030    2    1    2    0    0  0.00000000000E+00  0.00000000000E+00 -0.10618273445E+04  0.21674955957E+04  0.18895925084E+04 0.  0.
        5    1    3    3  502    0  0.51623150219E+03  0.21262046410E+03 -0.14051855873E+04  0.15120420134E+04  0.46999998093E+01 0.  1.
       -5    1    3    3    0  502 -0.51623150219E+03 -0.21262046410E+03  0.34335824276E+03  0.65545358225E+03  0.46999998093E+01 0. -1.
</event>
<event>
 5   0  0.3144958E-05  0.1865436E+04  0.7818609E-02  0.8672255E-01
        1   -1    0    0  501    0  0.00000000000E+00  0.00000000000E+00  0.91205523830E+03  0.91205523832E+03  0.50400001928E-02 0. -1.
       -1   -1    0    0    0  501  0.00000000000E+00  0.00000000000E+00 -0.95384886308E+03  0.95384886309E+03  0.50400001928E-02 0.  1.
    10030    2    1    2    0    0  0.00000000000E+00  0.00000000000E+00 -0.41793624773E+02  0.18659041014E+04  0.18654359835E+04 0.  0.
        4    1    3    3  502    0  0.55916961967E+03 -0.73243745375E+03  0.12345139710E+03  0.92971885405E+03  0.12699999809E+01 0. -1.
       -4    1    3    3    0  502 -0.55916961967E+03  0.73243745375E+03 -0.16524502187E+03  0.93618524736E+03  0.12699999809E+01 0.  1.
</event>
<event>
 5   0  0.3203527E-05  0.1900004E+04  0.7818609E-02  0.8654854E-01
       -1   -1    0    0    0  501  0.00000000000E+00  0.00000000000E+00  0.49938127246E+03  0.49938127248E+03  0.50400001928E-02 0.  1.
        1   -1    0    0  501    0  0.00000000000E+00  0.00000000000E+00 -0.18072436968E+04  0.18072436968E+04  0.50400001928E-02 0. -1.
    10030    2    1    2    0    0  0.00000000000E+00  0.00000000000E+00 -0.13078624243E+04  0.23066249693E+04  0.19000038494E+04 0.  0.
        1    1    3    3  502    0 -0.77762037084E+03  0.12755879759E+02  0.83975730375E+01  0.77777032141E+03  0.50400001928E-02 0.  1.
       -1    1    3    3    0  502  0.77762037084E+03 -0.12755879759E+02 -0.13162599974E+04  0.15288546479E+04  0.50400001928E-02 0. -1.
</event>
<event>
 5   0  0.3203527E-05  0.1911500E+04  0.7818609E-02  0.8649153E-01
        1   -1    0    0  501    0  0.00000000000E+00  0.00000000000E+00  0.14800828934E+04  0.14800828934E+04  0.50400001928E-02 0.  1.
       -1   -1    0    0    0  501  0.00000000000E+00  0.00000000000E+00 -0.61716666006E+03  0.61716666008E+03  0.50400001928E-02 0. -1.
    10030    2    1    2    0    0  0.00000000000E+00  0.00000000000E+00  0.86291623331E+03  0.20972495535E+04  0.19114997420E+04 0.  0.
        1    1    3    3  502    0  0.28592388868E+03  0.23017636484E+03 -0.53674772543E+03  0.65025514210E+03  0.50400001928E-02 0. -1.
       -1    1    3    3    0  502 -0.28592388868E+03 -0.23017636484E+03  0.13996639587E+04  0.14469944114E+04  0.50400001928E-02 0.  1.
</event>
<event>
 5   0  0.3086139E-05  0.1898009E+04  0.7818609E-02  0.8655848E-01
        1   -1    0    0  501    0  0.00000000000E+00  0.00000000000E+00  0.21682663435E+04  0.21682663435E+04  0.50400001928E-02 0. -1.
       -1   -1    0    0    0  501  0.00000000000E+00  0.00000000000E+00 -0.41535910010E+03  0.41535910013E+03  0.50400001928E-02 0.  1.
    10030    2    1    2    0    0  0.00000000000E+00  0.00000000000E+00  0.17529072434E+04  0.25836254436E+04  0.18980085956E+04 0.  0.
        2    1    3    3  502    0  0.15714633684E+03  0.44470076275E+03  0.19974287990E+04  0.20523585326E+04  0.25500000920E-02 0. -1.
       -2    1    3    3    0  502 -0.15714633684E+03 -0.44470076275E+03 -0.24452155557E+03  0.53126691099E+03  0.25500000920E-02 0.  1.
</event>
<event>
 5   0  0.3083469E-05  0.1897190E+04  0.7818609E-02  0.8656256E-01
       -1   -1    0    0    0  501  0.00000000000E+00  0.00000000000E+00  0.79540507070E+03  0.79540507072E+03  0.50400001928E-02 0.  1.
        1   -1    0    0  501    0  0.00000000000E+00  0.00000000000E+00 -0.11312880410E+04  0.11312880410E+04  0.50400001928E-02 0. -1.
    10030    2    1    2    0    0  0.00000000000E+00  0.00000000000E+00 -0.33588297027E+03  0.19266931117E+04  0.18971897578E+04 0.  0.
        3    1    3    3  502    0  0.10532222594E+03  0.94258245309E+03 -0.18486746168E+03  0.96629728383E+03  0.10100000352E+00 0. -1.
       -3    1    3    3    0  502 -0.10532222594E+03 -0.94258245309E+03 -0.15101550859E+03  0.96039582787E+03  0.10100000352E+00 0.  1.
</event>
<event>
 5   0  0.6452182E-05  0.1926150E+04  0.7818609E-02  0.8641948E-01
       -2   -1    0    0    0  501  0.00000000000E+00  0.00000000000E+00  0.12637300857E+04  0.12637300857E+04  0.25500000920E-02 0. -1.
        2   -1    0    0  501    0  0.00000000000E+00  0.00000000000E+00 -0.73394908192E+03  0.73394908192E+03  0.25500000920E-02 0.  1.
    10030    2    1    2    0    0  0.00000000000E+00  0.00000000000E+00  0.52978100378E+03  0.19976791676E+04  0.19261500837E+04 0.  0.
        3    1    3    3  502    0 -0.81328095059E+03  0.34851308082E+03  0.65931073500E+03  0.11034391363E+04  0.10100000352E+00 0. -1.
       -3    1    3    3    0  502  0.81328095059E+03 -0.34851308082E+03 -0.12952973122E+03  0.89424003129E+03  0.10100000352E+00 0.  1.
</event>
<event>
 5   0  0.3083469E-05  0.1896190E+04  0.7818609E-02  0.8656755E-01
        1   -1    0    0  501    0  0.00000000000E+00  0.00000000000E+00  0.94016578563E+03  0.94016578565E+03  0.50400001928E-02 0. -1.
       -1   -1    0    0    0  501  0.00000000000E+00  0.00000000000E+00 -0.95609091638E+03  0.95609091639E+03  0.50400001928E-02 0.  1.
    10030    2    1    2    0    0  0.00000000000E+00  0.00000000000E+00 -0.15925130744E+02  0.18962567020E+04  0.18961898297E+04 0.  0.
        3    1    3    3  502    0  0.74491912805E+03  0.19496993910E+02 -0.59415669098E+03  0.95305132273E+03  0.10100000352E+00 0.  1.
       -3    1    3    3    0  502 -0.74491912805E+03 -0.19496993910E+02  0.57823156024E+03  0.94320537931E+03  0.10100000352E+00 0. -1.
</event>
<event>
 5   0  0.6395992E-05  0.1901905E+04  0.7818609E-02  0.8653909E-01
        2   -1    0    0  501    0  0.00000000000E+00  0.00000000000E+00  0.15200554774E+04  0.15200554774E+04  0.25500000920E-02 0. -1.
       -2   -1    0    0    0  501  0.00000000000E+00  0.00000000000E+00 -0.59491968154E+03  0.59491968155E+03  0.25500000920E-02 0.  1.
    10030    2    1    2    0    0  0.00000000000E+00  0.00000000000E+00  0.92513579589E+03  0.21149751590E+04  0.19019052769E+04 0.  0.
        4    1    3    3  502    0  0.14052326798E+03 -0.78623777570E+03 -0.11138668766E+03  0.80642745233E+03  0.12699999809E+01 0.  1.
       -4    1    3    3    0  502 -0.14052326798E+03  0.78623777570E+03  0.10365224836E+04  0.13085477067E+04  0.12699999809E+01 0. -1.
</event>
<event>
 5   0  0.6452182E-05  0.1900798E+04  0.7818609E-02  0.8654459E-01
       -2   -1    0    0    0  501  0.00000000000E+00  0.00000000000E+00  0.77833496740E+03  0.77833496741E+03  0.25500000920E-02 0.  1.
        2   -1    0    0  501    0  0.00000000000E+00  0.00000000000E+00 -0.11605006808E+04  0.11605006808E+04  0.25500000920E-02 0. -1.
    10030    2    1    2    0    0  0.00000000000E+00  0.00000000000E+00 -0.38216571337E+03  0.19388356482E+04  0.19007980004E+04 0.  0.
        3    1    3    3  502    0  0.47811114473E+03  0.36750751461E+03  0.55819603677E+03  0.82172675853E+03  0.10100000352E+00 0.  1.
       -3    1    3    3    0  502 -0.47811114473E+03 -0.36750751461E+03 -0.94036175014E+03  0.11171088897E+04  0.10100000352E+00 0. -1.
</event>
<event>
 5   0  0.6423388E-05  0.1902033E+04  0.7818609E-02  0.8653845E-01
        2   -1    0    0  501    0  0.00000000000E+00  0.00000000000E+00  0.16404367288E+04  0.16404367288E+04  0.25500000920E-02 0. -1.
       -2   -1    0    0    0  501  0.00000000000E+00  0.00000000000E+00 -0.55133619093E+03  0.55133619094E+03  0.25500000920E-02 0.  1.
    10030    2    1    2    0    0  0.00000000000E+00  0.00000000000E+00  0.10891005379E+04  0.21917729197E+04  0.19020327416E+04 0.  0.
        2    1    3    3  502    0 -0.18747070758E+03 -0.93038297617E+03  0.47469967031E+03  0.10611774242E+04  0.25500000920E-02 0. -1.
       -2    1    3    3    0  502  0.18747070758E+03  0.93038297617E+03  0.61440086755E+03  0.11305954956E+04  0.25500000920E-02 0.  1.
</event>
<event>
 5   0  0.3147063E-05  0.1901597E+04  0.7818609E-02  0.8654062E-01
        1   -1    0    0  501    0  0.00000000000E+00  0.00000000000E+00  0.43074996709E+03  0.43074996712E+03  0.50400001928E-02 0. -1.
       -1   -1    0    0    0  501  0.00000000000E+00  0.00000000000E+00 -0.20987060129E+04  0.20987060129E+04  0.50400001928E-02 0.  1.
    10030    2    1    2    0    0  0.00000000000E+00  0.00000000000E+00 -0.16679560458E+04  0.25294559800E+04  0.19015967459E+04 0.  0.
        5    1    3    3  502    0 -0.11809124220E+03  0.48368059687E+03 -0.19114220310E+04  0.19752085287E+04  0.46999998093E+01 0.  1.
       -5    1    3    3    0  502  0.11809124220E+03 -0.48368059687E+03  0.24346598524E+03  0.55424745127E+03  0.46999998093E+01 0. -1.
</event>
<event>
 5   0  0.3203527E-05  0.1901317E+04  0.7818609E-02  0.8654201E-01
        1   -1    0    0  501    0  0.00000000000E+00  0.00000000000E+00  0.74923885190E+03  0.74923885191E+03  0.50400001928E-02 0.  1.
       -1   -1    0    0    0  501  0.00000000000E+00  0.00000000000E+00 -0.12062261711E+04  0.12062261711E+04  0.50400001928E-02 0. -1.
    10030    2    1    2    0    0  0.00000000000E+00  0.00000000000E+00 -0.45698731923E+03  0.19554650231E+04  0.19013169243E+04 0.  0.
        1    1    3    3  502    0 -0.52462972508E+02  0.13885550307E+03  0.73724688533E+03  0.75204134472E+03  0.50400001928E-02 0.  1.
       -1    1    3    3    0  502  0.52462972508E+02 -0.13885550307E+03 -0.11942342046E+04  0.12034236783E+04  0.50400001928E-02 0. -1.
</event>
<event>
 5   0  0.6361762E-05  0.1901416E+04  0.7818609E-02  0.8654152E-01
       -2   -1    0    0    0  501  0.00000000000E+00  0.00000000000E+00  0.53167159987E+03  0.53167159988E+03  0.25500000920E-02 0.  1.
        2   -1    0    0  501    0  0.00000000000E+00  0.00000000000E+00 -0.17000066967E+04  0.17000066967E+04  0.25500000920E-02 0. -1.
    10030    2    1    2    0    0  0.00000000000E+00  0.00000000000E+00 -0.11683350968E+04  0.22316782965E+04  0.19014155571E+04 0.  0.
        1    1    3    3  502    0  0.68797278615E+03 -0.62349416065E+03 -0.82411174772E+03  0.12414554747E+04  0.50400001928E-02 0. -1.
       -1    1    3    3    0  502 -0.68797278615E+03  0.62349416065E+03 -0.34422334906E+03  0.99022282185E+03  0.50400001928E-02 0.  1.
</event>
<event>
 5   0  0.6395992E-05  0.1898494E+04  0.7818609E-02  0.8655607E-01
       -2   -1    0    0    0  501  0.00000000000E+00  0.00000000000E+00  0.54124219688E+03  0.54124219689E+03  0.25500000920E-02 0.  1.
        2   -1    0    0  501    0  0.00000000000E+00  0.00000000000E+00 -0.16648176543E+04  0.16648176543E+04  0.25500000920E-02 0. -1.
    10030    2    1    2    0    0  0.00000000000E+00  0.00000000000E+00 -0.11235754574E+04  0.22060598512E+04  0.18984936814E+04 0.  0.
        4    1    3    3  502    0  0.24712719730E+03  0.61338492384E+03 -0.13531082962E+04  0.15060599558E+04  0.12699999809E+01 0. -1.
       -4    1    3    3    0  502 -0.24712719730E+03 -0.61338492384E+03  0.22953283882E+03  0.69999989531E+03  0.12699999809E+01 0.  1.
</event>
<event>
 5   0  0.6098377E-05  0.1961124E+04  0.7818609E-02  0.8625015E-01
        2   -1    0    0  501    0  0.00000000000E+00  0.00000000000E+00  0.78660532203E+03  0.78660532204E+03  0.25500000920E-02 0.  1.
       -2   -1    0    0    0  501  0.00000000000E+00  0.00000000000E+00 -0.12223437599E+04  0.12223437599E+04  0.25500000920E-02 0. -1.
    10030    2    1    2    0    0  0.00000000000E+00  0.00000000000E+00 -0.43573843785E+03  0.20089490819E+04  0.19611242764E+04 0.  0.
        5    1    3    3  502    0  0.14980009720E+03  0.13178972395E+03 -0.12013182871E+04  0.12177833622E+04  0.46999998093E+01 0. -1.
       -5    1    3    3    0  502 -0.14980009720E+03 -0.13178972395E+03  0.76557984923E+03  0.79116571969E+03  0.46999998093E+01 0.  1.
</event>
<event>
 5   0  0.6452182E-05  0.1896635E+04  0.7818609E-02  0.8656533E-01
        2   -1    0    0  501    0  0.00000000000E+00  0.00000000000E+00  0.16474151483E+04  0.16474151483E+04  0.25500000920E-02 0. -1.
       -2   -1    0    0    0  501  0.00000000000E+00  0.00000000000E+00 -0.54588928697E+03  0.54588928698E+03  0.25500000920E-02 0.  1.
    10030    2    1    2    0    0  0.00000000000E+00  0.00000000000E+00  0.11015258613E+04  0.21933044352E+04  0.18966352107E+04 0.  0.
        3    1    3    3  502    0  0.44930670300E+03  0.17661039035E+03 -0.39314574898E+03  0.62260046056E+03  0.10100000352E+00 0.  1.
       -3    1    3    3    0  502 -0.44930670300E+03 -0.17661039035E+03  0.14946716103E+04  0.15707039747E+04  0.10100000352E+00 0. -1.
</event>
<event>
 5   0  0.6395992E-05  0.1898220E+04  0.7818609E-02  0.8655743E-01
        2   -1    0    0  501    0  0.00000000000E+00  0.00000000000E+00  0.93327104431E+03  0.93327104431E+03  0.25500000920E-02 0. -1.
       -2   -1    0    0    0  501  0.00000000000E+00  0.00000000000E+00 -0.96521801534E+03  0.96521801534E+03  0.25500000920E-02 0.  1.
    10030    2    1    2    0    0  0.00000000000E+00  0.00000000000E+00 -0.31946971031E+02  0.18984890597E+04  0.18982202456E+04 0.  0.
        4    1    3    3  502    0 -0.58879562849E+03  0.72533629712E+01 -0.76044138233E+03  0.96177212076E+03  0.12699999809E+01 0.  1.
       -4    1    3    3    0  502  0.58879562849E+03 -0.72533629712E+01  0.72849441130E+03  0.93671693889E+03  0.12699999809E+01 0. -1.
</event>
<event>
 5   0  0.3147063E-05  0.1881077E+04  0.7818609E-02  0.8664333E-01
        1   -1    0    0  501    0  0.00000000000E+00  0.00000000000E+00  0.87591945062E+03  0.87591945063E+03  0.50400001928E-02 0.  1.
       -1   -1    0    0    0  501  0.00000000000E+00  0.00000000000E+00 -0.10099245521E+04  0.10099245521E+04  0.50400001928E-02 0. -1.
    10030    2    1    2    0    0  0.00000000000E+00  0.00000000000E+00 -0.13400510148E+03  0.18858440027E+04  0.18810768819E+04 0.  0.
        5    1    3    3  502    0 -0.13456550061E+03 -0.12386058645E+03 -0.99191369619E+03  0.10086447291E+04  0.46999998093E+01 0. -1.
       -5    1    3    3    0  502  0.13456550061E+03  0.12386058645E+03  0.85790859471E+03  0.87719927365E+03  0.46999998093E+01 0.  1.
</event>
<event>
 5   0  0.3086139E-05  0.1905180E+04  0.7818609E-02  0.8652282E-01
        1   -1    0    0  501    0  0.00000000000E+00  0.00000000000E+00  0.18834060717E+04  0.18834060717E+04  0.50400001928E-02 0. -1.
       -1   -1    0    0    0  501  0.00000000000E+00  0.00000000000E+00 -0.48180140031E+03  0.48180140033E+03  0.50400001928E-02 0.  1.
    10030    2    1    2    0    0  0.00000000000E+00  0.00000000000E+00  0.14016046714E+04  0.23652074720E+04  0.19051799734E+04 0.  0.
        2    1    3    3  502    0  0.73074447985E+03  0.55416163736E+02  0.14563305512E+04  0.16303242378E+04  0.25500000920E-02 0. -1.
       -2    1    3    3    0  502 -0.73074447985E+03 -0.55416163736E+02 -0.54725879799E+02  0.73488323423E+03  0.25500000920E-02 0.  1.
</event>
<event>
 5   0  0.6395992E-05  0.1925648E+04  0.7818609E-02  0.8642194E-01
       -2   -1    0    0    0  501  0.00000000000E+00  0.00000000000E+00  0.37314127179E+03  0.37314127180E+03  0.25500000920E-02 0. -1.
        2   -1    0    0  501    0  0.00000000000E+00  0.00000000000E+00 -0.24843946934E+04  0.24843946934E+04  0.25500000920E-02 0.  1.
    10030    2    1    2    0    0  0.00000000000E+00  0.00000000000E+00 -0.21112534216E+04  0.28575359652E+04  0.19256481460E+04 0.  0.
        4    1    3    3  502    0 -0.15433721802E+03  0.57676000785E+03  0.65266136121E+02  0.60061082653E+03  0.12699999809E+01 0. -1.
       -4    1    3    3    0  502  0.15433721802E+03 -0.57676000785E+03 -0.21765195577E+04  0.22569251386E+04  0.12699999809E+01 0.  1.
</event>
<event>
 5   0  0.6452182E-05  0.1903165E+04  0.7818609E-02  0.8653283E-01
       -2   -1    0    0    0  501  0.00000000000E+00  0.00000000000E+00  0.48378120701E+03  0.48378120702E+03  0.25500000920E-02 0.  1.
        2   -1    0    0  501    0  0.00000000000E+00  0.00000000000E+00 -0.18717321206E+04  0.18717321206E+04  0.25500000920E-02 0. -1.
    10030    2    1    2    0    0  0.00000000000E+00  0.00000000000E+00 -0.13879509136E+04  0.23555133277E+04  0.19031645484E+04 0.  0.
        3    1    3    3  502    0 -0.35970465831E+03  0.88052283570E+03 -0.72900228360E+03  0.11983956964E+04  0.10100000352E+00 0.  1.
       -3    1    3    3    0  502  0.35970465831E+03 -0.88052283570E+03 -0.65894863003E+03  0.11571176313E+04  0.10100000352E+00 0. -1.
</event>
<event>
 5   0  0.2279625E-05  0.1906147E+04  0.7818609E-02  0.8651803E-01
       -3   -1    0    0    0  501  0.00000000000E+00  0.00000000000E+00  0.62824091277E+03  0.62824092088E+03  0.10100000352E+00 0. -1.
        3   -1    0    0  501    0  0.00000000000E+00  0.00000000000E+00 -0.14458606561E+04  0.14458606596E+04  0.10100000352E+00 0.  1.
    10030    2    1    2    0    0  0.00000000000E+00  0.00000000000E+00 -0.81761974334E+03  0.20741015805E+04  0.19061467209E+04 0.  0.
        3    1    3    3  502    0 -0.66832367253E+03 -0.45512263206E+01 -0.11481431661E+04  0.13284991475E+04  0.10100000352E+00 0.  1.
       -3    1    3    3    0  502  0.66832367253E+03  0.45512263206E+01  0.33052342274E+03  0.74560243300E+03  0.10100000352E+00 0. -1.
</event>
<event>
 5   0  0.6423388E-05  0.1882060E+04  0.7818609E-02  0.8663838E-01
        2   -1    0    0  501    0  0.00000000000E+00  0.00000000000E+00  0.59527595384E+03  0.59527595384E+03  0.25500000920E-02 0. -1.
       -2   -1    0    0    0  501  0.00000000000E+00  0.00000000000E+00 -0.14876090075E+04  0.14876090075E+04  0.25500000920E-02 0.  1.
    10030    2    1    2    0    0  0.00000000000E+00  0.00000000000E+00 -0.89233305366E+03  0.20828849613E+04  0.18820604357E+04 0.  0.
        2    1    3    3  502    0 -0.24072624361E+03 -0.90947269366E+03 -0.42273766620E+03  0.10314052740E+04  0.25500000920E-02 0. -1.
       -2    1    3    3    0  502  0.24072624361E+03  0.90947269366E+03 -0.46959538746E+03  0.10514796873E+04  0.25500000920E-02 0.  1.
</event>
<event>
 5   0  0.6395992E-05  0.1901361E+04  0.7818609E-02  0.8654179E-01
       -2   -1    0    0    0  501  0.00000000000E+00  0.00000000000E+00  0.42543341426E+03  0.42543341427E+03  0.25500000920E-02 0. -1.
        2   -1    0    0  501    0  0.00000000000E+00  0.00000000000E+00 -0.21244067626E+04  0.21244067626E+04  0.25500000920E-02 0.  1.
    10030    2    1    2    0    0  0.00000000000E+00  0.00000000000E+00 -0.16989733483E+04  0.25498401769E+04  0.19013612201E+04 0.  0.
        4    1    3    3  502    0  0.47075297963E+03  0.56052127061E+03 -0.35959676675E+02  0.73286231578E+03  0.12699999809E+01 0. -1.
       -4    1    3    3    0  502 -0.47075297963E+03 -0.56052127061E+03 -0.16630136716E+04  0.18169778611E+04  0.12699999809E+01 0.  1.
</event>
<event>
 5   0  0.3203527E-05  0.1884953E+04  0.7818609E-02  0.8662383E-01
       -1   -1    0    0    0  501  0.00000000000E+00  0.00000000000E+00  0.84848429744E+03  0.84848429746E+03  0.50400001928E-02 0.  1.
        1   -1    0    0  501    0  0.00000000000E+00  0.00000000000E+00 -0.10468809355E+04  0.10468809355E+04  0.50400001928E-02 0. -1.
    10030    2    1    2    0    0  0.00000000000E+00  0.00000000000E+00 -0.19839663807E+03  0.18953652330E+04  0.18849530871E+04 0.  0.
        1    1    3    3  502    0  0.53246263658E+03  0.41204573027E+03  0.56396266464E+03  0.87826649163E+03  0.50400001928E-02 0.  1.
       -1    1    3    3    0  502 -0.53246263658E+03 -0.41204573027E+03 -0.76235930271E+03  0.10170987413E+04  0.50400001928E-02 0. -1.
</event>
<event>
 5   0  0.6423388E-05  0.1899810E+04  0.7818609E-02  0.8654951E-01
       -2   -1    0    0    0  501  0.00000000000E+00  0.00000000000E+00  0.70418636053E+03  0.70418636054E+03  0.25500000920E-02 0. -1.
        2   -1    0    0  501    0  0.00000000000E+00  0.00000000000E+00 -0.12813642681E+04  0.12813642681E+04  0.25500000920E-02 0.  1.
    10030    2    1    2    0    0  0.00000000000E+00  0.00000000000E+00 -0.57717790755E+03  0.19855506286E+04  0.18998097173E+04 0.  0.
        2    1    3    3  502    0 -0.78733323236E+03 -0.17955331505E+03 -0.81134920867E+03  0.11447360177E+04  0.25500000920E-02 0. -1.
       -2    1    3    3    0  502  0.78733323236E+03  0.17955331505E+03  0.23417130112E+03  0.84081461096E+03  0.25500000920E-02 0.  1.
</event>
<event>
 5   0  0.3147063E-05  0.1891955E+04  0.7818609E-02  0.8658871E-01
       -1   -1    0    0    0  501  0.00000000000E+00  0.00000000000E+00  0.99947292334E+03  0.99947292336E+03  0.50400001928E-02 0.  1.
        1   -1    0    0  501    0  0.00000000000E+00  0.00000000000E+00 -0.89534529357E+03  0.89534529358E+03  0.50400001928E-02 0. -1.
    10030    2    1    2    0    0  0.00000000000E+00  0.00000000000E+00  0.10412762977E+03  0.18948182169E+04  0.18919549445E+04 0.  0.
        5    1    3    3  502    0 -0.65532020952E+03  0.39492232999E+03  0.60918174790E+03  0.97802490546E+03  0.46999998093E+01 0. -1.
       -5    1    3    3    0  502  0.65532020952E+03 -0.39492232999E+03 -0.50505411813E+03  0.91679331148E+03  0.46999998093E+01 0.  1.
</event>
<event>
 5   0  0.3083469E-05  0.1889786E+04  0.7818609E-02  0.8659957E-01
        1   -1    0    0  501    0  0.00000000000E+00  0.00000000000E+00  0.78063503190E+03  0.78063503191E+03  0.50400001928E-02 0.  1.
       -1   -1    0    0    0  501  0.00000000000E+00  0.00000000000E+00 -0.11437139030E+04  0.11437139030E+04  0.50400001928E-02 0. -1.
    10030    2    1    2    0    0  0.00000000000E+00  0.00000000000E+00 -0.36307887107E+03  0.19243489349E+04  0.18897863786E+04 0.  0.
        3    1    3    3  502    0 -0.30274658998E+03  0.75172508478E+03  0.31322443027E+03  0.86882429452E+03  0.10100000352E+00 0.  1.
       -3    1    3    3    0  502  0.30274658998E+03 -0.75172508478E+03 -0.67630330134E+03  0.10555246404E+04  0.10100000352E+00 0. -1.
</event>
<event>
 5   0  0.6098377E-05  0.1901576E+04  0.7818609E-02  0.8654073E-01
       -2   -1    0    0    0  501  0.00000000000E+00  0.00000000000E+00  0.84453315222E+03  0.84453315222E+03  0.25500000920E-02 0. -1.
        2   -1    0    0  501    0  0.00000000000E+00  0.00000000000E+00 -0.10704108032E+04  0.10704108032E+04  0.25500000920E-02 0.  1.
    10030    2    1    2    0    0  0.00000000000E+00  0.00000000000E+00 -0.22587765096E+03  0.19149439554E+04  0.19015755676E+04 0.  0.
        5    1    3    3  502    0 -0.49764638834E+02  0.91154286797E+03 -0.38049140931E+03  0.98903120375E+03  0.46999998093E+01 0.  1.
       -5    1    3    3    0  502  0.49764638834E+02 -0.91154286797E+03  0.15461375835E+03  0.92591275166E+03  0.46999998093E+01 0. -1.
</event>
<event>
 5   0  0.3147063E-05  0.1811245E+04  0.7818609E-02  0.8700342E-01
       -1   -1    0    0    0  501  0.00000000000E+00  0.00000000000E+00  0.12381230108E+04  0.12381230108E+04  0.50400001928E-02 0.  1.
        1   -1    0    0  501    0  0.00000000000E+00  0.00000000000E+00 -0.66241541253E+03  0.66241541255E+03  0.50400001928E-02 0. -1.
    10030    2    1    2    0    0  0.00000000000E+00  0.00000000000E+00  0.57570759829E+03  0.19005384234E+04  0.18112446163E+04 0.  0.
        5    1    3    3  502    0 -0.20804110245E+03 -0.61281071931E+03  0.95257633328E+03  0.11516257373E+04  0.46999998093E+01 0.  1.
       -5    1    3    3    0  502  0.20804110245E+03  0.61281071931E+03 -0.37686873499E+03  0.74891268611E+03  0.46999998093E+01 0. -1.
</event>
<event>
 5   0  0.6452182E-05  0.1901153E+04  0.7818609E-02  0.8654283E-01
        2   -1    0    0  501    0  0.00000000000E+00  0.00000000000E+00  0.73773642366E+03  0.73773642366E+03  0.25500000920E-02 0. -1.
       -2   -1    0    0    0  501  0.00000000000E+00  0.00000000000E+00 -0.12248213195E+04  0.12248213195E+04  0.25500000920E-02 0.  1.
    10030    2    1    2    0    0  0.00000000000E+00  0.00000000000E+00 -0.48708489587E+03  0.19625577432E+04  0.19011525977E+04 0.  0.
        3    1    3    3  502    0  0.10868125198E+03  0.94431304880E+03 -0.25130469284E+03  0.98320537402E+03  0.10100000352E+00 0.  1.
       -3    1    3    3    0  502 -0.10868125198E+03 -0.94431304880E+03 -0.23578020303E+03  0.97935236917E+03  0.10100000352E+00 0. -1.
</event>
<event>
 5   0  0.3203527E-05  0.1922351E+04  0.7818609E-02  0.8643810E-01
        1   -1    0    0  501    0  0.00000000000E+00  0.00000000000E+00  0.14596898904E+04  0.14596898905E+04  0.50400001928E-02 0. -1.
       -1   -1    0    0    0  501  0.00000000000E+00  0.00000000000E+00 -0.63291379453E+03  0.63291379455E+03  0.50400001928E-02 0.  1.
    10030    2    1    2    0    0  0.00000000000E+00  0.00000000000E+00  0.82677609591E+03  0.20926036850E+04  0.19223505065E+04 0.  0.
        1    1    3    3  502    0 -0.48401331352E+03 -0.93618115296E+02 -0.48480985779E+03  0.69142883756E+03  0.50400001928E-02 0.  1.
       -1    1    3    3    0  502  0.48401331352E+03  0.93618115296E+02  0.13115859537E+04  0.14011748475E+04  0.50400001928E-02 0. -1.
</event>
<event>
 5   0  0.3147063E-05  0.1901989E+04  0.7818609E-02  0.8653867E-01
       -1   -1    0    0    0  501  0.00000000000E+00  0.00000000000E+00  0.17558985369E+04  0.17558985369E+04  0.50400001928E-02 0.  1.
        1   -1    0    0  501    0  0.00000000000E+00  0.00000000000E+00 -0.51505873064E+03  0.51505873067E+03  0.50400001928E-02 0. -1.
    10030    2    1    2    0    0  0.00000000000E+00  0.00000000000E+00  0.12408398063E+04  0.22709572676E+04  0.19019893497E+04 0.  0.
        5    1    3    3  502    0 -0.17761245452E+03  0.83854495340E+03  0.12861035121E+03  0.86675632984E+03  0.46999998093E+01 0. -1.
       -5    1    3    3    0  502  0.17761245452E+03 -0.83854495340E+03  0.11122294550E+04  0.14042009377E+04  0.46999998093E+01 0.  1.
</event>
<event>
 5   0  0.6452182E-05  0.1893612E+04  0.7818609E-02  0.8658043E-01
        2   -1    0    0  501    0  0.00000000000E+00  0.00000000000E+00  0.11874102350E+04  0.11874102350E+04  0.25500000920E-02 0. -1.
       -2   -1    0    0    0  501  0.00000000000E+00  0.00000000000E+00 -0.75495491707E+03  0.75495491708E+03  0.25500000920E-02 0.  1.
    10030    2    1    2    0    0  0.00000000000E+00  0.00000000000E+00  0.43245531791E+03  0.19423651521E+04  0.18936115710E+04 0.  0.
        3    1    3    3  502    0 -0.61932594266E+03 -0.38617765095E+03 -0.40241167624E+03  0.83344644022E+03  0.10100000352E+00 0.  1.
       -3    1    3    3    0  502  0.61932594266E+03  0.38617765095E+03  0.83486699415E+03  0.11089187118E+04  0.10100000352E+00 0. -1.
</event>
<event>
 5   0  0.6098377E-05  0.1845223E+04  0.7818609E-02  0.8682614E-01
       -2   -1    0    0    0  501  0.00000000000E+00  0.00000000000E+00  0.67117726120E+03  0.67117726121E+03  0.25500000920E-02 0. -1.
        2   -1    0    0  501    0  0.00000000000E+00  0.00000000000E+00 -0.12682365918E+04  0.12682365918E+04  0.25500000920E-02 0.  1.
    10030    2    1    2    0    0  0.00000000000E+00  0.00000000000E+00 -0.59705933063E+03  0.19394138530E+04  0.18452225473E+04 0.  0.
        5    1    3    3  502    0 -0.15660360730E+03  0.27077192930E+03  0.61373188682E+03  0.68886213890E+03  0.46999998093E+01 0. -1.
       -5    1    3    3    0  502  0.15660360730E+03 -0.27077192930E+03 -0.12107912174E+04  0.12505517141E+04  0.46999998093E+01 0.  1.
</event>
<event>
 5   0  0.6098377E-05  0.1893272E+04  0.7818609E-02  0.8658212E-01
       -2   -1    0    0    0  501  0.00000000000E+00  0.00000000000E+00  0.11011667717E+04  0.11011667717E+04  0.25500000920E-02 0.  1.
        2   -1    0    0  501    0  0.00000000000E+00  0.00000000000E+00 -0.81379134620E+03  0.81379134620E+03  0.25500000920E-02 0. -1.
    10030    2    1    2    0    0  0.00000000000E+00  0.00000000000E+00  0.28737542552E+03  0.19149581179E+04  0.18932722884E+04 0.  0.
        5    1    3    3  502    0  0.67578301035E+03 -0.31656810260E+03  0.73276738047E+03  0.10458815251E+04  0.46999998093E+01 0.  1.
       -5    1    3    3    0  502 -0.67578301035E+03  0.31656810260E+03 -0.44539195495E+03  0.86907659282E+03  0.46999998093E+01 0. -1.
</event>
<event>
 5   0  0.3144958E-05  0.1902175E+04  0.7818609E-02  0.8653775E-01
       -1   -1    0    0    0  501  0.00000000000E+00  0.00000000000E+00  0.11420911846E+04  0.11420911846E+04  0.50400001928E-02 0. -1.
        1   -1    0    0  501    0  0.00000000000E+00  0.00000000000E+00 -0.79202728915E+03  0.79202728917E+03  0.50400001928E-02 0.  1.
    10030    2    1    2    0    0  0.00000000000E+00  0.00000000000E+00  0.35006389540E+03  0.19341184737E+04  0.19021749498E+04 0.  0.
        4    1    3    3  502    0  0.22325568242E+03 -0.65394000638E+03  0.83952408377E+03  0.10873283459E+04  0.12699999809E+01 0. -1.
       -4    1    3    3    0  502 -0.22325568242E+03  0.65394000638E+03 -0.48946018837E+03  0.84679012782E+03  0.12699999809E+01 0.  1.
</event>
<event>
 5   0  0.2279625E-05  0.1905093E+04  0.7818609E-02  0.8652325E-01
       -3   -1    0    0    0  501  0.00000000000E+00  0.00000000000E+00  0.78015354443E+03  0.78015355097E+03  0.10100000352E+00 0.  1.
        3   -1    0    0  501    0  0.00000000000E+00  0.00000000000E+00 -0.11630336856E+04  0.11630336900E+04  0.10100000352E+00 0. -1.
    10030    2    1    2    0    0  0.00000000000E+00  0.00000000000E+00 -0.38288014122E+03  0.19431872410E+04  0.19050930295E+04 0.  0.
        4    1    3    3  502    0 -0.32686755752E+03 -0.71406674480E+03 -0.74130167004E+03  0.10799368014E+04  0.12699999809E+01 0. -1.
       -4    1    3    3    0  502  0.32686755752E+03  0.71406674480E+03  0.35842152882E+03  0.86325043956E+03  0.12699999809E+01 0.  1.
</event>
<event>
 5   0  0.3144958E-05  0.1900197E+04  0.7818609E-02  0.8654758E-01
        1   -1    0    0  501    0  0.00000000000E+00  0.00000000000E+00  0.13927961806E+04  0.13927961806E+04  0.50400001928E-02 0.  1.
       -1   -1    0    0    0  501  0.00000000000E+00  0.00000000000E+00 -0.64811147597E+03  0.64811147599E+03  0.50400001928E-02 0. -1.
    10030    2    1    2    0    0  0.00000000000E+00  0.00000000000E+00  0.74468470460E+03  0.20409076566E+04  0.19001970302E+04 0.  0.
        4    1    3    3  502    0  0.13377486993E+03  0.41299504631E+03  0.12800421299E+04  0.13516545755E+04  0.12699999809E+01 0.  1.
       -4    1    3    3    0  502 -0.13377486993E+03 -0.41299504631E+03 -0.53535742531E+03  0.68925308112E+03  0.12699999809E+01 0. -1.
</event>
<event>
 5   0  0.3083469E-05  0.1909369E+04  0.7818609E-02  0.8650207E-01
       -1   -1    0    0    0  501  0.00000000000E+00  0.00000000000E+00  0.15574672467E+04  0.15574672467E+04  0.50400001928E-02 0.  1.
        1   -1    0    0  501    0  0.00000000000E+00  0.00000000000E+00 -0.58519503150E+03  0.58519503152E+03  0.50400001928E-02 0. -1.
    10030    2    1    2    0    0  0.00000000000E+00  0.00000000000E+00  0.97227221522E+03  0.21426622782E+04  0.19093685810E+04 0.  0.
        3    1    3    3  502    0  0.64134320940E+03 -0.65873047473E+03  0.19745965102E+03  0.94033891474E+03  0.10100000352E+00 0. -1.
       -3    1    3    3    0  502 -0.64134320940E+03  0.65873047473E+03  0.77481256420E+03  0.12023233635E+04  0.10100000352E+00 0.  1.
</event>
<event>
 5   0  0.3144958E-05  0.1904025E+04  0.7818609E-02  0.8652855E-01
       -1   -1    0    0    0  501  0.00000000000E+00  0.00000000000E+00  0.50632815496E+03  0.50632815498E+03  0.50400001928E-02 0.  1.
        1   -1    0    0  501    0  0.00000000000E+00  0.00000000000E+00 -0.17900009655E+04  0.17900009655E+04  0.50400001928E-02 0. -1.
    10030    2    1    2    0    0  0.00000000000E+00  0.00000000000E+00 -0.12836728105E+04  0.22963291205E+04  0.19040250905E+04 0.  0.
        4    1    3    3  502    0  0.51633822990E+03  0.51857384679E+03  0.92563579172E+02  0.73762702724E+03  0.12699999809E+01 0.  1.
       -4    1    3    3    0  502 -0.51633822990E+03 -0.51857384679E+03 -0.13762363897E+04  0.15587020933E+04  0.12699999809E+01 0. -1.
</event>
<event>
 5   0  0.6098377E-05  0.1895159E+04  0.7818609E-02  0.8657270E-01
       -2   -1    0    0    0  501  0.00000000000E+00  0.00000000000E+00  0.16498614279E+04  0.16498614279E+04  0.25500000920E-02 0.  1.
        2   -1    0    0  501    0  0.00000000000E+00  0.00000000000E+00 -0.54423169689E+03  0.54423169689E+03  0.25500000920E-02 0. -1.
    10030    2    1    2    0    0  0.00000000000E+00  0.00000000000E+00  0.11056297310E+04  0.21940931248E+04  0.18951589744E+04 0.  0.
        5    1    3    3  502    0  0.56424020176E+03 -0.10845069714E+03  0.14251640643E+04  0.15366337427E+04  0.46999998093E+01 0.  1.
       -5    1    3    3    0  502 -0.56424020176E+03  0.10845069714E+03 -0.31953433328E+03  0.65745938212E+03  0.46999998093E+01 0. -1.
</event>
<event>
 5   0  0.6098377E-05  0.1908939E+04  0.7818609E-02  0.8650420E-01
        2   -1    0    0  501    0  0.00000000000E+00  0.00000000000E+00  0.13003024186E+04  0.13003024186E+04  0.25500000920E-02 0. -1.
       -2   -1    0    0    0  501  0.00000000000E+00  0.00000000000E+00 -0.70061563770E+03  0.70061563770E+03  0.25500000920E-02 0.  1.
    10030    2    1    2    0    0  0.00000000000E+00  0.00000000000E+00  0.59968678091E+03  0.20009180563E+04  0.19089391905E+04 0.  0.
        5    1    3    3  502    0  0.12295978987E+03  0.82395790587E+03  0.78808122044E+03  0.11467867459E+04  0.46999998093E+01 0. -1.
       -5    1    3    3    0  502 -0.12295978987E+03 -0.82395790587E+03 -0.18839443953E+03  0.85413131041E+03  0.46999998093E+01 0.  1.
</event>
<event>
 5   0  0.6098377E-05  0.1903321E+04  0.7818609E-02  0.8653205E-01
       -2   -1    0    0    0  501  0.00000000000E+00  0.00000000000E+00  0.10929216855E+04  0.10929216855E+04  0.25500000920E-02 0. -1.
        2   -1    0    0  501    0  0.00000000000E+00  0.00000000000E+00 -0.82865732322E+03  0.82865732322E+03  0.25500000920E-02 0.  1.
    10030    2    1    2    0    0  0.00000000000E+00  0.00000000000E+00  0.26426436233E+03  0.19215790088E+04  0.19033208436E+04 0.  0.
        5    1    3    3  502    0 -0.65479733364E+03 -0.68292465259E+03  0.23553459028E+03  0.97500987814E+03  0.46999998093E+01 0.  1.
       -5    1    3    3    0  502  0.65479733364E+03  0.68292465259E+03  0.28729772048E+02  0.94656913063E+03  0.46999998093E+01 0. -1.
</event>
<event>
 5   0  0.3203527E-05  0.1900551E+04  0.7818609E-02  0.8654582E-01
       -1   -1    0    0    0  501  0.00000000000E+00  0.00000000000E+00  0.13408329630E+04  0.13408329630E+04  0.50400001928E-02 0. -1.
        1   -1    0    0  501    0  0.00000000000E+00  0.00000000000E+00 -0.67347935482E+03  0.67347935484E+03  0.50400001928E-02 0.  1.
    10030    2    1    2    0    0  0.00000000000E+00  0.00000000000E+00  0.66735360814E+03  0.20143123178E+04  0.19005507821E+04 0.  0.
        1    1    3    3  502    0 -0.14102854695E+03 -0.52628937059E+03 -0.49148427314E+03  0.73377540394E+03  0.50400001928E-02 0.  1.
       -1    1    3    3    0  502  0.14102854695E+03  0.52628937059E+03  0.11588378813E+04  0.12805369139E+04  0.50400001928E-02 0. -1.
</event>
<event>
 5   0  0.6361762E-05  0.1899660E+04  0.7818609E-02  0.8655026E-01
        2   -1    0    0  501    0  0.00000000000E+00  0.00000000000E+00  0.17668487729E+04  0.17668487729E+04  0.25500000920E-02 0. -1.
       -2   -1    0    0    0  501  0.00000000000E+00  0.00000000000E+00 -0.51061350155E+03  0.51061350155E+03  0.25500000920E-02 0.  1.
    10030    2    1    2    0    0  0.00000000000E+00  0.00000000000E+00  0.12562352713E+04  0.22774622744E+04  0.18996597997E+04 0.  0.
        1    1    3    3  502    0  0.24503849180E+03  0.50044412089E+03 -0.29407570463E+03  0.63005452199E+03  0.50400001928E-02 0.  1.
       -1    1    3    3    0  502 -0.24503849180E+03 -0.50044412089E+03  0.15503109760E+04  0.16474077525E+04  0.50400001928E-02 0. -1.
</event>
<event>
 5   0  0.6361762E-05  0.1905073E+04  0.7818609E-02  0.8652335E-01
       -2   -1    0    0    0  501  0.00000000000E+00  0.00000000000E+00  0.10706291242E+04  0.10706291242E+04  0.25500000920E-02 0.  1.
        2   -1    0    0  501    0  0.00000000000E+00  0.00000000000E+00 -0.84746965915E+03  0.84746965915E+03  0.25500000920E-02 0. -1.
    10030    2    1    2    0    0  0.00000000000E+00  0.00000000000E+00  0.22315946501E+03  0.19180987833E+04  0.19050729109E+04 0.  0.
        1    1    3    3  502    0 -0.16720395054E+03  0.68846028001E+03  0.75263638187E+03  0.10336325467E+04  0.50400001928E-02 0.  1.
       -1    1    3    3    0  502  0.16720395054E+03 -0.68846028001E+03 -0.52947691686E+03  0.88446623663E+03  0.50400001928E-02 0. -1.
</event>
<event>
 5   0  0.3083469E-05  0.1927102E+04  0.7818609E-02  0.8641482E-01
       -1   -1    0    0    0  501  0.00000000000E+00  0.00000000000E+00  0.78467511683E+03  0.78467511684E+03  0.50400001928E-02 0. -1.
        1   -1    0    0  501    0  0.00000000000E+00  0.00000000000E+00 -0.11832041111E+04  0.11832041111E+04  0.50400001928E-02 0.  1.
    10030    2    1    2    0    0  0.00000000000E+00  0.00000000000E+00 -0.39852899423E+03  0.19678792279E+04  0.19271023056E+04 0.  0.
        3    1    3    3  502    0 -0.32500896989E+02  0.57651279230E+03  0.58842470609E+03  0.82441916094E+03  0.10100000352E+00 0. -1.
       -3    1    3    3    0  502  0.32500896989E+02 -0.57651279230E+03 -0.98695370032E+03  0.11434600670E+04  0.10100000352E+00 0.  1.
</event>
<event>
 5   0  0.6395992E-05  0.1879356E+04  0.7818609E-02  0.8665201E-01
        2   -1    0    0  501    0  0.00000000000E+00  0.00000000000E+00  0.18748782921E+04  0.18748782921E+04  0.25500000920E-02 0.  1.
       -2   -1    0    0    0  501  0.00000000000E+00  0.00000000000E+00 -0.47096125023E+03  0.47096125024E+03  0.25500000920E-02 0. -1.
    10030    2    1    2    0    0  0.00000000000E+00  0.00000000000E+00  0.14039170419E+04  0.23458395424E+04  0.18793562988E+04 0.  0.
        4    1    3    3  502    0  0.67631153025E+02 -0.93438106144E+03  0.79327007985E+03  0.12275670952E+04  0.12699999809E+01 0. -1.
       -4    1    3    3    0  502 -0.67631153025E+02  0.93438106144E+03  0.61064696206E+03  0.11182724471E+04  0.12699999809E+01 0.  1.
</event>
<event>
 5   0  0.3086139E-05  0.1900300E+04  0.7818609E-02  0.8654707E-01
       -1   -1    0    0    0  501  0.00000000000E+00  0.00000000000E+00  0.41959681355E+03  0.41959681358E+03  0.50400001928E-02 0. -1.
        1   -1    0    0  501    0  0.00000000000E+00  0.00000000000E+00 -0.21515534221E+04  0.21515534221E+04  0.50400001928E-02 0.  1.
    10030    2    1    2    0    0  0.00000000000E+00  0.00000000000E+00 -0.17319566085E+04  0.25711502357E+04  0.19002999344E+04 0.  0.
        2    1    3    3  502    0 -0.43653104009E+03  0.21570485182E+02 -0.20074685073E+04  0.20544961530E+04  0.25500000920E-02 0.  1.
       -2    1    3    3    0  502  0.43653104009E+03 -0.21570485182E+02  0.27551189877E+03  0.51665408269E+03  0.25500000920E-02 0. -1.
</event>
<event>
 5   0  0.6423388E-05  0.1901794E+04  0.7818609E-02  0.8653964E-01
        2   -1    0    0  501    0  0.00000000000E+00  0.00000000000E+00  0.23580278022E+04  0.23580278022E+04  0.25500000920E-02 0.  1.
       -2   -1    0    0    0  501  0.00000000000E+00  0.00000000000E+00 -0.38345816312E+03  0.38345816313E+03  0.25500000920E-02 0. -1.
    10030    2    1    2    0    0  0.00000000000E+00  0.00000000000E+00  0.19745696391E+04  0.27414859653E+04  0.19017939001E+04 0.  0.
        2    1    3    3  502    0 -0.29864637544E+03  0.24094084976E+02 -0.31363564406E+03  0.43374819853E+03  0.25500000920E-02 0. -1.
       -2    1    3    3    0  502  0.29864637544E+03 -0.24094084976E+02  0.22882052831E+04  0.23077377668E+04  0.25500000920E-02 0.  1.
</event>
<event>
 5   0  0.3203527E-05  0.1927250E+04  0.7818609E-02  0.8641410E-01
       -1   -1    0    0    0  501  0.00000000000E+00  0.00000000000E+00  0.90287113414E+03  0.90287113415E+03  0.50400001928E-02 0. -1.
        1   -1    0    0  501    0  0.00000000000E+00  0.00000000000E+00 -0.10284674620E+04  0.10284674620E+04  0.50400001928E-02 0.  1.
    10030    2    1    2    0    0  0.00000000000E+00  0.00000000000E+00 -0.12559632782E+03  0.19313385961E+04  0.19272504599E+04 0.  0.
        1    1    3    3  502    0 -0.86354138526E+03 -0.42524812079E+03 -0.17603768487E+02  0.96273027426E+03  0.50400001928E-02 0.  1.
       -1    1    3    3    0  502  0.86354138526E+03  0.42524812079E+03 -0.10799255933E+03  0.96860832186E+03  0.50400001928E-02 0. -1.
</event>
<event>
 5   0  0.6423388E-05  0.1903953E+04  0.7818609E-02  0.8652891E-01
        2   -1    0    0  501    0  0.00000000000E+00  0.00000000000E+00  0.98631542008E+03  0.98631542008E+03  0.25500000920E-02 0. -1.
       -2   -1    0    0    0  501  0.00000000000E+00  0.00000000000E+00 -0.91883301167E+03  0.91883301168E+03  0.25500000920E-02 0.  1.
    10030    2    1    2    0    0  0.00000000000E+00  0.00000000000E+00  0.67482408409E+02  0.19051484318E+04  0.19039529069E+04 0.  0.
        2    1    3    3  502    0  0.26610158653E+03  0.79810744551E+03 -0.41204231638E+03  0.93678408368E+03  0.25500000920E-02 0.  1.
       -2    1    3    3    0  502 -0.26610158653E+03 -0.79810744551E+03  0.47952472479E+03  0.96836434808E+03  0.25500000920E-02 0. -1.
</event>
<event>
 5   0  0.6098377E-05  0.1894399E+04  0.7818609E-02  0.8657649E-01
       -2   -1    0    0    0  501  0.00000000000E+00  0.00000000000E+00  0.71490437501E+03  0.71490437501E+03  0.25500000920E-02 0.  1.
        2   -1    0    0  501    0  0.00000000000E+00  0.00000000000E+00 -0.12549745818E+04  0.12549745818E+04  0.25500000920E-02 0. -1.
    10030    2    1    2    0    0  0.00000000000E+00  0.00000000000E+00 -0.54007020677E+03  0.19698789568E+04  0.18943989221E+04 0.  0.
        5    1    3    3  502    0  0.20109661687E+03  0.35350765250E+03  0.61947648596E+03  0.74106728193E+03  0.46999998093E+01 0.  1.
       -5    1    3    3    0  502 -0.20109661687E+03 -0.35350765250E+03 -0.11595466927E+04  0.12288116749E+04  0.46999998093E+01 0. -1.
</event>
<event>
 5   0  0.6098377E-05  0.1854666E+04  0.7818609E-02  0.8677757E-01
       -2   -1    0    0    0  501  0.00000000000E+00  0.00000000000E+00  0.18583216616E+04  0.18583216616E+04  0.25500000920E-02 0. -1.
        2   -1    0    0  501    0  0.00000000000E+00  0.00000000000E+00 -0.46275445458E+03  0.46275445459E+03  0.25500000920E-02 0.  1.
    10030    2    1    2    0    0  0.00000000000E+00  0.00000000000E+00  0.13955672071E+04  0.23210761162E+04  0.18546661446E+04 0.  0.
        5    1    3    3  502    0 -0.90578257674E+03  0.15483969296E+03  0.85362734079E+03  0.12542404609E+04  0.46999998093E+01 0. -1.
       -5    1    3    3    0  502  0.90578257674E+03 -0.15483969296E+03  0.54193986627E+03  0.10668356553E+04  0.46999998093E+01 0.  1.
</event>
<event>
 5   0  0.6098377E-05  0.1906042E+04  0.7818609E-02  0.8651855E-01
       -2   -1    0    0    0  501  0.00000000000E+00  0.00000000000E+00  0.57526017809E+03  0.57526017810E+03  0.25500000920E-02 0. -1.
        2   -1    0    0  501    0  0.00000000000E+00  0.00000000000E+00 -0.15788488888E+04  0.15788488888E+04  0.25500000920E-02 0.  1.
    10030    2    1    2    0    0  0.00000000000E+00  0.00000000000E+00 -0.10035887107E+04  0.21541090669E+04  0.19060418599E+04 0.  0.
        5    1    3    3  502    0 -0.59457702498E+03 -0.73359561211E+03 -0.64715105966E+03  0.11447754997E+04  0.46999998093E+01 0. -1.
       -5    1    3    3    0  502  0.59457702498E+03  0.73359561211E+03 -0.35643765105E+03  0.10093335672E+04  0.46999998093E+01 0.  1.
</event>
<event>
 5   0  0.3083469E-05  0.1900915E+04  0.7818609E-02  0.8654401E-01
       -1   -1    0    0    0  501  0.00000000000E+00  0.00000000000E+00  0.15129757287E+04  0.15129757287E+04  0.50400001928E-02 0. -1.
        1   -1    0    0  501    0  0.00000000000E+00  0.00000000000E+00 -0.59708111992E+03  0.59708111994E+03  0.50400001928E-02 0.  1.
    10030    2    1    2    0    0  0.00000000000E+00  0.00000000000E+00  0.91589460876E+03  0.21100568486E+04  0.19009147719E+04 0.  0.
        3    1    3    3  502    0  0.11288033079E+03  0.89045642413E+03  0.11096183834E+03  0.90441536482E+03  0.10100000352E+00 0.  1.
       -3    1    3    3    0  502 -0.11288033079E+03 -0.89045642413E+03  0.80493277042E+03  0.12056414838E+04  0.10100000352E+00 0. -1.
</event>
<event>
 5   0  0.3083469E-05  0.1886658E+04  0.7818609E-02  0.8661526E-01
       -1   -1    0    0    0  501  0.00000000000E+00  0.00000000000E+00  0.12056036241E+04  0.12056036241E+04  0.50400001928E-02 0.  1.
        1   -1    0    0  501    0  0.00000000000E+00  0.00000000000E+00 -0.73811100476E+03  0.73811100478E+03  0.50400001928E-02 0. -1.
    10030    2    1    2    0    0  0.00000000000E+00  0.00000000000E+00  0.46749261937E+03  0.19437146289E+04  0.18866576821E+04 0.  0.
        3    1    3    3  502    0 -0.62270950664E+03  0.76515839388E+02 -0.49200621628E+03  0.79730291006E+03  0.10100000352E+00 0. -1.
       -3    1    3    3    0  502  0.62270950664E+03 -0.76515839388E+02  0.95949883564E+03  0.11464117189E+04  0.10100000352E+00 0.  1.
</event>
<event>
 5   0  0.3083469E-05  0.1897827E+04  0.7818609E-02  0.8655939E-01
       -1   -1    0    0    0  501  0.00000000000E+00  0.00000000000E+00  0.85568137861E+03  0.85568137862E+03  0.50400001928E-02 0.  1.
        1   -1    0    0  501    0  0.00000000000E+00  0.00000000000E+00 -0.10523034219E+04  0.10523034219E+04  0.50400001928E-02 0. -1.
    10030    2    1    2    0    0  0.00000000000E+00  0.00000000000E+00 -0.19662204329E+03  0.19079848005E+04  0.18978265914E+04 0.  0.
        3    1    3    3  502    0 -0.84745882640E+03 -0.40194661265E+03 -0.24291724569E+03  0.96889439070E+03  0.10100000352E+00 0. -1.
       -3    1    3    3    0  502  0.84745882640E+03  0.40194661265E+03  0.46295202399E+02  0.93909040983E+03  0.10100000352E+00 0.  1.
</event>
<event>
 5   0  0.6361762E-05  0.1902346E+04  0.7818609E-02  0.8653690E-01
        2   -1    0    0  501    0  0.00000000000E+00  0.00000000000E+00  0.19162225578E+04  0.19162225578E+04  0.25500000920E-02 0.  1.
       -2   -1    0    0    0  501  0.00000000000E+00  0.00000000000E+00 -0.47214225338E+03  0.47214225339E+03  0.25500000920E-02 0. -1.
    10030    2    1    2    0    0  0.00000000000E+00  0.00000000000E+00  0.14440803044E+04  0.23883648112E+04  0.19023455379E+04 0.  0.
        1    1    3    3  502    0 -0.86868597558E+03 -0.38725656361E+03  0.70683550847E+03  0.11849892009E+04  0.50400001928E-02 0. -1.
       -1    1    3    3    0  502  0.86868597558E+03  0.38725656361E+03  0.73724479592E+03  0.12033756103E+04  0.50400001928E-02 0.  1.
</event>
<event>
 5   0  0.3147063E-05  0.1917585E+04  0.7818609E-02  0.8646152E-01
       -1   -1    0    0    0  501  0.00000000000E+00  0.00000000000E+00  0.10019625505E+04  0.10019625505E+04  0.50400001928E-02 0.  1.
        1   -1    0    0  501    0  0.00000000000E+00  0.00000000000E+00 -0.91748274513E+03  0.91748274514E+03  0.50400001928E-02 0. -1.
    10030    2    1    2    0    0  0.00000000000E+00  0.00000000000E+00  0.84479805400E+02  0.19194452957E+04  0.19175853060E+04 0.  0.
        5    1    3    3  502    0  0.47271403927E+03 -0.72096343752E+03 -0.37770776230E+03  0.94123965325E+03  0.46999998093E+01 0.  1.
       -5    1    3    3    0  502 -0.47271403927E+03  0.72096343752E+03  0.46218756770E+03  0.97820564243E+03  0.46999998093E+01 0. -1.
</event>
<event>
 5   0  0.6361762E-05  0.1903911E+04  0.7818609E-02  0.8652912E-01
        2   -1    0    0  501    0  0.00000000000E+00  0.00000000000E+00  0.17900771893E+04  0.17900771893E+04  0.25500000920E-02 0.  1.
       -2   -1    0    0    0  501  0.00000000000E+00  0.00000000000E+00 -0.50624599486E+03  0.50624599487E+03  0.25500000920E-02 0. -1.
    10030    2    1    2    0    0  0.00000000000E+00  0.00000000000E+00  0.12838311944E+04  0.22963231842E+04  0.19039111403E+04 0.  0.
        1    1    3    3  502    0  0.86738849501E+03  0.36213227264E+03  0.46012972162E+03  0.10465285208E+04  0.50400001928E-02 0.  1.
       -1    1    3    3    0  502 -0.86738849501E+03 -0.36213227264E+03  0.82370147281E+03  0.12497946633E+04  0.50400001928E-02 0. -1.
</event>
<event>
 5   0  0.6452182E-05  0.1899539E+04  0.7818609E-02  0.8655086E-01
       -2   -1    0    0    0  501  0.00000000000E+00  0.00000000000E+00  0.47468344591E+03  0.47468344591E+03  0.25500000920E-02 0.  1.
        2   -1    0    0  501    0  0.00000000000E+00  0.00000000000E+00 -0.19003449237E+04  0.19003449237E+04  0.25500000920E-02 0. -1.
    10030    2    1    2    0    0  0.00000000000E+00  0.00000000000E+00 -0.14256614778E+04  0.23750283696E+04  0.18995391829E+04 0.  0.
        3    1    3    3  502    0  0.48005715625E+03 -0.36589369313E+03 -0.16296893218E+04  0.17378781211E+04  0.10100000352E+00 0. -1.
       -3    1    3    3    0  502 -0.48005715625E+03  0.36589369313E+03  0.20402784397E+03  0.63715024857E+03  0.10100000352E+00 0.  1.
</event>
<event>
 5   0  0.6423388E-05  0.1903454E+04  0.7818609E-02  0.8653139E-01
       -2   -1    0    0    0  501  0.00000000000E+00  0.00000000000E+00  0.68130424011E+03  0.68130424011E+03  0.25500000920E-02 0. -1.
        2   -1    0    0  501    0  0.00000000000E+00  0.00000000000E+00 -0.13294861962E+04  0.13294861962E+04  0.25500000920E-02 0.  1.
    10030    2    1    2    0    0  0.00000000000E+00  0.00000000000E+00 -0.64818195614E+03  0.20107904364E+04  0.19034543154E+04 0.  0.
        2    1    3    3  502    0  0.13293937032E+03  0.82507886035E+03 -0.80513327498E+03  0.11604600779E+04  0.25500000920E-02 0.  1.
       -2    1    3    3    0  502 -0.13293937032E+03 -0.82507886035E+03  0.15695131884E+03  0.85033035843E+03  0.25500000920E-02 0. -1.
</event>
<event>
 5   0  0.3086139E-05  0.1902399E+04  0.7818609E-02  0.8653663E-01
        1   -1    0    0  501    0  0.00000000000E+00  0.00000000000E+00  0.11332994111E+04  0.11332994111E+04  0.50400001928E-02 0.  1.
       -1   -1    0    0    0  501  0.00000000000E+00  0.00000000000E+00 -0.79835983253E+03  0.79835983255E+03  0.50400001928E-02 0. -1.
    10030    2    1    2    0    0  0.00000000000E+00  0.00000000000E+00  0.33493957859E+03  0.19316592437E+04  0.19023992516E+04 0.  0.
        2    1    3    3  502    0  0.27959892133E+03  0.62147959809E+03  0.84127887839E+03  0.10826645828E+04  0.25500000920E-02 0.  1.
       -2    1    3    3    0  502 -0.27959892133E+03 -0.62147959809E+03 -0.50633929980E+03  0.84899466087E+03  0.25500000920E-02 0. -1.
</event>
<event>
 5   0  0.6098377E-05  0.1956791E+04  0.7818609E-02  0.8627093E-01
       -2   -1    0    0    0  501  0.00000000000E+00  0.00000000000E+00  0.96488031180E+03  0.96488031181E+03  0.25500000920E-02 0. -1.
        2   -1    0    0  501    0  0.00000000000E+00  0.00000000000E+00 -0.99209999023E+03  0.99209999024E+03  0.25500000920E-02 0.  1.
    10030    2    1    2    0    0  0.00000000000E+00  0.00000000000E+00 -0.27219678432E+02  0.19569803020E+04  0.19567909934E+04 0.  0.
        5    1    3    3  502    0  0.28459054171E+03 -0.13155852842E+02  0.92246725335E+03  0.96547023589E+03  0.46999998093E+01 0. -1.
       -5    1    3    3    0  502 -0.28459054171E+03  0.13155852842E+02 -0.94968693178E+03  0.99151006615E+03  0.46999998093E+01 0.  1.
</event>
<event>
 5   0  0.2279625E-05  0.1848650E+04  0.7818609E-02  0.8680847E-01
        3   -1    0    0  501    0  0.00000000000E+00  0.00000000000E+00  0.70044821786E+03  0.70044822515E+03  0.10100000352E+00 0. -1.
       -3   -1    0    0    0  501  0.00000000000E+00  0.00000000000E+00 -0.12197567831E+04  0.12197567873E+04  0.10100000352E+00 0.  1.
    10030    2    1    2    0    0  0.00000000000E+00  0.00000000000E+00 -0.51930856526E+03  0.19202050125E+04  0.18486497515E+04 0.  0.
        5    1    3    3  502    0 -0.65682638980E+03 -0.62549117720E+03 -0.44457404109E+03  0.10101130071E+04  0.46999998093E+01 0. -1.
       -5    1    3    3    0  502  0.65682638980E+03  0.62549117720E+03 -0.74734524173E+02  0.91009200535E+03  0.46999998093E+01 0.  1.
</event>
<event>
 5   0  0.6098377E-05  0.1891612E+04  0.7818609E-02  0.8659043E-01
        2   -1    0    0  501    0  0.00000000000E+00  0.00000000000E+00  0.21292014793E+04  0.21292014793E+04  0.25500000920E-02 0. -1.
       -2   -1    0    0    0  501  0.00000000000E+00  0.00000000000E+00 -0.42013366502E+03  0.42013366503E+03  0.25500000920E-02 0.  1.
    10030    2    1    2    0    0  0.00000000000E+00  0.00000000000E+00  0.17090678142E+04  0.25493351443E+04  0.18916122447E+04 0.  0.
        5    1    3    3  502    0 -0.18874444264E+03  0.71388067779E+02  0.20998354380E+04  0.21095145597E+04  0.46999998093E+01 0. -1.
       -5    1    3    3    0  502  0.18874444264E+03 -0.71388067779E+02 -0.39076762377E+03  0.43982058460E+03  0.46999998093E+01 0.  1.
</event>
<event>
 5   0  0.6361762E-05  0.1890058E+04  0.7818609E-02  0.8659821E-01
       -2   -1    0    0    0  501  0.00000000000E+00  0.00000000000E+00  0.75659437025E+03  0.75659437025E+03  0.25500000920E-02 0. -1.
        2   -1    0    0  501    0  0.00000000000E+00  0.00000000000E+00 -0.11803943676E+04  0.11803943676E+04  0.25500000920E-02 0.  1.
    10030    2    1    2    0    0  0.00000000000E+00  0.00000000000E+00 -0.42379999731E+03  0.19369887378E+04  0.18900579178E+04 0.  0.
        1    1    3    3  502    0  0.60315447544E+03  0.72627307870E+03 -0.16827751840E+03  0.95895006612E+03  0.50400001928E-02 0. -1.
       -1    1    3    3    0  502 -0.60315447544E+03 -0.72627307870E+03 -0.25552247891E+03  0.97803867170E+03  0.50400001928E-02 0.  1.
</event>
<event>
 5   0  0.6395992E-05  0.1901303E+04  0.7818609E-02  0.8654208E-01
       -2   -1    0    0    0  501  0.00000000000E+00  0.00000000000E+00  0.96755746789E+03  0.96755746789E+03  0.25500000920E-02 0.  1.
        2   -1    0    0  501    0  0.00000000000E+00  0.00000000000E+00 -0.93404111424E+03  0.93404111424E+03  0.25500000920E-02 0. -1.
    10030    2    1    2    0    0  0.00000000000E+00  0.00000000000E+00  0.33516353650E+02  0.19015985821E+04  0.19013031903E+04 0.  0.
        4    1    3    3  502    0 -0.37659865154E+03  0.44294860957E+03  0.76900987718E+03  0.96405799575E+03  0.12699999809E+01 0.  1.
       -4    1    3    3    0  502  0.37659865154E+03 -0.44294860957E+03 -0.73549352353E+03  0.93754058638E+03  0.12699999809E+01 0. -1.
</event>
<event>
 5   0  0.3086139E-05  0.1872104E+04  0.7818609E-02  0.8668868E-01
        1   -1    0    0  501    0  0.00000000000E+00  0.00000000000E+00  0.92637043611E+03  0.92637043612E+03  0.50400001928E-02 0. -1.
       -1   -1    0    0    0  501  0.00000000000E+00  0.00000000000E+00 -0.94583490522E+03  0.94583490523E+03  0.50400001928E-02 0.  1.
    10030    2    1    2    0    0  0.00000000000E+00  0.00000000000E+00 -0.19464469109E+02  0.18722053414E+04  0.18721041570E+04 0.  0.
        2    1    3    3  502    0  0.33042678542E+03  0.27302569806E+03  0.82245972472E+03  0.92745074862E+03  0.25500000920E-02 0. -1.
       -2    1    3    3    0  502 -0.33042678542E+03 -0.27302569806E+03 -0.84192419383E+03  0.94475459273E+03  0.25500000920E-02 0.  1.
</event>
<event>
 5   0  0.3086139E-05  0.1919163E+04  0.7818609E-02  0.8645376E-01
        1   -1    0    0  501    0  0.00000000000E+00  0.00000000000E+00  0.13252935112E+04  0.13252935113E+04  0.50400001928E-02 0.  1.
       -1   -1    0    0    0  501  0.00000000000E+00  0.00000000000E+00 -0.69478728409E+03  0.69478728411E+03  0.50400001928E-02 0. -1.
    10030    2    1    2    0    0  0.00000000000E+00  0.00000000000E+00  0.63050622716E+03  0.20200807954E+04  0.19191634421E+04 0.  0.
        2    1    3    3  502    0  0.77875946750E+03 -0.50978122045E+03  0.56087733223E+03  0.10867044597E+04  0.25500000920E-02 0.  1.
       -2    1    3    3    0  502 -0.77875946750E+03  0.50978122045E+03  0.69628894930E+02  0.93337633566E+03  0.25500000920E-02 0. -1.
</event>
<event>
 5   0  0.6098377E-05  0.1900740E+04  0.7818609E-02  0.8654488E-01
        2   -1    0    0  501    0  0.00000000000E+00  0.00000000000E+00  0.20543435116E+04  0.20543435116E+04  0.25500000920E-02 0.  1.
       -2   -1    0    0    0  501  0.00000000000E+00  0.00000000000E+00 -0.43965514250E+03  0.43965514251E+03  0.25500000920E-02 0. -1.
    10030    2    1    2    0    0  0.00000000000E+00  0.00000000000E+00  0.16146883691E+04  0.24939986541E+04  0.19007395291E+04 0.  0.
        5    1    3    3  502    0  0.58960244234E+03  0.24239621818E+03 -0.11748519673E+03  0.64823747813E+03  0.46999998093E+01 0. -1.
       -5    1    3    3    0  502 -0.58960244234E+03 -0.24239621818E+03  0.17321735659E+04  0.18457611760E+04  0.46999998093E+01 0.  1.
</event>
<event>
 5   0  0.6452182E-05  0.1900752E+04  0.7818609E-02  0.8654482E-01
       -2   -1    0    0    0  501  0.00000000000E+00  0.00000000000E+00  0.86897551104E+03  0.86897551104E+03  0.25500000920E-02 0. -1.
        2   -1    0    0  501    0  0.00000000000E+00  0.00000000000E+00 -0.10394012568E+04  0.10394012568E+04  0.25500000920E-02 0.  1.
    10030    2    1    2    0    0  0.00000000000E+00  0.00000000000E+00 -0.17042574574E+03  0.19083767678E+04  0.19007516811E+04 0.  0.
        3    1    3    3  502    0 -0.65848293626E+03  0.67288557811E+03  0.45074606703E+02  0.94255318627E+03  0.10100000352E+00 0. -1.
       -3    1    3    3    0  502  0.65848293626E+03 -0.67288557811E+03 -0.21550035244E+03  0.96582358155E+03  0.10100000352E+00 0.  1.
</event>
<event>
 5   0  0.3086139E-05  0.1895257E+04  0.7818609E-02  0.8657221E-01
       -1   -1    0    0    0  501  0.00000000000E+00  0.00000000000E+00  0.29770198703E+03  0.29770198708E+03  0.50400001928E-02 0.  1.
        1   -1    0    0  501    0  0.00000000000E+00  0.00000000000E+00 -0.30164387434E+04  0.30164387434E+04  0.50400001928E-02 0. -1.
    10030    2    1    2    0    0  0.00000000000E+00  0.00000000000E+00 -0.27187367564E+04  0.33141407305E+04  0.18952570356E+04 0.  0.
        2    1    3    3  502    0 -0.47023219032E+03  0.47981070069E+03 -0.19069565268E+03  0.69835625097E+03  0.25500000920E-02 0.  1.
       -2    1    3    3    0  502  0.47023219032E+03 -0.47981070069E+03 -0.25280411037E+04  0.26157844795E+04  0.25500000920E-02 0. -1.
</event>
<event>
 5   0  0.6395992E-05  0.1902120E+04  0.7818609E-02  0.8653802E-01
       -2   -1    0    0    0  501  0.00000000000E+00  0.00000000000E+00  0.43388839881E+03  0.43388839881E+03  0.25500000920E-02 0. -1.
        2   -1    0    0  501    0  0.00000000000E+00  0.00000000000E+00 -0.20846730256E+04  0.20846730256E+04  0.25500000920E-02 0.  1.
    10030    2    1    2    0    0  0.00000000000E+00  0.00000000000E+00 -0.16507846268E+04  0.25185614244E+04  0.19021203338E+04 0.  0.
        4    1    3    3  502    0  0.31819362695E+03 -0.76359733206E+03 -0.20408112876E+03  0.85204388958E+03  0.12699999809E+01 0. -1.
       -4    1    3    3    0  502 -0.31819362695E+03  0.76359733206E+03 -0.14467034980E+04  0.16665175348E+04  0.12699999809E+01 0.  1.
</event>
<event>
 5   0  0.3144958E-05  0.1891808E+04  0.7818609E-02  0.8658945E-01
        1   -1    0    0  501    0  0.00000000000E+00  0.00000000000E+00  0.11450369039E+04  0.11450369039E+04  0.50400001928E-02 0.  1.
       -1   -1    0    0    0  501  0.00000000000E+00  0.00000000000E+00 -0.78140220192E+03  0.78140220194E+03  0.50400001928E-02 0. -1.
    10030    2    1    2    0    0  0.00000000000E+00  0.00000000000E+00  0.36363470199E+03  0.19264391059E+04  0.18918079797E+04 0.  0.
        4    1    3    3  502    0  0.50333999907E+03 -0.75057766904E+03  0.46624158827E+03  0.10169074803E+04  0.12699999809E+01 0.  1.
       -4    1    3    3    0  502 -0.50333999907E+03  0.75057766904E+03 -0.10260688628E+03  0.90953162558E+03  0.12699999809E+01 0. -1.
</event>
<event>
 5   0  0.3083469E-05  0.1888143E+04  0.7818609E-02  0.8660781E-01
       -1   -1    0    0    0  501  0.00000000000E+00  0.00000000000E+00  0.71268664634E+03  0.71268664636E+03  0.50400001928E-02 0.  1.
        1   -1    0    0  501    0  0.00000000000E+00  0.00000000000E+00 -0.12505797224E+04  0.12505797224E+04  0.50400001928E-02 0. -1.
    10030    2    1    2    0    0  0.00000000000E+00  0.00000000000E+00 -0.53789307609E+03  0.19632663688E+04  0.18881434992E+04 0.  0.
        3    1    3    3  502    0 -0.52517183139E+03 -0.48402237921E+03 -0.91091550484E+03  0.11575189775E+04  0.10100000352E+00 0. -1.
       -3    1    3    3    0  502  0.52517183139E+03  0.48402237921E+03  0.37302242875E+03  0.80574739132E+03  0.10100000352E+00 0.  1.
</event>
<event>
 5   0  0.6361762E-05  0.1901114E+04  0.7818609E-02  0.8654302E-01
       -2   -1    0    0    0  501  0.00000000000E+00  0.00000000000E+00  0.58712357236E+03  0.58712357237E+03  0.25500000920E-02 0. -1.
        2   -1    0    0  501    0  0.00000000000E+00  0.00000000000E+00 -0.15389586791E+04  0.15389586791E+04  0.25500000920E-02 0.  1.
    10030    2    1    2    0    0  0.00000000000E+00  0.00000000000E+00 -0.95183510673E+03  0.21260822515E+04  0.19011143231E+04 0.  0.
        1    1    3    3  502    0  0.19501138558E+03 -0.69267066559E+03  0.21865461871E+03  0.75208505755E+03  0.50400001928E-02 0. -1.
       -1    1    3    3    0  502 -0.19501138558E+03  0.69267066559E+03 -0.11704897254E+04  0.13739971939E+04  0.50400001928E-02 0.  1.
</event>
<event>
 5   0  0.3086139E-05  0.1906434E+04  0.7818609E-02  0.8651660E-01
        1   -1    0    0  501    0  0.00000000000E+00  0.00000000000E+00  0.10030067772E+04  0.10030067772E+04  0.50400001928E-02 0. -1.
       -1   -1    0    0    0  501  0.00000000000E+00  0.00000000000E+00 -0.90589866717E+03  0.90589866718E+03  0.50400001928E-02 0.  1.
    10030    2    1    2    0    0  0.00000000000E+00  0.00000000000E+00  0.97108110005E+02  0.19089054444E+04  0.19064338464E+04 0.  0.
        2    1    3    3  502    0 -0.39759590808E+03 -0.38192244606E+03 -0.73006274525E+03  0.91484363305E+03  0.25500000920E-02 0.  1.
       -2    1    3    3    0  502  0.39759590808E+03  0.38192244606E+03  0.82717085526E+03  0.99406181132E+03  0.25500000920E-02 0. -1.
</event>
<event>
 5   0  0.6361762E-05  0.1902067E+04  0.7818609E-02  0.8653828E-01
       -2   -1    0    0    0  501  0.00000000000E+00  0.00000000000E+00  0.88238606339E+03  0.88238606339E+03  0.25500000920E-02 0. -1.
        2   -1    0    0  501    0  0.00000000000E+00  0.00000000000E+00 -0.10250217340E+04  0.10250217340E+04  0.25500000920E-02 0.  1.
    10030    2    1    2    0    0  0.00000000000E+00  0.00000000000E+00 -0.14263567063E+03  0.19074077974E+04  0.19020671836E+04 0.  0.
        1    1    3    3  502    0 -0.50734184826E+03  0.76295338216E+03 -0.32692816888E+03  0.97281840133E+03  0.50400001928E-02 0.  1.
       -1    1    3    3    0  502  0.50734184826E+03 -0.76295338216E+03  0.18429249826E+03  0.93458939608E+03  0.50400001928E-02 0. -1.
</event>
<event>
 5   0  0.6452182E-05  0.1889028E+04  0.7818609E-02  0.8660337E-01
       -2   -1    0    0    0  501  0.00000000000E+00  0.00000000000E+00  0.60166576516E+03  0.60166576517E+03  0.25500000920E-02 0. -1.
        2   -1    0    0  501    0  0.00000000000E+00  0.00000000000E+00 -0.14827273071E+04  0.14827273071E+04  0.25500000920E-02 0.  1.
    10030    2    1    2    0    0  0.00000000000E+00  0.00000000000E+00 -0.88106154191E+03  0.20843930722E+04  0.18890275379E+04 0.  0.
        3    1    3    3  502    0  0.42192172837E+02 -0.62092017013E+03  0.34342978780E+03  0.71082069925E+03  0.10100000352E+00 0. -1.
       -3    1    3    3    0  502 -0.42192172837E+02  0.62092017013E+03 -0.12244913297E+04  0.13735723730E+04  0.10100000352E+00 0.  1.
</event>
<event>
 5   0  0.3203527E-05  0.1899547E+04  0.7818609E-02  0.8655082E-01
       -1   -1    0    0    0  501  0.00000000000E+00  0.00000000000E+00  0.48654133939E+03  0.48654133941E+03  0.50400001928E-02 0.  1.
        1   -1    0    0  501    0  0.00000000000E+00  0.00000000000E+00 -0.18540446360E+04  0.18540446360E+04  0.50400001928E-02 0. -1.
    10030    2    1    2    0    0  0.00000000000E+00  0.00000000000E+00 -0.13675032966E+04  0.23405859754E+04  0.18995466412E+04 0.  0.
        1    1    3    3  502    0  0.31379796901E+03  0.54956235733E+03  0.18890892098E+03  0.66043510688E+03  0.50400001928E-02 0.  1.
       -1    1    3    3    0  502 -0.31379796901E+03 -0.54956235733E+03 -0.15564122176E+04  0.16801508685E+04  0.50400001928E-02 0. -1.
</event>
<event>
 5   0  0.3203527E-05  0.1899744E+04  0.7818609E-02  0.8654984E-01
        1   -1    0    0  501    0  0.00000000000E+00  0.00000000000E+00  0.82150751025E+03  0.82150751026E+03  0.50400001928E-02 0.  1.
       -1   -1    0    0    0  501  0.00000000000E+00  0.00000000000E+00 -0.10982941631E+04  0.10982941631E+04  0.50400001928E-02 0. -1.
    10030    2    1    2    0    0  0.00000000000E+00  0.00000000000E+00 -0.27678665286E+03  0.19198016734E+04  0.18997440917E+04 0.  0.
        1    1    3    3  502    0 -0.91413356397E+03  0.19264641529E+03  0.35187747374E+02  0.93487485349E+03  0.50400001928E-02 0. -1.
       -1    1    3    3    0  502  0.91413356397E+03 -0.19264641529E+03 -0.31197440023E+03  0.98492681989E+03  0.50400001928E-02 0.  1.
</event>
<event>
 5   0  0.6361762E-05  0.1901557E+04  0.7818609E-02  0.8654082E-01
        2   -1    0    0  501    0  0.00000000000E+00  0.00000000000E+00  0.14095101449E+04  0.14095101449E+04  0.25500000920E-02 0.  1.
       -2   -1    0    0    0  501  0.00000000000E+00  0.00000000000E+00 -0.64134347608E+03  0.64134347608E+03  0.25500000920E-02 0. -1.
    10030    2    1    2    0    0  0.00000000000E+00  0.00000000000E+00  0.76816666887E+03  0.20508536210E+04  0.19015573995E+04 0.  0.
        1    1    3    3  502    0 -0.83325793310E+03  0.28757415496E+03 -0.21003017723E+00  0.88148608713E+03  0.50400001928E-02 0. -1.
       -1    1    3    3    0  502  0.83325793310E+03 -0.28757415496E+03  0.76837669905E+03  0.11693675339E+04  0.50400001928E-02 0.  1.
</event>
<event>
 5   0  0.3086139E-05  0.1893740E+04  0.7818609E-02  0.8657979E-01
       -1   -1    0    0    0  501  0.00000000000E+00  0.00000000000E+00  0.39519842347E+03  0.39519842351E+03  0.50400001928E-02 0. -1.
        1   -1    0    0  501    0  0.00000000000E+00  0.00000000000E+00 -0.22686393802E+04  0.22686393802E+04  0.50400001928E-02 0.  1.
    10030    2    1    2    0    0  0.00000000000E+00  0.00000000000E+00 -0.18734409567E+04  0.26638378037E+04  0.18937399046E+04 0.  0.
        2    1    3    3  502    0 -0.19111516642E+03  0.83383014482E+03 -0.15076991876E+04  0.17334804751E+04  0.25500000920E-02 0.  1.
       -2    1    3    3    0  502  0.19111516642E+03 -0.83383014482E+03 -0.36574176914E+03  0.93035732863E+03  0.25500000920E-02 0. -1.
</event>
<event>
 5   0  0.3203527E-05  0.1899512E+04  0.7818609E-02  0.8655099E-01
        1   -1    0    0  501    0  0.00000000000E+00  0.00000000000E+00  0.10386686506E+04  0.10386686507E+04  0.50400001928E-02 0. -1.
       -1   -1    0    0    0  501  0.00000000000E+00  0.00000000000E+00 -0.86845464431E+03  0.86845464432E+03  0.50400001928E-02 0.  1.
    10030    2    1    2    0    0  0.00000000000E+00  0.00000000000E+00  0.17021400633E+03  0.19071232950E+04  0.18995121622E+04 0.  0.
        1    1    3    3  502    0 -0.55470582558E+03 -0.59730704928E+03 -0.40424965114E+03  0.90988573158E+03  0.50400001928E-02 0.  1.
       -1    1    3    3    0  502  0.55470582558E+03  0.59730704928E+03  0.57446365748E+03  0.99723756339E+03  0.50400001928E-02 0. -1.
</event>
<event>
 5   0  0.6452182E-05  0.1908670E+04  0.7818609E-02  0.8650553E-01
        2   -1    0    0  501    0  0.00000000000E+00  0.00000000000E+00  0.12073835093E+04  0.12073835093E+04  0.25500000920E-02 0.  1.
       -2   -1    0    0    0  501  0.00000000000E+00  0.00000000000E+00 -0.75432122931E+03  0.75432122931E+03  0.25500000920E-02 0. -1.
    10030    2    1    2    0    0  0.00000000000E+00  0.00000000000E+00  0.45306227997E+03  0.19617047386E+04  0.19086697074E+04 0.  0.
        3    1    3    3  502    0  0.32145035495E+03 -0.34469857437E+02  0.11493874550E+04  0.11939891263E+04  0.10100000352E+00 0.  1.
       -3    1    3    3    0  502 -0.32145035495E+03  0.34469857437E+02 -0.69632517504E+03  0.76771561230E+03  0.10100000352E+00 0. -1.
</event>
<event>
 5   0  0.3144958E-05  0.1953068E+04  0.7818609E-02  0.8628883E-01
       -1   -1    0    0    0  501  0.00000000000E+00  0.00000000000E+00  0.11324410621E+04  0.11324410622E+04  0.50400001928E-02 0.  1.
        1   -1    0    0  501    0  0.00000000000E+00  0.00000000000E+00 -0.84209089426E+03  0.84209089428E+03  0.50400001928E-02 0. -1.
    10030    2    1    2    0    0  0.00000000000E+00  0.00000000000E+00  0.29035016788E+03  0.19745319564E+04  0.19530676453E+04 0.  0.
        4    1    3    3  502    0  0.78721540777E+02  0.24667855890E+03  0.10971011653E+04  0.11272444155E+04  0.12699999809E+01 0.  1.
       -4    1    3    3    0  502 -0.78721540777E+02 -0.24667855890E+03 -0.80675099740E+03  0.84728754098E+03  0.12699999809E+01 0. -1.
</event>
<event>
 5   0  0.3203527E-05  0.1906312E+04  0.7818609E-02  0.8651721E-01
       -1   -1    0    0    0  501  0.00000000000E+00  0.00000000000E+00  0.48389589874E+03  0.48389589877E+03  0.50400001928E-02 0.  1.
        1   -1    0    0  501    0  0.00000000000E+00  0.00000000000E+00 -0.18774829050E+04  0.18774829050E+04  0.50400001928E-02 0. -1.
    10030    2    1    2    0    0  0.00000000000E+00  0.00000000000E+00 -0.13935870063E+04  0.23613788038E+04  0.19063119133E+04 0.  0.
        1    1    3    3  502    0  0.56257528485E+03 -0.64137795563E+03 -0.12232836579E+04  0.14914018710E+04  0.50400001928E-02 0. -1.
       -1    1    3    3    0  502 -0.56257528485E+03  0.64137795563E+03 -0.17030334835E+03  0.86997693278E+03  0.50400001928E-02 0.  1.
</event>
<event>
 5   0  0.3203527E-05  0.1901549E+04  0.7818609E-02  0.8654086E-01
        1   -1    0    0  501    0  0.00000000000E+00  0.00000000000E+00  0.50112791294E+03  0.50112791297E+03  0.50400001928E-02 0.  1.
       -1   -1    0    0    0  501  0.00000000000E+00  0.00000000000E+00 -0.18038756199E+04  0.18038756199E+04  0.50400001928E-02 0. -1.
    10030    2    1    2    0    0  0.00000000000E+00  0.00000000000E+00 -0.13027477069E+04  0.23050035329E+04  0.19015492890E+04 0.  0.
        1    1    3    3  502    0 -0.68338565243E+03 -0.26777794493E+03 -0.13839621577E+04  0.15665478708E+04  0.50400001928E-02 0. -1.
       -1    1    3    3    0  502  0.68338565243E+03  0.26777794493E+03  0.81214450731E+02  0.73845566202E+03  0.50400001928E-02 0.  1.
</event>
<event>
 5   0  0.6423388E-05  0.1801284E+04  0.7818609E-02  0.8705617E-01
       -2   -1    0    0    0  501  0.00000000000E+00  0.00000000000E+00  0.10637313837E+04  0.10637313837E+04  0.25500000920E-02 0.  1.
        2   -1    0    0  501    0  0.00000000000E+00  0.00000000000E+00 -0.76255723363E+03  0.76255723364E+03  0.25500000920E-02 0. -1.
    10030    2    1    2    0    0  0.00000000000E+00  0.00000000000E+00  0.30117415004E+03  0.18262886173E+04  0.18012840545E+04 0.  0.
        2    1    3    3  502    0  0.43915665152E+03 -0.69447654383E+03 -0.22331371720E+03  0.85148414595E+03  0.25500000920E-02 0. -1.
       -2    1    3    3    0  502 -0.43915665152E+03  0.69447654383E+03  0.52448786724E+03  0.97480447137E+03  0.25500000920E-02 0.  1.
</event>
<event>
 5   0  0.6395992E-05  0.1954379E+04  0.7818609E-02  0.8628252E-01
       -2   -1    0    0    0  501  0.00000000000E+00  0.00000000000E+00  0.61567140199E+03  0.61567140200E+03  0.25500000920E-02 0. -1.
        2   -1    0    0  501    0  0.00000000000E+00  0.00000000000E+00 -0.15509880076E+04  0.15509880076E+04  0.25500000920E-02 0.  1.
    10030    2    1    2    0    0  0.00000000000E+00  0.00000000000E+00 -0.93531660563E+03  0.21666594096E+04  0.19543786339E+04 0.  0.
        4    1    3    3  502    0  0.63169195532E+03 -0.19306742929E+03  0.33069109286E+03  0.73869342116E+03  0.12699999809E+01 0. -1.
       -4    1    3    3    0  502 -0.63169195532E+03  0.19306742929E+03 -0.12660076985E+04  0.14279659885E+04  0.12699999809E+01 0.  1.
</event>
<event>
 5   0  0.6452182E-05  0.1899987E+04  0.7818609E-02  0.8654863E-01
        2   -1    0    0  501    0  0.00000000000E+00  0.00000000000E+00  0.26916070062E+04  0.26916070062E+04  0.25500000920E-02 0. -1.
       -2   -1    0    0    0  501  0.00000000000E+00  0.00000000000E+00 -0.33529689632E+03  0.33529689632E+03  0.25500000920E-02 0.  1.
    10030    2    1    2    0    0  0.00000000000E+00  0.00000000000E+00  0.23563101099E+04  0.30269039025E+04  0.18999868161E+04 0.  0.
        3    1    3    3  502    0  0.19181412367E+03  0.75066166730E+03  0.30237183796E+03  0.83169365477E+03  0.10100000352E+00 0.  1.
       -3    1    3    3    0  502 -0.19181412367E+03 -0.75066166730E+03  0.20539382720E+04  0.21952102478E+04  0.10100000352E+00 0. -1.
</event>
<event>
 5   0  0.3083469E-05  0.1909697E+04  0.7818609E-02  0.8650044E-01
       -1   -1    0    0    0  501  0.00000000000E+00  0.00000000000E+00  0.86189077070E+03  0.86189077071E+03  0.50400001928E-02 0.  1.
        1   -1    0    0  501    0  0.00000000000E+00  0.00000000000E+00 -0.10578324752E+04  0.10578324752E+04  0.50400001928E-02 0. -1.
    10030    2    1    2    0    0  0.00000000000E+00  0.00000000000E+00 -0.19594170450E+03  0.19197232459E+04  0.19096974078E+04 0.  0.
        3    1    3    3  502    0 -0.64622354356E+03 -0.70087821687E+03 -0.43828141450E+02  0.95433540190E+03  0.10100000352E+00 0. -1.
       -3    1    3    3    0  502  0.64622354356E+03  0.70087821687E+03 -0.15211356305E+03  0.96538784403E+03  0.10100000352E+00 0.  1.
</event>
<event>
 5   0  0.6098377E-05  0.1892291E+04  0.7818609E-02  0.8658703E-01
        2   -1    0    0  501    0  0.00000000000E+00  0.00000000000E+00  0.11556960545E+04  0.11556960545E+04  0.25500000920E-02 0. -1.
       -2   -1    0    0    0  501  0.00000000000E+00  0.00000000000E+00 -0.77459081517E+03  0.77459081518E+03  0.25500000920E-02 0.  1.
    10030    2    1    2    0    0  0.00000000000E+00  0.00000000000E+00  0.38110523937E+03  0.19302868697E+04  0.18922912556E+04 0.  0.
        5    1    3    3  502    0 -0.32131612176E+03  0.36278685756E+03  0.10194641382E+04  0.11287991731E+04  0.46999998093E+01 0. -1.
       -5    1    3    3    0  502  0.32131612176E+03 -0.36278685756E+03 -0.63835889883E+03  0.80148769662E+03  0.46999998093E+01 0.  1.
</event>
<event>
 5   0  0.6423388E-05  0.1895047E+04  0.7818609E-02  0.8657326E-01
        2   -1    0    0  501    0  0.00000000000E+00  0.00000000000E+00  0.14508502367E+04  0.14508502367E+04  0.25500000920E-02 0.  1.
       -2   -1    0    0    0  501  0.00000000000E+00  0.00000000000E+00 -0.61880985680E+03  0.61880985681E+03  0.25500000920E-02 0. -1.
    10030    2    1    2    0    0  0.00000000000E+00  0.00000000000E+00  0.83204037986E+03  0.20696600935E+04  0.18950466244E+04 0.  0.
        2    1    3    3  502    0 -0.20574749269E+03  0.81182245395E+03  0.90004086032E+03  0.12294150144E+04  0.25500000920E-02 0.  1.
       -2    1    3    3    0  502  0.20574749269E+03 -0.81182245395E+03 -0.68000480464E+02  0.84024507903E+03  0.25500000920E-02 0. -1.
</event>
<event>
 5   0  0.3083469E-05  0.1898193E+04  0.7818609E-02  0.8655756E-01
       -1   -1    0    0    0  501  0.00000000000E+00  0.00000000000E+00  0.71327280482E+03  0.71327280484E+03  0.50400001928E-02 0.  1.
        1   -1    0    0  501    0  0.00000000000E+00  0.00000000000E+00 -0.12628886758E+04  0.12628886758E+04  0.50400001928E-02 0. -1.
    10030    2    1    2    0    0  0.00000000000E+00  0.00000000000E+00 -0.54961587098E+03  0.19761614807E+04  0.18981929807E+04 0.  0.
        3    1    3    3  502    0 -0.75716229643E+03  0.19131821746E+03 -0.83630051958E+03  0.11442447171E+04  0.10100000352E+00 0. -1.
       -3    1    3    3    0  502  0.75716229643E+03 -0.19131821746E+03  0.28668464860E+03  0.83191676351E+03  0.10100000352E+00 0.  1.
</event>
<event>
 5   0  0.6098377E-05  0.1899507E+04  0.7818609E-02  0.8655102E-01
       -2   -1    0    0    0  501  0.00000000000E+00  0.00000000000E+00  0.10957298966E+04  0.10957298966E+04  0.25500000920E-02 0. -1.
        2   -1    0    0  501    0  0.00000000000E+00  0.00000000000E+00 -0.82322437399E+03  0.82322437399E+03  0.25500000920E-02 0.  1.
    10030    2    1    2    0    0  0.00000000000E+00  0.00000000000E+00  0.27250552262E+03  0.19189542706E+04  0.18995068394E+04 0.  0.
        5    1    3    3  502    0 -0.63240543415E+02 -0.72401651047E+03 -0.48140703577E+03  0.87176493268E+03  0.46999998093E+01 0.  1.
       -5    1    3    3    0  502  0.63240543415E+02  0.72401651047E+03  0.75391255839E+03  0.10471893379E+04  0.46999998093E+01 0. -1.
</event>
<event>
 5   0  0.2279625E-05  0.1896844E+04  0.7818609E-02  0.8656429E-01
        3   -1    0    0  501    0  0.00000000000E+00  0.00000000000E+00  0.81011228360E+03  0.81011228989E+03  0.10100000352E+00 0.  1.
       -3   -1    0    0    0  501  0.00000000000E+00  0.00000000000E+00 -0.11103456590E+04  0.11103456636E+04  0.10100000352E+00 0. -1.
    10030    2    1    2    0    0  0.00000000000E+00  0.00000000000E+00 -0.30023337541E+03  0.19204579535E+04  0.18968443983E+04 0.  0.
        4    1    3    3  502    0  0.15555007630E+03  0.11901333608E+03 -0.10896468961E+04  0.11071097378E+04  0.12699999809E+01 0. -1.
       -4    1    3    3    0  502 -0.15555007630E+03 -0.11901333608E+03  0.78941352071E+03  0.81334821570E+03  0.12699999809E+01 0.  1.
</event>
<event>
 5   0  0.6098377E-05  0.1900599E+04  0.7818609E-02  0.8654558E-01
       -2   -1    0    0    0  501  0.00000000000E+00  0.00000000000E+00  0.30876961625E+03  0.30876961626E+03  0.25500000920E-02 0.  1.
        2   -1    0    0  501    0  0.00000000000E+00  0.00000000000E+00 -0.29247336298E+04  0.29247336298E+04  0.25500000920E-02 0. -1.
    10030    2    1    2    0    0  0.00000000000E+00  0.00000000000E+00 -0.26159640136E+04  0.32335032461E+04  0.19005987273E+04 0.  0.
        5    1    3    3  502    0 -0.36152739568E+03  0.27130143610E+03 -0.27301167674E+04  0.27672849836E+04  0.46999998093E+01 0. -1.
       -5    1    3    3    0  502  0.36152739568E+03 -0.27130143610E+03  0.11415275381E+03  0.46621826246E+03  0.46999998093E+01 0.  1.
</event>
<event>
 5   0  0.6361762E-05  0.1901756E+04  0.7818609E-02  0.8653983E-01
        2   -1    0    0  501    0  0.00000000000E+00  0.00000000000E+00  0.41294280202E+03  0.41294280203E+03  0.25500000920E-02 0.  1.
       -2   -1    0    0    0  501  0.00000000000E+00  0.00000000000E+00 -0.21895753997E+04  0.21895753997E+04  0.25500000920E-02 0. -1.
    10030    2    1    2    0    0  0.00000000000E+00  0.00000000000E+00 -0.17766325976E+04  0.26025182017E+04  0.19017564521E+04 0.  0.
        1    1    3    3  502    0  0.13273677058E+02  0.35022412697E+03  0.32132852117E+03  0.47548411977E+03  0.50400001928E-02 0.  1.
       -1    1    3    3    0  502 -0.13273677058E+02 -0.35022412697E+03 -0.20979611188E+04  0.21270340819E+04  0.50400001928E-02 0. -1.
</event>
<event>
 5   0  0.6395992E-05  0.1890991E+04  0.7818609E-02  0.8659354E-01
       -2   -1    0    0    0  501  0.00000000000E+00  0.00000000000E+00  0.70853844363E+03  0.70853844364E+03  0.25500000920E-02 0.  1.
        2   -1    0    0  501    0  0.00000000000E+00  0.00000000000E+00 -0.12616981744E+04  0.12616981744E+04  0.25500000920E-02 0. -1.
    10030    2    1    2    0    0  0.00000000000E+00  0.00000000000E+00 -0.55315973074E+03  0.19702366180E+04  0.18909909157E+04 0.  0.
        4    1    3    3  502    0  0.60005044795E+02 -0.82412948251E+03  0.20221015930E+03  0.85069416994E+03  0.12699999809E+01 0.  1.
       -4    1    3    3    0  502 -0.60005044795E+02  0.82412948251E+03 -0.75536989004E+03  0.11195424481E+04  0.12699999809E+01 0. -1.
</event>
<event>
 5   0  0.3083469E-05  0.1902995E+04  0.7818609E-02  0.8653367E-01
       -1   -1    0    0    0  501  0.00000000000E+00  0.00000000000E+00  0.48385229459E+03  0.48385229462E+03  0.50400001928E-02 0. -1.
        1   -1    0    0  501    0  0.00000000000E+00  0.00000000000E+00 -0.18711237125E+04  0.18711237125E+04  0.50400001928E-02 0.  1.
    10030    2    1    2    0    0  0.00000000000E+00  0.00000000000E+00 -0.13872714179E+04  0.23549760071E+04  0.19029950098E+04 0.  0.
        3    1    3    3  502    0 -0.52003979647E+03  0.77618211454E+03 -0.91655054183E+03  0.13088028770E+04  0.10100000352E+00 0.  1.
       -3    1    3    3    0  502  0.52003979647E+03 -0.77618211454E+03 -0.47072087605E+03  0.10461731301E+04  0.10100000352E+00 0. -1.
</event>
<event>
 5   0  0.3144958E-05  0.1901953E+04  0.7818609E-02  0.8653885E-01
       -1   -1    0    0    0  501  0.00000000000E+00  0.00000000000E+00  0.70691782259E+03  0.70691782260E+03  0.50400001928E-02 0.  1.
        1   -1    0    0  501    0  0.00000000000E+00  0.00000000000E+00 -0.12792943368E+04  0.12792943368E+04  0.50400001928E-02 0. -1.
    10030    2    1    2    0    0  0.00000000000E+00  0.00000000000E+00 -0.57237651425E+03  0.19862121594E+04  0.19019526462E+04 0.  0.
        4    1    3    3  502    0  0.13087104726E+03  0.29129870561E+03  0.64924729038E+03  0.72353702315E+03  0.12699999809E+01 0.  1.
       -4    1    3    3    0  502 -0.13087104726E+03 -0.29129870561E+03 -0.12216238046E+04  0.12626751363E+04  0.12699999809E+01 0. -1.
</event>
<event>
 5   0  0.6361762E-05  0.1899937E+04  0.7818609E-02  0.8654888E-01
       -2   -1    0    0    0  501  0.00000000000E+00  0.00000000000E+00  0.51752836783E+03  0.51752836784E+03  0.25500000920E-02 0. -1.
        2   -1    0    0  501    0  0.00000000000E+00  0.00000000000E+00 -0.17437496434E+04  0.17437496434E+04  0.25500000920E-02 0.  1.
    10030    2    1    2    0    0  0.00000000000E+00  0.00000000000E+00 -0.12262212756E+04  0.22612780113E+04  0.18999367430E+04 0.  0.
        1    1    3    3  502    0  0.63780183673E+03 -0.67242880360E+03 -0.36491126823E+03  0.99604814771E+03  0.50400001928E-02 0. -1.
       -1    1    3    3    0  502 -0.63780183673E+03  0.67242880360E+03 -0.86131000736E+03  0.12652298636E+04  0.50400001928E-02 0.  1.
</event>
<event>
 5   0  0.3203527E-05  0.1902891E+04  0.7818609E-02  0.8653419E-01
       -1   -1    0    0    0  501  0.00000000000E+00  0.00000000000E+00  0.73205618858E+03  0.73205618860E+03  0.50400001928E-02 0.  1.
        1   -1    0    0  501    0  0.00000000000E+00  0.00000000000E+00 -0.12365836687E+04  0.12365836687E+04  0.50400001928E-02 0. -1.
    10030    2    1    2    0    0  0.00000000000E+00  0.00000000000E+00 -0.50452748011E+03  0.19686398573E+04  0.19028911975E+04 0.  0.
        1    1    3    3  502    0  0.79439806710E+03 -0.49159186149E+03 -0.65705932618E+02  0.93650847135E+03  0.50400001928E-02 0. -1.
       -1    1    3    3    0  502 -0.79439806710E+03  0.49159186149E+03 -0.43882154749E+03  0.10321313860E+04  0.50400001928E-02 0.  1.
</event>
<event>
 5   0  0.6395992E-05  0.1909714E+04  0.7818609E-02  0.8650036E-01
        2   -1    0    0  501    0  0.00000000000E+00  0.00000000000E+00  0.76961814992E+03  0.76961814992E+03  0.25500000920E-02 0. -1.
       -2   -1    0    0    0  501  0.00000000000E+00  0.00000000000E+00 -0.11846808322E+04  0.11846808322E+04  0.25500000920E-02 0.  1.
    10030    2    1    2    0    0  0.00000000000E+00  0.00000000000E+00 -0.41506268230E+03  0.19542989821E+04  0.19097139789E+04 0.  0.
        4    1    3    3  502    0  0.81914874527E+03 -0.43337033826E+03 -0.44298051720E+03  0.10271552310E+04  0.12699999809E+01 0.  1.
       -4    1    3    3    0  502 -0.81914874527E+03  0.43337033826E+03  0.27917834904E+02  0.92714375119E+03  0.12699999809E+01 0. -1.
</event>
<event>
 5   0  0.6098377E-05  0.1898348E+04  0.7818609E-02  0.8655679E-01
       -2   -1    0    0    0  501  0.00000000000E+00  0.00000000000E+00  0.53172350961E+03  0.53172350961E+03  0.25500000920E-02 0.  1.
        2   -1    0    0  501    0  0.00000000000E+00  0.00000000000E+00 -0.16943607578E+04  0.16943607578E+04  0.25500000920E-02 0. -1.
    10030    2    1    2    0    0  0.00000000000E+00  0.00000000000E+00 -0.11626372482E+04  0.22260842674E+04  0.18983481753E+04 0.  0.
        5    1    3    3  502    0  0.40119095802E+03 -0.44189945625E+03 -0.14467576261E+04  0.15650428214E+04  0.46999998093E+01 0. -1.
       -5    1    3    3    0  502 -0.40119095802E+03  0.44189945625E+03  0.28412037787E+03  0.66104144602E+03  0.46999998093E+01 0.  1.
</event>
<event>
 5   0  0.6098377E-05  0.1902180E+04  0.7818609E-02  0.8653772E-01
       -2   -1    0    0    0  501  0.00000000000E+00  0.00000000000E+00  0.62456524892E+03  0.62456524893E+03  0.25500000920E-02 0.  1.
        2   -1    0    0  501    0  0.00000000000E+00  0.00000000000E+00 -0.14483225025E+04  0.14483225025E+04  0.25500000920E-02 0. -1.
    10030    2    1    2    0    0  0.00000000000E+00  0.00000000000E+00 -0.82375725362E+03  0.20728877515E+04  0.19021797016E+04 0.  0.
        5    1    3    3  502    0  0.23398100011E+03 -0.52925015793E+03 -0.12343981206E+04  0.13633098137E+04  0.46999998093E+01 0. -1.
       -5    1    3    3    0  502 -0.23398100011E+03  0.52925015793E+03  0.41064086699E+03  0.70957793773E+03  0.46999998093E+01 0.  1.
</event>
<event>
 5   0  0.3144958E-05  0.1901674E+04  0.7818609E-02  0.8654023E-01
       -1   -1    0    0    0  501  0.00000000000E+00  0.00000000000E+00  0.87374655212E+03  0.87374655214E+03  0.50400001928E-02 0. -1.
        1   -1    0    0  501    0  0.00000000000E+00  0.00000000000E+00 -0.10347296211E+04  0.10347296211E+04  0.50400001928E-02 0.  1.
    10030    2    1    2    0    0  0.00000000000E+00  0.00000000000E+00 -0.16098306894E+03  0.19084761732E+04  0.19016744609E+04 0.  0.
        4    1    3    3  502    0  0.83146098047E+03 -0.38301282832E+03 -0.33843932279E+03  0.97599640205E+03  0.12699999809E+01 0.  1.
       -4    1    3    3    0  502 -0.83146098047E+03  0.38301282832E+03  0.17745625385E+03  0.93247977117E+03  0.12699999809E+01 0. -1.
</event>
<event>
 5   0  0.3144958E-05  0.1878486E+04  0.7818609E-02  0.8665640E-01
        1   -1    0    0  501    0  0.00000000000E+00  0.00000000000E+00  0.12945056909E+04  0.12945056909E+04  0.50400001928E-02 0.  1.
       -1   -1    0    0    0  501  0.00000000000E+00  0.00000000000E+00 -0.68147794099E+03  0.68147794101E+03  0.50400001928E-02 0. -1.
    10030    2    1    2    0    0  0.00000000000E+00  0.00000000000E+00  0.61302774994E+03  0.19759836319E+04  0.18784856378E+04 0.  0.
        4    1    3    3  502    0 -0.30745657929E+03 -0.70943755533E+03 -0.25440196178E+03  0.81397368761E+03  0.12699999809E+01 0.  1.
       -4    1    3    3    0  502  0.30745657929E+03  0.70943755533E+03  0.86742971171E+03  0.11620099443E+04  0.12699999809E+01 0. -1.
</event>
<event>
 5   0  0.3203527E-05  0.1867129E+04  0.7818609E-02  0.8671394E-01
       -1   -1    0    0    0  501  0.00000000000E+00  0.00000000000E+00  0.80891049574E+03  0.80891049575E+03  0.50400001928E-02 0.  1.
        1   -1    0    0  501    0  0.00000000000E+00  0.00000000000E+00 -0.10774277111E+04  0.10774277111E+04  0.50400001928E-02 0. -1.
    10030    2    1    2    0    0  0.00000000000E+00  0.00000000000E+00 -0.26851721533E+03  0.18863382068E+04  0.18671289017E+04 0.  0.
        1    1    3    3  502    0  0.26242812391E+03 -0.82530443738E+03 -0.48648083190E+03  0.99330737156E+03  0.50400001928E-02 0. -1.
       -1    1    3    3    0  502 -0.26242812391E+03  0.82530443738E+03  0.21796361656E+03  0.89303083527E+03  0.50400001928E-02 0.  1.
</event>
<event>
 5   0  0.6098377E-05  0.1910918E+04  0.7818609E-02  0.8649441E-01
       -2   -1    0    0    0  501  0.00000000000E+00  0.00000000000E+00  0.53097077443E+03  0.53097077444E+03  0.25500000920E-02 0. -1.
        2   -1    0    0  501    0  0.00000000000E+00  0.00000000000E+00 -0.17193070402E+04  0.17193070402E+04  0.25500000920E-02 0.  1.
    10030    2    1    2    0    0  0.00000000000E+00  0.00000000000E+00 -0.11883362657E+04  0.22502778146E+04  0.19109178848E+04 0.  0.
        5    1    3    3  502    0 -0.49319594768E+03 -0.49020331719E+03 -0.13657710513E+04  0.15326102536E+04  0.46999998093E+01 0.  1.
       -5    1    3    3    0  502  0.49319594768E+03  0.49020331719E+03  0.17743478553E+03  0.71766756100E+03  0.46999998093E+01 0. -1.
</event>
<event>
 5   0  0.6361762E-05  0.1895992E+04  0.7818609E-02  0.8656854E-01
        2   -1    0    0  501    0  0.00000000000E+00  0.00000000000E+00  0.96607478612E+03  0.96607478612E+03  0.25500000920E-02 0.  1.
       -2   -1    0    0    0  501  0.00000000000E+00  0.00000000000E+00 -0.93025510801E+03  0.93025510801E+03  0.25500000920E-02 0. -1.
    10030    2    1    2    0    0  0.00000000000E+00  0.00000000000E+00  0.35819678111E+02  0.18963298941E+04  0.18959915659E+04 0.  0.
        1    1    3    3  502    0  0.77893333621E+03  0.25512724719E+03 -0.45848277630E+03  0.93916639139E+03  0.50400001928E-02 0. -1.
       -1    1    3    3    0  502 -0.77893333621E+03 -0.25512724719E+03  0.49430245441E+03  0.95716350274E+03  0.50400001928E-02 0.  1.
</event>
<event>
 5   0  0.6361762E-05  0.1886948E+04  0.7818609E-02  0.8661380E-01
        2   -1    0    0  501    0  0.00000000000E+00  0.00000000000E+00  0.16558310468E+04  0.16558310468E+04  0.25500000920E-02 0. -1.
       -2   -1    0    0    0  501  0.00000000000E+00  0.00000000000E+00 -0.53758106314E+03  0.53758106314E+03  0.25500000920E-02 0.  1.
    10030    2    1    2    0    0  0.00000000000E+00  0.00000000000E+00  0.11182499837E+04  0.21934121100E+04  0.18869482394E+04 0.  0.
        1    1    3    3  502    0  0.61269250288E+03 -0.42734606200E+03  0.12290282888E+04  0.14382375654E+04  0.50400001928E-02 0. -1.
       -1    1    3    3    0  502 -0.61269250288E+03  0.42734606200E+03 -0.11077830517E+03  0.75517454454E+03  0.50400001928E-02 0.  1.
</event>
<event>
 5   0  0.6361762E-05  0.1896249E+04  0.7818609E-02  0.8656726E-01
       -2   -1    0    0    0  501  0.00000000000E+00  0.00000000000E+00  0.13911157536E+04  0.13911157536E+04  0.25500000920E-02 0.  1.
        2   -1    0    0  501    0  0.00000000000E+00  0.00000000000E+00 -0.64620085979E+03  0.64620085980E+03  0.25500000920E-02 0. -1.
    10030    2    1    2    0    0  0.00000000000E+00  0.00000000000E+00  0.74491489384E+03  0.20373166134E+04  0.18962491356E+04 0.  0.
        1    1    3    3  502    0 -0.82236354364E+03 -0.41016275173E+03  0.12181073512E+03  0.92701301826E+03  0.50400001928E-02 0. -1.
       -1    1    3    3    0  502  0.82236354364E+03  0.41016275173E+03  0.62310415873E+03  0.11103035952E+04  0.50400001928E-02 0.  1.
</event>
<event>
 5   0  0.3086139E-05  0.1903108E+04  0.7818609E-02  0.8653311E-01
       -1   -1    0    0    0  501  0.00000000000E+00  0.00000000000E+00  0.75780252265E+03  0.75780252267E+03  0.50400001928E-02 0. -1.
        1   -1    0    0  501    0  0.00000000000E+00  0.00000000000E+00 -0.11948426821E+04  0.11948426821E+04  0.50400001928E-02 0.  1.
    10030    2    1    2    0    0  0.00000000000E+00  0.00000000000E+00 -0.43704015940E+03  0.19526452047E+04  0.19031077727E+04 0.  0.
        2    1    3    3  502    0 -0.16802474199E+03 -0.57892441420E+03 -0.97393793350E+03  0.11453998820E+04  0.25500000920E-02 0.  1.
       -2    1    3    3    0  502  0.16802474199E+03  0.57892441420E+03  0.53689777410E+03  0.80724532276E+03  0.25500000920E-02 0. -1.
</event>
<event>
 5   0  0.3147063E-05  0.1903735E+04  0.7818609E-02  0.8653000E-01
       -1   -1    0    0    0  501  0.00000000000E+00  0.00000000000E+00  0.63710179567E+03  0.63710179569E+03  0.50400001928E-02 0.  1.
        1   -1    0    0  501    0  0.00000000000E+00  0.00000000000E+00 -0.14221452179E+04  0.14221452179E+04  0.50400001928E-02 0. -1.
    10030    2    1    2    0    0  0.00000000000E+00  0.00000000000E+00 -0.78504342218E+03  0.20592470135E+04  0.19037345109E+04 0.  0.
        5    1    3    3  502    0 -0.22757200768E+03 -0.46908188062E+03  0.46890034291E+03  0.70122496460E+03  0.46999998093E+01 0.  1.
       -5    1    3    3    0  502  0.22757200768E+03  0.46908188062E+03 -0.12539437651E+04  0.13580220489E+04  0.46999998093E+01 0. -1.
</event>
<event>
 5   0  0.6098377E-05  0.1898996E+04  0.7818609E-02  0.8655356E-01
       -2   -1    0    0    0  501  0.00000000000E+00  0.00000000000E+00  0.40977642799E+03  0.40977642800E+03  0.25500000920E-02 0. -1.
        2   -1    0    0  501    0  0.00000000000E+00  0.00000000000E+00 -0.22000941460E+04  0.22000941460E+04  0.25500000920E-02 0.  1.
    10030    2    1    2    0    0  0.00000000000E+00  0.00000000000E+00 -0.17903177180E+04  0.26098705740E+04  0.18989962827E+04 0.  0.
        5    1    3    3  502    0 -0.84867642258E+02 -0.50439580235E+03 -0.19945526572E+04  0.20590968977E+04  0.46999998093E+01 0.  1.
       -5    1    3    3    0  502  0.84867642258E+02  0.50439580235E+03  0.20423493912E+03  0.55077367628E+03  0.46999998093E+01 0. -1.
</event>
<event>
 5   0  0.3144958E-05  0.1899956E+04  0.7818609E-02  0.8654878E-01
       -1   -1    0    0    0  501  0.00000000000E+00  0.00000000000E+00  0.86755868494E+03  0.86755868496E+03  0.50400001928E-02 0. -1.
        1   -1    0    0  501    0  0.00000000000E+00  0.00000000000E+00 -0.10402269460E+04  0.10402269460E+04  0.50400001928E-02 0.  1.
    10030    2    1    2    0    0  0.00000000000E+00  0.00000000000E+00 -0.17266826104E+03  0.19077856309E+04  0.18999557061E+04 0.  0.
        4    1    3    3  502    0  0.11542664993E+01 -0.86312003260E+02  0.86361178524E+03  0.86791590764E+03  0.12699999809E+01 0. -1.
       -4    1    3    3    0  502 -0.11542664993E+01  0.86312003260E+02 -0.10362800463E+04  0.10398697233E+04  0.12699999809E+01 0.  1.
</event>
<event>
 5   0  0.6423388E-05  0.1902387E+04  0.7818609E-02  0.8653669E-01
       -2   -1    0    0    0  501  0.00000000000E+00  0.00000000000E+00  0.64744747557E+03  0.64744747558E+03  0.25500000920E-02 0.  1.
        2   -1    0    0  501    0  0.00000000000E+00  0.00000000000E+00 -0.13974404745E+04  0.13974404745E+04  0.25500000920E-02 0. -1.
    10030    2    1    2    0    0  0.00000000000E+00  0.00000000000E+00 -0.74999299895E+03  0.20448879501E+04  0.19023872450E+04 0.  0.
        2    1    3    3  502    0  0.51861665524E+03 -0.14476732705E+03 -0.12178549529E+04  0.13315748197E+04  0.25500000920E-02 0. -1.
       -2    1    3    3    0  502 -0.51861665524E+03  0.14476732705E+03  0.46786195396E+03  0.71331313043E+03  0.25500000920E-02 0.  1.
</event>
<event>
 5   0  0.3203527E-05  0.1887041E+04  0.7818609E-02  0.8661334E-01
       -1   -1    0    0    0  501  0.00000000000E+00  0.00000000000E+00  0.72680185205E+03  0.72680185207E+03  0.50400001928E-02 0.  1.
        1   -1    0    0  501    0  0.00000000000E+00  0.00000000000E+00 -0.12248605559E+04  0.12248605559E+04  0.50400001928E-02 0. -1.
    10030    2    1    2    0    0  0.00000000000E+00  0.00000000000E+00 -0.49805870388E+03  0.19516624080E+04  0.18870409859E+04 0.  0.
        1    1    3    3  502    0  0.49634365574E+03  0.53199015372E+03 -0.87031734486E+03  0.11343821354E+04  0.50400001928E-02 0. -1.
       -1    1    3    3    0  502 -0.49634365574E+03 -0.53199015372E+03  0.37225864098E+03  0.81728027265E+03  0.50400001928E-02 0.  1.
</event>
<event>
 5   0  0.6452182E-05  0.1901471E+04  0.7818609E-02  0.8654124E-01
       -2   -1    0    0    0  501  0.00000000000E+00  0.00000000000E+00  0.58713397096E+03  0.58713397097E+03  0.25500000920E-02 0. -1.
        2   -1    0    0  501    0  0.00000000000E+00  0.00000000000E+00 -0.15395094837E+04  0.15395094837E+04  0.25500000920E-02 0.  1.
    10030    2    1    2    0    0  0.00000000000E+00  0.00000000000E+00 -0.95237551274E+03  0.21266434547E+04  0.19014713424E+04 0.  0.
        3    1    3    3  502    0 -0.27100829782E+03  0.58531706742E+03 -0.12573676447E+04  0.14131578012E+04  0.10100000352E+00 0.  1.
       -3    1    3    3    0  502  0.27100829782E+03 -0.58531706742E+03  0.30499213200E+03  0.71348565346E+03  0.10100000352E+00 0. -1.
</event>
<event>
 5   0  0.6098377E-05  0.1893068E+04  0.7818609E-02  0.8658314E-01
        2   -1    0    0  501    0  0.00000000000E+00  0.00000000000E+00  0.11647633015E+04  0.11647633015E+04  0.25500000920E-02 0.  1.
       -2   -1    0    0    0  501  0.00000000000E+00  0.00000000000E+00 -0.76919227389E+03  0.76919227390E+03  0.25500000920E-02 0. -1.
    10030    2    1    2    0    0  0.00000000000E+00  0.00000000000E+00  0.39557102765E+03  0.19339555754E+04  0.18930683373E+04 0.  0.
        5    1    3    3  502    0 -0.39778328621E+03 -0.61292993478E+03  0.81243653217E+03  0.10926984289E+04  0.46999998093E+01 0. -1.
       -5    1    3    3    0  502  0.39778328621E+03  0.61292993478E+03 -0.41686550452E+03  0.84125714653E+03  0.46999998093E+01 0.  1.
</event>
<event>
 5   0  0.3203527E-05  0.1901171E+04  0.7818609E-02  0.8654274E-01
        1   -1    0    0  501    0  0.00000000000E+00  0.00000000000E+00  0.59764724225E+03  0.59764724227E+03  0.50400001928E-02 0.  1.
       -1   -1    0    0    0  501  0.00000000000E+00  0.00000000000E+00 -0.15119495851E+04  0.15119495851E+04  0.50400001928E-02 0. -1.
    10030    2    1    2    0    0  0.00000000000E+00  0.00000000000E+00 -0.91430234283E+03  0.21095968273E+04  0.19011706919E+04 0.  0.
        1    1    3    3  502    0 -0.38407235392E+03 -0.58463455278E+03 -0.11713803427E+04  0.13643463786E+04  0.50400001928E-02 0. -1.
       -1    1    3    3    0  502  0.38407235392E+03  0.58463455278E+03  0.25707799990E+03  0.74525044878E+03  0.50400001928E-02 0.  1.
</event>
<event>
 5   0  0.3144958E-05  0.1818708E+04  0.7818609E-02  0.8696413E-01
        1   -1    0    0  501    0  0.00000000000E+00  0.00000000000E+00  0.12838584013E+04  0.12838584013E+04  0.50400001928E-02 0. -1.
       -1   -1    0    0    0  501  0.00000000000E+00  0.00000000000E+00 -0.64409367238E+03  0.64409367240E+03  0.50400001928E-02 0.  1.
    10030    2    1    2    0    0  0.00000000000E+00  0.00000000000E+00  0.63976472892E+03  0.19279520737E+04  0.18187084126E+04 0.  0.
        4    1    3    3  502    0  0.63340320291E+03 -0.98312962654E+02 -0.36388805236E+03  0.73707610437E+03  0.12699999809E+01 0.  1.
       -4    1    3    3    0  502 -0.63340320291E+03  0.98312962654E+02  0.10036527813E+04  0.11908759693E+04  0.12699999809E+01 0. -1.
</event>
<event>
 5   0  0.2279625E-05  0.1902149E+04  0.7818609E-02  0.8653787E-01
       -3   -1    0    0    0  501  0.00000000000E+00  0.00000000000E+00  0.14765064730E+04  0.14765064764E+04  0.10100000352E+00 0.  1.
        3   -1    0    0  501    0  0.00000000000E+00  0.00000000000E+00 -0.61262364724E+03  0.61262365557E+03  0.10100000352E+00 0. -1.
    10030    2    1    2    0    0  0.00000000000E+00  0.00000000000E+00  0.86388282574E+03  0.20891301320E+04  0.19021490930E+04 0.  0.
        4    1    3    3  502    0 -0.96927613981E+02 -0.70949128608E+03  0.11193826853E+04  0.13288310865E+04  0.12699999809E+01 0.  1.
       -4    1    3    3    0  502  0.96927613981E+02  0.70949128608E+03 -0.25549985961E+03  0.76029904547E+03  0.12699999809E+01 0. -1.
</event>
<event>
 5   0  0.3147063E-05  0.1897160E+04  0.7818609E-02  0.8656271E-01
        1   -1    0    0  501    0  0.00000000000E+00  0.00000000000E+00  0.23066249904E+04  0.23066249904E+04  0.50400001928E-02 0.  1.
       -1   -1    0    0    0  501  0.00000000000E+00  0.00000000000E+00 -0.39009564012E+03  0.39009564016E+03  0.50400001928E-02 0. -1.
    10030    2    1    2    0    0  0.00000000000E+00  0.00000000000E+00  0.19165293503E+04  0.26967206306E+04  0.18971603540E+04 0.  0.
        5    1    3    3  502    0  0.22185053640E+03 -0.84808658669E+03  0.14733592881E+04  0.17144323261E+04  0.46999998093E+01 0.  1.
       -5    1    3    3    0  502 -0.22185053640E+03  0.84808658669E+03  0.44317006216E+03  0.98228830443E+03  0.46999998093E+01 0. -1.
</event>
<event>
 5   0  0.6098377E-05  0.1901079E+04  0.7818609E-02  0.8654319E-01
       -2   -1    0    0    0  501  0.00000000000E+00  0.00000000000E+00  0.80172584991E+03  0.80172584992E+03  0.25500000920E-02 0.  1.
        2   -1    0    0  501    0  0.00000000000E+00  0.00000000000E+00 -0.11269760244E+04  0.11269760244E+04  0.25500000920E-02 0. -1.
    10030    2    1    2    0    0  0.00000000000E+00  0.00000000000E+00 -0.32525017449E+03  0.19287018743E+04  0.19010794944E+04 0.  0.
        5    1    3    3  502    0 -0.33327471168E+03  0.67579510021E+03 -0.75046846122E+03  0.10634829816E+04  0.46999998093E+01 0. -1.
       -5    1    3    3    0  502  0.33327471168E+03 -0.67579510021E+03  0.42521828673E+03  0.86521889270E+03  0.46999998093E+01 0.  1.
</event>
<event>
 5   0  0.6098377E-05  0.1896756E+04  0.7818609E-02  0.8656473E-01
        2   -1    0    0  501    0  0.00000000000E+00  0.00000000000E+00  0.81154740982E+03  0.81154740983E+03  0.25500000920E-02 0.  1.
       -2   -1    0    0    0  501  0.00000000000E+00  0.00000000000E+00 -0.11082787231E+04  0.11082787231E+04  0.25500000920E-02 0. -1.
    10030    2    1    2    0    0  0.00000000000E+00  0.00000000000E+00 -0.29673131332E+03  0.19198261330E+04  0.18967558906E+04 0.  0.
        5    1    3    3  502    0  0.76606794196E+03  0.33649983040E+03 -0.60023314002E+03  0.10297544076E+04  0.46999998093E+01 0. -1.
       -5    1    3    3    0  502 -0.76606794196E+03 -0.33649983040E+03  0.30350182669E+03  0.89007172540E+03  0.46999998093E+01 0.  1.
</event>
<event>
 5   0  0.6452182E-05  0.1853219E+04  0.7818609E-02  0.8678499E-01
       -2   -1    0    0    0  501  0.00000000000E+00  0.00000000000E+00  0.66225310994E+03  0.66225310994E+03  0.25500000920E-02 0. -1.
        2   -1    0    0  501    0  0.00000000000E+00  0.00000000000E+00 -0.12964915122E+04  0.12964915122E+04  0.25500000920E-02 0.  1.
    10030    2    1    2    0    0  0.00000000000E+00  0.00000000000E+00 -0.63423840224E+03  0.19587446221E+04  0.18532193998E+04 0.  0.
        3    1    3    3  502    0  0.29854933898E+02  0.60986044733E+03  0.41955045403E+03  0.74083984502E+03  0.10100000352E+00 0. -1.
       -3    1    3    3    0  502 -0.29854933898E+02 -0.60986044733E+03 -0.10537888563E+04  0.12179047771E+04  0.10100000352E+00 0.  1.
</event>
<event>
 5   0  0.6098377E-05  0.1897972E+04  0.7818609E-02  0.8655866E-01
       -2   -1    0    0    0  501  0.00000000000E+00  0.00000000000E+00  0.44850191759E+03  0.44850191760E+03  0.25500000920E-02 0.  1.
        2   -1    0    0  501    0  0.00000000000E+00  0.00000000000E+00 -0.20079620795E+04  0.20079620795E+04  0.25500000920E-02 0. -1.
    10030    2    1    2    0    0  0.00000000000E+00  0.00000000000E+00 -0.15594601619E+04  0.24564639971E+04  0.18979724372E+04 0.  0.
        5    1    3    3  502    0 -0.69787291807E+03  0.64042698542E+03 -0.85496883039E+03  0.12759965221E+04  0.46999998093E+01 0. -1.
       -5    1    3    3    0  502  0.69787291807E+03 -0.64042698542E+03 -0.70449133153E+03  0.11804674750E+04  0.46999998093E+01 0.  1.
</event>
<event>
 5   0  0.3086139E-05  0.1904249E+04  0.7818609E-02  0.8652744E-01
        1   -1    0    0  501    0  0.00000000000E+00  0.00000000000E+00  0.18893340058E+04  0.18893340058E+04  0.50400001928E-02 0.  1.
       -1   -1    0    0    0  501  0.00000000000E+00  0.00000000000E+00 -0.47982060025E+03  0.47982060027E+03  0.50400001928E-02 0. -1.
    10030    2    1    2    0    0  0.00000000000E+00  0.00000000000E+00  0.14095134056E+04  0.23691546061E+04  0.19042493290E+04 0.  0.
        2    1    3    3  502    0  0.37602983346E+03  0.10936548757E+03  0.17844977099E+04  0.18269623210E+04  0.25500000920E-02 0.  1.
       -2    1    3    3    0  502 -0.37602983346E+03 -0.10936548757E+03 -0.37498430436E+03  0.54219228512E+03  0.25500000920E-02 0. -1.
</event>
<event>
 5   0  0.6452182E-05  0.1898340E+04  0.7818609E-02  0.8655683E-01
        2   -1    0    0  501    0  0.00000000000E+00  0.00000000000E+00  0.10386573675E+04  0.10386573675E+04  0.25500000920E-02 0.  1.
       -2   -1    0    0    0  501  0.00000000000E+00  0.00000000000E+00 -0.86739283684E+03  0.86739283684E+03  0.25500000920E-02 0. -1.
    10030    2    1    2    0    0  0.00000000000E+00  0.00000000000E+00  0.17126453066E+03  0.19060502043E+04  0.18983402862E+04 0.  0.
        3    1    3    3  502    0  0.22982717228E+03 -0.79316138622E+03 -0.38424104657E+03  0.91080552577E+03  0.10100000352E+00 0. -1.
       -3    1    3    3    0  502 -0.22982717228E+03  0.79316138622E+03  0.55550557722E+03  0.99524467858E+03  0.10100000352E+00 0.  1.
</event>
<event>
 5   0  0.6395992E-05  0.1943503E+04  0.7818609E-02  0.8633500E-01
        2   -1    0    0  501    0  0.00000000000E+00  0.00000000000E+00  0.18182988273E+04  0.18182988273E+04  0.25500000920E-02 0. -1.
       -2   -1    0    0    0  501  0.00000000000E+00  0.00000000000E+00 -0.51933212648E+03  0.51933212649E+03  0.25500000920E-02 0.  1.
    10030    2    1    2    0    0  0.00000000000E+00  0.00000000000E+00  0.12989667008E+04  0.23376309538E+04  0.19435030193E+04 0.  0.
        4    1    3    3  502    0  0.10048983551E+03  0.31601837899E+03  0.17481364525E+04  0.17793112410E+04  0.12699999809E+01 0. -1.
       -4    1    3    3    0  502 -0.10048983551E+03 -0.31601837899E+03 -0.44916975171E+03  0.55831971276E+03  0.12699999809E+01 0.  1.
</event>
<event>
 5   0  0.6452182E-05  0.1924233E+04  0.7818609E-02  0.8642887E-01
       -2   -1    0    0    0  501  0.00000000000E+00  0.00000000000E+00  0.76846940698E+03  0.76846940698E+03  0.25500000920E-02 0. -1.
        2   -1    0    0  501    0  0.00000000000E+00  0.00000000000E+00 -0.12045602655E+04  0.12045602655E+04  0.25500000920E-02 0.  1.
    10030    2    1    2    0    0  0.00000000000E+00  0.00000000000E+00 -0.43609085856E+03  0.19730296725E+04  0.19242325358E+04 0.  0.
        3    1    3    3  502    0  0.91140533029E+03  0.28720678663E+03 -0.33277707647E+03  0.10118735134E+04  0.10100000352E+00 0. -1.
       -3    1    3    3    0  502 -0.91140533029E+03 -0.28720678663E+03 -0.10331378209E+03  0.96115615908E+03  0.10100000352E+00 0.  1.
</event>
<event>
 5   0  0.3086139E-05  0.1891400E+04  0.7818609E-02  0.8659149E-01
        1   -1    0    0  501    0  0.00000000000E+00  0.00000000000E+00  0.86061537810E+03  0.86061537811E+03  0.50400001928E-02 0. -1.
       -1   -1    0    0    0  501  0.00000000000E+00  0.00000000000E+00 -0.10391965611E+04  0.10391965611E+04  0.50400001928E-02 0.  1.
    10030    2    1    2    0    0  0.00000000000E+00  0.00000000000E+00 -0.17858118296E+03  0.18998119392E+04  0.18914000543E+04 0.  0.
        2    1    3    3  502    0  0.13342039092E+03 -0.92746101681E+03  0.39198625253E+02  0.93782806027E+03  0.25500000920E-02 0. -1.
       -2    1    3    3    0  502 -0.13342039092E+03  0.92746101681E+03 -0.21777980822E+03  0.96198387891E+03  0.25500000920E-02 0.  1.
</event>
<event>
 5   0  0.6423388E-05  0.1931609E+04  0.7818609E-02  0.8639281E-01
       -2   -1    0    0    0  501  0.00000000000E+00  0.00000000000E+00  0.12459473619E+04  0.12459473619E+04  0.25500000920E-02 0.  1.
        2   -1    0    0  501    0  0.00000000000E+00  0.00000000000E+00 -0.74864986255E+03  0.74864986255E+03  0.25500000920E-02 0. -1.
    10030    2    1    2    0    0  0.00000000000E+00  0.00000000000E+00  0.49729749931E+03  0.19945972244E+04  0.19316089886E+04 0.  0.
        2    1    3    3  502    0 -0.19390433599E+03  0.87478844403E+03  0.62085331870E+03  0.10900974987E+04  0.25500000920E-02 0.  1.
       -2    1    3    3    0  502  0.19390433599E+03 -0.87478844403E+03 -0.12355581939E+03  0.90449972572E+03  0.25500000920E-02 0. -1.
</event>
<event>
 5   0  0.3144958E-05  0.1900615E+04  0.7818609E-02  0.8654550E-01
       -1   -1    0    0    0  501  0.00000000000E+00  0.00000000000E+00  0.94784519567E+03  0.94784519568E+03  0.50400001928E-02 0. -1.
        1   -1    0    0  501    0  0.00000000000E+00  0.00000000000E+00 -0.95277595996E+03  0.95277595997E+03  0.50400001928E-02 0.  1.
    10030    2    1    2    0    0  0.00000000000E+00  0.00000000000E+00 -0.49307642881E+01  0.19006211557E+04  0.19006147597E+04 0.  0.
        4    1    3    3  502    0 -0.51689053245E+03  0.68531406747E+03 -0.41020602108E+03  0.95136837568E+03  0.12699999809E+01 0.  1.
       -4    1    3    3    0  502  0.51689053245E+03 -0.68531406747E+03  0.40527525680E+03  0.94925277997E+03  0.12699999809E+01 0. -1.
</event>
<event>
 5   0  0.3144958E-05  0.1897006E+04  0.7818609E-02  0.8656348E-01
       -1   -1    0    0    0  501  0.00000000000E+00  0.00000000000E+00  0.48064868834E+03  0.48064868837E+03  0.50400001928E-02 0. -1.
        1   -1    0    0  501    0  0.00000000000E+00  0.00000000000E+00 -0.18717569218E+04  0.18717569218E+04  0.50400001928E-02 0.  1.
    10030    2    1    2    0    0  0.00000000000E+00  0.00000000000E+00 -0.13911082335E+04  0.23524056102E+04  0.18970055450E+04 0.  0.
        4    1    3    3  502    0  0.18391620537E+03  0.60971744256E+02  0.45584461440E+03  0.49531671643E+03  0.12699999809E+01 0. -1.
       -4    1    3    3    0  502 -0.18391620537E+03 -0.60971744256E+02 -0.18469528479E+04  0.18570888937E+04  0.12699999809E+01 0.  1.
</event>
<event>
 5   0  0.6395992E-05  0.1921972E+04  0.7818609E-02  0.8643996E-01
        2   -1    0    0  501    0  0.00000000000E+00  0.00000000000E+00  0.13464087094E+04  0.13464087094E+04  0.25500000920E-02 0. -1.
       -2   -1    0    0    0  501  0.00000000000E+00  0.00000000000E+00 -0.68589461983E+03  0.68589461984E+03  0.25500000920E-02 0.  1.
    10030    2    1    2    0    0  0.00000000000E+00  0.00000000000E+00  0.66051408957E+03  0.20323033292E+04  0.19219724138E+04 0.  0.
        4    1    3    3  502    0 -0.11088461544E+03  0.21088296774E+03  0.13146811832E+04  0.13360970213E+04  0.12699999809E+01 0. -1.
       -4    1    3    3    0  502  0.11088461544E+03 -0.21088296774E+03 -0.65416709358E+03  0.69620630797E+03  0.12699999809E+01 0.  1.
</event>
<event>
 5   0  0.3083469E-05  0.1900404E+04  0.7818609E-02  0.8654655E-01
       -1   -1    0    0    0  501  0.00000000000E+00  0.00000000000E+00  0.85391735238E+03  0.85391735239E+03  0.50400001928E-02 0.  1.
        1   -1    0    0  501    0  0.00000000000E+00  0.00000000000E+00 -0.10573433494E+04  0.10573433494E+04  0.50400001928E-02 0. -1.
    10030    2    1    2    0    0  0.00000000000E+00  0.00000000000E+00 -0.20342599699E+03  0.19112607018E+04  0.19004039923E+04 0.  0.
        3    1    3    3  502    0 -0.88560645655E+03  0.10753376863E+03 -0.43072333727E+03  0.99064873227E+03  0.10100000352E+00 0.  1.
       -3    1    3    3    0  502  0.88560645655E+03 -0.10753376863E+03  0.22729734027E+03  0.92061196950E+03  0.10100000352E+00 0. -1.
</event>
<event>
 5   0  0.3086139E-05  0.1896073E+04  0.7818609E-02  0.8656813E-01
       -1   -1    0    0    0  501  0.00000000000E+00  0.00000000000E+00  0.48948971487E+03  0.48948971490E+03  0.50400001928E-02 0.  1.
        1   -1    0    0  501    0  0.00000000000E+00  0.00000000000E+00 -0.18361434586E+04  0.18361434586E+04  0.50400001928E-02 0. -1.
    10030    2    1    2    0    0  0.00000000000E+00  0.00000000000E+00 -0.13466537437E+04  0.23256331735E+04  0.18960731400E+04 0.  0.
        2    1    3    3  502    0 -0.38234356369E+03 -0.55968505451E+03  0.13966497953E+03  0.69205510435E+03  0.25500000920E-02 0.  1.
       -2    1    3    3    0  502  0.38234356369E+03  0.55968505451E+03 -0.14863187233E+04  0.16335780692E+04  0.25500000920E-02 0. -1.
</event>
<event>
 5   0  0.6452182E-05  0.1906229E+04  0.7818609E-02  0.8651762E-01
        2   -1    0    0  501    0  0.00000000000E+00  0.00000000000E+00  0.21590780875E+04  0.21590780875E+04  0.25500000920E-02 0. -1.
       -2   -1    0    0    0  501  0.00000000000E+00  0.00000000000E+00 -0.42074783718E+03  0.42074783719E+03  0.25500000920E-02 0.  1.
    10030    2    1    2    0    0  0.00000000000E+00  0.00000000000E+00  0.17383302504E+04  0.25798259247E+04  0.19062291947E+04 0.  0.
        3    1    3    3  502    0 -0.59527457035E+03 -0.54238870877E+03  0.17922698433E+03  0.82502099829E+03  0.10100000352E+00 0. -1.
       -3    1    3    3    0  502  0.59527457035E+03  0.54238870877E+03  0.15591032660E+04  0.17548049264E+04  0.10100000352E+00 0.  1.
</event>
<event>
 5   0  0.6452182E-05  0.1899869E+04  0.7818609E-02  0.8654922E-01
       -2   -1    0    0    0  501  0.00000000000E+00  0.00000000000E+00  0.45487103073E+03  0.45487103074E+03  0.25500000920E-02 0.  1.
        2   -1    0    0  501    0  0.00000000000E+00  0.00000000000E+00 -0.19838050111E+04  0.19838050111E+04  0.25500000920E-02 0. -1.
    10030    2    1    2    0    0  0.00000000000E+00  0.00000000000E+00 -0.15289339804E+04  0.24386760418E+04  0.18998688693E+04 0.  0.
        3    1    3    3  502    0  0.86729073839E+03 -0.12534292727E+03 -0.29376573055E+03  0.92423070116E+03  0.10100000352E+00 0.  1.
       -3    1    3    3    0  502 -0.86729073839E+03  0.12534292727E+03 -0.12351682498E+04  0.15144453407E+04  0.10100000352E+00 0. -1.
</event>
<event>
 5   0  0.6395992E-05  0.1894368E+04  0.7818609E-02  0.8657665E-01
        2   -1    0    0  501    0  0.00000000000E+00  0.00000000000E+00  0.11271092240E+04  0.11271092240E+04  0.25500000920E-02 0.  1.
       -2   -1    0    0    0  501  0.00000000000E+00  0.00000000000E+00 -0.79598128461E+03  0.79598128461E+03  0.25500000920E-02 0. -1.
    10030    2    1    2    0    0  0.00000000000E+00  0.00000000000E+00  0.33112793940E+03  0.19230905086E+04  0.18943683359E+04 0.  0.
        4    1    3    3  502    0  0.15208425872E+03 -0.63937169550E+03  0.85798358734E+03  0.10807697423E+04  0.12699999809E+01 0.  1.
       -4    1    3    3    0  502 -0.15208425872E+03  0.63937169550E+03 -0.52685564794E+03  0.84232076635E+03  0.12699999809E+01 0. -1.
</event>
<event>
 5   0  0.3203527E-05  0.1906899E+04  0.7818609E-02  0.8651430E-01
       -1   -1    0    0    0  501  0.00000000000E+00  0.00000000000E+00  0.80548929083E+03  0.80548929084E+03  0.50400001928E-02 0.  1.
        1   -1    0    0  501    0  0.00000000000E+00  0.00000000000E+00 -0.11285889652E+04  0.11285889652E+04  0.50400001928E-02 0. -1.
    10030    2    1    2    0    0  0.00000000000E+00  0.00000000000E+00 -0.32309967439E+03  0.19340782561E+04  0.19068993946E+04 0.  0.
        1    1    3    3  502    0 -0.57301610620E+03 -0.74109049122E+03 -0.34157258868E+03  0.99711303648E+03  0.50400001928E-02 0. -1.
       -1    1    3    3    0  502  0.57301610620E+03  0.74109049122E+03  0.18472914289E+02  0.93696521960E+03  0.50400001928E-02 0.  1.
</event>
<event>
 5   0  0.6395992E-05  0.1893467E+04  0.7818609E-02  0.8658115E-01
        2   -1    0    0  501    0  0.00000000000E+00  0.00000000000E+00  0.11159278596E+04  0.11159278596E+04  0.25500000920E-02 0.  1.
       -2   -1    0    0    0  501  0.00000000000E+00  0.00000000000E+00 -0.80319161342E+03  0.80319161342E+03  0.25500000920E-02 0. -1.
    10030    2    1    2    0    0  0.00000000000E+00  0.00000000000E+00  0.31273624614E+03  0.19191194730E+04  0.18934665542E+04 0.  0.
        4    1    3    3  502    0 -0.81907687339E+03  0.43520383042E+03 -0.35973795315E+02  0.92821604456E+03  0.12699999809E+01 0. -1.
       -4    1    3    3    0  502  0.81907687339E+03 -0.43520383042E+03  0.34871004145E+03  0.99090342842E+03  0.12699999809E+01 0.  1.
</event>
<event>
 5   0  0.3083469E-05  0.1891789E+04  0.7818609E-02  0.8658954E-01
       -1   -1    0    0    0  501  0.00000000000E+00  0.00000000000E+00  0.69057086585E+03  0.69057086587E+03  0.50400001928E-02 0.  1.
        1   -1    0    0  501    0  0.00000000000E+00  0.00000000000E+00 -0.12956189528E+04  0.12956189528E+04  0.50400001928E-02 0. -1.
    10030    2    1    2    0    0  0.00000000000E+00  0.00000000000E+00 -0.60504808690E+03  0.19861898186E+04  0.18917893139E+04 0.  0.
        3    1    3    3  502    0 -0.20525667213E+03 -0.37461499786E+03  0.58353815813E+03  0.72317597463E+03  0.10100000352E+00 0.  1.
       -3    1    3    3    0  502  0.20525667213E+03  0.37461499786E+03 -0.11885862450E+04  0.12630138440E+04  0.10100000352E+00 0. -1.
</event>
<event>
 5   0  0.6452182E-05  0.1898471E+04  0.7818609E-02  0.8655618E-01
        2   -1    0    0  501    0  0.00000000000E+00  0.00000000000E+00  0.66287203542E+03  0.66287203542E+03  0.25500000920E-02 0.  1.
       -2   -1    0    0    0  501  0.00000000000E+00  0.00000000000E+00 -0.13593098014E+04  0.13593098014E+04  0.25500000920E-02 0. -1.
    10030    2    1    2    0    0  0.00000000000E+00  0.00000000000E+00 -0.69643776593E+03  0.20221818368E+04  0.18984714428E+04 0.  0.
        3    1    3    3  502    0 -0.41952387381E+03 -0.14646309868E+02  0.55863080900E+03  0.69877262830E+03  0.10100000352E+00 0.  1.
       -3    1    3    3    0  502  0.41952387381E+03  0.14646309868E+02 -0.12550685749E+04  0.13234092085E+04  0.10100000352E+00 0. -1.
</event>
<event>
 5   0  0.6098377E-05  0.1912403E+04  0.7818609E-02  0.8648707E-01
       -2   -1    0    0    0  501  0.00000000000E+00  0.00000000000E+00  0.84616870506E+03  0.84616870507E+03  0.25500000920E-02 0. -1.
        2   -1    0    0  501    0  0.00000000000E+00  0.00000000000E+00 -0.10805422143E+04  0.10805422143E+04  0.25500000920E-02 0.  1.
    10030    2    1    2    0    0  0.00000000000E+00  0.00000000000E+00 -0.23437350927E+03  0.19267109194E+04  0.19124026838E+04 0.  0.
        5    1    3    3  502    0  0.79889389099E+03 -0.51890296242E+03 -0.34063809784E+02  0.95324402260E+03  0.46999998093E+01 0.  1.
       -5    1    3    3    0  502 -0.79889389099E+03  0.51890296242E+03 -0.20030969949E+03  0.97346689681E+03  0.46999998093E+01 0. -1.
</event>
<event>
 5   0  0.3203527E-05  0.1882374E+04  0.7818609E-02  0.8663680E-01
       -1   -1    0    0    0  501  0.00000000000E+00  0.00000000000E+00  0.11164609640E+04  0.11164609640E+04  0.50400001928E-02 0.  1.
        1   -1    0    0  501    0  0.00000000000E+00  0.00000000000E+00 -0.79342956615E+03  0.79342956617E+03  0.50400001928E-02 0. -1.
    10030    2    1    2    0    0  0.00000000000E+00  0.00000000000E+00  0.32303139782E+03  0.19098905302E+04  0.18823741799E+04 0.  0.
        1    1    3    3  502    0  0.10701846591E+03  0.41773109916E+03 -0.68730232672E+03  0.81137951145E+03  0.50400001928E-02 0. -1.
       -1    1    3    3    0  502 -0.10701846591E+03 -0.41773109916E+03  0.10103337245E+04  0.10985110187E+04  0.50400001928E-02 0.  1.
</event>
<event>
 5   0  0.3203527E-05  0.1900782E+04  0.7818609E-02  0.8654467E-01
       -1   -1    0    0    0  501  0.00000000000E+00  0.00000000000E+00  0.59324104988E+03  0.59324104991E+03  0.50400001928E-02 0. -1.
        1   -1    0    0  501    0  0.00000000000E+00  0.00000000000E+00 -0.15225562958E+04  0.15225562958E+04  0.50400001928E-02 0.  1.
    10030    2    1    2    0    0  0.00000000000E+00  0.00000000000E+00 -0.92931524592E+03  0.21157973457E+04  0.19007818344E+04 0.  0.
        1    1    3    3  502    0  0.84071687544E+02  0.60377373165E+03 -0.12762676510E+04  0.14143796819E+04  0.50400001928E-02 0.  1.
       -1    1    3    3    0  502 -0.84071687544E+02 -0.60377373165E+03  0.34695240506E+03  0.70141766379E+03  0.50400001928E-02 0. -1.
</event>
<event>
 5   0  0.6361762E-05  0.1905936E+04  0.7818609E-02  0.8651907E-01
       -2   -1    0    0    0  501  0.00000000000E+00  0.00000000000E+00  0.98765261932E+03  0.98765261933E+03  0.25500000920E-02 0. -1.
        2   -1    0    0  501    0  0.00000000000E+00  0.00000000000E+00 -0.91950176920E+03  0.91950176921E+03  0.25500000920E-02 0.  1.
    10030    2    1    2    0    0  0.00000000000E+00  0.00000000000E+00  0.68150850119E+02  0.19071543885E+04  0.19059363377E+04 0.  0.
        1    1    3    3  502    0 -0.52681133837E+01  0.82279687792E+03 -0.44698734314E+03  0.93638674717E+03  0.50400001928E-02 0.  1.
       -1    1    3    3    0  502  0.52681133837E+01 -0.82279687792E+03  0.51513819326E+03  0.97076764136E+03  0.50400001928E-02 0. -1.
</event>
<event>
 5   0  0.3144958E-05  0.1904151E+04  0.7818609E-02  0.8652793E-01
       -1   -1    0    0    0  501  0.00000000000E+00  0.00000000000E+00  0.10017527852E+04  0.10017527852E+04  0.50400001928E-02 0.  1.
        1   -1    0    0  501    0  0.00000000000E+00  0.00000000000E+00 -0.90486176337E+03  0.90486176338E+03  0.50400001928E-02 0. -1.
    10030    2    1    2    0    0  0.00000000000E+00  0.00000000000E+00  0.96891021866E+02  0.19066145486E+04  0.19041510357E+04 0.  0.
        4    1    3    3  502    0  0.13494206759E+02  0.51580421296E+03 -0.75272096745E+03  0.91259330891E+03  0.12699999809E+01 0. -1.
       -4    1    3    3    0  502 -0.13494206759E+02 -0.51580421296E+03  0.84961198932E+03  0.99402123972E+03  0.12699999809E+01 0.  1.
</event>
<event>
 5   0  0.6098377E-05  0.1876305E+04  0.7818609E-02  0.8666742E-01
       -2   -1    0    0    0  501  0.00000000000E+00  0.00000000000E+00  0.54701050742E+03  0.54701050743E+03  0.25500000920E-02 0.  1.
        2   -1    0    0  501    0  0.00000000000E+00  0.00000000000E+00 -0.16089820973E+04  0.16089820973E+04  0.25500000920E-02 0. -1.
    10030    2    1    2    0    0  0.00000000000E+00  0.00000000000E+00 -0.10619715899E+04  0.21559926047E+04  0.18763050002E+04 0.  0.
        5    1    3    3  502    0 -0.93312614853E+03  0.96867185977E+02 -0.53167780821E+03  0.10783371655E+04  0.46999998093E+01 0.  1.
       -5    1    3    3    0  502  0.93312614853E+03 -0.96867185977E+02 -0.53029378167E+03  0.10776554392E+04  0.46999998093E+01 0. -1.
</event>
<event>
 5   0  0.3086139E-05  0.1899061E+04  0.7818609E-02  0.8655324E-01
       -1   -1    0    0    0  501  0.00000000000E+00  0.00000000000E+00  0.99102264618E+03  0.99102264620E+03  0.50400001928E-02 0. -1.
        1   -1    0    0  501    0  0.00000000000E+00  0.00000000000E+00 -0.90977507973E+03  0.90977507974E+03  0.50400001928E-02 0.  1.
    10030    2    1    2    0    0  0.00000000000E+00  0.00000000000E+00  0.81247566455E+02  0.19007977259E+04  0.18990605119E+04 0.  0.
        2    1    3    3  502    0 -0.13665968704E+03 -0.93630871286E+03 -0.38555035845E+02  0.94701444901E+03  0.25500000920E-02 0. -1.
       -2    1    3    3    0  502  0.13665968704E+03  0.93630871286E+03  0.11980260230E+03  0.95378327693E+03  0.25500000920E-02 0.  1.
</event>
<event>
 5   0  0.3147063E-05  0.1905521E+04  0.7818609E-02  0.8652113E-01
       -1   -1    0    0    0  501  0.00000000000E+00  0.00000000000E+00  0.71722235527E+03  0.71722235529E+03  0.50400001928E-02 0. -1.
        1   -1    0    0  501    0  0.00000000000E+00  0.00000000000E+00 -0.12656507803E+04  0.12656507803E+04  0.50400001928E-02 0.  1.
    10030    2    1    2    0    0  0.00000000000E+00  0.00000000000E+00 -0.54842842502E+03  0.19828731356E+04  0.19055214862E+04 0.  0.
        5    1    3    3  502    0 -0.43891925776E+03 -0.53114617642E+02 -0.11524280074E+04  0.12343353190E+04  0.46999998093E+01 0.  1.
       -5    1    3    3    0  502  0.43891925776E+03  0.53114617642E+02  0.60399958236E+03  0.74853781663E+03  0.46999998093E+01 0. -1.
</event>
<event>
 5   0  0.3203527E-05  0.1898826E+04  0.7818609E-02  0.8655441E-01
        1   -1    0    0  501    0  0.00000000000E+00  0.00000000000E+00  0.70747314395E+03  0.70747314397E+03  0.50400001928E-02 0. -1.
       -1   -1    0    0    0  501  0.00000000000E+00  0.00000000000E+00 -0.12740914556E+04  0.12740914556E+04  0.50400001928E-02 0.  1.
    10030    2    1    2    0    0  0.00000000000E+00  0.00000000000E+00 -0.56661831164E+03  0.19815645996E+04  0.18988264669E+04 0.  0.
        1    1    3    3  502    0 -0.52543704842E+03 -0.45738510876E+02  0.54052529801E+03  0.75521103080E+03  0.50400001928E-02 0. -1.
       -1    1    3    3    0  502  0.52543704842E+03  0.45738510876E+02 -0.11071436097E+04  0.12263535688E+04  0.50400001928E-02 0.  1.
</event>
<event>
 5   0  0.6098377E-05  0.1899854E+04  0.7818609E-02  0.8654929E-01
       -2   -1    0    0    0  501  0.00000000000E+00  0.00000000000E+00  0.40725124670E+03  0.40725124671E+03  0.25500000920E-02 0. -1.
        2   -1    0    0  501    0  0.00000000000E+00  0.00000000000E+00 -0.22157360984E+04  0.22157360984E+04  0.25500000920E-02 0.  1.
    10030    2    1    2    0    0  0.00000000000E+00  0.00000000000E+00 -0.18084848517E+04  0.26229873451E+04  0.18998539822E+04 0.  0.
        5    1    3    3  502    0  0.47873909362E+03 -0.66757364001E+03 -0.24573529653E+03  0.85746930590E+03  0.46999998093E+01 0. -1.
       -5    1    3    3    0  502 -0.47873909362E+03  0.66757364001E+03 -0.15627495552E+04  0.17655180392E+04  0.46999998093E+01 0.  1.
</event>
<event>
 5   0  0.3086139E-05  0.1893355E+04  0.7818609E-02  0.8658171E-01
        1   -1    0    0  501    0  0.00000000000E+00  0.00000000000E+00  0.55672072121E+03  0.55672072123E+03  0.50400001928E-02 0.  1.
       -1   -1    0    0    0  501  0.00000000000E+00  0.00000000000E+00 -0.16097812984E+04  0.16097812984E+04  0.50400001928E-02 0. -1.
    10030    2    1    2    0    0  0.00000000000E+00  0.00000000000E+00 -0.10530605772E+04  0.21665020196E+04  0.18933553343E+04 0.  0.
        2    1    3    3  502    0  0.18042557961E+03 -0.34070500202E+03  0.46282332160E+03  0.60236095093E+03  0.25500000920E-02 0.  1.
       -2    1    3    3    0  502 -0.18042557961E+03  0.34070500202E+03 -0.15158838988E+04  0.15641410687E+04  0.25500000920E-02 0. -1.
</event>
<event>
 5   0  0.3083469E-05  0.1902028E+04  0.7818609E-02  0.8653848E-01
        1   -1    0    0  501    0  0.00000000000E+00  0.00000000000E+00  0.10771301845E+04  0.10771301845E+04  0.50400001928E-02 0. -1.
       -1   -1    0    0    0  501  0.00000000000E+00  0.00000000000E+00 -0.83966398141E+03  0.83966398143E+03  0.50400001928E-02 0.  1.
    10030    2    1    2    0    0  0.00000000000E+00  0.00000000000E+00  0.23746620306E+03  0.19167941659E+04  0.19020277803E+04 0.  0.
        3    1    3    3  502    0 -0.81653493700E+03  0.13181313859E+03 -0.35429717373E+03  0.89979470123E+03  0.10100000352E+00 0.  1.
       -3    1    3    3    0  502  0.81653493700E+03 -0.13181313859E+03  0.59176337680E+03  0.10169994647E+04  0.10100000352E+00 0. -1.
</event>
<event>
 5   0  0.6452182E-05  0.1887800E+04  0.7818609E-02  0.8660953E-01
       -2   -1    0    0    0  501  0.00000000000E+00  0.00000000000E+00  0.64749811736E+03  0.64749811736E+03  0.25500000920E-02 0. -1.
        2   -1    0    0  501    0  0.00000000000E+00  0.00000000000E+00 -0.13759845621E+04  0.13759845621E+04  0.25500000920E-02 0.  1.
    10030    2    1    2    0    0  0.00000000000E+00  0.00000000000E+00 -0.72848644478E+03  0.20234826795E+04  0.18878002156E+04 0.  0.
        3    1    3    3  502    0  0.60701288148E+03  0.37190833061E+03  0.30011675960E+03  0.77256101652E+03  0.10100000352E+00 0. -1.
       -3    1    3    3    0  502 -0.60701288148E+03 -0.37190833061E+03 -0.10286032044E+04  0.12509216630E+04  0.10100000352E+00 0.  1.
</event>
<event>
 5   0  0.6098377E-05  0.1888158E+04  0.7818609E-02  0.8660774E-01
        2   -1    0    0  501    0  0.00000000000E+00  0.00000000000E+00  0.17383689984E+04  0.17383689984E+04  0.25500000920E-02 0.  1.
       -2   -1    0    0    0  501  0.00000000000E+00  0.00000000000E+00 -0.51271321412E+03  0.51271321413E+03  0.25500000920E-02 0. -1.
    10030    2    1    2    0    0  0.00000000000E+00  0.00000000000E+00  0.12256557843E+04  0.22510822126E+04  0.18881575745E+04 0.  0.
        5    1    3    3  502    0  0.45674219749E+03 -0.78045755420E+03  0.28953149012E+03  0.94951461423E+03  0.46999998093E+01 0.  1.
       -5    1    3    3    0  502 -0.45674219749E+03  0.78045755420E+03  0.93612429420E+03  0.13015675983E+04  0.46999998093E+01 0. -1.
</event>
<event>
 5   0  0.6361762E-05  0.1899019E+04  0.7818609E-02  0.8655345E-01
       -2   -1    0    0    0  501  0.00000000000E+00  0.00000000000E+00  0.36222930270E+03  0.36222930271E+03  0.25500000920E-02 0. -1.
        2   -1    0    0  501    0  0.00000000000E+00  0.00000000000E+00 -0.24889436569E+04  0.24889436569E+04  0.25500000920E-02 0.  1.
    10030    2    1    2    0    0  0.00000000000E+00  0.00000000000E+00 -0.21267143542E+04  0.28511729596E+04  0.18990190366E+04 0.  0.
        1    1    3    3  502    0 -0.13596923813E+02 -0.62801848578E+03  0.56682722984E+01  0.62819123215E+03  0.50400001928E-02 0. -1.
       -1    1    3    3    0  502  0.13596923813E+02  0.62801848578E+03 -0.21323826265E+04  0.22229817274E+04  0.50400001928E-02 0.  1.
</event>
<event>
 5   0  0.3144958E-05  0.1891690E+04  0.7818609E-02  0.8659004E-01
        1   -1    0    0  501    0  0.00000000000E+00  0.00000000000E+00  0.21500916251E+04  0.21500916251E+04  0.50400001928E-02 0.  1.
       -1   -1    0    0    0  501  0.00000000000E+00  0.00000000000E+00 -0.41608573236E+03  0.41608573239E+03  0.50400001928E-02 0. -1.
    10030    2    1    2    0    0  0.00000000000E+00  0.00000000000E+00  0.17340058927E+04  0.25661773575E+04  0.18916896664E+04 0.  0.
        4    1    3    3  502    0  0.38156810813E+03  0.25502815996E+03 -0.25491418856E+03  0.52499184750E+03  0.12699999809E+01 0. -1.
       -4    1    3    3    0  502 -0.38156810813E+03 -0.25502815996E+03  0.19889200813E+04  0.20411855099E+04  0.12699999809E+01 0.  1.
</event>
<event>
 5   0  0.3147063E-05  0.1900162E+04  0.7818609E-02  0.8654776E-01
       -1   -1    0    0    0  501  0.00000000000E+00  0.00000000000E+00  0.11494589839E+04  0.11494589839E+04  0.50400001928E-02 0.  1.
        1   -1    0    0  501    0  0.00000000000E+00  0.00000000000E+00 -0.78528570897E+03  0.78528570899E+03  0.50400001928E-02 0. -1.
    10030    2    1    2    0    0  0.00000000000E+00  0.00000000000E+00  0.36417327490E+03  0.19347446929E+04  0.19001617964E+04 0.  0.
        5    1    3    3  502    0 -0.34243359959E+03 -0.88590346138E+03  0.20587659413E+03  0.97185028426E+03  0.46999998093E+01 0.  1.
       -5    1    3    3    0  502  0.34243359959E+03  0.88590346138E+03  0.15829668078E+03  0.96289440862E+03  0.46999998093E+01 0. -1.
</event>
<event>
 5   0  0.3083469E-05  0.1895140E+04  0.7818609E-02  0.8657279E-01
        1   -1    0    0  501    0  0.00000000000E+00  0.00000000000E+00  0.67883682768E+03  0.67883682770E+03  0.50400001928E-02 0.  1.
       -1   -1    0    0    0  501  0.00000000000E+00  0.00000000000E+00 -0.13226870406E+04  0.13226870406E+04  0.50400001928E-02 0. -1.
    10030    2    1    2    0    0  0.00000000000E+00  0.00000000000E+00 -0.64385021291E+03  0.20015238683E+04  0.18951397570E+04 0.  0.
        3    1    3    3  502    0 -0.71134654114E+03 -0.57358294792E+03 -0.57095401432E+02  0.91557151266E+03  0.10100000352E+00 0.  1.
       -3    1    3    3    0  502  0.71134654114E+03  0.57358294792E+03 -0.58675481148E+03  0.10859523556E+04  0.10100000352E+00 0. -1.
</event>
<event>
 5   0  0.6423388E-05  0.1895941E+04  0.7818609E-02  0.8656879E-01
       -2   -1    0    0    0  501  0.00000000000E+00  0.00000000000E+00  0.69932850781E+03  0.69932850781E+03  0.25500000920E-02 0. -1.
        2   -1    0    0  501    0  0.00000000000E+00  0.00000000000E+00 -0.12850159589E+04  0.12850159589E+04  0.25500000920E-02 0.  1.
    10030    2    1    2    0    0  0.00000000000E+00  0.00000000000E+00 -0.58568745109E+03  0.19843444667E+04  0.18959412365E+04 0.  0.
        2    1    3    3  502    0 -0.70367633174E+03 -0.18637911842E+03  0.34271932475E+03  0.80458317855E+03  0.25500000920E-02 0. -1.
       -2    1    3    3    0  502  0.70367633174E+03  0.18637911842E+03 -0.92840677584E+03  0.11797612882E+04  0.25500000920E-02 0.  1.
</event>
<event>
 5   0  0.3083469E-05  0.1876045E+04  0.7818609E-02  0.8666873E-01
        1   -1    0    0  501    0  0.00000000000E+00  0.00000000000E+00  0.19183637442E+04  0.19183637442E+04  0.50400001928E-02 0.  1.
       -1   -1    0    0    0  501  0.00000000000E+00  0.00000000000E+00 -0.45866489916E+03  0.45866489919E+03  0.50400001928E-02 0. -1.
    10030    2    1    2    0    0  0.00000000000E+00  0.00000000000E+00  0.14596988451E+04  0.23770286434E+04  0.18760448964E+04 0.  0.
        3    1    3    3  502    0 -0.61255981778E+03 -0.33555776189E+03  0.15232017582E+04  0.16757004948E+04  0.10100000352E+00 0.  1.
       -3    1    3    3    0  502  0.61255981778E+03  0.33555776189E+03 -0.63502913094E+02  0.70132814865E+03  0.10100000352E+00 0. -1.
</event>
<event>
 5   0  0.3086139E-05  0.1885490E+04  0.7818609E-02  0.8662113E-01
        1   -1    0    0  501    0  0.00000000000E+00  0.00000000000E+00  0.11076629974E+04  0.11076629974E+04  0.50400001928E-02 0. -1.
       -1   -1    0    0    0  501  0.00000000000E+00  0.00000000000E+00 -0.80238155698E+03  0.80238155700E+03  0.50400001928E-02 0.  1.
    10030    2    1    2    0    0  0.00000000000E+00  0.00000000000E+00  0.30528144039E+03  0.19100445544E+04  0.18854902391E+04 0.  0.
        2    1    3    3  502    0 -0.18554598460E+03  0.36075869781E+03  0.10147190604E+04  0.10928078157E+04  0.25500000920E-02 0. -1.
       -2    1    3    3    0  502  0.18554598460E+03 -0.36075869781E+03 -0.70943761999E+03  0.81723673872E+03  0.25500000920E-02 0.  1.
</event>
<event>
 5   0  0.3144958E-05  0.1897825E+04  0.7818609E-02  0.8655940E-01
        1   -1    0    0  501    0  0.00000000000E+00  0.00000000000E+00  0.15853466155E+04  0.15853466155E+04  0.50400001928E-02 0.  1.
       -1   -1    0    0    0  501  0.00000000000E+00  0.00000000000E+00 -0.56797356449E+03  0.56797356451E+03  0.50400001928E-02 0. -1.
    10030    2    1    2    0    0  0.00000000000E+00  0.00000000000E+00  0.10173730510E+04  0.21533201800E+04  0.18978250375E+04 0.  0.
        4    1    3    3  502    0 -0.43848135402E+03 -0.80824745556E+02  0.14590899769E+04  0.15256945012E+04  0.12699999809E+01 0.  1.
       -4    1    3    3    0  502  0.43848135402E+03  0.80824745556E+02 -0.44171692584E+03  0.62762567889E+03  0.12699999809E+01 0. -1.
</event>
<event>
 5   0  0.6452182E-05  0.1937595E+04  0.7818609E-02  0.8636366E-01
       -2   -1    0    0    0  501  0.00000000000E+00  0.00000000000E+00  0.15526916849E+04  0.15526916849E+04  0.25500000920E-02 0. -1.
        2   -1    0    0  501    0  0.00000000000E+00  0.00000000000E+00 -0.60447862914E+03  0.60447862915E+03  0.25500000920E-02 0.  1.
    10030    2    1    2    0    0  0.00000000000E+00  0.00000000000E+00  0.94821305574E+03  0.21571703140E+04  0.19375953563E+04 0.  0.
        3    1    3    3  502    0  0.53200087752E+03  0.76388135021E+03  0.17530976559E+03  0.94724504485E+03  0.10100000352E+00 0.  1.
       -3    1    3    3    0  502 -0.53200087752E+03 -0.76388135021E+03  0.77290329015E+03  0.12099252692E+04  0.10100000352E+00 0. -1.
</event>
<event>
 5   0  0.6452182E-05  0.1862086E+04  0.7818609E-02  0.8673962E-01
       -2   -1    0    0    0  501  0.00000000000E+00  0.00000000000E+00  0.77533433490E+03  0.77533433490E+03  0.25500000920E-02 0.  1.
        2   -1    0    0  501    0  0.00000000000E+00  0.00000000000E+00 -0.11180226273E+04  0.11180226273E+04  0.25500000920E-02 0. -1.
    10030    2    1    2    0    0  0.00000000000E+00  0.00000000000E+00 -0.34268829241E+03  0.18933569622E+04  0.18620862817E+04 0.  0.
        3    1    3    3  502    0  0.66337689939E+03  0.62778171392E+03  0.12418655781E+02  0.91341831830E+03  0.10100000352E+00 0.  1.
       -3    1    3    3    0  502 -0.66337689939E+03 -0.62778171392E+03 -0.35510694819E+03  0.97993864392E+03  0.10100000352E+00 0. -1.
</event>
<event>
 5   0  0.3086139E-05  0.1901530E+04  0.7818609E-02  0.8654095E-01
        1   -1    0    0  501    0  0.00000000000E+00  0.00000000000E+00  0.19833213066E+04  0.19833213066E+04  0.50400001928E-02 0. -1.
       -1   -1    0    0    0  501  0.00000000000E+00  0.00000000000E+00 -0.45577792870E+03  0.45577792873E+03  0.50400001928E-02 0.  1.
    10030    2    1    2    0    0  0.00000000000E+00  0.00000000000E+00  0.15275433779E+04  0.24390992353E+04  0.19015299914E+04 0.  0.
        2    1    3    3  502    0  0.19162400591E+03  0.87718876219E+03  0.11648585268E+04  0.14707397022E+04  0.25500000920E-02 0.  1.
       -2    1    3    3    0  502 -0.19162400591E+03 -0.87718876219E+03  0.36268485106E+03  0.96835953310E+03  0.25500000920E-02 0. -1.
</event>
<event>
 5   0  0.3147063E-05  0.1922237E+04  0.7818609E-02  0.8643866E-01
       -1   -1    0    0    0  501  0.00000000000E+00  0.00000000000E+00  0.18385581550E+04  0.18385581550E+04  0.50400001928E-02 0. -1.
        1   -1    0    0  501    0  0.00000000000E+00  0.00000000000E+00 -0.50243107775E+03  0.50243107778E+03  0.50400001928E-02 0.  1.
    10030    2    1    2    0    0  0.00000000000E+00  0.00000000000E+00  0.13361270773E+04  0.23409892328E+04  0.19222369837E+04 0.  0.
        5    1    3    3  502    0  0.30338424932E+02  0.24515219595E+03  0.17992235909E+04  0.18161078270E+04  0.46999998093E+01 0. -1.
       -5    1    3    3    0  502 -0.30338424932E+02 -0.24515219595E+03 -0.46309651364E+03  0.52488140580E+03  0.46999998093E+01 0.  1.
</event>
<event>
 5   0  0.6098377E-05  0.1889821E+04  0.7818609E-02  0.8659940E-01
       -2   -1    0    0    0  501  0.00000000000E+00  0.00000000000E+00  0.10027150870E+04  0.10027150870E+04  0.25500000920E-02 0. -1.
        2   -1    0    0  501    0  0.00000000000E+00  0.00000000000E+00 -0.89043847868E+03  0.89043847868E+03  0.25500000920E-02 0.  1.
    10030    2    1    2    0    0  0.00000000000E+00  0.00000000000E+00  0.11227660829E+03  0.18931535657E+04  0.18898212578E+04 0.  0.
        5    1    3    3  502    0  0.24380219779E+03 -0.56480805642E+03  0.77461028063E+03  0.98918695357E+03  0.46999998093E+01 0. -1.
       -5    1    3    3    0  502 -0.24380219779E+03  0.56480805642E+03 -0.66233367234E+03  0.90396661209E+03  0.46999998093E+01 0.  1.
</event>
<event>
 5   0  0.6361762E-05  0.1894334E+04  0.7818609E-02  0.8657682E-01
       -2   -1    0    0    0  501  0.00000000000E+00  0.00000000000E+00  0.50078340599E+03  0.50078340600E+03  0.25500000920E-02 0.  1.
        2   -1    0    0  501    0  0.00000000000E+00  0.00000000000E+00 -0.17914440414E+04  0.17914440414E+04  0.25500000920E-02 0. -1.
    10030    2    1    2    0    0  0.00000000000E+00  0.00000000000E+00 -0.12906606354E+04  0.22922274474E+04  0.18943341297E+04 0.  0.
        1    1    3    3  502    0  0.91626139835E+03  0.60671033046E+02 -0.92628344756E+03  0.13043070764E+04  0.50400001928E-02 0. -1.
       -1    1    3    3    0  502 -0.91626139835E+03 -0.60671033046E+02 -0.36437718786E+03  0.98792037099E+03  0.50400001928E-02 0.  1.
</event>
<event>
 5   0  0.2279625E-05  0.1829951E+04  0.7818609E-02  0.8690532E-01
        3   -1    0    0  501    0  0.00000000000E+00  0.00000000000E+00  0.68413879083E+03  0.68413879828E+03  0.10100000352E+00 0.  1.
       -3   -1    0    0    0  501  0.00000000000E+00  0.00000000000E+00 -0.12236994581E+04  0.12236994622E+04  0.10100000352E+00 0. -1.
    10030    2    1    2    0    0  0.00000000000E+00  0.00000000000E+00 -0.53956066725E+03  0.19078382605E+04  0.18299511236E+04 0.  0.
        4    1    3    3  502    0  0.51525245296E+03 -0.27582012033E+03 -0.10037448925E+04  0.11614935433E+04  0.12699999809E+01 0. -1.
       -4    1    3    3    0  502 -0.51525245296E+03  0.27582012033E+03  0.46418422524E+03  0.74634471722E+03  0.12699999809E+01 0.  1.
</event>
<event>
 5   0  0.3144958E-05  0.1883071E+04  0.7818609E-02  0.8663329E-01
       -1   -1    0    0    0  501  0.00000000000E+00  0.00000000000E+00  0.55293571751E+03  0.55293571754E+03  0.50400001928E-02 0.  1.
        1   -1    0    0  501    0  0.00000000000E+00  0.00000000000E+00 -0.16032403028E+04  0.16032403028E+04  0.50400001928E-02 0. -1.
    10030    2    1    2    0    0  0.00000000000E+00  0.00000000000E+00 -0.10503045853E+04  0.21561760204E+04  0.18830707127E+04 0.  0.
        4    1    3    3  502    0 -0.62908281418E+03 -0.69783180496E+03 -0.59548371967E+03  0.11123474675E+04  0.12699999809E+01 0.  1.
       -4    1    3    3    0  502  0.62908281418E+03  0.69783180496E+03 -0.45482086564E+03  0.10438285529E+04  0.12699999809E+01 0. -1.
</event>
<event>
 5   0  0.6395992E-05  0.1900984E+04  0.7818609E-02  0.8654367E-01
        2   -1    0    0  501    0  0.00000000000E+00  0.00000000000E+00  0.19660152649E+04  0.19660152649E+04  0.25500000920E-02 0. -1.
       -2   -1    0    0    0  501  0.00000000000E+00  0.00000000000E+00 -0.45952576107E+03  0.45952576108E+03  0.25500000920E-02 0.  1.
    10030    2    1    2    0    0  0.00000000000E+00  0.00000000000E+00  0.15064895038E+04  0.24255410259E+04  0.19009835990E+04 0.  0.
        4    1    3    3  502    0  0.27331891454E+03 -0.65789680336E+03 -0.49585800420E+02  0.71413709987E+03  0.12699999809E+01 0.  1.
       -4    1    3    3    0  502 -0.27331891454E+03  0.65789680336E+03  0.15560753042E+04  0.17114039261E+04  0.12699999809E+01 0. -1.
</event>
<event>
 5   0  0.6452182E-05  0.1892980E+04  0.7818609E-02  0.8658359E-01
       -2   -1    0    0    0  501  0.00000000000E+00  0.00000000000E+00  0.69882591321E+03  0.69882591322E+03  0.25500000920E-02 0. -1.
        2   -1    0    0  501    0  0.00000000000E+00  0.00000000000E+00 -0.12819257820E+04  0.12819257820E+04  0.25500000920E-02 0.  1.
    10030    2    1    2    0    0  0.00000000000E+00  0.00000000000E+00 -0.58309986883E+03  0.19807516953E+04  0.18929796146E+04 0.  0.
        3    1    3    3  502    0 -0.16530611428E+03  0.91647152062E+03 -0.46849673268E+03  0.10424659986E+04  0.10100000352E+00 0.  1.
       -3    1    3    3    0  502  0.16530611428E+03 -0.91647152062E+03 -0.11460313615E+03  0.93828569665E+03  0.10100000352E+00 0. -1.
</event>
<event>
 5   0  0.6098377E-05  0.1901070E+04  0.7818609E-02  0.8654324E-01
        2   -1    0    0  501    0  0.00000000000E+00  0.00000000000E+00  0.90188274513E+03  0.90188274514E+03  0.25500000920E-02 0.  1.
       -2   -1    0    0    0  501  0.00000000000E+00  0.00000000000E+00 -0.10018113448E+04  0.10018113448E+04  0.25500000920E-02 0. -1.
    10030    2    1    2    0    0  0.00000000000E+00  0.00000000000E+00 -0.99928599699E+02  0.19036940900E+04  0.19010695577E+04 0.  0.
        5    1    3    3  502    0 -0.43893142784E+03  0.69528846960E+03 -0.52749519110E+03  0.97691356882E+03  0.46999998093E+01 0. -1.
       -5    1    3    3    0  502  0.43893142784E+03 -0.69528846960E+03  0.42756659141E+03  0.92678052115E+03  0.46999998093E+01 0.  1.
</event>
<event>
 5   0  0.6098377E-05  0.1893244E+04  0.7818609E-02  0.8658227E-01
        2   -1    0    0  501    0  0.00000000000E+00  0.00000000000E+00  0.13132593820E+04  0.13132593820E+04  0.25500000920E-02 0. -1.
       -2   -1    0    0    0  501  0.00000000000E+00  0.00000000000E+00 -0.68234290809E+03  0.68234290810E+03  0.25500000920E-02 0.  1.
    10030    2    1    2    0    0  0.00000000000E+00  0.00000000000E+00  0.63091647388E+03  0.19956022901E+04  0.18932440157E+04 0.  0.
        5    1    3    3  502    0  0.69437407892E+03 -0.63733387017E+03  0.40807998179E+03  0.10270838257E+04  0.46999998093E+01 0.  1.
       -5    1    3    3    0  502 -0.69437407892E+03  0.63733387017E+03  0.22283649209E+03  0.96851846433E+03  0.46999998093E+01 0. -1.
</event>
<event>
 5   0  0.6098377E-05  0.1868745E+04  0.7818609E-02  0.8670572E-01
       -2   -1    0    0    0  501  0.00000000000E+00  0.00000000000E+00  0.61052756340E+03  0.61052756340E+03  0.25500000920E-02 0.  1.
        2   -1    0    0  501    0  0.00000000000E+00  0.00000000000E+00 -0.14299955784E+04  0.14299955784E+04  0.25500000920E-02 0. -1.
    10030    2    1    2    0    0  0.00000000000E+00  0.00000000000E+00 -0.81946801503E+03  0.20405231418E+04  0.18687447297E+04 0.  0.
        5    1    3    3  502    0  0.14735762416E+02  0.19380911076E+02  0.61016823717E+03  0.61067186775E+03  0.46999998093E+01 0.  1.
       -5    1    3    3    0  502 -0.14735762416E+02 -0.19380911076E+02 -0.14296362522E+04  0.14298512741E+04  0.46999998093E+01 0. -1.
</event>
<event>
 5   0  0.3147063E-05  0.1901771E+04  0.7818609E-02  0.8653976E-01
        1   -1    0    0  501    0  0.00000000000E+00  0.00000000000E+00  0.14398313129E+04  0.14398313129E+04  0.50400001928E-02 0.  1.
       -1   -1    0    0    0  501  0.00000000000E+00  0.00000000000E+00 -0.62797829714E+03  0.62797829716E+03  0.50400001928E-02 0. -1.
    10030    2    1    2    0    0  0.00000000000E+00  0.00000000000E+00  0.81185301576E+03  0.20678096101E+04  0.19017705604E+04 0.  0.
        5    1    3    3  502    0 -0.50674609963E+03  0.11558352219E+03  0.12716921253E+04  0.13738173502E+04  0.46999998093E+01 0.  1.
       -5    1    3    3    0  502  0.50674609963E+03 -0.11558352219E+03 -0.45983910956E+03  0.69399225987E+03  0.46999998093E+01 0. -1.
</event>
<event>
 5   0  0.6361762E-05  0.1914881E+04  0.7818609E-02  0.8647485E-01
        2   -1    0    0  501    0  0.00000000000E+00  0.00000000000E+00  0.11942901827E+04  0.11942901827E+04  0.25500000920E-02 0. -1.
       -2   -1    0    0    0  501  0.00000000000E+00  0.00000000000E+00 -0.76756209086E+03  0.76756209086E+03  0.25500000920E-02 0.  1.
    10030    2    1    2    0    0  0.00000000000E+00  0.00000000000E+00  0.42672809181E+03  0.19618522735E+04  0.19148805390E+04 0.  0.
        1    1    3    3  502    0 -0.48227162506E+03 -0.82237033812E+03  0.30392330711E+03  0.10006239403E+04  0.50400001928E-02 0. -1.
       -1    1    3    3    0  502  0.48227162506E+03  0.82237033812E+03  0.12280478470E+03  0.96122833319E+03  0.50400001928E-02 0.  1.
</event>
<event>
 5   0  0.3086139E-05  0.1915038E+04  0.7818609E-02  0.8647407E-01
        1   -1    0    0  501    0  0.00000000000E+00  0.00000000000E+00  0.26046537922E+04  0.26046537922E+04  0.50400001928E-02 0. -1.
       -1   -1    0    0    0  501  0.00000000000E+00  0.00000000000E+00 -0.35200162873E+03  0.35200162877E+03  0.50400001928E-02 0.  1.
    10030    2    1    2    0    0  0.00000000000E+00  0.00000000000E+00  0.22526521635E+04  0.29566554210E+04  0.19150377304E+04 0.  0.
        2    1    3    3  502    0  0.63897437509E+03  0.24976208007E+03  0.95049787044E+02  0.69260653382E+03  0.25500000920E-02 0.  1.
       -2    1    3    3    0  502 -0.63897437509E+03 -0.24976208007E+03  0.21576023764E+04  0.22640488871E+04  0.25500000920E-02 0. -1.
</event>
<event>
 5   0  0.3086139E-05  0.1903458E+04  0.7818609E-02  0.8653137E-01
       -1   -1    0    0    0  501  0.00000000000E+00  0.00000000000E+00  0.66190206784E+03  0.66190206786E+03  0.50400001928E-02 0.  1.
        1   -1    0    0  501    0  0.00000000000E+00  0.00000000000E+00 -0.13684627262E+04  0.13684627262E+04  0.50400001928E-02 0. -1.
    10030    2    1    2    0    0  0.00000000000E+00  0.00000000000E+00 -0.70656065833E+03  0.20303647940E+04  0.19034582299E+04 0.  0.
        2    1    3    3  502    0  0.11282192015E+03  0.24412201772E+02 -0.13609680611E+04  0.13658546060E+04  0.25500000920E-02 0. -1.
       -2    1    3    3    0  502 -0.11282192015E+03 -0.24412201772E+02  0.65440740277E+03  0.66451018808E+03  0.25500000920E-02 0.  1.
</event>
<event>
 5   0  0.3083469E-05  0.1899583E+04  0.7818609E-02  0.8655064E-01
       -1   -1    0    0    0  501  0.00000000000E+00  0.00000000000E+00  0.52706185419E+03  0.52706185421E+03  0.50400001928E-02 0. -1.
        1   -1    0    0  501    0  0.00000000000E+00  0.00000000000E+00 -0.17115707247E+04  0.17115707247E+04  0.50400001928E-02 0.  1.
    10030    2    1    2    0    0  0.00000000000E+00  0.00000000000E+00 -0.11845088705E+04  0.22386325789E+04  0.18995827329E+04 0.  0.
        3    1    3    3  502    0  0.30725240400E+03  0.65185424165E+03 -0.13213801642E+04  0.15051124678E+04  0.10100000352E+00 0.  1.
       -3    1    3    3    0  502 -0.30725240400E+03 -0.65185424165E+03  0.13687129373E+03  0.73352011109E+03  0.10100000352E+00 0. -1.
</event>
<event>
 5   0  0.6361762E-05  0.1890381E+04  0.7818609E-02  0.8659659E-01
        2   -1    0    0  501    0  0.00000000000E+00  0.00000000000E+00  0.72700161388E+03  0.72700161388E+03  0.25500000920E-02 0. -1.
       -2   -1    0    0    0  501  0.00000000000E+00  0.00000000000E+00 -0.12288632036E+04  0.12288632036E+04  0.25500000920E-02 0.  1.
    10030    2    1    2    0    0  0.00000000000E+00  0.00000000000E+00 -0.50186158976E+03  0.19558648175E+04  0.18903814771E+04 0.  0.
        1    1    3    3  502    0  0.50676618068E+03 -0.71605632767E+03  0.11316396436E+03  0.88450817358E+03  0.50400001928E-02 0. -1.
       -1    1    3    3    0  502 -0.50676618068E+03  0.71605632767E+03 -0.61502555412E+03  0.10713566439E+04  0.50400001928E-02 0.  1.
</event>
<event>
 5   0  0.3144958E-05  0.1902274E+04  0.7818609E-02  0.8653725E-01
        1   -1    0    0  501    0  0.00000000000E+00  0.00000000000E+00  0.14323895349E+04  0.14323895349E+04  0.50400001928E-02 0. -1.
       -1   -1    0    0    0  501  0.00000000000E+00  0.00000000000E+00 -0.63157542955E+03  0.63157542957E+03  0.50400001928E-02 0.  1.
    10030    2    1    2    0    0  0.00000000000E+00  0.00000000000E+00  0.80081410537E+03  0.20639649645E+04  0.19022744658E+04 0.  0.
        4    1    3    3  502    0  0.94477225574E+03  0.35861601931E+02  0.51305766378E+03  0.10756906846E+04  0.12699999809E+01 0. -1.
       -4    1    3    3    0  502 -0.94477225574E+03 -0.35861601931E+02  0.28775644159E+03  0.98827427989E+03  0.12699999809E+01 0.  1.
</event>
<event>
 5   0  0.3144958E-05  0.1906621E+04  0.7818609E-02  0.8651568E-01
       -1   -1    0    0    0  501  0.00000000000E+00  0.00000000000E+00  0.37558111640E+03  0.37558111643E+03  0.50400001928E-02 0.  1.
        1   -1    0    0  501    0  0.00000000000E+00  0.00000000000E+00 -0.24197186326E+04  0.24197186326E+04  0.50400001928E-02 0. -1.
    10030    2    1    2    0    0  0.00000000000E+00  0.00000000000E+00 -0.20441375162E+04  0.27952997490E+04  0.19066207021E+04 0.  0.
        4    1    3    3  502    0 -0.70100613833E+03 -0.49184702043E+03 -0.16362164714E+04  0.18467617745E+04  0.12699999809E+01 0. -1.
       -4    1    3    3    0  502  0.70100613833E+03  0.49184702043E+03 -0.40792104479E+03  0.94853797455E+03  0.12699999809E+01 0.  1.
</event>
<event>
 5   0  0.3147063E-05  0.1906576E+04  0.7818609E-02  0.8651590E-01
        1   -1    0    0  501    0  0.00000000000E+00  0.00000000000E+00  0.12114453167E+04  0.12114453167E+04  0.50400001928E-02 0.  1.
       -1   -1    0    0    0  501  0.00000000000E+00  0.00000000000E+00 -0.75014389020E+03  0.75014389021E+03  0.50400001928E-02 0. -1.
    10030    2    1    2    0    0  0.00000000000E+00  0.00000000000E+00  0.46130142651E+03  0.19615892069E+04  0.19065763060E+04 0.  0.
        5    1    3    3  502    0  0.36844771671E+03  0.78686198847E+03 -0.17287887593E+03  0.88589768291E+03  0.46999998093E+01 0. -1.
       -5    1    3    3    0  502 -0.36844771671E+03 -0.78686198847E+03  0.63418030244E+03  0.10756915240E+04  0.46999998093E+01 0.  1.
</event>
<event>
 5   0  0.6423388E-05  0.1898194E+04  0.7818609E-02  0.8655756E-01
        2   -1    0    0  501    0  0.00000000000E+00  0.00000000000E+00  0.13149784961E+04  0.13149784961E+04  0.25500000920E-02 0. -1.
       -2   -1    0    0    0  501  0.00000000000E+00  0.00000000000E+00 -0.68501871745E+03  0.68501871746E+03  0.25500000920E-02 0.  1.
    10030    2    1    2    0    0  0.00000000000E+00  0.00000000000E+00  0.62995977860E+03  0.19999972135E+04  0.18981937550E+04 0.  0.
        2    1    3    3  502    0  0.91043822358E+03  0.13518074600E+03  0.55894351489E+03  0.10768423496E+04  0.25500000920E-02 0. -1.
       -2    1    3    3    0  502 -0.91043822358E+03 -0.13518074600E+03  0.71016263711E+02  0.92315486391E+03  0.25500000920E-02 0.  1.
</event>
<event>
 5   0  0.6395992E-05  0.1891478E+04  0.7818609E-02  0.8659110E-01
       -2   -1    0    0    0  501  0.00000000000E+00  0.00000000000E+00  0.10720843188E+04  0.10720843188E+04  0.25500000920E-02 0.  1.
        2   -1    0    0  501    0  0.00000000000E+00  0.00000000000E+00 -0.83428355259E+03  0.83428355259E+03  0.25500000920E-02 0. -1.
    10030    2    1    2    0    0  0.00000000000E+00  0.00000000000E+00  0.23780076626E+03  0.19063678714E+04  0.18914780614E+04 0.  0.
        4    1    3    3  502    0 -0.97796965234E+02 -0.37358115763E+01 -0.82916521612E+03  0.83492201506E+03  0.12699999809E+01 0. -1.
       -4    1    3    3    0  502  0.97796965234E+02  0.37358115763E+01  0.10669659824E+04  0.10714458564E+04  0.12699999809E+01 0.  1.
</event>
<event>
 5   0  0.6098377E-05  0.1969251E+04  0.7818609E-02  0.8621133E-01
        2   -1    0    0  501    0  0.00000000000E+00  0.00000000000E+00  0.23339878845E+04  0.23339878845E+04  0.25500000920E-02 0.  1.
       -2   -1    0    0    0  501  0.00000000000E+00  0.00000000000E+00 -0.41537787141E+03  0.41537787142E+03  0.25500000920E-02 0. -1.
    10030    2    1    2    0    0  0.00000000000E+00  0.00000000000E+00  0.19186100131E+04  0.27493657559E+04  0.19692505370E+04 0.  0.
        5    1    3    3  502    0 -0.67547191872E+03 -0.52951463068E+03  0.16329617764E+04  0.18447857085E+04  0.46999998093E+01 0.  1.
       -5    1    3    3    0  502  0.67547191872E+03  0.52951463068E+03  0.28564823669E+03  0.90458004743E+03  0.46999998093E+01 0. -1.
</event>
<event>
 5   0  0.6452182E-05  0.1894012E+04  0.7818609E-02  0.8657843E-01
       -2   -1    0    0    0  501  0.00000000000E+00  0.00000000000E+00  0.69407260237E+03  0.69407260237E+03  0.25500000920E-02 0.  1.
        2   -1    0    0  501    0  0.00000000000E+00  0.00000000000E+00 -0.12921128712E+04  0.12921128712E+04  0.25500000920E-02 0. -1.
    10030    2    1    2    0    0  0.00000000000E+00  0.00000000000E+00 -0.59804026879E+03  0.19861854735E+04  0.18940117666E+04 0.  0.
        3    1    3    3  502    0 -0.51206324282E+03 -0.66129206622E+03 -0.76482633142E+03  0.11333469411E+04  0.10100000352E+00 0. -1.
       -3    1    3    3    0  502  0.51206324282E+03  0.66129206622E+03  0.16678606263E+03  0.85283853242E+03  0.10100000352E+00 0.  1.
</event>
<event>
 5   0  0.6098377E-05  0.1914074E+04  0.7818609E-02  0.8647882E-01
        2   -1    0    0  501    0  0.00000000000E+00  0.00000000000E+00  0.78562695194E+03  0.78562695194E+03  0.25500000920E-02 0.  1.
       -2   -1    0    0    0  501  0.00000000000E+00  0.00000000000E+00 -0.11658458337E+04  0.11658458337E+04  0.25500000920E-02 0. -1.
    10030    2    1    2    0    0  0.00000000000E+00  0.00000000000E+00 -0.38021888178E+03  0.19514727857E+04  0.19140740934E+04 0.  0.
        5    1    3    3  502    0  0.54023039130E+03  0.13727932461E+03  0.60303887879E+03  0.82120184364E+03  0.46999998093E+01 0.  1.
       -5    1    3    3    0  502 -0.54023039130E+03 -0.13727932461E+03 -0.98325776058E+03  0.11302709420E+04  0.46999998093E+01 0. -1.
</event>
<event>
 5   0  0.6423388E-05  0.1894056E+04  0.7818609E-02  0.8657821E-01
        2   -1    0    0  501    0  0.00000000000E+00  0.00000000000E+00  0.10518074969E+04  0.10518074969E+04  0.25500000920E-02 0.  1.
       -2   -1    0    0    0  501  0.00000000000E+00  0.00000000000E+00 -0.85268658063E+03  0.85268658063E+03  0.25500000920E-02 0. -1.
    10030    2    1    2    0    0  0.00000000000E+00  0.00000000000E+00  0.19912091629E+03  0.19044940776E+04  0.18940561111E+04 0.  0.
        2    1    3    3  502    0  0.82178786135E+03  0.24317994781E+03 -0.30563718500E+03  0.90988233577E+03  0.25500000920E-02 0.  1.
       -2    1    3    3    0  502 -0.82178786135E+03 -0.24317994781E+03  0.50475810129E+03  0.99461174179E+03  0.25500000920E-02 0. -1.
</event>
<event>
 5   0  0.3203527E-05  0.1894209E+04  0.7818609E-02  0.8657744E-01
       -1   -1    0    0    0  501  0.00000000000E+00  0.00000000000E+00  0.47237132129E+03  0.47237132132E+03  0.50400001928E-02 0. -1.
        1   -1    0    0  501    0  0.00000000000E+00  0.00000000000E+00 -0.18989443682E+04  0.18989443682E+04  0.50400001928E-02 0.  1.
    10030    2    1    2    0    0  0.00000000000E+00  0.00000000000E+00 -0.14265730469E+04  0.23713156895E+04  0.18942089223E+04 0.  0.
        1    1    3    3  502    0  0.43468936165E+03 -0.66050582911E+03 -0.13659262333E+04  0.15782830121E+04  0.50400001928E-02 0.  1.
       -1    1    3    3    0  502 -0.43468936165E+03  0.66050582911E+03 -0.60646813589E+02  0.79303267741E+03  0.50400001928E-02 0. -1.
</event>
<event>
 5   0  0.3144958E-05  0.1903147E+04  0.7818609E-02  0.8653291E-01
       -1   -1    0    0    0  501  0.00000000000E+00  0.00000000000E+00  0.51698560396E+03  0.51698560399E+03  0.50400001928E-02 0.  1.
        1   -1    0    0  501    0  0.00000000000E+00  0.00000000000E+00 -0.17514851211E+04  0.17514851211E+04  0.50400001928E-02 0. -1.
    10030    2    1    2    0    0  0.00000000000E+00  0.00000000000E+00 -0.12344995171E+04  0.22684707251E+04  0.19031474911E+04 0.  0.
        4    1    3    3  502    0 -0.75118888866E+02 -0.29414175342E+03  0.45771393776E+03  0.54924118590E+03  0.12699999809E+01 0.  1.
       -4    1    3    3    0  502  0.75118888866E+02  0.29414175342E+03 -0.16922134549E+04  0.17192295392E+04  0.12699999809E+01 0. -1.
</event>
<event>
 5   0  0.6395992E-05  0.1903633E+04  0.7818609E-02  0.8653050E-01
       -2   -1    0    0    0  501  0.00000000000E+00  0.00000000000E+00  0.12272271395E+04  0.12272271395E+04  0.25500000920E-02 0.  1.
        2   -1    0    0  501    0  0.00000000000E+00  0.00000000000E+00 -0.73821247160E+03  0.73821247161E+03  0.25500000920E-02 0. -1.
    10030    2    1    2    0    0  0.00000000000E+00  0.00000000000E+00  0.48901466788E+03  0.19654396111E+04  0.19036327165E+04 0.  0.
        4    1    3    3  502    0 -0.68966043475E+03 -0.63514628470E+03  0.41387753931E+03  0.10248602581E+04  0.12699999809E+01 0.  1.
       -4    1    3    3    0  502  0.68966043475E+03  0.63514628470E+03  0.75137128568E+02  0.94057935296E+03  0.12699999809E+01 0. -1.
</event>
<event>
 5   0  0.6395992E-05  0.1899152E+04  0.7818609E-02  0.8655279E-01
       -2   -1    0    0    0  501  0.00000000000E+00  0.00000000000E+00  0.81886994046E+03  0.81886994047E+03  0.25500000920E-02 0. -1.
        2   -1    0    0  501    0  0.00000000000E+00  0.00000000000E+00 -0.11011446677E+04  0.11011446677E+04  0.25500000920E-02 0.  1.
    10030    2    1    2    0    0  0.00000000000E+00  0.00000000000E+00 -0.28227472723E+03  0.19200146082E+04  0.18991516722E+04 0.  0.
        4    1    3    3  502    0  0.44317978439E+03  0.80805243861E+02  0.70396107522E+03  0.83576349349E+03  0.12699999809E+01 0. -1.
       -4    1    3    3    0  502 -0.44317978439E+03 -0.80805243861E+02 -0.98623580245E+03  0.10842511147E+04  0.12699999809E+01 0.  1.
</event>
<event>
 5   0  0.3086139E-05  0.1878866E+04  0.7818609E-02  0.8665448E-01
       -1   -1    0    0    0  501  0.00000000000E+00  0.00000000000E+00  0.61347934992E+03  0.61347934994E+03  0.50400001928E-02 0. -1.
        1   -1    0    0  501    0  0.00000000000E+00  0.00000000000E+00 -0.14385718272E+04  0.14385718272E+04  0.50400001928E-02 0.  1.
    10030    2    1    2    0    0  0.00000000000E+00  0.00000000000E+00 -0.82509247730E+03  0.20520511772E+04  0.18788657317E+04 0.  0.
        2    1    3    3  502    0  0.37267775580E+03  0.20633322721E+03 -0.13270252728E+04  0.13937209853E+04  0.25500000920E-02 0.  1.
       -2    1    3    3    0  502 -0.37267775580E+03 -0.20633322721E+03  0.50193279549E+03  0.65833019185E+03  0.25500000920E-02 0. -1.
</event>
<event>
 5   0  0.3086139E-05  0.1901123E+04  0.7818609E-02  0.8654298E-01
       -1   -1    0    0    0  501  0.00000000000E+00  0.00000000000E+00  0.18956255248E+04  0.18956255248E+04  0.50400001928E-02 0. -1.
        1   -1    0    0  501    0  0.00000000000E+00  0.00000000000E+00 -0.47665898687E+03  0.47665898690E+03  0.50400001928E-02 0.  1.
    10030    2    1    2    0    0  0.00000000000E+00  0.00000000000E+00  0.14189665379E+04  0.23722845117E+04  0.19011227653E+04 0.  0.
        2    1    3    3  502    0  0.41117696655E+03  0.22380614416E+03  0.17418052675E+04  0.18036189393E+04  0.25500000920E-02 0. -1.
       -2    1    3    3    0  502 -0.41117696655E+03 -0.22380614416E+03 -0.32283872960E+03  0.56866557247E+03  0.25500000920E-02 0.  1.
</event>
<event>
 5   0  0.6423388E-05  0.1909216E+04  0.7818609E-02  0.8650283E-01
        2   -1    0    0  501    0  0.00000000000E+00  0.00000000000E+00  0.17469189163E+04  0.17469189163E+04  0.25500000920E-02 0.  1.
       -2   -1    0    0    0  501  0.00000000000E+00  0.00000000000E+00 -0.52164764613E+03  0.52164764614E+03  0.25500000920E-02 0. -1.
    10030    2    1    2    0    0  0.00000000000E+00  0.00000000000E+00  0.12252712702E+04  0.22685665624E+04  0.19092156931E+04 0.  0.
        2    1    3    3  502    0  0.87828997359E+03 -0.14277021671E+03  0.20188369222E+03  0.91243281269E+03  0.25500000920E-02 0.  1.
       -2    1    3    3    0  502 -0.87828997359E+03  0.14277021671E+03  0.10233875779E+04  0.13561337497E+04  0.25500000920E-02 0. -1.
</event>
<event>
 5   0  0.6452182E-05  0.1900619E+04  0.7818609E-02  0.8654548E-01
       -2   -1    0    0    0  501  0.00000000000E+00  0.00000000000E+00  0.97665315467E+03  0.97665315468E+03  0.25500000920E-02 0. -1.
        2   -1    0    0  501    0  0.00000000000E+00  0.00000000000E+00 -0.92467672608E+03  0.92467672608E+03  0.25500000920E-02 0.  1.
    10030    2    1    2    0    0  0.00000000000E+00  0.00000000000E+00  0.51976428594E+02  0.19013298808E+04  0.19006193113E+04 0.  0.
        3    1    3    3  502    0  0.66181665992E+03 -0.35112265922E+03 -0.55886701405E+03  0.93467682263E+03  0.10100000352E+00 0.  1.
       -3    1    3    3    0  502 -0.66181665992E+03  0.35112265922E+03  0.61084344264E+03  0.96665305813E+03  0.10100000352E+00 0. -1.
</event>
<event>
 5   0  0.6423388E-05  0.1900411E+04  0.7818609E-02  0.8654652E-01
        2   -1    0    0  501    0  0.00000000000E+00  0.00000000000E+00  0.87154333867E+03  0.87154333867E+03  0.25500000920E-02 0. -1.
       -2   -1    0    0    0  501  0.00000000000E+00  0.00000000000E+00 -0.10359671759E+04  0.10359671759E+04  0.25500000920E-02 0.  1.
    10030    2    1    2    0    0  0.00000000000E+00  0.00000000000E+00 -0.16442383722E+03  0.19075105146E+04  0.19004107885E+04 0.  0.
        2    1    3    3  502    0  0.42855748094E+03  0.17818585680E+03 -0.91445278593E+03  0.10254928628E+04  0.25500000920E-02 0.  1.
       -2    1    3    3    0  502 -0.42855748094E+03 -0.17818585680E+03  0.75002894871E+03  0.88201765172E+03  0.25500000920E-02 0. -1.
</event>
<event>
 5   0  0.6361762E-05  0.1976518E+04  0.7818609E-02  0.8617679E-01
        2   -1    0    0  501    0  0.00000000000E+00  0.00000000000E+00  0.79435110266E+03  0.79435110267E+03  0.25500000920E-02 0. -1.
       -2   -1    0    0    0  501  0.00000000000E+00  0.00000000000E+00 -0.12295015791E+04  0.12295015791E+04  0.25500000920E-02 0.  1.
    10030    2    1    2    0    0  0.00000000000E+00  0.00000000000E+00 -0.43515047648E+03  0.20238526818E+04  0.19765180850E+04 0.  0.
        1    1    3    3  502    0  0.48776326616E+03 -0.75128120332E+03 -0.64508995651E+03  0.11038466842E+04  0.50400001928E-02 0.  1.
       -1    1    3    3    0  502 -0.48776326616E+03  0.75128120332E+03  0.20993948003E+03  0.92000599758E+03  0.50400001928E-02 0. -1.
</event>
<event>
 5   0  0.3147063E-05  0.1918493E+04  0.7818609E-02  0.8645705E-01
       -1   -1    0    0    0  501  0.00000000000E+00  0.00000000000E+00  0.90884527992E+03  0.90884527994E+03  0.50400001928E-02 0. -1.
        1   -1    0    0  501    0  0.00000000000E+00  0.00000000000E+00 -0.10124430379E+04  0.10124430379E+04  0.50400001928E-02 0.  1.
    10030    2    1    2    0    0  0.00000000000E+00  0.00000000000E+00 -0.10359775800E+03  0.19212883179E+04  0.19184932382E+04 0.  0.
        5    1    3    3  502    0 -0.27286360419E+03 -0.60747264350E+03  0.63960861873E+03  0.92336278583E+03  0.46999998093E+01 0. -1.
       -5    1    3    3    0  502  0.27286360419E+03  0.60747264350E+03 -0.74320637673E+03  0.99792553205E+03  0.46999998093E+01 0.  1.
</event>
<event>
 5   0  0.6098377E-05  0.1894692E+04  0.7818609E-02  0.8657503E-01
        2   -1    0    0  501    0  0.00000000000E+00  0.00000000000E+00  0.86251944964E+03  0.86251944965E+03  0.25500000920E-02 0.  1.
       -2   -1    0    0    0  501  0.00000000000E+00  0.00000000000E+00 -0.10405153464E+04  0.10405153464E+04  0.25500000920E-02 0. -1.
    10030    2    1    2    0    0  0.00000000000E+00  0.00000000000E+00 -0.17799589672E+03  0.19030347960E+04  0.18946922958E+04 0.  0.
        5    1    3    3  502    0  0.39289357112E+03  0.83640627809E+03  0.12049129194E+03  0.93192331320E+03  0.46999998093E+01 0.  1.
       -5    1    3    3    0  502 -0.39289357112E+03 -0.83640627809E+03 -0.29848718866E+03  0.97111148281E+03  0.46999998093E+01 0. -1.
</event>
<event>
 5   0  0.6395992E-05  0.1910582E+04  0.7818609E-02  0.8649607E-01
       -2   -1    0    0    0  501  0.00000000000E+00  0.00000000000E+00  0.65956198925E+03  0.65956198926E+03  0.25500000920E-02 0.  1.
        2   -1    0    0  501    0  0.00000000000E+00  0.00000000000E+00 -0.13836168167E+04  0.13836168167E+04  0.25500000920E-02 0. -1.
    10030    2    1    2    0    0  0.00000000000E+00  0.00000000000E+00 -0.72405482745E+03  0.20431788060E+04  0.19105821731E+04 0.  0.
        4    1    3    3  502    0 -0.56602256759E+02 -0.50062927517E+03  0.50593243675E+03  0.71400471292E+03  0.12699999809E+01 0.  1.
       -4    1    3    3    0  502  0.56602256759E+02  0.50062927517E+03 -0.12299872642E+04  0.13291740930E+04  0.12699999809E+01 0. -1.
</event>
<event>
 5   0  0.6423388E-05  0.1900737E+04  0.7818609E-02  0.8654490E-01
       -2   -1    0    0    0  501  0.00000000000E+00  0.00000000000E+00  0.44245776767E+03  0.44245776767E+03  0.25500000920E-02 0. -1.
        2   -1    0    0  501    0  0.00000000000E+00  0.00000000000E+00 -0.20413245078E+04  0.20413245078E+04  0.25500000920E-02 0.  1.
    10030    2    1    2    0    0  0.00000000000E+00  0.00000000000E+00 -0.15988667402E+04  0.24837822755E+04  0.19007365781E+04 0.  0.
        2    1    3    3  502    0  0.32212576201E+03  0.39301272960E+03 -0.18488871728E+04  0.19174482496E+04  0.25500000920E-02 0.  1.
       -2    1    3    3    0  502 -0.32212576201E+03 -0.39301272960E+03  0.25002043261E+03  0.56633402592E+03  0.25500000920E-02 0. -1.
</event>
<event>
 5   0  0.3147063E-05  0.1904925E+04  0.7818609E-02  0.8652409E-01
       -1   -1    0    0    0  501  0.00000000000E+00  0.00000000000E+00  0.79339578202E+03  0.79339578204E+03  0.50400001928E-02 0.  1.
        1   -1    0    0  501    0  0.00000000000E+00  0.00000000000E+00 -0.11434208175E+04  0.11434208175E+04  0.50400001928E-02 0. -1.
    10030    2    1    2    0    0  0.00000000000E+00  0.00000000000E+00 -0.35002503551E+03  0.19368165996E+04  0.19049254618E+04 0.  0.
        5    1    3    3  502    0 -0.52251027116E+03  0.67798518050E+03  0.24969130472E+03  0.89165504883E+03  0.46999998093E+01 0.  1.
       -5    1    3    3    0  502  0.52251027116E+03 -0.67798518050E+03 -0.59971634023E+03  0.10451615508E+04  0.46999998093E+01 0. -1.
</event>
<event>
 5   0  0.3147063E-05  0.1902011E+04  0.7818609E-02  0.8653856E-01
       -1   -1    0    0    0  501  0.00000000000E+00  0.00000000000E+00  0.44677825555E+03  0.44677825558E+03  0.50400001928E-02 0.  1.
        1   -1    0    0  501    0  0.00000000000E+00  0.00000000000E+00 -0.20242963730E+04  0.20242963730E+04  0.50400001928E-02 0. -1.
    10030    2    1    2    0    0  0.00000000000E+00  0.00000000000E+00 -0.15775181174E+04  0.24710746286E+04  0.19020111485E+04 0.  0.
        5    1    3    3  502    0  0.34817620588E+03  0.62676785954E+03  0.22922964814E+02  0.71736474154E+03  0.46999998093E+01 0.  1.
       -5    1    3    3    0  502 -0.34817620588E+03 -0.62676785954E+03 -0.16004410823E+04  0.17537098870E+04  0.46999998093E+01 0. -1.
</event>
<event>
 5   0  0.6361762E-05  0.1897568E+04  0.7818609E-02  0.8656068E-01
       -2   -1    0    0    0  501  0.00000000000E+00  0.00000000000E+00  0.99355785591E+03  0.99355785591E+03  0.25500000920E-02 0.  1.
        2   -1    0    0  501    0  0.00000000000E+00  0.00000000000E+00 -0.90602741322E+03  0.90602741323E+03  0.25500000920E-02 0. -1.
    10030    2    1    2    0    0  0.00000000000E+00  0.00000000000E+00  0.87530442687E+02  0.18995852691E+04  0.18975675525E+04 0.  0.
        1    1    3    3  502    0 -0.15882960282E+03 -0.10638165293E+03 -0.88654891539E+03  0.90692495732E+03  0.50400001928E-02 0. -1.
       -1    1    3    3    0  502  0.15882960282E+03  0.10638165293E+03  0.97407935807E+03  0.99266031182E+03  0.50400001928E-02 0.  1.
</event>
<event>
 5   0  0.6098377E-05  0.1894840E+04  0.7818609E-02  0.8657429E-01
       -2   -1    0    0    0  501  0.00000000000E+00  0.00000000000E+00  0.18487901890E+04  0.18487901890E+04  0.25500000920E-02 0. -1.
        2   -1    0    0  501    0  0.00000000000E+00  0.00000000000E+00 -0.48550918508E+03  0.48550918509E+03  0.25500000920E-02 0.  1.
    10030    2    1    2    0    0  0.00000000000E+00  0.00000000000E+00  0.13632810039E+04  0.23342993741E+04  0.18948399596E+04 0.  0.
        5    1    3    3  502    0  0.92933551658E+03  0.18325616282E+03  0.70419529927E+03  0.11803221734E+04  0.46999998093E+01 0. -1.
       -5    1    3    3    0  502 -0.92933551658E+03 -0.18325616282E+03  0.65908570468E+03  0.11539772007E+04  0.46999998093E+01 0.  1.
</event>
<event>
 5   0  0.6098377E-05  0.1905437E+04  0.7818609E-02  0.8652155E-01
       -2   -1    0    0    0  501  0.00000000000E+00  0.00000000000E+00  0.59928382340E+03  0.59928382341E+03  0.25500000920E-02 0.  1.
        2   -1    0    0  501    0  0.00000000000E+00  0.00000000000E+00 -0.15145960622E+04  0.15145960622E+04  0.25500000920E-02 0. -1.
    10030    2    1    2    0    0  0.00000000000E+00  0.00000000000E+00 -0.91531223875E+03  0.21138798856E+04  0.19054373976E+04 0.  0.
        5    1    3    3  502    0 -0.67149523081E+03 -0.41152568632E+03 -0.10523899614E+04  0.13144603289E+04  0.46999998093E+01 0. -1.
       -5    1    3    3    0  502  0.67149523081E+03  0.41152568632E+03  0.13707772263E+03  0.79941955664E+03  0.46999998093E+01 0.  1.
</event>
<event>
 5   0  0.3144958E-05  0.1896947E+04  0.7818609E-02  0.8656377E-01
        1   -1    0    0  501    0  0.00000000000E+00  0.00000000000E+00  0.10401626624E+04  0.10401626624E+04  0.50400001928E-02 0. -1.
       -1   -1    0    0    0  501  0.00000000000E+00  0.00000000000E+00 -0.86486697683E+03  0.86486697685E+03  0.50400001928E-02 0.  1.
    10030    2    1    2    0    0  0.00000000000E+00  0.00000000000E+00  0.17529568559E+03  0.19050296393E+04  0.18969473765E+04 0.  0.
        4    1    3    3  502    0  0.15968435656E+03 -0.40561394188E+03  0.93360198021E+03  0.10303572361E+04  0.12699999809E+01 0. -1.
       -4    1    3    3    0  502 -0.15968435656E+03  0.40561394188E+03 -0.75830629462E+03  0.87467240321E+03  0.12699999809E+01 0.  1.
</event>
<event>
 5   0  0.3144958E-05  0.1893408E+04  0.7818609E-02  0.8658145E-01
       -1   -1    0    0    0  501  0.00000000000E+00  0.00000000000E+00  0.67862122301E+03  0.67862122303E+03  0.50400001928E-02 0. -1.
        1   -1    0    0  501    0  0.00000000000E+00  0.00000000000E+00 -0.13206903718E+04  0.13206903718E+04  0.50400001928E-02 0.  1.
    10030    2    1    2    0    0  0.00000000000E+00  0.00000000000E+00 -0.64206914879E+03  0.19993115949E+04  0.18934080547E+04 0.  0.
        4    1    3    3  502    0  0.52941543877E+03 -0.76216874343E+03 -0.51876486269E+03  0.10631559133E+04  0.12699999809E+01 0.  1.
       -4    1    3    3    0  502 -0.52941543877E+03  0.76216874343E+03 -0.12330428610E+03  0.93615568157E+03  0.12699999809E+01 0. -1.
</event>
<event>
 5   0  0.3086139E-05  0.1900340E+04  0.7818609E-02  0.8654687E-01
       -1   -1    0    0    0  501  0.00000000000E+00  0.00000000000E+00  0.49640414211E+03  0.49640414214E+03  0.50400001928E-02 0.  1.
        1   -1    0    0  501    0  0.00000000000E+00  0.00000000000E+00 -0.18187264122E+04  0.18187264122E+04  0.50400001928E-02 0. -1.
    10030    2    1    2    0    0  0.00000000000E+00  0.00000000000E+00 -0.13223222701E+04  0.23151305544E+04  0.19003403110E+04 0.  0.
        2    1    3    3  502    0 -0.92752749112E+03  0.17252064071E+03 -0.52358431008E+03  0.10789861667E+04  0.25500000920E-02 0.  1.
       -2    1    3    3    0  502  0.92752749112E+03 -0.17252064071E+03 -0.79873796004E+03  0.12361443876E+04  0.25500000920E-02 0. -1.
</event>
<event>
 5   0  0.6361762E-05  0.1901361E+04  0.7818609E-02  0.8654179E-01
       -2   -1    0    0    0  501  0.00000000000E+00  0.00000000000E+00  0.10211136620E+04  0.10211136620E+04  0.25500000920E-02 0. -1.
        2   -1    0    0  501    0  0.00000000000E+00  0.00000000000E+00 -0.88510513495E+03  0.88510513495E+03  0.25500000920E-02 0.  1.
    10030    2    1    2    0    0  0.00000000000E+00  0.00000000000E+00  0.13600852706E+03  0.19062187970E+04  0.19013605083E+04 0.  0.
        1    1    3    3  502    0 -0.63678255260E+03 -0.49211345137E+03 -0.43937708601E+03  0.91690778820E+03  0.50400001928E-02 0.  1.
       -1    1    3    3    0  502  0.63678255260E+03  0.49211345137E+03  0.57538561307E+03  0.98931100877E+03  0.50400001928E-02 0. -1.
</event>
<event>
 5   0  0.6098377E-05  0.1901250E+04  0.7818609E-02  0.8654234E-01
       -2   -1    0    0    0  501  0.00000000000E+00  0.00000000000E+00  0.14000570447E+04  0.14000570447E+04  0.25500000920E-02 0.  1.
        2   -1    0    0  501    0  0.00000000000E+00  0.00000000000E+00 -0.64546507470E+03  0.64546507470E+03  0.25500000920E-02 0. -1.
    10030    2    1    2    0    0  0.00000000000E+00  0.00000000000E+00  0.75459197001E+03  0.20455221194E+04  0.19012500361E+04 0.  0.
        5    1    3    3  502    0 -0.27910409995E+03 -0.68062073810E+02  0.13522228527E+04  0.13824110379E+04  0.46999998093E+01 0.  1.
       -5    1    3    3    0  502  0.27910409995E+03  0.68062073810E+02 -0.59763088265E+03  0.66311108150E+03  0.46999998093E+01 0. -1.
</event>
<event>
 5   0  0.6452182E-05  0.1896223E+04  0.7818609E-02  0.8656739E-01
        2   -1    0    0  501    0  0.00000000000E+00  0.00000000000E+00  0.19921334108E+04  0.19921334108E+04  0.25500000920E-02 0. -1.
       -2   -1    0    0    0  501  0.00000000000E+00  0.00000000000E+00 -0.45123256669E+03  0.45123256670E+03  0.25500000920E-02 0.  1.
    10030    2    1    2    0    0  0.00000000000E+00  0.00000000000E+00  0.15409008441E+04  0.24433659775E+04  0.18962230588E+04 0.  0.
        3    1    3    3  502    0  0.84980557321E+03  0.36512681214E+03  0.10389760973E+04  0.13910278365E+04  0.10100000352E+00 0.  1.
       -3    1    3    3    0  502 -0.84980557321E+03 -0.36512681214E+03  0.50192474687E+03  0.10523381410E+04  0.10100000352E+00 0. -1.
</event>
<event>
 5   0  0.3144958E-05  0.1897082E+04  0.7818609E-02  0.8656310E-01
        1   -1    0    0  501    0  0.00000000000E+00  0.00000000000E+00  0.87576759265E+03  0.87576759267E+03  0.50400001928E-02 0. -1.
       -1   -1    0    0    0  501  0.00000000000E+00  0.00000000000E+00 -0.10273620542E+04  0.10273620542E+04  0.50400001928E-02 0.  1.
    10030    2    1    2    0    0  0.00000000000E+00  0.00000000000E+00 -0.15159446150E+03  0.19031296468E+04  0.18970823841E+04 0.  0.
        4    1    3    3  502    0  0.14816872084E+03 -0.57448922614E+03 -0.81824891840E+03  0.10107050738E+04  0.12699999809E+01 0.  1.
       -4    1    3    3    0  502 -0.14816872084E+03  0.57448922614E+03  0.66665445690E+03  0.89242457306E+03  0.12699999809E+01 0. -1.
</event>
<event>
 5   0  0.6361762E-05  0.1987587E+04  0.7818609E-02  0.8612446E-01
       -2   -1    0    0    0  501  0.00000000000E+00  0.00000000000E+00  0.90595205353E+03  0.90595205354E+03  0.25500000920E-02 0. -1.
        2   -1    0    0  501    0  0.00000000000E+00  0.00000000000E+00 -0.10901523667E+04  0.10901523667E+04  0.25500000920E-02 0.  1.
    10030    2    1    2    0    0  0.00000000000E+00  0.00000000000E+00 -0.18420031314E+03  0.19961044202E+04  0.19875872562E+04 0.  0.
        1    1    3    3  502    0 -0.46402986720E+03 -0.74315451256E+03  0.37897642651E+03  0.95458131087E+03  0.50400001928E-02 0. -1.
       -1    1    3    3    0  502  0.46402986720E+03  0.74315451256E+03 -0.56317673964E+03  0.10415231093E+04  0.50400001928E-02 0.  1.
</event>
<event>
 5   0  0.3144958E-05  0.1898078E+04  0.7818609E-02  0.8655814E-01
        1   -1    0    0  501    0  0.00000000000E+00  0.00000000000E+00  0.13235745468E+04  0.13235745468E+04  0.50400001928E-02 0.  1.
       -1   -1    0    0    0  501  0.00000000000E+00  0.00000000000E+00 -0.68048655396E+03  0.68048655398E+03  0.50400001928E-02 0. -1.
    10030    2    1    2    0    0  0.00000000000E+00  0.00000000000E+00  0.64308799280E+03  0.20040611007E+04  0.18980776404E+04 0.  0.
        4    1    3    3  502    0 -0.10434386421E+03  0.92225135439E+03  0.53069005222E+03  0.10691439319E+04  0.12699999809E+01 0.  1.
       -4    1    3    3    0  502  0.10434386421E+03 -0.92225135439E+03  0.11239794058E+03  0.93491716885E+03  0.12699999809E+01 0. -1.
</event>
<event>
 5   0  0.6452182E-05  0.1892769E+04  0.7818609E-02  0.8658464E-01
       -2   -1    0    0    0  501  0.00000000000E+00  0.00000000000E+00  0.11166937962E+04  0.11166937962E+04  0.25500000920E-02 0.  1.
        2   -1    0    0  501    0  0.00000000000E+00  0.00000000000E+00 -0.80204967722E+03  0.80204967722E+03  0.25500000920E-02 0. -1.
    10030    2    1    2    0    0  0.00000000000E+00  0.00000000000E+00  0.31464411901E+03  0.19187434735E+04  0.18927692927E+04 0.  0.
        3    1    3    3  502    0 -0.52388009394E+03 -0.73479431825E+03 -0.13167047472E+03  0.91198145106E+03  0.10100000352E+00 0.  1.
       -3    1    3    3    0  502  0.52388009394E+03  0.73479431825E+03  0.44631459373E+03  0.10067620224E+04  0.10100000352E+00 0. -1.
</event>
<event>
 5   0  0.6395992E-05  0.1920356E+04  0.7818609E-02  0.8644790E-01
       -2   -1    0    0    0  501  0.00000000000E+00  0.00000000000E+00  0.80275327194E+03  0.80275327195E+03  0.25500000920E-02 0. -1.
        2   -1    0    0  501    0  0.00000000000E+00  0.00000000000E+00 -0.11484748095E+04  0.11484748095E+04  0.25500000920E-02 0.  1.
    10030    2    1    2    0    0  0.00000000000E+00  0.00000000000E+00 -0.34572153756E+03  0.19512280815E+04  0.19203561243E+04 0.  0.
        4    1    3    3  502    0 -0.49335875085E+03  0.13497135605E+03  0.65280360502E+03  0.82932158034E+03  0.12699999809E+01 0. -1.
       -4    1    3    3    0  502  0.49335875085E+03 -0.13497135605E+03 -0.99852514258E+03  0.11219065011E+04  0.12699999809E+01 0.  1.
</event>
<event>
 5   0  0.3203527E-05  0.1864436E+04  0.7818609E-02  0.8672764E-01
       -1   -1    0    0    0  501  0.00000000000E+00  0.00000000000E+00  0.36836514517E+03  0.36836514521E+03  0.50400001928E-02 0.  1.
        1   -1    0    0  501    0  0.00000000000E+00  0.00000000000E+00 -0.23591538055E+04  0.23591538055E+04  0.50400001928E-02 0. -1.
    10030    2    1    2    0    0  0.00000000000E+00  0.00000000000E+00 -0.19907886603E+04  0.27275189507E+04  0.18644356080E+04 0.  0.
        1    1    3    3  502    0 -0.37717070014E+03 -0.41364532637E+03 -0.20859021923E+04  0.21597102002E+04  0.50400001928E-02 0. -1.
       -1    1    3    3    0  502  0.37717070014E+03  0.41364532637E+03  0.95113532025E+02  0.56780875044E+03  0.50400001928E-02 0.  1.
</event>
<event>
 5   0  0.6361762E-05  0.1906154E+04  0.7818609E-02  0.8651799E-01
        2   -1    0    0  501    0  0.00000000000E+00  0.00000000000E+00  0.11563998519E+04  0.11563998519E+04  0.25500000920E-02 0. -1.
       -2   -1    0    0    0  501  0.00000000000E+00  0.00000000000E+00 -0.78550282877E+03  0.78550282878E+03  0.25500000920E-02 0.  1.
    10030    2    1    2    0    0  0.00000000000E+00  0.00000000000E+00  0.37089702315E+03  0.19419026807E+04  0.19061535666E+04 0.  0.
        1    1    3    3  502    0 -0.80200794384E+03  0.12662003303E+03 -0.32301717704E+03  0.87383606668E+03  0.50400001928E-02 0.  1.
       -1    1    3    3    0  502  0.80200794384E+03 -0.12662003303E+03  0.69391420019E+03  0.10680666140E+04  0.50400001928E-02 0. -1.
</event>
<event>
 5   0  0.3147063E-05  0.1891620E+04  0.7818609E-02  0.8659039E-01
        1   -1    0    0  501    0  0.00000000000E+00  0.00000000000E+00  0.19033820181E+04  0.19033820181E+04  0.50400001928E-02 0.  1.
       -1   -1    0    0    0  501  0.00000000000E+00  0.00000000000E+00 -0.46998245309E+03  0.46998245312E+03  0.50400001928E-02 0. -1.
    10030    2    1    2    0    0  0.00000000000E+00  0.00000000000E+00  0.14333995650E+04  0.23733644712E+04  0.18916195707E+04 0.  0.
        5    1    3    3  502    0 -0.27521106010E+03 -0.59741361068E+03 -0.13600731118E+03  0.67168759742E+03  0.46999998093E+01 0. -1.
       -5    1    3    3    0  502  0.27521106010E+03  0.59741361068E+03  0.15694068762E+04  0.17016768738E+04  0.46999998093E+01 0.  1.
</event>
<event>
 5   0  0.3147063E-05  0.1904424E+04  0.7818609E-02  0.8652658E-01
       -1   -1    0    0    0  501  0.00000000000E+00  0.00000000000E+00  0.92674168636E+03  0.92674168637E+03  0.50400001928E-02 0.  1.
        1   -1    0    0  501    0  0.00000000000E+00  0.00000000000E+00 -0.97838184159E+03  0.97838184160E+03  0.50400001928E-02 0. -1.
    10030    2    1    2    0    0  0.00000000000E+00  0.00000000000E+00 -0.51640155230E+02  0.19051235280E+04  0.19044235220E+04 0.  0.
        5    1    3    3  502    0  0.41104314718E+03  0.67418696224E+03 -0.55818165436E+03  0.96699192248E+03  0.46999998093E+01 0. -1.
       -5    1    3    3    0  502 -0.41104314718E+03 -0.67418696224E+03  0.50654149913E+03  0.93813160549E+03  0.46999998093E+01 0.  1.
</event>
<event>
 5   0  0.3203527E-05  0.1887195E+04  0.7818609E-02  0.8661256E-01
        1   -1    0    0  501    0  0.00000000000E+00  0.00000000000E+00  0.21436405558E+04  0.21436405558E+04  0.50400001928E-02 0. -1.
       -1   -1    0    0    0  501  0.00000000000E+00  0.00000000000E+00 -0.41535726657E+03  0.41535726660E+03  0.50400001928E-02 0.  1.
    10030    2    1    2    0    0  0.00000000000E+00  0.00000000000E+00  0.17282832892E+04  0.25589978224E+04  0.18871954661E+04 0.  0.
        1    1    3    3  502    0  0.30601968659E+03 -0.72315629101E+03  0.15736358041E+04  0.17586735666E+04  0.50400001928E-02 0. -1.
       -1    1    3    3    0  502 -0.30601968659E+03  0.72315629101E+03  0.15464748515E+03  0.80032425584E+03  0.50400001928E-02 0.  1.
</event>
<event>
 5   0  0.3083469E-05  0.1900502E+04  0.7818609E-02  0.8654607E-01
        1   -1    0    0  501    0  0.00000000000E+00  0.00000000000E+00  0.18401689861E+04  0.18401689861E+04  0.50400001928E-02 0. -1.
       -1   -1    0    0    0  501  0.00000000000E+00  0.00000000000E+00 -0.49070331830E+03  0.49070331833E+03  0.50400001928E-02 0.  1.
    10030    2    1    2    0    0  0.00000000000E+00  0.00000000000E+00  0.13494656678E+04  0.23308723044E+04  0.19005020681E+04 0.  0.
        3    1    3    3  502    0 -0.36701614880E+02 -0.23133547466E+03 -0.45474373901E+03  0.51152222702E+03  0.10100000352E+00 0.  1.
       -3    1    3    3    0  502  0.36701614880E+02  0.23133547466E+03  0.18042094068E+04  0.18193500774E+04  0.10100000352E+00 0. -1.
</event>
<event>
 5   0  0.3083469E-05  0.1899668E+04  0.7818609E-02  0.8655021E-01
       -1   -1    0    0    0  501  0.00000000000E+00  0.00000000000E+00  0.61505380770E+03  0.61505380772E+03  0.50400001928E-02 0.  1.
        1   -1    0    0  501    0  0.00000000000E+00  0.00000000000E+00 -0.14668392124E+04  0.14668392124E+04  0.50400001928E-02 0. -1.
    10030    2    1    2    0    0  0.00000000000E+00  0.00000000000E+00 -0.85178540471E+03  0.20818930201E+04  0.18996684373E+04 0.  0.
        3    1    3    3  502    0  0.37611641766E+03 -0.53426221812E+02 -0.13799558760E+04  0.14312917769E+04  0.10100000352E+00 0. -1.
       -3    1    3    3    0  502 -0.37611641766E+03  0.53426221812E+02  0.52817047125E+03  0.65060124325E+03  0.10100000352E+00 0.  1.
</event>
<event>
 5   0  0.3144958E-05  0.1839798E+04  0.7818609E-02  0.8685417E-01
       -1   -1    0    0    0  501  0.00000000000E+00  0.00000000000E+00  0.70289583858E+03  0.70289583860E+03  0.50400001928E-02 0.  1.
        1   -1    0    0  501    0  0.00000000000E+00  0.00000000000E+00 -0.12038973343E+04  0.12038973343E+04  0.50400001928E-02 0. -1.
    10030    2    1    2    0    0  0.00000000000E+00  0.00000000000E+00 -0.50100149575E+03  0.19067931729E+04  0.18397982785E+04 0.  0.
        4    1    3    3  502    0  0.84181831840E+03 -0.27162676447E+03  0.11229526046E+02  0.88462811143E+03  0.12699999809E+01 0.  1.
       -4    1    3    3    0  502 -0.84181831840E+03  0.27162676447E+03 -0.51223102179E+03  0.10221650615E+04  0.12699999809E+01 0. -1.
</event>
<event>
 5   0  0.3083469E-05  0.1921726E+04  0.7818609E-02  0.8644117E-01
       -1   -1    0    0    0  501  0.00000000000E+00  0.00000000000E+00  0.10103645824E+04  0.10103645824E+04  0.50400001928E-02 0.  1.
        1   -1    0    0  501    0  0.00000000000E+00  0.00000000000E+00 -0.91378646834E+03  0.91378646836E+03  0.50400001928E-02 0. -1.
    10030    2    1    2    0    0  0.00000000000E+00  0.00000000000E+00  0.96578114030E+02  0.19241510507E+04  0.19217257697E+04 0.  0.
        3    1    3    3  502    0 -0.22705446798E+03 -0.55996441860E+03  0.79632199199E+03  0.99962123160E+03  0.10100000352E+00 0.  1.
       -3    1    3    3    0  502  0.22705446798E+03  0.55996441860E+03 -0.69974387796E+03  0.92452981914E+03  0.10100000352E+00 0. -1.
</event>
<event>
 5   0  0.3203527E-05  0.1899086E+04  0.7818609E-02  0.8655312E-01
        1   -1    0    0  501    0  0.00000000000E+00  0.00000000000E+00  0.24008380269E+04  0.24008380269E+04  0.50400001928E-02 0. -1.
       -1   -1    0    0    0  501  0.00000000000E+00  0.00000000000E+00 -0.37554873948E+03  0.37554873951E+03  0.50400001928E-02 0.  1.
    10030    2    1    2    0    0  0.00000000000E+00  0.00000000000E+00  0.20252892874E+04  0.27763867664E+04  0.18990857745E+04 0.  0.
        1    1    3    3  502    0  0.87017463964E+03  0.19691142599E+03  0.53744325351E+03  0.10415484933E+04  0.50400001928E-02 0. -1.
       -1    1    3    3    0  502 -0.87017463964E+03 -0.19691142599E+03  0.14878460339E+04  0.17348382731E+04  0.50400001928E-02 0.  1.
</event>
<event>
 5   0  0.3147063E-05  0.1888126E+04  0.7818609E-02  0.8660790E-01
        1   -1    0    0  501    0  0.00000000000E+00  0.00000000000E+00  0.29558833404E+04  0.29558833404E+04  0.50400001928E-02 0. -1.
       -1   -1    0    0    0  501  0.00000000000E+00  0.00000000000E+00 -0.30151896388E+03  0.30151896392E+03  0.50400001928E-02 0.  1.
    10030    2    1    2    0    0  0.00000000000E+00  0.00000000000E+00  0.26543643766E+04  0.32574023044E+04  0.18881259304E+04 0.  0.
        5    1    3    3  502    0 -0.30572055119E+03 -0.67899540765E+03  0.32606880980E+03  0.81292236883E+03  0.46999998093E+01 0.  1.
       -5    1    3    3    0  502  0.30572055119E+03  0.67899540765E+03  0.23282955668E+04  0.24444799355E+04  0.46999998093E+01 0. -1.
</event>
<event>
 5   0  0.6452182E-05  0.1904425E+04  0.7818609E-02  0.8652657E-01
       -2   -1    0    0    0  501  0.00000000000E+00  0.00000000000E+00  0.70488296484E+03  0.70488296485E+03  0.25500000920E-02 0.  1.
        2   -1    0    0  501    0  0.00000000000E+00  0.00000000000E+00 -0.12863255457E+04  0.12863255457E+04  0.25500000920E-02 0. -1.
    10030    2    1    2    0    0  0.00000000000E+00  0.00000000000E+00 -0.58144258081E+03  0.19912085105E+04  0.19044253352E+04 0.  0.
        3    1    3    3  502    0 -0.23274165367E+03  0.42272393515E+03  0.56756606502E+03  0.74498016823E+03  0.10100000352E+00 0.  1.
       -3    1    3    3    0  502  0.23274165367E+03 -0.42272393515E+03 -0.11490086458E+04  0.12462283423E+04  0.10100000352E+00 0. -1.
</event>
<event>
 5   0  0.6423388E-05  0.1899216E+04  0.7818609E-02  0.8655247E-01
       -2   -1    0    0    0  501  0.00000000000E+00  0.00000000000E+00  0.11503524375E+04  0.11503524375E+04  0.25500000920E-02 0.  1.
        2   -1    0    0  501    0  0.00000000000E+00  0.00000000000E+00 -0.78389480211E+03  0.78389480212E+03  0.25500000920E-02 0. -1.
    10030    2    1    2    0    0  0.00000000000E+00  0.00000000000E+00  0.36645763540E+03  0.19342472396E+04  0.18992159397E+04 0.  0.
        2    1    3    3  502    0 -0.84069496926E+03 -0.35408876068E+03  0.45192933984E+03  0.10180309475E+04  0.25500000920E-02 0.  1.
       -2    1    3    3    0  502  0.84069496926E+03  0.35408876068E+03 -0.85471704437E+02  0.91621629217E+03  0.25500000920E-02 0. -1.
</event>
<event>
 5   0  0.3147063E-05  0.1906662E+04  0.7818609E-02  0.8651547E-01
        1   -1    0    0  501    0  0.00000000000E+00  0.00000000000E+00  0.96100897709E+03  0.96100897710E+03  0.50400001928E-02 0.  1.
       -1   -1    0    0    0  501  0.00000000000E+00  0.00000000000E+00 -0.94571476002E+03  0.94571476003E+03  0.50400001928E-02 0. -1.
    10030    2    1    2    0    0  0.00000000000E+00  0.00000000000E+00  0.15294217072E+02  0.19067237371E+04  0.19066623971E+04 0.  0.
        5    1    3    3  502    0  0.55775746688E+03  0.71596992281E+03  0.29939603888E+03  0.95570204579E+03  0.46999998093E+01 0.  1.
       -5    1    3    3    0  502 -0.55775746688E+03 -0.71596992281E+03 -0.28410182181E+03  0.95102169134E+03  0.46999998093E+01 0. -1.
</event>
<event>
 5   0  0.6452182E-05  0.1896182E+04  0.7818609E-02  0.8656759E-01
        2   -1    0    0  501    0  0.00000000000E+00  0.00000000000E+00  0.10377953068E+04  0.10377953068E+04  0.25500000920E-02 0.  1.
       -2   -1    0    0    0  501  0.00000000000E+00  0.00000000000E+00 -0.86614070329E+03  0.86614070330E+03  0.25500000920E-02 0. -1.
    10030    2    1    2    0    0  0.00000000000E+00  0.00000000000E+00  0.17165460349E+03  0.19039360101E+04  0.18961822243E+04 0.  0.
        3    1    3    3  502    0  0.63858700366E+03  0.54002188080E+03 -0.36260812638E+03  0.91153807189E+03  0.10100000352E+00 0.  1.
       -3    1    3    3    0  502 -0.63858700366E+03 -0.54002188080E+03  0.53426272987E+03  0.99239793819E+03  0.10100000352E+00 0. -1.
</event>
<event>
 5   0  0.6361762E-05  0.1932139E+04  0.7818609E-02  0.8639022E-01
       -2   -1    0    0    0  501  0.00000000000E+00  0.00000000000E+00  0.56364782259E+03  0.56364782259E+03  0.25500000920E-02 0.  1.
        2   -1    0    0  501    0  0.00000000000E+00  0.00000000000E+00 -0.16558045918E+04  0.16558045918E+04  0.25500000920E-02 0. -1.
    10030    2    1    2    0    0  0.00000000000E+00  0.00000000000E+00 -0.10921567692E+04  0.22194524144E+04  0.19321393871E+04 0.  0.
        1    1    3    3  502    0  0.82444774419E+03  0.50298030974E+03 -0.51823858056E+03  0.10960266882E+04  0.50400001928E-02 0.  1.
       -1    1    3    3    0  502 -0.82444774419E+03 -0.50298030974E+03 -0.57391818861E+03  0.11234257261E+04  0.50400001928E-02 0. -1.
</event>
<event>
 5   0  0.6395992E-05  0.1909057E+04  0.7818609E-02  0.8650361E-01
       -2   -1    0    0    0  501  0.00000000000E+00  0.00000000000E+00  0.13315900494E+04  0.13315900494E+04  0.25500000920E-02 0. -1.
        2   -1    0    0  501    0  0.00000000000E+00  0.00000000000E+00 -0.68423811878E+03  0.68423811878E+03  0.25500000920E-02 0.  1.
    10030    2    1    2    0    0  0.00000000000E+00  0.00000000000E+00  0.64735193058E+03  0.20158281681E+04  0.19090570137E+04 0.  0.
        4    1    3    3  502    0  0.12820866168E+03  0.89941426152E+03  0.63286586153E+03  0.11072056206E+04  0.12699999809E+01 0. -1.
       -4    1    3    3    0  502 -0.12820866168E+03 -0.89941426152E+03  0.14486069051E+02  0.90862254752E+03  0.12699999809E+01 0.  1.
</event>
<event>
 5   0  0.6423388E-05  0.1899751E+04  0.7818609E-02  0.8654980E-01
       -2   -1    0    0    0  501  0.00000000000E+00  0.00000000000E+00  0.59702004552E+03  0.59702004552E+03  0.25500000920E-02 0.  1.
        2   -1    0    0  501    0  0.00000000000E+00  0.00000000000E+00 -0.15112785667E+04  0.15112785667E+04  0.25500000920E-02 0. -1.
    10030    2    1    2    0    0  0.00000000000E+00  0.00000000000E+00 -0.91425852122E+03  0.21082986123E+04  0.18997511402E+04 0.  0.
        2    1    3    3  502    0 -0.92215963453E+02 -0.29773489926E+03 -0.14529107054E+04  0.14859674869E+04  0.25500000920E-02 0. -1.
       -2    1    3    3    0  502  0.92215963453E+02  0.29773489926E+03  0.53865218416E+03  0.62233112541E+03  0.25500000920E-02 0.  1.
</event>
<event>
 5   0  0.3147063E-05  0.1909542E+04  0.7818609E-02  0.8650121E-01
        1   -1    0    0  501    0  0.00000000000E+00  0.00000000000E+00  0.67048325357E+03  0.67048325359E+03  0.50400001928E-02 0. -1.
       -1   -1    0    0    0  501  0.00000000000E+00  0.00000000000E+00 -0.13595976647E+04  0.13595976648E+04  0.50400001928E-02 0.  1.
    10030    2    1    2    0    0  0.00000000000E+00  0.00000000000E+00 -0.68911441118E+03  0.20300809183E+04  0.19095417941E+04 0.  0.
        5    1    3    3  502    0 -0.11418521598E+03  0.16109425775E+03  0.64852625991E+03  0.67793659233E+03  0.46999998093E+01 0. -1.
       -5    1    3    3    0  502  0.11418521598E+03 -0.16109425775E+03 -0.13376406711E+04  0.13521443260E+04  0.46999998093E+01 0.  1.
</event>
<event>
 5   0  0.6423388E-05  0.1904641E+04  0.7818609E-02  0.8652550E-01
        2   -1    0    0  501    0  0.00000000000E+00  0.00000000000E+00  0.78708645879E+03  0.78708645880E+03  0.25500000920E-02 0.  1.
       -2   -1    0    0    0  501  0.00000000000E+00  0.00000000000E+00 -0.11522421530E+04  0.11522421530E+04  0.25500000920E-02 0. -1.
    10030    2    1    2    0    0  0.00000000000E+00  0.00000000000E+00 -0.36515569416E+03  0.19393286118E+04  0.19046408542E+04 0.  0.
        2    1    3    3  502    0 -0.50092632943E+03  0.26115967494E+03  0.59805475315E+03  0.82267919088E+03  0.25500000920E-02 0.  1.
       -2    1    3    3    0  502  0.50092632943E+03 -0.26115967494E+03 -0.96321044732E+03  0.11166494209E+04  0.25500000920E-02 0. -1.
</event>
<event>
 5   0  0.3147063E-05  0.1899479E+04  0.7818609E-02  0.8655116E-01
        1   -1    0    0  501    0  0.00000000000E+00  0.00000000000E+00  0.13129924984E+04  0.13129924984E+04  0.50400001928E-02 0. -1.
       -1   -1    0    0    0  501  0.00000000000E+00  0.00000000000E+00 -0.68698435814E+03  0.68698435816E+03  0.50400001928E-02 0.  1.
    10030    2    1    2    0    0  0.00000000000E+00  0.00000000000E+00  0.62600814028E+03  0.19999768566E+04  0.18994792010E+04 0.  0.
        5    1    3    3  502    0  0.61746023993E+03  0.54241261906E+03 -0.18811225150E+03  0.84313516495E+03  0.46999998093E+01 0.  1.
       -5    1    3    3    0  502 -0.61746023993E+03 -0.54241261906E+03  0.81412039178E+03  0.11568416916E+04  0.46999998093E+01 0. -1.
</event>
<event>
 5   0  0.3144958E-05  0.1946287E+04  0.7818609E-02  0.8632153E-01
       -1   -1    0    0    0  501  0.00000000000E+00  0.00000000000E+00  0.10374195938E+04  0.10374195938E+04  0.50400001928E-02 0.  1.
        1   -1    0    0  501    0  0.00000000000E+00  0.00000000000E+00 -0.91284991520E+03  0.91284991522E+03  0.50400001928E-02 0. -1.
    10030    2    1    2    0    0  0.00000000000E+00  0.00000000000E+00  0.12456967860E+03  0.19502695090E+04  0.19462871199E+04 0.  0.
        4    1    3    3  502    0  0.12550924845E+03  0.93902581544E+02 -0.90011593589E+03  0.91366327342E+03  0.12699999809E+01 0. -1.
       -4    1    3    3    0  502 -0.12550924845E+03 -0.93902581544E+02  0.10246856145E+04  0.10366062356E+04  0.12699999809E+01 0.  1.
</event>
<event>
 5   0  0.3086139E-05  0.1900486E+04  0.7818609E-02  0.8654615E-01
        1   -1    0    0  501    0  0.00000000000E+00  0.00000000000E+00  0.15554359965E+04  0.15554359965E+04  0.50400001928E-02 0. -1.
       -1   -1    0    0    0  501  0.00000000000E+00  0.00000000000E+00 -0.58051984842E+03  0.58051984845E+03  0.50400001928E-02 0.  1.
    10030    2    1    2    0    0  0.00000000000E+00  0.00000000000E+00  0.97491614808E+03  0.21359558450E+04  0.19004856947E+04 0.  0.
        2    1    3    3  502    0 -0.27250740669E+03  0.73543726763E+03  0.10904314194E+04  0.13431935608E+04  0.25500000920E-02 0. -1.
       -2    1    3    3    0  502  0.27250740669E+03 -0.73543726763E+03 -0.11551527129E+03  0.79276228419E+03  0.25500000920E-02 0.  1.
</event>
<event>
 5   0  0.3144958E-05  0.1896600E+04  0.7818609E-02  0.8656550E-01
        1   -1    0    0  501    0  0.00000000000E+00  0.00000000000E+00  0.10668367118E+04  0.10668367118E+04  0.50400001928E-02 0.  1.
       -1   -1    0    0    0  501  0.00000000000E+00  0.00000000000E+00 -0.84293429908E+03  0.84293429909E+03  0.50400001928E-02 0. -1.
    10030    2    1    2    0    0  0.00000000000E+00  0.00000000000E+00  0.22390241274E+03  0.19097710109E+04  0.18966003859E+04 0.  0.
        4    1    3    3  502    0  0.34709324596E+03  0.79887630834E+03 -0.26561205538E+03  0.91061981874E+03  0.12699999809E+01 0. -1.
       -4    1    3    3    0  502 -0.34709324596E+03 -0.79887630834E+03  0.48951446812E+03  0.99915119217E+03  0.12699999809E+01 0.  1.
</event>
<event>
 5   0  0.6361762E-05  0.1891434E+04  0.7818609E-02  0.8659132E-01
        2   -1    0    0  501    0  0.00000000000E+00  0.00000000000E+00  0.12006149427E+04  0.12006149427E+04  0.25500000920E-02 0.  1.
       -2   -1    0    0    0  501  0.00000000000E+00  0.00000000000E+00 -0.74493517483E+03  0.74493517483E+03  0.25500000920E-02 0. -1.
    10030    2    1    2    0    0  0.00000000000E+00  0.00000000000E+00  0.45567976790E+03  0.19455501176E+04  0.18914336386E+04 0.  0.
        1    1    3    3  502    0 -0.19287244657E+03  0.72499541848E+03 -0.36444929394E+03  0.83405121267E+03  0.50400001928E-02 0.  1.
       -1    1    3    3    0  502  0.19287244657E+03 -0.72499541848E+03  0.82012906184E+03  0.11114989049E+04  0.50400001928E-02 0. -1.
</event>
<event>
 5   0  0.6395992E-05  0.1901561E+04  0.7818609E-02  0.8654080E-01
       -2   -1    0    0    0  501  0.00000000000E+00  0.00000000000E+00  0.52714324110E+03  0.52714324110E+03  0.25500000920E-02 0. -1.
        2   -1    0    0  501    0  0.00000000000E+00  0.00000000000E+00 -0.17148724965E+04  0.17148724965E+04  0.25500000920E-02 0.  1.
    10030    2    1    2    0    0  0.00000000000E+00  0.00000000000E+00 -0.11877292554E+04  0.22420157376E+04  0.19015608809E+04 0.  0.
        4    1    3    3  502    0  0.59151086319E+03  0.68264059780E+03 -0.24390915253E+03  0.93561561264E+03  0.12699999809E+01 0. -1.
       -4    1    3    3    0  502 -0.59151086319E+03 -0.68264059780E+03 -0.94382010290E+03  0.13064001250E+04  0.12699999809E+01 0.  1.
</event>
<event>
 5   0  0.3083469E-05  0.1904627E+04  0.7818609E-02  0.8652557E-01
       -1   -1    0    0    0  501  0.00000000000E+00  0.00000000000E+00  0.53751867630E+03  0.53751867633E+03  0.50400001928E-02 0.  1.
        1   -1    0    0  501    0  0.00000000000E+00  0.00000000000E+00 -0.16871989525E+04  0.16871989525E+04  0.50400001928E-02 0. -1.
    10030    2    1    2    0    0  0.00000000000E+00  0.00000000000E+00 -0.11496802762E+04  0.22247176288E+04  0.19046269426E+04 0.  0.
        3    1    3    3  502    0 -0.50907186633E+03 -0.59251479998E+02 -0.15123751151E+04  0.15968542206E+04  0.10100000352E+00 0. -1.
       -3    1    3    3    0  502  0.50907186633E+03  0.59251479998E+02  0.36269483891E+03  0.62786340819E+03  0.10100000352E+00 0.  1.
</event>
<event>
 5   0  0.6452182E-05  0.1900527E+04  0.7818609E-02  0.8654594E-01
       -2   -1    0    0    0  501  0.00000000000E+00  0.00000000000E+00  0.63564022426E+03  0.63564022427E+03  0.25500000920E-02 0.  1.
        2   -1    0    0  501    0  0.00000000000E+00  0.00000000000E+00 -0.14206155530E+04  0.14206155530E+04  0.25500000920E-02 0. -1.
    10030    2    1    2    0    0  0.00000000000E+00  0.00000000000E+00 -0.78497532871E+03  0.20562557772E+04  0.19005266520E+04 0.  0.
        3    1    3    3  502    0 -0.21810846442E+03 -0.86627386984E+03 -0.41901278972E+02  0.89429158958E+03  0.10100000352E+00 0.  1.
       -3    1    3    3    0  502  0.21810846442E+03  0.86627386984E+03 -0.74307404974E+03  0.11619641877E+04  0.10100000352E+00 0. -1.
</event>
<event>
 5   0  0.3083469E-05  0.1899925E+04  0.7818609E-02  0.8654894E-01
        1   -1    0    0  501    0  0.00000000000E+00  0.00000000000E+00  0.10563997440E+04  0.10563997440E+04  0.50400001928E-02 0. -1.
       -1   -1    0    0    0  501  0.00000000000E+00  0.00000000000E+00 -0.85424895467E+03  0.85424895469E+03  0.50400001928E-02 0.  1.
    10030    2    1    2    0    0  0.00000000000E+00  0.00000000000E+00  0.20215078928E+03  0.19106486987E+04  0.18999246059E+04 0.  0.
        3    1    3    3  502    0  0.43307807215E+03 -0.23011964490E+03  0.91925028035E+03  0.10418890323E+04  0.10100000352E+00 0. -1.
       -3    1    3    3    0  502 -0.43307807215E+03  0.23011964490E+03 -0.71709949107E+03  0.86875966633E+03  0.10100000352E+00 0.  1.
</event>
<event>
 5   0  0.3086139E-05  0.1899614E+04  0.7818609E-02  0.8655049E-01
        1   -1    0    0  501    0  0.00000000000E+00  0.00000000000E+00  0.12438533545E+04  0.12438533545E+04  0.50400001928E-02 0.  1.
       -1   -1    0    0    0  501  0.00000000000E+00  0.00000000000E+00 -0.72527290608E+03  0.72527290610E+03  0.50400001928E-02 0. -1.
    10030    2    1    2    0    0  0.00000000000E+00  0.00000000000E+00  0.51858044840E+03  0.19691262606E+04  0.18996137894E+04 0.  0.
        2    1    3    3  502    0 -0.32815245279E+03  0.18723169812E+03 -0.64402984391E+03  0.74666872233E+03  0.25500000920E-02 0. -1.
       -2    1    3    3    0  502  0.32815245279E+03 -0.18723169812E+03  0.11626102923E+04  0.12224575383E+04  0.25500000920E-02 0.  1.
</event>
<event>
 5   0  0.6423388E-05  0.1906898E+04  0.7818609E-02  0.8651430E-01
       -2   -1    0    0    0  501  0.00000000000E+00  0.00000000000E+00  0.12352779573E+04  0.12352779573E+04  0.25500000920E-02 0. -1.
        2   -1    0    0  501    0  0.00000000000E+00  0.00000000000E+00 -0.73591954234E+03  0.73591954235E+03  0.25500000920E-02 0.  1.
    10030    2    1    2    0    0  0.00000000000E+00  0.00000000000E+00  0.49935841499E+03  0.19711974997E+04  0.19068982029E+04 0.  0.
        2    1    3    3  502    0 -0.11286367821E+03  0.13886505686E+03  0.12177635391E+04  0.12308410746E+04  0.25500000920E-02 0. -1.
       -2    1    3    3    0  502  0.11286367821E+03 -0.13886505686E+03 -0.71840512406E+03  0.74035642508E+03  0.25500000920E-02 0.  1.
</event>
<event>
 5   0  0.2279625E-05  0.1896682E+04  0.7818609E-02  0.8656510E-01
        3   -1    0    0  501    0  0.00000000000E+00  0.00000000000E+00  0.16964346434E+04  0.16964346464E+04  0.10100000352E+00 0.  1.
       -3   -1    0    0    0  501  0.00000000000E+00  0.00000000000E+00 -0.53014153222E+03  0.53014154184E+03  0.10100000352E+00 0. -1.
    10030    2    1    2    0    0  0.00000000000E+00  0.00000000000E+00  0.11662931112E+04  0.22265761882E+04  0.18966818133E+04 0.  0.
        2    1    3    3  502    0  0.74832497791E+02 -0.63528336024E+03  0.14050380874E+04  0.15437994940E+04  0.25500000920E-02 0.  1.
       -2    1    3    3    0  502 -0.74832497791E+02  0.63528336024E+03 -0.23874497625E+03  0.68277669425E+03  0.25500000920E-02 0. -1.
</event>
<event>
 5   0  0.3203527E-05  0.1880211E+04  0.7818609E-02  0.8664770E-01
       -1   -1    0    0    0  501  0.00000000000E+00  0.00000000000E+00  0.84248170955E+03  0.84248170957E+03  0.50400001928E-02 0. -1.
        1   -1    0    0  501    0  0.00000000000E+00  0.00000000000E+00 -0.10490415046E+04  0.10490415046E+04  0.50400001928E-02 0.  1.
    10030    2    1    2    0    0  0.00000000000E+00  0.00000000000E+00 -0.20655979501E+03  0.18915232141E+04  0.18802109245E+04 0.  0.
        1    1    3    3  502    0 -0.90519792939E+03 -0.12258642924E+03 -0.32685007528E+03  0.97017611583E+03  0.50400001928E-02 0.  1.
       -1    1    3    3    0  502  0.90519792939E+03  0.12258642924E+03  0.12029028027E+03  0.92134709830E+03  0.50400001928E-02 0. -1.
</event>
<event>
 5   0  0.6395992E-05  0.1821577E+04  0.7818609E-02  0.8694909E-01
       -2   -1    0    0    0  501  0.00000000000E+00  0.00000000000E+00  0.93606198493E+03  0.93606198493E+03  0.25500000920E-02 0.  1.
        2   -1    0    0  501    0  0.00000000000E+00  0.00000000000E+00 -0.88619711581E+03  0.88619711582E+03  0.25500000920E-02 0. -1.
    10030    2    1    2    0    0  0.00000000000E+00  0.00000000000E+00  0.49864869111E+02  0.18222591007E+04  0.18215767140E+04 0.  0.
        4    1    3    3  502    0 -0.52911440637E+02  0.18007071045E+03  0.91650630454E+03  0.93552685716E+03  0.12699999809E+01 0.  1.
       -4    1    3    3    0  502  0.52911440637E+02 -0.18007071045E+03 -0.86664143543E+03  0.88673224358E+03  0.12699999809E+01 0. -1.
</event>
<event>
 5   0  0.3203527E-05  0.1867617E+04  0.7818609E-02  0.8671145E-01
       -1   -1    0    0    0  501  0.00000000000E+00  0.00000000000E+00  0.26400053537E+04  0.26400053537E+04  0.50400001928E-02 0. -1.
        1   -1    0    0  501    0  0.00000000000E+00  0.00000000000E+00 -0.33030188406E+03  0.33030188409E+03  0.50400001928E-02 0.  1.
    10030    2    1    2    0    0  0.00000000000E+00  0.00000000000E+00  0.23097034696E+04  0.29703072378E+04  0.18676174579E+04 0.  0.
        1    1    3    3  502    0  0.35903862321E+03  0.82674895058E+03  0.15430465964E+04  0.17870129711E+04  0.50400001928E-02 0. -1.
       -1    1    3    3    0  502 -0.35903862321E+03 -0.82674895058E+03  0.76665687324E+03  0.11832942667E+04  0.50400001928E-02 0.  1.
</event>
<event>
 5   0  0.6395992E-05  0.1900021E+04  0.7818609E-02  0.8654846E-01
       -2   -1    0    0    0  501  0.00000000000E+00  0.00000000000E+00  0.13716092743E+04  0.13716092743E+04  0.25500000920E-02 0. -1.
        2   -1    0    0  501    0  0.00000000000E+00  0.00000000000E+00 -0.65800104456E+03  0.65800104456E+03  0.25500000920E-02 0.  1.
    10030    2    1    2    0    0  0.00000000000E+00  0.00000000000E+00  0.71360822969E+03  0.20296103188E+04  0.19000214053E+04 0.  0.
        4    1    3    3  502    0  0.93499676284E+03 -0.43560315182E+02  0.53037418589E+03  0.10758321605E+04  0.12699999809E+01 0.  1.
       -4    1    3    3    0  502 -0.93499676284E+03  0.43560315182E+02  0.18323404381E+03  0.95377815832E+03  0.12699999809E+01 0. -1.
</event>
<event>
 5   0  0.6098377E-05  0.1900477E+04  0.7818609E-02  0.8654619E-01
        2   -1    0    0  501    0  0.00000000000E+00  0.00000000000E+00  0.29975752182E+04  0.29975752182E+04  0.25500000920E-02 0.  1.
       -2   -1    0    0    0  501  0.00000000000E+00  0.00000000000E+00 -0.30122786213E+03  0.30122786214E+03  0.25500000920E-02 0. -1.
    10030    2    1    2    0    0  0.00000000000E+00  0.00000000000E+00  0.26963473561E+04  0.32988030803E+04  0.19004769660E+04 0.  0.
        5    1    3    3  502    0 -0.17538124880E+03 -0.93379958583E+03  0.13241950948E+04  0.16298021315E+04  0.46999998093E+01 0.  1.
       -5    1    3    3    0  502  0.17538124880E+03  0.93379958583E+03  0.13721522613E+04  0.16690009488E+04  0.46999998093E+01 0. -1.
</event>
<event>
 5   0  0.3144958E-05  0.1896381E+04  0.7818609E-02  0.8656660E-01
       -1   -1    0    0    0  501  0.00000000000E+00  0.00000000000E+00  0.72068641117E+03  0.72068641119E+03  0.50400001928E-02 0.  1.
        1   -1    0    0  501    0  0.00000000000E+00  0.00000000000E+00 -0.12475126091E+04  0.12475126091E+04  0.50400001928E-02 0. -1.
    10030    2    1    2    0    0  0.00000000000E+00  0.00000000000E+00 -0.52682619790E+03  0.19681990203E+04  0.18963811697E+04 0.  0.
        4    1    3    3  502    0  0.84221379512E+03  0.43272647955E+03 -0.21164955510E+03  0.97024400533E+03  0.12699999809E+01 0. -1.
       -4    1    3    3    0  502 -0.84221379512E+03 -0.43272647955E+03 -0.31517664280E+03  0.99795501495E+03  0.12699999809E+01 0.  1.
</event>
<event>
 5   0  0.6098377E-05  0.1942749E+04  0.7818609E-02  0.8633865E-01
       -2   -1    0    0    0  501  0.00000000000E+00  0.00000000000E+00  0.96495961639E+03  0.96495961639E+03  0.25500000920E-02 0. -1.
        2   -1    0    0  501    0  0.00000000000E+00  0.00000000000E+00 -0.97783208176E+03  0.97783208176E+03  0.25500000920E-02 0.  1.
    10030    2    1    2    0    0  0.00000000000E+00  0.00000000000E+00 -0.12872465371E+02  0.19427916982E+04  0.19427490528E+04 0.  0.
        5    1    3    3  502    0 -0.12443743722E+03 -0.70046335341E+03 -0.66782265438E+03  0.97577803468E+03  0.46999998093E+01 0.  1.
       -5    1    3    3    0  502  0.12443743722E+03  0.70046335341E+03  0.65495018901E+03  0.96701366347E+03  0.46999998093E+01 0. -1.
</event>
<event>
 5   0  0.3086139E-05  0.1899697E+04  0.7818609E-02  0.8655007E-01
       -1   -1    0    0    0  501  0.00000000000E+00  0.00000000000E+00  0.16533074959E+04  0.16533074960E+04  0.50400001928E-02 0.  1.
        1   -1    0    0  501    0  0.00000000000E+00  0.00000000000E+00 -0.54570119388E+03  0.54570119390E+03  0.50400001928E-02 0. -1.
    10030    2    1    2    0    0  0.00000000000E+00  0.00000000000E+00  0.11076063021E+04  0.21990086899E+04  0.18996966857E+04 0.  0.
        2    1    3    3  502    0 -0.90388659860E+03  0.27766880212E+03  0.65798931699E+03  0.11519812881E+04  0.25500000920E-02 0.  1.
       -2    1    3    3    0  502  0.90388659860E+03 -0.27766880212E+03  0.44961698508E+03  0.10470274018E+04  0.25500000920E-02 0. -1.
</event>
<event>
 5   0  0.6423388E-05  0.1900166E+04  0.7818609E-02  0.8654774E-01
       -2   -1    0    0    0  501  0.00000000000E+00  0.00000000000E+00  0.45901881436E+03  0.45901881436E+03  0.25500000920E-02 0. -1.
        2   -1    0    0  501    0  0.00000000000E+00  0.00000000000E+00 -0.19664932577E+04  0.19664932577E+04  0.25500000920E-02 0.  1.
    10030    2    1    2    0    0  0.00000000000E+00  0.00000000000E+00 -0.15074744434E+04  0.24255120721E+04  0.19001656808E+04 0.  0.
        2    1    3    3  502    0  0.19911855960E+03 -0.50923325213E+03 -0.17455260511E+04  0.18291604361E+04  0.25500000920E-02 0.  1.
       -2    1    3    3    0  502 -0.19911855960E+03  0.50923325213E+03  0.23805160771E+03  0.59635163603E+03  0.25500000920E-02 0. -1.
</event>
<event>
 5   0  0.3147063E-05  0.1900537E+04  0.7818609E-02  0.8654589E-01
       -1   -1    0    0    0  501  0.00000000000E+00  0.00000000000E+00  0.40464524083E+03  0.40464524086E+03  0.50400001928E-02 0. -1.
        1   -1    0    0  501    0  0.00000000000E+00  0.00000000000E+00 -0.22316100804E+04  0.22316100804E+04  0.50400001928E-02 0.  1.
    10030    2    1    2    0    0  0.00000000000E+00  0.00000000000E+00 -0.18269648396E+04  0.26362553213E+04  0.19005371856E+04 0.  0.
        5    1    3    3  502    0 -0.35371434948E+03 -0.42862548423E+03  0.15572226377E+03  0.57715263163E+03  0.46999998093E+01 0. -1.
       -5    1    3    3    0  502  0.35371434948E+03  0.42862548423E+03 -0.19826871034E+04  0.20591026897E+04  0.46999998093E+01 0.  1.
</event>
</LesHouchesEvents>
